<event>
 8    1  0.2962813E-009  0.9118800E+02  0.7816164E-02  0.1184000E+00
        -11   -1    0    0    0    0  0.00000000000E+00  0.00000000000E+00  0.45593999997E+02  0.45594000000E+02  0.51100000000E-03 0. -1.
         11   -1    0    0    0    0 -0.00000000000E+00 -0.00000000000E+00 -0.45593999997E+02  0.45594000000E+02  0.51100000000E-03 0.  1.
         23    2    1    2    0    0 -0.44408920985E-15  0.00000000000E+00  0.00000000000E+00  0.91188000000E+02  0.91188000000E+02 0.  0.
    9900012    2    3    3    0    0 -0.38883498848E+01 -0.89495999220E+01  0.43976118333E+02  0.46142316664E+02  0.99999899943E+01 0.  0.
        -12    1    3    3    0    0  0.38883498848E+01  0.89495999220E+01 -0.43976118333E+02  0.45045683336E+02  0.00000000000E+00 0.  1.
         11    1    4    4    0    0 -0.44145247986E+01 -0.34139565695E+01  0.13236962973E+02  0.14365246871E+02  0.51100000000E-03 0.  1.
        -11    1    4    4    0    0 -0.23247732338E+01 -0.33517240229E+01  0.21099376407E+02  0.21490051409E+02  0.51100000000E-03 0. -1.
        -12    1    4    4    0    0  0.28509481476E+01 -0.21839193295E+01  0.96397789526E+01  0.10287018384E+02  0.00000000000E+00 0.  1.
</event>
<event>
 8    1  0.2962813E-009  0.9118800E+02  0.7816164E-02  0.1184000E+00
        -11   -1    0    0    0    0  0.00000000000E+00  0.00000000000E+00  0.45593999997E+02  0.45594000000E+02  0.51100000000E-03 0.  1.
         11   -1    0    0    0    0 -0.00000000000E+00 -0.00000000000E+00 -0.45593999997E+02  0.45594000000E+02  0.51100000000E-03 0. -1.
         23    2    1    2    0    0  0.00000000000E+00  0.00000000000E+00  0.00000000000E+00  0.91188000000E+02  0.91188000000E+02 0.  0.
    9900012    2    3    3    0    0 -0.14146604035E+02 -0.23817937292E+02  0.35520319590E+02  0.46142316007E+02  0.99999840064E+01 0.  0.
        -12    1    3    3    0    0  0.14146604035E+02  0.23817937292E+02 -0.35520319590E+02  0.45045683993E+02  0.00000000000E+00 0.  1.
         11    1    4    4    0    0 -0.75542749199E+01 -0.96966637299E+01  0.11888405924E+02  0.17100483991E+02  0.51100000000E-03 0. -1.
        -11    1    4    4    0    0 -0.41255838604E+01 -0.59714968714E+01  0.16153292834E+02  0.17708983221E+02  0.51100000000E-03 0.  1.
        -12    1    4    4    0    0 -0.24667452548E+01 -0.81497766907E+01  0.74786208328E+01  0.11332848795E+02  0.00000000000E+00 0.  1.
</event>
<event>
 8    1  0.2962813E-009  0.9118800E+02  0.7816164E-02  0.1184000E+00
        -11   -1    0    0    0    0  0.00000000000E+00  0.00000000000E+00  0.45593999997E+02  0.45594000000E+02  0.51100000000E-03 0. -1.
         11   -1    0    0    0    0 -0.00000000000E+00 -0.00000000000E+00 -0.45593999997E+02  0.45594000000E+02  0.51100000000E-03 0.  1.
         23    2    1    2    0    0 -0.35527136788E-14 -0.17763568394E-14  0.00000000000E+00  0.91188000000E+02  0.91188000000E+02 0.  0.
    9900012    2    3    3    0    0 -0.28059922662E+02  0.14077886319E+02 -0.32304292661E+02  0.46142317994E+02  0.10000002127E+02 0.  0.
         12    1    3    3    0    0  0.28059922662E+02 -0.14077886319E+02  0.32304292661E+02  0.45045682006E+02  0.00000000000E+00 0. -1.
         11    1    4    4    0    0 -0.35520173279E+01 -0.62152178017E+00 -0.16982748409E+01  0.39858818494E+01  0.51100000000E-03 0. -1.
        -11    1    4    4    0    0 -0.16114167084E+02  0.71764081537E+01 -0.20169588214E+02  0.26795139555E+02  0.51100000000E-03 0.  1.
         12    1    4    4    0    0 -0.83937382501E+01  0.75229999455E+01 -0.10436429606E+02  0.15361296590E+02  0.00000000000E+00 0. -1.
</event>
<event>
 8    1  0.2962813E-009  0.9118800E+02  0.7816164E-02  0.1184000E+00
        -11   -1    0    0    0    0  0.00000000000E+00  0.00000000000E+00  0.45593999997E+02  0.45594000000E+02  0.51100000000E-03 0. -1.
         11   -1    0    0    0    0 -0.00000000000E+00 -0.00000000000E+00 -0.45593999997E+02  0.45594000000E+02  0.51100000000E-03 0.  1.
         23    2    1    2    0    0 -0.35527136788E-14  0.00000000000E+00  0.71054273576E-14  0.91188000000E+02  0.91188000000E+02 0.  0.
    9900012    2    3    3    0    0 -0.19061211315E+02 -0.12550997516E+02  0.38836271407E+02  0.46142319938E+02  0.10000019851E+02 0.  0.
        -12    1    3    3    0    0  0.19061211315E+02  0.12550997516E+02 -0.38836271407E+02  0.45045680062E+02  0.00000000000E+00 0.  1.
         11    1    4    4    0    0 -0.39568905151E+01 -0.32182546444E+01  0.15381839465E+02  0.16205404379E+02  0.51100000000E-03 0. -1.
        -11    1    4    4    0    0 -0.14071319301E+02 -0.70904775893E+01  0.22035305627E+02  0.27089326194E+02  0.51100000000E-03 0.  1.
        -12    1    4    4    0    0 -0.10330014985E+01 -0.22422652824E+01  0.14191263158E+01  0.28475893652E+01  0.00000000000E+00 0.  1.
</event>
<event>
 8    1  0.2962813E-009  0.9118800E+02  0.7816164E-02  0.1184000E+00
        -11   -1    0    0    0    0  0.00000000000E+00  0.00000000000E+00  0.45593999997E+02  0.45594000000E+02  0.51100000000E-03 0. -1.
         11   -1    0    0    0    0 -0.00000000000E+00 -0.00000000000E+00 -0.45593999997E+02  0.45594000000E+02  0.51100000000E-03 0.  1.
         23    2    1    2    0    0 -0.22204460493E-15 -0.17763568394E-14  0.00000000000E+00  0.91188000000E+02  0.91188000000E+02 0.  0.
    9900012    2    3    3    0    0  0.64387522175E+00  0.13220710970E+02  0.43057075736E+02  0.46142317135E+02  0.99999942893E+01 0.  0.
        -12    1    3    3    0    0 -0.64387522175E+00 -0.13220710970E+02 -0.43057075736E+02  0.45045682865E+02  0.00000000000E+00 0.  1.
         11    1    4    4    0    0 -0.28941855818E+01  0.46429892851E+01  0.19551893685E+02  0.20302960538E+02  0.51100000000E-03 0. -1.
        -11    1    4    4    0    0  0.19791840300E+01  0.89174628409E+01  0.19820087497E+02  0.21823706871E+02  0.51100000000E-03 0.  1.
        -12    1    4    4    0    0  0.15588767735E+01 -0.33974115571E+00  0.36850945537E+01  0.40156497255E+01  0.00000000000E+00 0.  1.
</event>
<event>
 8    1  0.2962813E-009  0.9118800E+02  0.7816164E-02  0.1184000E+00
        -11   -1    0    0    0    0  0.00000000000E+00  0.00000000000E+00  0.45593999997E+02  0.45594000000E+02  0.51100000000E-03 0. -1.
         11   -1    0    0    0    0 -0.00000000000E+00 -0.00000000000E+00 -0.45593999997E+02  0.45594000000E+02  0.51100000000E-03 0.  1.
         23    2    1    2    0    0  0.00000000000E+00  0.00000000000E+00 -0.17763568394E-14  0.91188000000E+02  0.91188000000E+02 0.  0.
    9900012    2    3    3    0    0 -0.30323595584E+02 -0.32651433639E+02 -0.65936935759E+01  0.46142319155E+02  0.10000012714E+02 0.  0.
         12    1    3    3    0    0  0.30323595584E+02  0.32651433639E+02  0.65936935759E+01  0.45045680845E+02  0.00000000000E+00 0. -1.
         11    1    4    4    0    0 -0.65487266924E+01 -0.38199795726E+01 -0.19923502867E+01  0.78388471826E+01  0.51100000000E-03 0. -1.
        -11    1    4    4    0    0 -0.13628624468E+02 -0.13090934280E+02 -0.50862935235E+01  0.19569934779E+02  0.51100000000E-03 0.  1.
        -12    1    4    4    0    0 -0.10146244423E+02 -0.15740519787E+02  0.48495023436E+00  0.18733537193E+02  0.00000000000E+00 0.  1.
</event>
<event>
 8    1  0.2962813E-009  0.9118800E+02  0.7816164E-02  0.1184000E+00
        -11   -1    0    0    0    0  0.00000000000E+00  0.00000000000E+00  0.45593999997E+02  0.45594000000E+02  0.51100000000E-03 0. -1.
         11   -1    0    0    0    0 -0.00000000000E+00 -0.00000000000E+00 -0.45593999997E+02  0.45594000000E+02  0.51100000000E-03 0.  1.
         23    2    1    2    0    0  0.88817841970E-15  0.00000000000E+00  0.00000000000E+00  0.91188000000E+02  0.91188000000E+02 0.  0.
    9900012    2    3    3    0    0  0.48103897718E+01  0.30399868535E+02  0.32891056208E+02  0.46142318351E+02  0.10000005381E+02 0.  0.
        -12    1    3    3    0    0 -0.48103897718E+01 -0.30399868535E+02 -0.32891056208E+02  0.45045681649E+02  0.00000000000E+00 0.  1.
         11    1    4    4    0    0 -0.23921478593E+01  0.91333326876E+01  0.96400486889E+01  0.13493356749E+02  0.51100000000E-03 0. -1.
        -11    1    4    4    0    0  0.36055348150E+01  0.97685944742E+01  0.75664422553E+01  0.12871533241E+02  0.51100000000E-03 0.  1.
        -12    1    4    4    0    0  0.35970028161E+01  0.11497941373E+02  0.15684565264E+02  0.19777428362E+02  0.00000000000E+00 0.  1.
</event>
<event>
 8    1  0.2962813E-009  0.9118800E+02  0.7816164E-02  0.1184000E+00
        -11   -1    0    0    0    0  0.00000000000E+00  0.00000000000E+00  0.45593999997E+02  0.45594000000E+02  0.51100000000E-03 0. -1.
         11   -1    0    0    0    0 -0.00000000000E+00 -0.00000000000E+00 -0.45593999997E+02  0.45594000000E+02  0.51100000000E-03 0.  1.
         23    2    1    2    0    0  0.00000000000E+00  0.00000000000E+00  0.00000000000E+00  0.91188000000E+02  0.91188000000E+02 0.  0.
    9900012    2    3    3    0    0 -0.13063913551E+02  0.24119879035E+02  0.35730648707E+02  0.46142315868E+02  0.99999827365E+01 0.  0.
        -12    1    3    3    0    0  0.13063913551E+02 -0.24119879035E+02 -0.35730648707E+02  0.45045684132E+02  0.00000000000E+00 0.  1.
         11    1    4    4    0    0 -0.95738989141E+01  0.21586954270E+02  0.32150848137E+02  0.39891517536E+02  0.51100000000E-03 0. -1.
        -11    1    4    4    0    0 -0.32244499631E+01  0.29328885488E+01  0.23972518475E+01  0.49745079642E+01  0.51100000000E-03 0.  1.
         12    1    4    4    0    0 -0.26556467427E+00 -0.39996378412E+00  0.11825487217E+01  0.12762903682E+01  0.00000000000E+00 0. -1.
</event>
<event>
 8    1  0.2962813E-009  0.9118800E+02  0.7816164E-02  0.1184000E+00
        -11   -1    0    0    0    0  0.00000000000E+00  0.00000000000E+00  0.45593999997E+02  0.45594000000E+02  0.51100000000E-03 0. -1.
         11   -1    0    0    0    0 -0.00000000000E+00 -0.00000000000E+00 -0.45593999997E+02  0.45594000000E+02  0.51100000000E-03 0.  1.
         23    2    1    2    0    0  0.71054273576E-14  0.00000000000E+00  0.00000000000E+00  0.91188000000E+02  0.91188000000E+02 0.  0.
    9900012    2    3    3    0    0 -0.40128543166E+02 -0.88682667079E+01 -0.18443627022E+02  0.46142317535E+02  0.99999979387E+01 0.  0.
         12    1    3    3    0    0  0.40128543166E+02  0.88682667079E+01  0.18443627022E+02  0.45045682465E+02  0.00000000000E+00 0. -1.
         11    1    4    4    0    0 -0.29540462309E+02 -0.76228305652E+01 -0.10821057103E+02  0.32370383630E+02  0.51100000000E-03 0. -1.
        -11    1    4    4    0    0 -0.56434011257E+01  0.41401389369E+00 -0.61396016580E+01  0.83494965447E+01  0.51100000000E-03 0.  1.
        -12    1    4    4    0    0 -0.49446797311E+01 -0.16594500364E+01 -0.14829682608E+01  0.54224373606E+01  0.00000000000E+00 0.  1.
</event>
<event>
 8    1  0.2962813E-009  0.9118800E+02  0.7816164E-02  0.1184000E+00
        -11   -1    0    0    0    0  0.00000000000E+00  0.00000000000E+00  0.45593999997E+02  0.45594000000E+02  0.51100000000E-03 0. -1.
         11   -1    0    0    0    0 -0.00000000000E+00 -0.00000000000E+00 -0.45593999997E+02  0.45594000000E+02  0.51100000000E-03 0.  1.
         23    2    1    2    0    0  0.00000000000E+00  0.00000000000E+00 -0.35527136788E-14  0.91188000000E+02  0.91188000000E+02 0.  0.
    9900012    2    3    3    0    0  0.21945892198E+02  0.27171799148E+02  0.28446171905E+02  0.46142317085E+02  0.99999938303E+01 0.  0.
        -12    1    3    3    0    0 -0.21945892198E+02 -0.27171799148E+02 -0.28446171905E+02  0.45045682915E+02  0.00000000000E+00 0.  1.
         11    1    4    4    0    0  0.17576743182E+02  0.21512707377E+02  0.18447468715E+02  0.33347377436E+02  0.51100000000E-03 0. -1.
        -11    1    4    4    0    0  0.11279188009E+01  0.33047008797E+01  0.68893874766E+01  0.77237884999E+01  0.51100000000E-03 0.  1.
         12    1    4    4    0    0  0.32412302148E+01  0.23543908911E+01  0.31093157131E+01  0.50711511491E+01  0.00000000000E+00 0. -1.
</event>
<event>
 8    1  0.2962813E-009  0.9118800E+02  0.7816164E-02  0.1184000E+00
        -11   -1    0    0    0    0  0.00000000000E+00  0.00000000000E+00  0.45593999997E+02  0.45594000000E+02  0.51100000000E-03 0. -1.
         11   -1    0    0    0    0 -0.00000000000E+00 -0.00000000000E+00 -0.45593999997E+02  0.45594000000E+02  0.51100000000E-03 0.  1.
         23    2    1    2    0    0 -0.17763568394E-14  0.00000000000E+00 -0.71054273576E-14  0.91188000000E+02  0.91188000000E+02 0.  0.
    9900012    2    3    3    0    0  0.11847828561E+02 -0.43478766674E+01  0.43241627732E+02  0.46142318275E+02  0.10000004687E+02 0.  0.
        -12    1    3    3    0    0 -0.11847828561E+02  0.43478766674E+01 -0.43241627732E+02  0.45045681725E+02  0.00000000000E+00 0.  1.
         11    1    4    4    0    0  0.84434769374E+01 -0.32365624356E+01  0.27666966256E+02  0.29107192604E+02  0.51100000000E-03 0. -1.
        -11    1    4    4    0    0 -0.70413506583E-01  0.73375466614E+00  0.10901467966E+02  0.10926360696E+02  0.51100000000E-03 0.  1.
        -12    1    4    4    0    0  0.34747651302E+01 -0.18450688980E+01  0.46731935100E+01  0.61087649758E+01  0.00000000000E+00 0.  1.
</event>
<event>
 8    1  0.2962813E-009  0.9118800E+02  0.7816164E-02  0.1184000E+00
        -11   -1    0    0    0    0  0.00000000000E+00  0.00000000000E+00  0.45593999997E+02  0.45594000000E+02  0.51100000000E-03 0. -1.
         11   -1    0    0    0    0 -0.00000000000E+00 -0.00000000000E+00 -0.45593999997E+02  0.45594000000E+02  0.51100000000E-03 0.  1.
         23    2    1    2    0    0 -0.88817841970E-15 -0.35527136788E-14  0.00000000000E+00  0.91188000000E+02  0.91188000000E+02 0.  0.
    9900012    2    3    3    0    0  0.69852546778E+01  0.28374967221E+02 -0.34280915736E+02  0.46142315064E+02  0.99999754016E+01 0.  0.
         12    1    3    3    0    0 -0.69852546778E+01 -0.28374967221E+02  0.34280915736E+02  0.45045684936E+02  0.00000000000E+00 0. -1.
         11    1    4    4    0    0  0.23027583642E+01  0.10009226132E+02 -0.55139808666E+01  0.11657241916E+02  0.51100000000E-03 0. -1.
        -11    1    4    4    0    0  0.24691023361E+01  0.78329169729E+01 -0.13597468669E+02  0.15885282784E+02  0.51100000000E-03 0.  1.
         12    1    4    4    0    0  0.22133939774E+01  0.10532824116E+02 -0.15169466200E+02  0.18599790363E+02  0.00000000000E+00 0. -1.
</event>
<event>
 8    1  0.2962813E-009  0.9118800E+02  0.7816164E-02  0.1184000E+00
        -11   -1    0    0    0    0  0.00000000000E+00  0.00000000000E+00  0.45593999997E+02  0.45594000000E+02  0.51100000000E-03 0.  1.
         11   -1    0    0    0    0 -0.00000000000E+00 -0.00000000000E+00 -0.45593999997E+02  0.45594000000E+02  0.51100000000E-03 0. -1.
         23    2    1    2    0    0 -0.71054273576E-14  0.00000000000E+00 -0.17763568394E-14  0.91188000000E+02  0.91188000000E+02 0.  0.
    9900012    2    3    3    0    0  0.43460508959E+02  0.43670890396E+01  0.11010274138E+02  0.46142318273E+02  0.10000004667E+02 0.  0.
         12    1    3    3    0    0 -0.43460508959E+02 -0.43670890396E+01 -0.11010274138E+02  0.45045681727E+02  0.00000000000E+00 0. -1.
         11    1    4    4    0    0  0.13043089312E+02 -0.77567575283E+00  0.80969907816E+00  0.13091197980E+02  0.51100000000E-03 0. -1.
        -11    1    4    4    0    0  0.14583776895E+01  0.29346945016E+00  0.21333492028E+01  0.26008015852E+01  0.51100000000E-03 0.  1.
        -12    1    4    4    0    0  0.28959041957E+02  0.48492953423E+01  0.80672258568E+01  0.30450318708E+02  0.00000000000E+00 0.  1.
</event>
<event>
 8    1  0.2962813E-009  0.9118800E+02  0.7816164E-02  0.1184000E+00
        -11   -1    0    0    0    0  0.00000000000E+00  0.00000000000E+00  0.45593999997E+02  0.45594000000E+02  0.51100000000E-03 0. -1.
         11   -1    0    0    0    0 -0.00000000000E+00 -0.00000000000E+00 -0.45593999997E+02  0.45594000000E+02  0.51100000000E-03 0.  1.
         23    2    1    2    0    0 -0.35527136788E-14  0.00000000000E+00  0.00000000000E+00  0.91188000000E+02  0.91188000000E+02 0.  0.
    9900012    2    3    3    0    0 -0.26522937731E+02 -0.10616334195E+02 -0.34827297325E+02  0.46142318558E+02  0.10000007263E+02 0.  0.
         12    1    3    3    0    0  0.26522937731E+02  0.10616334195E+02  0.34827297325E+02  0.45045681442E+02  0.00000000000E+00 0. -1.
         11    1    4    4    0    0 -0.32904202716E+01  0.98214573456E-02 -0.24814480701E+01  0.41212312250E+01  0.51100000000E-03 0. -1.
        -11    1    4    4    0    0 -0.35221820274E+00  0.71800881327E+00  0.11437866173E-01  0.79982835919E+00  0.51100000000E-03 0.  1.
        -12    1    4    4    0    0 -0.22880299257E+02 -0.11344164465E+02 -0.32357287121E+02  0.41221258973E+02  0.00000000000E+00 0.  1.
</event>
<event>
 8    1  0.2962813E-009  0.9118800E+02  0.7816164E-02  0.1184000E+00
        -11   -1    0    0    0    0  0.00000000000E+00  0.00000000000E+00  0.45593999997E+02  0.45594000000E+02  0.51100000000E-03 0.  1.
         11   -1    0    0    0    0 -0.00000000000E+00 -0.00000000000E+00 -0.45593999997E+02  0.45594000000E+02  0.51100000000E-03 0. -1.
         23    2    1    2    0    0  0.00000000000E+00  0.00000000000E+00  0.35527136788E-14  0.91188000000E+02  0.91188000000E+02 0.  0.
    9900012    2    3    3    0    0 -0.35269813460E+02  0.21792201167E+02  0.17614022265E+02  0.46142317037E+02  0.99999933989E+01 0.  0.
        -12    1    3    3    0    0  0.35269813460E+02 -0.21792201167E+02 -0.17614022265E+02  0.45045682963E+02  0.00000000000E+00 0.  1.
         11    1    4    4    0    0 -0.13718216722E+02  0.97138187918E+01  0.92885164163E+01  0.19204798437E+02  0.51100000000E-03 0. -1.
        -11    1    4    4    0    0  0.30395778753E+00  0.10262563130E+01  0.10240353763E-02  0.10703240940E+01  0.51100000000E-03 0.  1.
         12    1    4    4    0    0 -0.21855554526E+02  0.11052126062E+02  0.83244818136E+01  0.25867194506E+02  0.00000000000E+00 0. -1.
</event>
<event>
 8    1  0.2962813E-009  0.9118800E+02  0.7816164E-02  0.1184000E+00
        -11   -1    0    0    0    0  0.00000000000E+00  0.00000000000E+00  0.45593999997E+02  0.45594000000E+02  0.51100000000E-03 0.  1.
         11   -1    0    0    0    0 -0.00000000000E+00 -0.00000000000E+00 -0.45593999997E+02  0.45594000000E+02  0.51100000000E-03 0. -1.
         23    2    1    2    0    0  0.35527136788E-14 -0.35527136788E-14  0.35527136788E-14  0.91188000000E+02  0.91188000000E+02 0.  0.
    9900012    2    3    3    0    0  0.26707103564E+02 -0.22545261899E+02  0.28417517234E+02  0.46142317625E+02  0.99999987607E+01 0.  0.
        -12    1    3    3    0    0 -0.26707103564E+02  0.22545261899E+02 -0.28417517234E+02  0.45045682375E+02  0.00000000000E+00 0.  1.
         11    1    4    4    0    0  0.66695549426E+01 -0.36688345027E+01  0.23928500335E+01  0.79792882693E+01  0.51100000000E-03 0. -1.
        -11    1    4    4    0    0  0.51593168427E+01 -0.71526741027E+01  0.64688177263E+01  0.10937316862E+02  0.51100000000E-03 0.  1.
         12    1    4    4    0    0  0.14878231779E+02 -0.11723753294E+02  0.19555849474E+02  0.27225712494E+02  0.00000000000E+00 0. -1.
</event>
<event>
 8    1  0.2962813E-009  0.9118800E+02  0.7816164E-02  0.1184000E+00
        -11   -1    0    0    0    0  0.00000000000E+00  0.00000000000E+00  0.45593999997E+02  0.45594000000E+02  0.51100000000E-03 0. -1.
         11   -1    0    0    0    0 -0.00000000000E+00 -0.00000000000E+00 -0.45593999997E+02  0.45594000000E+02  0.51100000000E-03 0.  1.
         23    2    1    2    0    0  0.00000000000E+00 -0.71054273576E-14  0.00000000000E+00  0.91188000000E+02  0.91188000000E+02 0.  0.
    9900012    2    3    3    0    0  0.22791474981E+01 -0.38269002411E+02  0.23651691505E+02  0.46142316856E+02  0.99999917462E+01 0.  0.
        -12    1    3    3    0    0 -0.22791474981E+01  0.38269002411E+02 -0.23651691505E+02  0.45045683144E+02  0.00000000000E+00 0.  1.
         11    1    4    4    0    0 -0.20280665258E+01 -0.28796603856E+02  0.16371494546E+02  0.33187095103E+02  0.51100000000E-03 0. -1.
        -11    1    4    4    0    0 -0.14063050915E+00 -0.39232358131E-01  0.48773473180E+00  0.50911840249E+00  0.51100000000E-03 0.  1.
         12    1    4    4    0    0  0.44478445331E+01 -0.94331661969E+01  0.67924622275E+01  0.12446103350E+02  0.00000000000E+00 0. -1.
</event>
<event>
 8    1  0.2962813E-009  0.9118800E+02  0.7816164E-02  0.1184000E+00
        -11   -1    0    0    0    0  0.00000000000E+00  0.00000000000E+00  0.45593999997E+02  0.45594000000E+02  0.51100000000E-03 0. -1.
         11   -1    0    0    0    0 -0.00000000000E+00 -0.00000000000E+00 -0.45593999997E+02  0.45594000000E+02  0.51100000000E-03 0.  1.
         23    2    1    2    0    0 -0.35527136788E-14  0.00000000000E+00  0.00000000000E+00  0.91188000000E+02  0.91188000000E+02 0.  0.
    9900012    2    3    3    0    0 -0.24859558275E+02  0.35847594980E+02  0.11227904026E+02  0.46142317273E+02  0.99999955514E+01 0.  0.
        -12    1    3    3    0    0  0.24859558275E+02 -0.35847594980E+02 -0.11227904026E+02  0.45045682727E+02  0.00000000000E+00 0.  1.
         11    1    4    4    0    0 -0.13647062220E+02  0.22296881834E+02  0.10340672848E+02  0.28112679737E+02  0.51100000000E-03 0. -1.
        -11    1    4    4    0    0 -0.28682752708E+01  0.45387769994E+01 -0.13724386809E+01  0.55417585543E+01  0.51100000000E-03 0.  1.
        -12    1    4    4    0    0 -0.83442207840E+01  0.90119361468E+01  0.22596698593E+01  0.12487878982E+02  0.00000000000E+00 0.  1.
</event>
<event>
 8    1  0.2962813E-009  0.9118800E+02  0.7816164E-02  0.1184000E+00
        -11   -1    0    0    0    0  0.00000000000E+00  0.00000000000E+00  0.45593999997E+02  0.45594000000E+02  0.51100000000E-03 0. -1.
         11   -1    0    0    0    0 -0.00000000000E+00 -0.00000000000E+00 -0.45593999997E+02  0.45594000000E+02  0.51100000000E-03 0.  1.
         23    2    1    2    0    0 -0.17763568394E-14 -0.88817841970E-15  0.00000000000E+00  0.91188000000E+02  0.91188000000E+02 0.  0.
    9900012    2    3    3    0    0 -0.83243717332E+01 -0.50231756904E+01 -0.43983931134E+02  0.46142315892E+02  0.99999829541E+01 0.  0.
         12    1    3    3    0    0  0.83243717332E+01  0.50231756904E+01  0.43983931134E+02  0.45045684108E+02  0.00000000000E+00 0. -1.
         11    1    4    4    0    0 -0.42463625996E+00 -0.21338712434E+01 -0.13821802479E+01  0.25776238933E+01  0.51100000000E-03 0. -1.
        -11    1    4    4    0    0 -0.74012462184E+01 -0.34498211919E+01 -0.40865098814E+02  0.41672965016E+02  0.51100000000E-03 0.  1.
         12    1    4    4    0    0 -0.49848925488E+00  0.56051674485E+00 -0.17366520720E+01  0.18917269828E+01  0.00000000000E+00 0. -1.
</event>
<event>
 8    1  0.2962813E-009  0.9118800E+02  0.7816164E-02  0.1184000E+00
        -11   -1    0    0    0    0  0.00000000000E+00  0.00000000000E+00  0.45593999997E+02  0.45594000000E+02  0.51100000000E-03 0. -1.
         11   -1    0    0    0    0 -0.00000000000E+00 -0.00000000000E+00 -0.45593999997E+02  0.45594000000E+02  0.51100000000E-03 0.  1.
         23    2    1    2    0    0 -0.11102230246E-15  0.00000000000E+00  0.71054273576E-14  0.91188000000E+02  0.91188000000E+02 0.  0.
    9900012    2    3    3    0    0  0.48683719412E+00 -0.88588558857E+01 -0.44163300266E+02  0.46142318426E+02  0.10000006063E+02 0.  0.
         12    1    3    3    0    0 -0.48683719412E+00  0.88588558857E+01  0.44163300266E+02  0.45045681574E+02  0.00000000000E+00 0. -1.
         11    1    4    4    0    0 -0.73622574737E+00 -0.50473222128E+01 -0.12244339541E+02  0.13264288181E+02  0.51100000000E-03 0. -1.
        -11    1    4    4    0    0 -0.39607961555E+00 -0.13766564150E+01 -0.27743783627E+02  0.27780741390E+02  0.51100000000E-03 0.  1.
        -12    1    4    4    0    0  0.16191425570E+01 -0.24348772578E+01 -0.41751770977E+01  0.50972888556E+01  0.00000000000E+00 0.  1.
</event>
<event>
 8    1  0.2962813E-009  0.9118800E+02  0.7816164E-02  0.1184000E+00
        -11   -1    0    0    0    0  0.00000000000E+00  0.00000000000E+00  0.45593999997E+02  0.45594000000E+02  0.51100000000E-03 0. -1.
         11   -1    0    0    0    0 -0.00000000000E+00 -0.00000000000E+00 -0.45593999997E+02  0.45594000000E+02  0.51100000000E-03 0.  1.
         23    2    1    2    0    0  0.00000000000E+00  0.00000000000E+00  0.00000000000E+00  0.91188000000E+02  0.91188000000E+02 0.  0.
    9900012    2    3    3    0    0  0.12256755542E+01 -0.24732045449E+02  0.37628938617E+02  0.46142319029E+02  0.10000011564E+02 0.  0.
        -12    1    3    3    0    0 -0.12256755542E+01  0.24732045449E+02 -0.37628938617E+02  0.45045680971E+02  0.00000000000E+00 0.  1.
         11    1    4    4    0    0 -0.36395330487E+01 -0.78749161669E+01  0.10002600515E+02  0.13240563537E+02  0.51100000000E-03 0. -1.
        -11    1    4    4    0    0  0.44430654869E+01 -0.12397017731E+02  0.22696323144E+02  0.26240235595E+02  0.51100000000E-03 0.  1.
         12    1    4    4    0    0  0.42214311600E+00 -0.44601115514E+01  0.49300149580E+01  0.66615198977E+01  0.00000000000E+00 0. -1.
</event>
<event>
 8    1  0.2962813E-009  0.9118800E+02  0.7816164E-02  0.1184000E+00
        -11   -1    0    0    0    0  0.00000000000E+00  0.00000000000E+00  0.45593999997E+02  0.45594000000E+02  0.51100000000E-03 0.  1.
         11   -1    0    0    0    0 -0.00000000000E+00 -0.00000000000E+00 -0.45593999997E+02  0.45594000000E+02  0.51100000000E-03 0. -1.
         23    2    1    2    0    0 -0.17763568394E-14  0.00000000000E+00  0.17763568394E-14  0.91188000000E+02  0.91188000000E+02 0.  0.
    9900012    2    3    3    0    0  0.14211273587E+02  0.41502328941E+02 -0.10232784758E+02  0.46142317761E+02  0.99999999989E+01 0.  0.
         12    1    3    3    0    0 -0.14211273587E+02 -0.41502328941E+02  0.10232784758E+02  0.45045682239E+02  0.00000000000E+00 0. -1.
         11    1    4    4    0    0  0.19877471696E+01  0.12625468279E+01  0.19393460725E+00  0.23627894946E+01  0.51100000000E-03 0. -1.
        -11    1    4    4    0    0  0.74008794511E+01  0.18036935581E+02 -0.74216684860E+01  0.20861093576E+02  0.51100000000E-03 0.  1.
        -12    1    4    4    0    0  0.48226469661E+01  0.22202846532E+02 -0.30050508797E+01  0.22918434690E+02  0.00000000000E+00 0.  1.
</event>
<event>
 8    1  0.2962813E-009  0.9118800E+02  0.7816164E-02  0.1184000E+00
        -11   -1    0    0    0    0  0.00000000000E+00  0.00000000000E+00  0.45593999997E+02  0.45594000000E+02  0.51100000000E-03 0. -1.
         11   -1    0    0    0    0 -0.00000000000E+00 -0.00000000000E+00 -0.45593999997E+02  0.45594000000E+02  0.51100000000E-03 0.  1.
         23    2    1    2    0    0 -0.71054273576E-14 -0.35527136788E-14  0.00000000000E+00  0.91188000000E+02  0.91188000000E+02 0.  0.
    9900012    2    3    3    0    0  0.33659139271E+02  0.29276630605E+02  0.62493757098E+01  0.46142318156E+02  0.10000003597E+02 0.  0.
        -12    1    3    3    0    0 -0.33659139271E+02 -0.29276630605E+02 -0.62493757098E+01  0.45045681844E+02  0.00000000000E+00 0.  1.
         11    1    4    4    0    0  0.15220431270E+02  0.12740937357E+02  0.45899579615E+01  0.20373039221E+02  0.51100000000E-03 0.  1.
        -11    1    4    4    0    0  0.16217791991E+02  0.16781520142E+02  0.22845668199E+01  0.23448996592E+02  0.51100000000E-03 0. -1.
        -12    1    4    4    0    0  0.22209160103E+01 -0.24582689368E+00 -0.62514907155E+00  0.23202823423E+01  0.00000000000E+00 0.  1.
</event>
<event>
 8    1  0.2962813E-009  0.9118800E+02  0.7816164E-02  0.1184000E+00
        -11   -1    0    0    0    0  0.00000000000E+00  0.00000000000E+00  0.45593999997E+02  0.45594000000E+02  0.51100000000E-03 0.  1.
         11   -1    0    0    0    0 -0.00000000000E+00 -0.00000000000E+00 -0.45593999997E+02  0.45594000000E+02  0.51100000000E-03 0. -1.
         23    2    1    2    0    0  0.00000000000E+00  0.00000000000E+00  0.00000000000E+00  0.91188000000E+02  0.91188000000E+02 0.  0.
    9900012    2    3    3    0    0 -0.42606701579E+02 -0.91461252978E+01  0.11407492299E+02  0.46142317544E+02  0.99999980186E+01 0.  0.
         12    1    3    3    0    0  0.42606701579E+02  0.91461252978E+01 -0.11407492299E+02  0.45045682456E+02  0.00000000000E+00 0. -1.
         11    1    4    4    0    0 -0.33659141961E+01 -0.37722706396E+01  0.14472509018E+01  0.52587013214E+01  0.51100000000E-03 0. -1.
        -11    1    4    4    0    0 -0.22065642527E+02 -0.23253914409E+01  0.49254202765E+01  0.22727951747E+02  0.51100000000E-03 0.  1.
        -12    1    4    4    0    0 -0.17175144856E+02 -0.30484632173E+01  0.50348211210E+01  0.18155664475E+02  0.00000000000E+00 0.  1.
</event>
<event>
 8    1  0.2962813E-009  0.9118800E+02  0.7816164E-02  0.1184000E+00
        -11   -1    0    0    0    0  0.00000000000E+00  0.00000000000E+00  0.45593999997E+02  0.45594000000E+02  0.51100000000E-03 0. -1.
         11   -1    0    0    0    0 -0.00000000000E+00 -0.00000000000E+00 -0.45593999997E+02  0.45594000000E+02  0.51100000000E-03 0.  1.
         23    2    1    2    0    0  0.17763568394E-14  0.00000000000E+00  0.00000000000E+00  0.91188000000E+02  0.91188000000E+02 0.  0.
    9900012    2    3    3    0    0 -0.10807250184E+02  0.10417113632E+02  0.42471173591E+02  0.46142317642E+02  0.99999989108E+01 0.  0.
        -12    1    3    3    0    0  0.10807250184E+02 -0.10417113632E+02 -0.42471173591E+02  0.45045682358E+02  0.00000000000E+00 0.  1.
         11    1    4    4    0    0 -0.48832369050E+01  0.39421268959E+00  0.76172494721E+01  0.90567044832E+01  0.51100000000E-03 0. -1.
        -11    1    4    4    0    0 -0.67689884050E+00  0.54027689508E+01  0.11815775492E+02  0.13010021334E+02  0.51100000000E-03 0.  1.
        -12    1    4    4    0    0 -0.52471144384E+01  0.46201319915E+01  0.23038148627E+02  0.24075591825E+02  0.00000000000E+00 0.  1.
</event>
<event>
 8    1  0.2962813E-009  0.9118800E+02  0.7816164E-02  0.1184000E+00
        -11   -1    0    0    0    0  0.00000000000E+00  0.00000000000E+00  0.45593999997E+02  0.45594000000E+02  0.51100000000E-03 0. -1.
         11   -1    0    0    0    0 -0.00000000000E+00 -0.00000000000E+00 -0.45593999997E+02  0.45594000000E+02  0.51100000000E-03 0.  1.
         23    2    1    2    0    0  0.00000000000E+00  0.00000000000E+00  0.00000000000E+00  0.91188000000E+02  0.91188000000E+02 0.  0.
    9900012    2    3    3    0    0  0.17985893678E+02  0.97892927139E+01 -0.40122199390E+02  0.46142317553E+02  0.99999981001E+01 0.  0.
         12    1    3    3    0    0 -0.17985893678E+02 -0.97892927139E+01  0.40122199390E+02  0.45045682447E+02  0.00000000000E+00 0. -1.
         11    1    4    4    0    0  0.25909811689E+01  0.69123427829E+00 -0.31740701443E+01  0.41552027372E+01  0.51100000000E-03 0. -1.
        -11    1    4    4    0    0  0.47112035107E-01  0.21528281398E+01 -0.98249823135E+01  0.10058189015E+02  0.51100000000E-03 0.  1.
        -12    1    4    4    0    0  0.15347800475E+02  0.69452302958E+01 -0.27123146932E+02  0.31928925800E+02  0.00000000000E+00 0.  1.
</event>
<event>
 8    1  0.2962813E-009  0.9118800E+02  0.7816164E-02  0.1184000E+00
        -11   -1    0    0    0    0  0.00000000000E+00  0.00000000000E+00  0.45593999997E+02  0.45594000000E+02  0.51100000000E-03 0. -1.
         11   -1    0    0    0    0 -0.00000000000E+00 -0.00000000000E+00 -0.45593999997E+02  0.45594000000E+02  0.51100000000E-03 0.  1.
         23    2    1    2    0    0  0.00000000000E+00  0.00000000000E+00  0.00000000000E+00  0.91188000000E+02  0.91188000000E+02 0.  0.
    9900012    2    3    3    0    0 -0.21180605493E+02 -0.27185664740E+02  0.29007500555E+02  0.46142317578E+02  0.99999983279E+01 0.  0.
        -12    1    3    3    0    0  0.21180605493E+02  0.27185664740E+02 -0.29007500555E+02  0.45045682422E+02  0.00000000000E+00 0.  1.
         11    1    4    4    0    0 -0.10048374597E+02 -0.15779428745E+02  0.13974995192E+02  0.23350817854E+02  0.51100000000E-03 0. -1.
        -11    1    4    4    0    0 -0.81698493119E+01 -0.39830882583E+01  0.88611498509E+01  0.12693754637E+02  0.51100000000E-03 0.  1.
        -12    1    4    4    0    0 -0.29623815840E+01 -0.74231477365E+01  0.61713555121E+01  0.10097745086E+02  0.00000000000E+00 0.  1.
</event>
<event>
 8    1  0.2962813E-009  0.9118800E+02  0.7816164E-02  0.1184000E+00
        -11   -1    0    0    0    0  0.00000000000E+00  0.00000000000E+00  0.45593999997E+02  0.45594000000E+02  0.51100000000E-03 0. -1.
         11   -1    0    0    0    0 -0.00000000000E+00 -0.00000000000E+00 -0.45593999997E+02  0.45594000000E+02  0.51100000000E-03 0.  1.
         23    2    1    2    0    0  0.35527136788E-14 -0.35527136788E-14  0.35527136788E-14  0.91188000000E+02  0.91188000000E+02 0.  0.
    9900012    2    3    3    0    0  0.31582073228E+02 -0.23040860236E+02  0.22378666803E+02  0.46142319656E+02  0.10000017275E+02 0.  0.
         12    1    3    3    0    0 -0.31582073228E+02  0.23040860236E+02 -0.22378666803E+02  0.45045680344E+02  0.00000000000E+00 0. -1.
         11    1    4    4    0    0  0.14430301322E+02 -0.54644607594E+01  0.66424845621E+01  0.16799301445E+02  0.51100000000E-03 0. -1.
        -11    1    4    4    0    0  0.49312325402E+01 -0.64533316560E+01  0.65697706556E+01  0.10446263952E+02  0.51100000000E-03 0.  1.
         12    1    4    4    0    0  0.12220539366E+02 -0.11123067821E+02  0.91664115851E+01  0.18896754258E+02  0.00000000000E+00 0. -1.
</event>
<event>
 8    1  0.2962813E-009  0.9118800E+02  0.7816164E-02  0.1184000E+00
        -11   -1    0    0    0    0  0.00000000000E+00  0.00000000000E+00  0.45593999997E+02  0.45594000000E+02  0.51100000000E-03 0. -1.
         11   -1    0    0    0    0 -0.00000000000E+00 -0.00000000000E+00 -0.45593999997E+02  0.45594000000E+02  0.51100000000E-03 0.  1.
         23    2    1    2    0    0  0.00000000000E+00  0.71054273576E-14  0.17763568394E-14  0.91188000000E+02  0.91188000000E+02 0.  0.
    9900012    2    3    3    0    0 -0.88039465821E+01 -0.41237203615E+02 -0.15846042163E+02  0.46142317747E+02  0.99999998742E+01 0.  0.
         12    1    3    3    0    0  0.88039465821E+01  0.41237203615E+02  0.15846042163E+02  0.45045682253E+02  0.00000000000E+00 0. -1.
         11    1    4    4    0    0 -0.36314215404E+01 -0.12325128587E+02 -0.84864792603E+01  0.15398582648E+02  0.51100000000E-03 0. -1.
        -11    1    4    4    0    0 -0.50727299299E+01 -0.25855414895E+02 -0.81590076140E+01  0.27582684312E+02  0.51100000000E-03 0.  1.
         12    1    4    4    0    0 -0.99795111822E-01 -0.30566601326E+01  0.79944471126E+00  0.31610507869E+01  0.00000000000E+00 0. -1.
</event>
<event>
 8    1  0.2962813E-009  0.9118800E+02  0.7816164E-02  0.1184000E+00
        -11   -1    0    0    0    0  0.00000000000E+00  0.00000000000E+00  0.45593999997E+02  0.45594000000E+02  0.51100000000E-03 0. -1.
         11   -1    0    0    0    0 -0.00000000000E+00 -0.00000000000E+00 -0.45593999997E+02  0.45594000000E+02  0.51100000000E-03 0.  1.
         23    2    1    2    0    0 -0.71054273576E-14  0.22204460493E-15 -0.14210854715E-13  0.91188000000E+02  0.91188000000E+02 0.  0.
    9900012    2    3    3    0    0  0.24928776752E+02 -0.16992515059E+01  0.37480422444E+02  0.46142318380E+02  0.10000005641E+02 0.  0.
        -12    1    3    3    0    0 -0.24928776752E+02  0.16992515059E+01 -0.37480422444E+02  0.45045681620E+02  0.00000000000E+00 0.  1.
         11    1    4    4    0    0  0.57485469623E+01 -0.39291947544E+01  0.89268708978E+01  0.11321368640E+02  0.51100000000E-03 0.  1.
        -11    1    4    4    0    0  0.18851586634E+02  0.14598728983E+01  0.28098630806E+02  0.33868076428E+02  0.51100000000E-03 0. -1.
        -12    1    4    4    0    0  0.32864315541E+00  0.77007035021E+00  0.45492074076E+00  0.95287331175E+00  0.00000000000E+00 0.  1.
</event>
<event>
 8    1  0.2962813E-009  0.9118800E+02  0.7816164E-02  0.1184000E+00
        -11   -1    0    0    0    0  0.00000000000E+00  0.00000000000E+00  0.45593999997E+02  0.45594000000E+02  0.51100000000E-03 0. -1.
         11   -1    0    0    0    0 -0.00000000000E+00 -0.00000000000E+00 -0.45593999997E+02  0.45594000000E+02  0.51100000000E-03 0.  1.
         23    2    1    2    0    0  0.00000000000E+00 -0.88817841970E-15  0.71054273576E-14  0.91188000000E+02  0.91188000000E+02 0.  0.
    9900012    2    3    3    0    0 -0.19954924383E+02  0.59641976037E+01  0.39941741999E+02  0.46142318585E+02  0.10000007515E+02 0.  0.
        -12    1    3    3    0    0  0.19954924383E+02 -0.59641976037E+01 -0.39941741999E+02  0.45045681415E+02  0.00000000000E+00 0.  1.
         11    1    4    4    0    0 -0.15753927519E+02  0.73663975176E+01  0.34255567979E+02  0.38417365637E+02  0.51100000000E-03 0. -1.
        -11    1    4    4    0    0 -0.39917865208E+01 -0.18572710650E+01  0.57255089362E+01  0.72225527534E+01  0.51100000000E-03 0.  1.
         12    1    4    4    0    0 -0.20921034291E+00  0.45507115116E+00 -0.39334915842E-01  0.50240019487E+00  0.00000000000E+00 0. -1.
</event>
<event>
 8    1  0.3037551E-009  0.9118800E+02  0.7816164E-02  0.1184000E+00
        -11   -1    0    0    0    0  0.00000000000E+00  0.00000000000E+00  0.45593999997E+02  0.45594000000E+02  0.51100000000E-03 0. -1.
         11   -1    0    0    0    0 -0.00000000000E+00 -0.00000000000E+00 -0.45593999997E+02  0.45594000000E+02  0.51100000000E-03 0.  1.
         23    2    1    2    0    0  0.00000000000E+00  0.00000000000E+00  0.00000000000E+00  0.91188000000E+02  0.91188000000E+02 0.  0.
    9900012    2    3    3    0    0 -0.58378387258E+01  0.92847621739E+01 -0.43690117193E+02  0.46142317522E+02  0.99999978152E+01 0.  0.
         12    1    3    3    0    0  0.58378387258E+01 -0.92847621739E+01  0.43690117193E+02  0.45045682478E+02  0.00000000000E+00 0. -1.
         11    1    4    4    0    0 -0.58833239245E+00  0.66875267687E+00 -0.77510869074E+00  0.11807450573E+01  0.51100000000E-03 0. -1.
        -11    1    4    4    0    0 -0.55909951084E+00  0.39121274851E+00  0.28253635556E+00  0.73855719545E+00  0.51100000000E-03 0.  1.
        -12    1    4    4    0    0 -0.46904068225E+01  0.82247967485E+01 -0.43197544858E+02  0.44223015269E+02  0.00000000000E+00 0.  1.
</event>
<event>
 8    1  0.2963521E-009  0.9118800E+02  0.7816164E-02  0.1184000E+00
        -11   -1    0    0    0    0  0.00000000000E+00  0.00000000000E+00  0.45593999997E+02  0.45594000000E+02  0.51100000000E-03 0. -1.
         11   -1    0    0    0    0 -0.00000000000E+00 -0.00000000000E+00 -0.45593999997E+02  0.45594000000E+02  0.51100000000E-03 0.  1.
         23    2    1    2    0    0 -0.27755575616E-15  0.22204460493E-15  0.00000000000E+00  0.91188000000E+02  0.91188000000E+02 0.  0.
    9900012    2    3    3    0    0  0.25515188299E+00 -0.13733135406E+01 -0.45024020272E+02  0.46142317699E+02  0.99999994298E+01 0.  0.
         12    1    3    3    0    0 -0.25515188299E+00  0.13733135406E+01  0.45024020272E+02  0.45045682301E+02  0.00000000000E+00 0. -1.
         11    1    4    4    0    0 -0.29109515143E+01 -0.30515676437E+00 -0.95143190345E+01  0.99543471067E+01  0.51100000000E-03 0. -1.
        -11    1    4    4    0    0  0.39327180430E+01 -0.22549135356E+01 -0.16075245512E+02  0.16702228139E+02  0.51100000000E-03 0.  1.
        -12    1    4    4    0    0 -0.76661464572E+00  0.11867567594E+01 -0.19434455725E+02  0.19485742453E+02  0.00000000000E+00 0.  1.
</event>
<event>
 8    1  0.2962813E-009  0.9118800E+02  0.7816164E-02  0.1184000E+00
        -11   -1    0    0    0    0  0.00000000000E+00  0.00000000000E+00  0.45593999997E+02  0.45594000000E+02  0.51100000000E-03 0. -1.
         11   -1    0    0    0    0 -0.00000000000E+00 -0.00000000000E+00 -0.45593999997E+02  0.45594000000E+02  0.51100000000E-03 0.  1.
         23    2    1    2    0    0 -0.35527136788E-14  0.17763568394E-14  0.00000000000E+00  0.91188000000E+02  0.91188000000E+02 0.  0.
    9900012    2    3    3    0    0 -0.29683944151E+02 -0.94094507352E+01  0.32549027278E+02  0.46142317851E+02  0.10000000822E+02 0.  0.
        -12    1    3    3    0    0  0.29683944151E+02  0.94094507352E+01 -0.32549027278E+02  0.45045682149E+02  0.00000000000E+00 0.  1.
         11    1    4    4    0    0 -0.12252039907E+02 -0.76241796355E+01  0.15403718126E+02  0.21107229315E+02  0.51100000000E-03 0. -1.
        -11    1    4    4    0    0 -0.10822552626E+01 -0.57103727287E+00  0.34904225154E+01  0.36987037753E+01  0.51100000000E-03 0.  1.
         12    1    4    4    0    0 -0.16349648981E+02 -0.12142338268E+01  0.13654886637E+02  0.21336384761E+02  0.00000000000E+00 0. -1.
</event>
<event>
 8    1  0.2962813E-009  0.9118800E+02  0.7816164E-02  0.1184000E+00
        -11   -1    0    0    0    0  0.00000000000E+00  0.00000000000E+00  0.45593999997E+02  0.45594000000E+02  0.51100000000E-03 0. -1.
         11   -1    0    0    0    0 -0.00000000000E+00 -0.00000000000E+00 -0.45593999997E+02  0.45594000000E+02  0.51100000000E-03 0.  1.
         23    2    1    2    0    0 -0.35527136788E-14  0.00000000000E+00  0.00000000000E+00  0.91188000000E+02  0.91188000000E+02 0.  0.
    9900012    2    3    3    0    0  0.24858736219E+02  0.12710000507E+02  0.35349860916E+02  0.46142317120E+02  0.99999941577E+01 0.  0.
        -12    1    3    3    0    0 -0.24858736219E+02 -0.12710000507E+02 -0.35349860916E+02  0.45045682880E+02  0.00000000000E+00 0.  1.
         11    1    4    4    0    0  0.12880386767E+02  0.55982450532E+01  0.18633626088E+02  0.23333596645E+02  0.51100000000E-03 0. -1.
        -11    1    4    4    0    0  0.52165837458E+01  0.88315865319E+00  0.24348939646E+01  0.58242101665E+01  0.51100000000E-03 0.  1.
        -12    1    4    4    0    0  0.67617657059E+01  0.62285968008E+01  0.14281340863E+02  0.16984510309E+02  0.00000000000E+00 0.  1.
</event>
<event>
 8    1  0.2962813E-009  0.9118800E+02  0.7816164E-02  0.1184000E+00
        -11   -1    0    0    0    0  0.00000000000E+00  0.00000000000E+00  0.45593999997E+02  0.45594000000E+02  0.51100000000E-03 0. -1.
         11   -1    0    0    0    0 -0.00000000000E+00 -0.00000000000E+00 -0.45593999997E+02  0.45594000000E+02  0.51100000000E-03 0.  1.
         23    2    1    2    0    0  0.00000000000E+00  0.00000000000E+00  0.00000000000E+00  0.91188000000E+02  0.91188000000E+02 0.  0.
    9900012    2    3    3    0    0  0.11948884333E+02  0.34556565730E+01 -0.43294296943E+02  0.46142317111E+02  0.99999940729E+01 0.  0.
         12    1    3    3    0    0 -0.11948884333E+02 -0.34556565730E+01  0.43294296943E+02  0.45045682889E+02  0.00000000000E+00 0. -1.
         11    1    4    4    0    0  0.26280952829E+01  0.39826837465E+01 -0.12631005593E+02  0.13502257485E+02  0.51100000000E-03 0. -1.
        -11    1    4    4    0    0  0.68777790507E+01 -0.58735908547E+00 -0.12214077660E+02  0.14029701662E+02  0.51100000000E-03 0.  1.
        -12    1    4    4    0    0  0.24430099990E+01  0.60331912037E-01 -0.18449213690E+02  0.18610357964E+02  0.00000000000E+00 0.  1.
</event>
<event>
 8    1  0.2962813E-009  0.9118800E+02  0.7816164E-02  0.1184000E+00
        -11   -1    0    0    0    0  0.00000000000E+00  0.00000000000E+00  0.45593999997E+02  0.45594000000E+02  0.51100000000E-03 0. -1.
         11   -1    0    0    0    0 -0.00000000000E+00 -0.00000000000E+00 -0.45593999997E+02  0.45594000000E+02  0.51100000000E-03 0.  1.
         23    2    1    2    0    0  0.00000000000E+00  0.00000000000E+00  0.00000000000E+00  0.91188000000E+02  0.91188000000E+02 0.  0.
    9900012    2    3    3    0    0  0.20044390304E+02 -0.21800546744E+01  0.40281300933E+02  0.46142318454E+02  0.10000006320E+02 0.  0.
        -12    1    3    3    0    0 -0.20044390304E+02  0.21800546744E+01 -0.40281300933E+02  0.45045681546E+02  0.00000000000E+00 0.  1.
         11    1    4    4    0    0  0.14480675273E+02 -0.16952603779E+01  0.34710719599E+02  0.37648345507E+02  0.51100000000E-03 0. -1.
        -11    1    4    4    0    0  0.38557839379E+01 -0.11182355930E+01  0.19993035293E+01  0.44849454268E+01  0.51100000000E-03 0.  1.
        -12    1    4    4    0    0  0.17079310936E+01  0.63344129656E+00  0.35712778052E+01  0.40090275203E+01  0.00000000000E+00 0.  1.
</event>
<event>
 8    1  0.2962813E-009  0.9118800E+02  0.7816164E-02  0.1184000E+00
        -11   -1    0    0    0    0  0.00000000000E+00  0.00000000000E+00  0.45593999997E+02  0.45594000000E+02  0.51100000000E-03 0. -1.
         11   -1    0    0    0    0 -0.00000000000E+00 -0.00000000000E+00 -0.45593999997E+02  0.45594000000E+02  0.51100000000E-03 0.  1.
         23    2    1    2    0    0 -0.88817841970E-15  0.35527136788E-14  0.00000000000E+00  0.91188000000E+02  0.91188000000E+02 0.  0.
    9900012    2    3    3    0    0  0.70941967878E+01 -0.30411885679E+02  0.32463870139E+02  0.46142320041E+02  0.10000020787E+02 0.  0.
        -12    1    3    3    0    0 -0.70941967878E+01  0.30411885679E+02 -0.32463870139E+02  0.45045679959E+02  0.00000000000E+00 0.  1.
         11    1    4    4    0    0  0.36514944788E+01 -0.79603773455E+01  0.11427334699E+02  0.14397395528E+02  0.51100000000E-03 0. -1.
        -11    1    4    4    0    0  0.12453348484E+01 -0.19228076376E+02  0.19857976630E+02  0.27669640693E+02  0.51100000000E-03 0.  1.
        -12    1    4    4    0    0  0.21973674606E+01 -0.32234319568E+01  0.11785588105E+01  0.40752838192E+01  0.00000000000E+00 0.  1.
</event>
<event>
 8    1  0.2962813E-009  0.9118800E+02  0.7816164E-02  0.1184000E+00
        -11   -1    0    0    0    0  0.00000000000E+00  0.00000000000E+00  0.45593999997E+02  0.45594000000E+02  0.51100000000E-03 0. -1.
         11   -1    0    0    0    0 -0.00000000000E+00 -0.00000000000E+00 -0.45593999997E+02  0.45594000000E+02  0.51100000000E-03 0.  1.
         23    2    1    2    0    0  0.00000000000E+00  0.00000000000E+00  0.00000000000E+00  0.91188000000E+02  0.91188000000E+02 0.  0.
    9900012    2    3    3    0    0  0.20927914533E+02  0.10616538042E+02  0.38450293171E+02  0.46142317281E+02  0.99999956243E+01 0.  0.
        -12    1    3    3    0    0 -0.20927914533E+02 -0.10616538042E+02 -0.38450293171E+02  0.45045682719E+02  0.00000000000E+00 0.  1.
         11    1    4    4    0    0  0.17050912093E+02  0.11587907433E+02  0.28059224531E+02  0.34818576700E+02  0.51100000000E-03 0. -1.
        -11    1    4    4    0    0  0.30575584732E+01 -0.43124736540E+00  0.95312098796E+01  0.10018912123E+02  0.51100000000E-03 0.  1.
        -12    1    4    4    0    0  0.81944396674E+00 -0.54012202540E+00  0.85985875966E+00  0.13048284575E+01  0.00000000000E+00 0.  1.
</event>
<event>
 8    1  0.2962813E-009  0.9118800E+02  0.7816164E-02  0.1184000E+00
        -11   -1    0    0    0    0  0.00000000000E+00  0.00000000000E+00  0.45593999997E+02  0.45594000000E+02  0.51100000000E-03 0. -1.
         11   -1    0    0    0    0 -0.00000000000E+00 -0.00000000000E+00 -0.45593999997E+02  0.45594000000E+02  0.51100000000E-03 0.  1.
         23    2    1    2    0    0 -0.71054273576E-14  0.00000000000E+00  0.00000000000E+00  0.91188000000E+02  0.91188000000E+02 0.  0.
    9900012    2    3    3    0    0  0.34084282990E+02 -0.25059760173E+02 -0.15472024980E+02  0.46142317811E+02  0.10000000451E+02 0.  0.
         12    1    3    3    0    0 -0.34084282990E+02  0.25059760173E+02  0.15472024980E+02  0.45045682189E+02  0.00000000000E+00 0. -1.
         11    1    4    4    0    0  0.28327156504E+02 -0.17518077720E+02 -0.14768461899E+02  0.36433752342E+02  0.51100000000E-03 0.  1.
        -11    1    4    4    0    0  0.65912873435E+00 -0.27494444730E+00  0.30146195486E+00  0.77519333646E+00  0.51100000000E-03 0. -1.
         12    1    4    4    0    0  0.50979977524E+01 -0.72667380060E+01 -0.10050250365E+01  0.89333721324E+01  0.00000000000E+00 0. -1.
</event>
<event>
 8    1  0.2962813E-009  0.9118800E+02  0.7816164E-02  0.1184000E+00
        -11   -1    0    0    0    0  0.00000000000E+00  0.00000000000E+00  0.45593999997E+02  0.45594000000E+02  0.51100000000E-03 0.  1.
         11   -1    0    0    0    0 -0.00000000000E+00 -0.00000000000E+00 -0.45593999997E+02  0.45594000000E+02  0.51100000000E-03 0. -1.
         23    2    1    2    0    0  0.35527136788E-14 -0.71054273576E-14  0.00000000000E+00  0.91188000000E+02  0.91188000000E+02 0.  0.
    9900012    2    3    3    0    0 -0.14479686409E+02 -0.37772962639E+02 -0.19815535480E+02  0.46142317950E+02  0.10000001722E+02 0.  0.
        -12    1    3    3    0    0  0.14479686409E+02  0.37772962639E+02  0.19815535480E+02  0.45045682050E+02  0.00000000000E+00 0.  1.
         11    1    4    4    0    0 -0.13045737264E+02 -0.29939555534E+02 -0.12818816707E+02  0.35084046351E+02  0.51100000000E-03 0. -1.
        -11    1    4    4    0    0 -0.91772026527E+00 -0.74609187530E+01 -0.71806617134E+01  0.10395644378E+02  0.51100000000E-03 0.  1.
         12    1    4    4    0    0 -0.51622888042E+00 -0.37248835169E+00  0.18394294078E+00  0.66262722143E+00  0.00000000000E+00 0. -1.
</event>
<event>
 8    1  0.2962813E-009  0.9118800E+02  0.7816164E-02  0.1184000E+00
        -11   -1    0    0    0    0  0.00000000000E+00  0.00000000000E+00  0.45593999997E+02  0.45594000000E+02  0.51100000000E-03 0. -1.
         11   -1    0    0    0    0 -0.00000000000E+00 -0.00000000000E+00 -0.45593999997E+02  0.45594000000E+02  0.51100000000E-03 0.  1.
         23    2    1    2    0    0  0.35527136788E-14 -0.71054273576E-14  0.17763568394E-14  0.91188000000E+02  0.91188000000E+02 0.  0.
    9900012    2    3    3    0    0  0.23665789906E+02 -0.34991605894E+02  0.15640694336E+02  0.46142318584E+02  0.10000007504E+02 0.  0.
        -12    1    3    3    0    0 -0.23665789906E+02  0.34991605894E+02 -0.15640694336E+02  0.45045681416E+02  0.00000000000E+00 0.  1.
         11    1    4    4    0    0  0.91036880171E+01 -0.13087928346E+02  0.99111169064E+01  0.18772353142E+02  0.51100000000E-03 0. -1.
        -11    1    4    4    0    0  0.11448862945E+02 -0.19765431349E+02  0.58925426773E+01  0.23589633287E+02  0.51100000000E-03 0.  1.
        -12    1    4    4    0    0  0.31132389440E+01 -0.21382461990E+01 -0.16296524774E+00  0.37803321550E+01  0.00000000000E+00 0.  1.
</event>
<event>
 8    1  0.2962813E-009  0.9118800E+02  0.7816164E-02  0.1184000E+00
        -11   -1    0    0    0    0  0.00000000000E+00  0.00000000000E+00  0.45593999997E+02  0.45594000000E+02  0.51100000000E-03 0. -1.
         11   -1    0    0    0    0 -0.00000000000E+00 -0.00000000000E+00 -0.45593999997E+02  0.45594000000E+02  0.51100000000E-03 0.  1.
         23    2    1    2    0    0 -0.35527136788E-14  0.00000000000E+00  0.00000000000E+00  0.91188000000E+02  0.91188000000E+02 0.  0.
    9900012    2    3    3    0    0  0.26082932347E+02 -0.12093683171E+02  0.34677614311E+02  0.46142318001E+02  0.10000002190E+02 0.  0.
        -12    1    3    3    0    0 -0.26082932347E+02  0.12093683171E+02 -0.34677614311E+02  0.45045681999E+02  0.00000000000E+00 0.  1.
         11    1    4    4    0    0  0.37808131329E+01  0.94722833704E-01  0.49602535901E+01  0.62375986004E+01  0.51100000000E-03 0. -1.
        -11    1    4    4    0    0  0.15452163548E+02 -0.99004788455E+01  0.25880596557E+02  0.31726867448E+02  0.51100000000E-03 0.  1.
        -12    1    4    4    0    0  0.68499556658E+01 -0.22879271593E+01  0.38367641638E+01  0.81778519526E+01  0.00000000000E+00 0.  1.
</event>
<event>
 8    1  0.2962813E-009  0.9118800E+02  0.7816164E-02  0.1184000E+00
        -11   -1    0    0    0    0  0.00000000000E+00  0.00000000000E+00  0.45593999997E+02  0.45594000000E+02  0.51100000000E-03 0. -1.
         11   -1    0    0    0    0 -0.00000000000E+00 -0.00000000000E+00 -0.45593999997E+02  0.45594000000E+02  0.51100000000E-03 0.  1.
         23    2    1    2    0    0 -0.71054273576E-14  0.88817841970E-15  0.71054273576E-14  0.91188000000E+02  0.91188000000E+02 0.  0.
    9900012    2    3    3    0    0 -0.29502880348E+02  0.45769040693E+01  0.33730483407E+02  0.46142317515E+02  0.99999977540E+01 0.  0.
        -12    1    3    3    0    0  0.29502880348E+02 -0.45769040693E+01 -0.33730483407E+02  0.45045682485E+02  0.00000000000E+00 0.  1.
         11    1    4    4    0    0 -0.13370345706E+02  0.10400792632E+01  0.13505992308E+02  0.19033122121E+02  0.51100000000E-03 0. -1.
        -11    1    4    4    0    0 -0.73611672100E+01 -0.20521181115E+01  0.81305734052E+01  0.11158144810E+02  0.51100000000E-03 0.  1.
        -12    1    4    4    0    0 -0.87713674317E+01  0.55889429176E+01  0.12093917693E+02  0.15951050584E+02  0.00000000000E+00 0.  1.
</event>
<event>
 8    1  0.2962813E-009  0.9118800E+02  0.7816164E-02  0.1184000E+00
        -11   -1    0    0    0    0  0.00000000000E+00  0.00000000000E+00  0.45593999997E+02  0.45594000000E+02  0.51100000000E-03 0. -1.
         11   -1    0    0    0    0 -0.00000000000E+00 -0.00000000000E+00 -0.45593999997E+02  0.45594000000E+02  0.51100000000E-03 0.  1.
         23    2    1    2    0    0  0.00000000000E+00  0.00000000000E+00  0.00000000000E+00  0.91188000000E+02  0.91188000000E+02 0.  0.
    9900012    2    3    3    0    0 -0.19702620004E+02  0.93151006517E+01  0.39422698886E+02  0.46142317381E+02  0.99999965346E+01 0.  0.
        -12    1    3    3    0    0  0.19702620004E+02 -0.93151006517E+01 -0.39422698886E+02  0.45045682619E+02  0.00000000000E+00 0.  1.
         11    1    4    4    0    0 -0.85171150017E+01  0.57334495289E+01  0.26061386961E+02  0.28010883278E+02  0.51100000000E-03 0. -1.
        -11    1    4    4    0    0 -0.47413338237E+01 -0.89088406656E-01  0.41175046109E+01  0.62802888193E+01  0.51100000000E-03 0.  1.
         12    1    4    4    0    0 -0.64441711781E+01  0.36707395295E+01  0.92438073143E+01  0.11851145284E+02  0.00000000000E+00 0. -1.
</event>
<event>
 8    1  0.2962813E-009  0.9118800E+02  0.7816164E-02  0.1184000E+00
        -11   -1    0    0    0    0  0.00000000000E+00  0.00000000000E+00  0.45593999997E+02  0.45594000000E+02  0.51100000000E-03 0. -1.
         11   -1    0    0    0    0 -0.00000000000E+00 -0.00000000000E+00 -0.45593999997E+02  0.45594000000E+02  0.51100000000E-03 0.  1.
         23    2    1    2    0    0  0.17763568394E-14  0.00000000000E+00  0.00000000000E+00  0.91188000000E+02  0.91188000000E+02 0.  0.
    9900012    2    3    3    0    0  0.14260198336E+02 -0.79641673045E+01  0.41980141074E+02  0.46142318054E+02  0.10000002668E+02 0.  0.
        -12    1    3    3    0    0 -0.14260198336E+02  0.79641673045E+01 -0.41980141074E+02  0.45045681946E+02  0.00000000000E+00 0.  1.
         11    1    4    4    0    0  0.28720773951E+00 -0.16628759837E+01  0.91923875824E+01  0.93459956425E+01  0.51100000000E-03 0. -1.
        -11    1    4    4    0    0  0.60042021209E+01 -0.52913458469E+01  0.11223524802E+02  0.13784639757E+02  0.51100000000E-03 0.  1.
         12    1    4    4    0    0  0.79687884760E+01 -0.10099454740E+01  0.21564228689E+02  0.23011682654E+02  0.00000000000E+00 0. -1.
</event>
<event>
 8    1  0.2962813E-009  0.9118800E+02  0.7816164E-02  0.1184000E+00
        -11   -1    0    0    0    0  0.00000000000E+00  0.00000000000E+00  0.45593999997E+02  0.45594000000E+02  0.51100000000E-03 0. -1.
         11   -1    0    0    0    0 -0.00000000000E+00 -0.00000000000E+00 -0.45593999997E+02  0.45594000000E+02  0.51100000000E-03 0.  1.
         23    2    1    2    0    0 -0.17763568394E-14  0.00000000000E+00  0.00000000000E+00  0.91188000000E+02  0.91188000000E+02 0.  0.
    9900012    2    3    3    0    0 -0.14529014637E+02 -0.64640060369E+01 -0.42145437677E+02  0.46142316996E+02  0.99999930190E+01 0.  0.
         12    1    3    3    0    0  0.14529014637E+02  0.64640060369E+01  0.42145437677E+02  0.45045683004E+02  0.00000000000E+00 0. -1.
         11    1    4    4    0    0  0.89136277582E+00  0.50691085087E+00 -0.68838942776E+00  0.12350572757E+01  0.51100000000E-03 0. -1.
        -11    1    4    4    0    0 -0.50647425482E+01 -0.10966767496E+01 -0.98061149668E+01  0.11091177033E+02  0.51100000000E-03 0.  1.
         12    1    4    4    0    0 -0.10355634864E+02 -0.58742401381E+01 -0.31650933282E+02  0.33816082687E+02  0.00000000000E+00 0. -1.
</event>
<event>
 8    1  0.2962813E-009  0.9118800E+02  0.7816164E-02  0.1184000E+00
        -11   -1    0    0    0    0  0.00000000000E+00  0.00000000000E+00  0.45593999997E+02  0.45594000000E+02  0.51100000000E-03 0. -1.
         11   -1    0    0    0    0 -0.00000000000E+00 -0.00000000000E+00 -0.45593999997E+02  0.45594000000E+02  0.51100000000E-03 0.  1.
         23    2    1    2    0    0  0.00000000000E+00  0.71054273576E-14  0.00000000000E+00  0.91188000000E+02  0.91188000000E+02 0.  0.
    9900012    2    3    3    0    0 -0.72948513917E+01  0.42846151170E+02  0.11836634854E+02  0.46142318170E+02  0.10000003728E+02 0.  0.
        -12    1    3    3    0    0  0.72948513917E+01 -0.42846151170E+02 -0.11836634854E+02  0.45045681830E+02  0.00000000000E+00 0.  1.
         11    1    4    4    0    0  0.15036800535E+01  0.50250600448E+01  0.24218484035E+01  0.57773378045E+01  0.51100000000E-03 0. -1.
        -11    1    4    4    0    0 -0.41595871685E+01  0.75948550122E+01  0.16619761083E+01  0.88173778934E+01  0.51100000000E-03 0.  1.
        -12    1    4    4    0    0 -0.46389442767E+01  0.30226236113E+02  0.77528103418E+01  0.31547602472E+02  0.00000000000E+00 0.  1.
</event>
<event>
 8    1  0.3123818E-009  0.9118800E+02  0.7816164E-02  0.1184000E+00
        -11   -1    0    0    0    0  0.00000000000E+00  0.00000000000E+00  0.45593999997E+02  0.45594000000E+02  0.51100000000E-03 0. -1.
         11   -1    0    0    0    0 -0.00000000000E+00 -0.00000000000E+00 -0.45593999997E+02  0.45594000000E+02  0.51100000000E-03 0.  1.
         23    2    1    2    0    0 -0.35527136788E-14  0.00000000000E+00  0.00000000000E+00  0.91188000000E+02  0.91188000000E+02 0.  0.
    9900012    2    3    3    0    0  0.20693435970E+02  0.87447274064E+01 -0.39043884508E+02  0.46142317996E+02  0.10000002146E+02 0.  0.
         12    1    3    3    0    0 -0.20693435970E+02 -0.87447274064E+01  0.39043884508E+02  0.45045682004E+02  0.00000000000E+00 0. -1.
         11    1    4    4    0    0  0.11104138562E+01  0.98802700562E+00 -0.93296627814E+00  0.17548910602E+01  0.51100000000E-03 0. -1.
        -11    1    4    4    0    0  0.11155407072E+02  0.17020785749E+01 -0.12986433734E+02  0.17204291319E+02  0.51100000000E-03 0.  1.
        -12    1    4    4    0    0  0.84276150413E+01  0.60546218260E+01 -0.25124484497E+02  0.27183135617E+02  0.00000000000E+00 0.  1.
</event>
<event>
 8    1  0.2962813E-009  0.9118800E+02  0.7816164E-02  0.1184000E+00
        -11   -1    0    0    0    0  0.00000000000E+00  0.00000000000E+00  0.45593999997E+02  0.45594000000E+02  0.51100000000E-03 0. -1.
         11   -1    0    0    0    0 -0.00000000000E+00 -0.00000000000E+00 -0.45593999997E+02  0.45594000000E+02  0.51100000000E-03 0.  1.
         23    2    1    2    0    0 -0.35527136788E-14  0.35527136788E-14  0.00000000000E+00  0.91188000000E+02  0.91188000000E+02 0.  0.
    9900012    2    3    3    0    0 -0.17252076673E+02  0.26092273844E+02  0.32414080124E+02  0.46142317697E+02  0.99999994150E+01 0.  0.
        -12    1    3    3    0    0  0.17252076673E+02 -0.26092273844E+02 -0.32414080124E+02  0.45045682303E+02  0.00000000000E+00 0.  1.
         11    1    4    4    0    0 -0.15603143287E+02  0.16591804652E+02  0.22630228111E+02  0.32107215492E+02  0.51100000000E-03 0. -1.
        -11    1    4    4    0    0  0.42799744496E-01  0.38176481258E+01  0.21926615686E+01  0.44027302945E+01  0.51100000000E-03 0.  1.
         12    1    4    4    0    0 -0.16917331298E+01  0.56828210658E+01  0.75911904448E+01  0.96323719103E+01  0.00000000000E+00 0. -1.
</event>
<event>
 8    1  0.2962813E-009  0.9118800E+02  0.7816164E-02  0.1184000E+00
        -11   -1    0    0    0    0  0.00000000000E+00  0.00000000000E+00  0.45593999997E+02  0.45594000000E+02  0.51100000000E-03 0. -1.
         11   -1    0    0    0    0 -0.00000000000E+00 -0.00000000000E+00 -0.45593999997E+02  0.45594000000E+02  0.51100000000E-03 0.  1.
         23    2    1    2    0    0 -0.71054273576E-14  0.00000000000E+00  0.00000000000E+00  0.91188000000E+02  0.91188000000E+02 0.  0.
    9900012    2    3    3    0    0  0.29387181115E+02  0.30103276651E+02 -0.16102792516E+02  0.46142316457E+02  0.99999881066E+01 0.  0.
         12    1    3    3    0    0 -0.29387181115E+02 -0.30103276651E+02  0.16102792516E+02  0.45045683543E+02  0.00000000000E+00 0. -1.
         11    1    4    4    0    0  0.13854860632E+02  0.15856974133E+02 -0.10750900068E+02  0.23642813799E+02  0.51100000000E-03 0.  1.
        -11    1    4    4    0    0  0.11331200671E+02  0.65709871687E+01 -0.29669021777E+01  0.13430431483E+02  0.51100000000E-03 0. -1.
        -12    1    4    4    0    0  0.42011198124E+01  0.76753153493E+01 -0.23849902698E+01  0.90690711750E+01  0.00000000000E+00 0.  1.
</event>
<event>
 8    1  0.2962813E-009  0.9118800E+02  0.7816164E-02  0.1184000E+00
        -11   -1    0    0    0    0  0.00000000000E+00  0.00000000000E+00  0.45593999997E+02  0.45594000000E+02  0.51100000000E-03 0. -1.
         11   -1    0    0    0    0 -0.00000000000E+00 -0.00000000000E+00 -0.45593999997E+02  0.45594000000E+02  0.51100000000E-03 0.  1.
         23    2    1    2    0    0  0.00000000000E+00 -0.35527136788E-14  0.00000000000E+00  0.91188000000E+02  0.91188000000E+02 0.  0.
    9900012    2    3    3    0    0  0.21042701462E+02  0.22737239335E+02 -0.32700705560E+02  0.46142317837E+02  0.10000000691E+02 0.  0.
         12    1    3    3    0    0 -0.21042701462E+02 -0.22737239335E+02  0.32700705560E+02  0.45045682163E+02  0.00000000000E+00 0. -1.
         11    1    4    4    0    0  0.13401329682E+02  0.13861938472E+02 -0.14764201039E+02  0.24284369624E+02  0.51100000000E-03 0. -1.
        -11    1    4    4    0    0 -0.50380298356E+00  0.11881369812E+01 -0.19646506103E+01  0.23506040105E+01  0.51100000000E-03 0.  1.
        -12    1    4    4    0    0  0.81451747633E+01  0.76871638819E+01 -0.15971853911E+02  0.19507344203E+02  0.00000000000E+00 0.  1.
</event>
<event>
 8    1  0.2962813E-009  0.9118800E+02  0.7816164E-02  0.1184000E+00
        -11   -1    0    0    0    0  0.00000000000E+00  0.00000000000E+00  0.45593999997E+02  0.45594000000E+02  0.51100000000E-03 0. -1.
         11   -1    0    0    0    0 -0.00000000000E+00 -0.00000000000E+00 -0.45593999997E+02  0.45594000000E+02  0.51100000000E-03 0.  1.
         23    2    1    2    0    0  0.00000000000E+00 -0.44408920985E-15 -0.35527136788E-14  0.91188000000E+02  0.91188000000E+02 0.  0.
    9900012    2    3    3    0    0  0.35593175085E+02  0.39791367547E+01  0.27320428704E+02  0.46142318003E+02  0.10000002210E+02 0.  0.
        -12    1    3    3    0    0 -0.35593175085E+02 -0.39791367547E+01 -0.27320428704E+02  0.45045681997E+02  0.00000000000E+00 0.  1.
         11    1    4    4    0    0  0.25693921950E+02  0.42013642992E+01  0.21403406531E+02  0.33703633314E+02  0.51100000000E-03 0. -1.
        -11    1    4    4    0    0  0.87364039578E+00 -0.29259294838E+00 -0.77390737275E+00  0.12032418948E+01  0.51100000000E-03 0.  1.
         12    1    4    4    0    0  0.90256127393E+01  0.70365403824E-01  0.66909295454E+01  0.11235442795E+02  0.00000000000E+00 0. -1.
</event>
<event>
 8    1  0.2962813E-009  0.9118800E+02  0.7816164E-02  0.1184000E+00
        -11   -1    0    0    0    0  0.00000000000E+00  0.00000000000E+00  0.45593999997E+02  0.45594000000E+02  0.51100000000E-03 0. -1.
         11   -1    0    0    0    0 -0.00000000000E+00 -0.00000000000E+00 -0.45593999997E+02  0.45594000000E+02  0.51100000000E-03 0.  1.
         23    2    1    2    0    0  0.17763568394E-14  0.00000000000E+00  0.71054273576E-14  0.91188000000E+02  0.91188000000E+02 0.  0.
    9900012    2    3    3    0    0  0.85014757902E+01 -0.17253425383E+02 -0.40732759424E+02  0.46142317983E+02  0.10000002023E+02 0.  0.
         12    1    3    3    0    0 -0.85014757902E+01  0.17253425383E+02  0.40732759424E+02  0.45045682017E+02  0.00000000000E+00 0. -1.
         11    1    4    4    0    0  0.60971245881E+01 -0.63669029350E+01 -0.11220291409E+02  0.14269103714E+02  0.51100000000E-03 0. -1.
        -11    1    4    4    0    0  0.28895658702E+01 -0.64996352620E+01 -0.22403435673E+02  0.23505505305E+02  0.51100000000E-03 0.  1.
        -12    1    4    4    0    0 -0.48521466803E+00 -0.43868871864E+01 -0.71090323421E+01  0.83677089637E+01  0.00000000000E+00 0.  1.
</event>
<event>
 8    1  0.2962813E-009  0.9118800E+02  0.7816164E-02  0.1184000E+00
        -11   -1    0    0    0    0  0.00000000000E+00  0.00000000000E+00  0.45593999997E+02  0.45594000000E+02  0.51100000000E-03 0. -1.
         11   -1    0    0    0    0 -0.00000000000E+00 -0.00000000000E+00 -0.45593999997E+02  0.45594000000E+02  0.51100000000E-03 0.  1.
         23    2    1    2    0    0  0.00000000000E+00  0.00000000000E+00 -0.35527136788E-14  0.91188000000E+02  0.91188000000E+02 0.  0.
    9900012    2    3    3    0    0 -0.17221357068E+02  0.38045747455E+02 -0.16883702872E+02  0.46142318061E+02  0.10000002736E+02 0.  0.
         12    1    3    3    0    0  0.17221357068E+02 -0.38045747455E+02  0.16883702872E+02  0.45045681939E+02  0.00000000000E+00 0. -1.
         11    1    4    4    0    0 -0.27229766432E+01  0.18440128374E+01 -0.13492440958E+01  0.35546371172E+01  0.51100000000E-03 0. -1.
        -11    1    4    4    0    0 -0.83803609777E+01  0.22872767073E+02 -0.59766172404E+01  0.25082142604E+02  0.51100000000E-03 0.  1.
        -12    1    4    4    0    0 -0.61180194469E+01  0.13328967544E+02 -0.95578415361E+01  0.17505538340E+02  0.00000000000E+00 0.  1.
</event>
<event>
 8    1  0.2962813E-009  0.9118800E+02  0.7816164E-02  0.1184000E+00
        -11   -1    0    0    0    0  0.00000000000E+00  0.00000000000E+00  0.45593999997E+02  0.45594000000E+02  0.51100000000E-03 0. -1.
         11   -1    0    0    0    0 -0.00000000000E+00 -0.00000000000E+00 -0.45593999997E+02  0.45594000000E+02  0.51100000000E-03 0.  1.
         23    2    1    2    0    0 -0.71054273576E-14 -0.88817841970E-15  0.71054273576E-14  0.91188000000E+02  0.91188000000E+02 0.  0.
    9900012    2    3    3    0    0 -0.29255858504E+02 -0.60811571845E+01  0.33707976656E+02  0.46142318522E+02  0.10000006941E+02 0.  0.
        -12    1    3    3    0    0  0.29255858504E+02  0.60811571845E+01 -0.33707976656E+02  0.45045681478E+02  0.00000000000E+00 0.  1.
         11    1    4    4    0    0 -0.22460594669E+02 -0.32798818034E+01  0.27316860102E+02  0.35516852107E+02  0.51100000000E-03 0. -1.
        -11    1    4    4    0    0 -0.41821573099E+01 -0.36312514148E+01  0.53265169121E+01  0.76842832638E+01  0.51100000000E-03 0.  1.
        -12    1    4    4    0    0 -0.26131065256E+01  0.82997603368E+00  0.10645996423E+01  0.29411831512E+01  0.00000000000E+00 0.  1.
</event>
<event>
 8    1  0.2962813E-009  0.9118800E+02  0.7816164E-02  0.1184000E+00
        -11   -1    0    0    0    0  0.00000000000E+00  0.00000000000E+00  0.45593999997E+02  0.45594000000E+02  0.51100000000E-03 0. -1.
         11   -1    0    0    0    0 -0.00000000000E+00 -0.00000000000E+00 -0.45593999997E+02  0.45594000000E+02  0.51100000000E-03 0.  1.
         23    2    1    2    0    0  0.00000000000E+00  0.00000000000E+00  0.00000000000E+00  0.91188000000E+02  0.91188000000E+02 0.  0.
    9900012    2    3    3    0    0  0.10326945691E+02 -0.32964937644E+02 -0.28909869575E+02  0.46142317854E+02  0.10000000846E+02 0.  0.
         12    1    3    3    0    0 -0.10326945691E+02  0.32964937644E+02  0.28909869575E+02  0.45045682146E+02  0.00000000000E+00 0. -1.
         11    1    4    4    0    0 -0.13142037380E-01 -0.10190941717E+02 -0.12439196540E+02  0.16080705104E+02  0.51100000000E-03 0. -1.
        -11    1    4    4    0    0  0.59659893598E+01 -0.10387641813E+02 -0.86250173461E+01  0.14760997797E+02  0.51100000000E-03 0.  1.
         12    1    4    4    0    0  0.43740983690E+01 -0.12386354114E+02 -0.78456556881E+01  0.15300614954E+02  0.00000000000E+00 0. -1.
</event>
<event>
 8    1  0.2962813E-009  0.9118800E+02  0.7816164E-02  0.1184000E+00
        -11   -1    0    0    0    0  0.00000000000E+00  0.00000000000E+00  0.45593999997E+02  0.45594000000E+02  0.51100000000E-03 0. -1.
         11   -1    0    0    0    0 -0.00000000000E+00 -0.00000000000E+00 -0.45593999997E+02  0.45594000000E+02  0.51100000000E-03 0.  1.
         23    2    1    2    0    0  0.00000000000E+00  0.00000000000E+00  0.71054273576E-14  0.91188000000E+02  0.91188000000E+02 0.  0.
    9900012    2    3    3    0    0 -0.28548406052E+02  0.16770929365E+02  0.30542395365E+02  0.46142317915E+02  0.10000001401E+02 0.  0.
        -12    1    3    3    0    0  0.28548406052E+02 -0.16770929365E+02 -0.30542395365E+02  0.45045682085E+02  0.00000000000E+00 0.  1.
         11    1    4    4    0    0 -0.11467971145E+02  0.69523620117E+01  0.17620672879E+02  0.22143572717E+02  0.51100000000E-03 0. -1.
        -11    1    4    4    0    0 -0.58805163507E+01  0.33942680156E+01  0.19749536617E+01  0.70712071205E+01  0.51100000000E-03 0.  1.
        -12    1    4    4    0    0 -0.11199918556E+02  0.64242993373E+01  0.10946768825E+02  0.16927538077E+02  0.00000000000E+00 0.  1.
</event>
<event>
 8    1  0.2962813E-009  0.9118800E+02  0.7816164E-02  0.1184000E+00
        -11   -1    0    0    0    0  0.00000000000E+00  0.00000000000E+00  0.45593999997E+02  0.45594000000E+02  0.51100000000E-03 0. -1.
         11   -1    0    0    0    0 -0.00000000000E+00 -0.00000000000E+00 -0.45593999997E+02  0.45594000000E+02  0.51100000000E-03 0.  1.
         23    2    1    2    0    0  0.00000000000E+00  0.35527136788E-14  0.00000000000E+00  0.91188000000E+02  0.91188000000E+02 0.  0.
    9900012    2    3    3    0    0  0.23758874575E+02 -0.26256311296E+02 -0.27843049140E+02  0.46142318860E+02  0.10000010019E+02 0.  0.
         12    1    3    3    0    0 -0.23758874575E+02  0.26256311296E+02  0.27843049140E+02  0.45045681140E+02  0.00000000000E+00 0. -1.
         11    1    4    4    0    0  0.11750877066E+01 -0.33721323180E+01 -0.24779573739E+01  0.43465366093E+01  0.51100000000E-03 0. -1.
        -11    1    4    4    0    0  0.17797845388E+02 -0.12394274503E+02 -0.16443008389E+02  0.27216793824E+02  0.51100000000E-03 0.  1.
        -12    1    4    4    0    0  0.47859414806E+01 -0.10489904475E+02 -0.89220833772E+01  0.14578988427E+02  0.00000000000E+00 0.  1.
</event>
<event>
 8    1  0.2962813E-009  0.9118800E+02  0.7816164E-02  0.1184000E+00
        -11   -1    0    0    0    0  0.00000000000E+00  0.00000000000E+00  0.45593999997E+02  0.45594000000E+02  0.51100000000E-03 0.  1.
         11   -1    0    0    0    0 -0.00000000000E+00 -0.00000000000E+00 -0.45593999997E+02  0.45594000000E+02  0.51100000000E-03 0. -1.
         23    2    1    2    0    0 -0.88817841970E-15  0.71054273576E-14  0.00000000000E+00  0.91188000000E+02  0.91188000000E+02 0.  0.
    9900012    2    3    3    0    0 -0.77934160784E+01  0.44186302283E+02  0.39933588158E+01  0.46142316985E+02  0.99999929233E+01 0.  0.
        -12    1    3    3    0    0  0.77934160784E+01 -0.44186302283E+02 -0.39933588158E+01  0.45045683015E+02  0.00000000000E+00 0.  1.
         11    1    4    4    0    0 -0.26345207639E+01  0.31589662079E+02  0.36725548387E+00  0.31701456225E+02  0.51100000000E-03 0. -1.
        -11    1    4    4    0    0 -0.31817027338E+00  0.10260746058E+01  0.12969350059E+01  0.16840730656E+01  0.51100000000E-03 0.  1.
         12    1    4    4    0    0 -0.48407250412E+01  0.11570565598E+02  0.23291683260E+01  0.12756787694E+02  0.00000000000E+00 0. -1.
</event>
<event>
 8    1  0.2962813E-009  0.9118800E+02  0.7816164E-02  0.1184000E+00
        -11   -1    0    0    0    0  0.00000000000E+00  0.00000000000E+00  0.45593999997E+02  0.45594000000E+02  0.51100000000E-03 0.  1.
         11   -1    0    0    0    0 -0.00000000000E+00 -0.00000000000E+00 -0.45593999997E+02  0.45594000000E+02  0.51100000000E-03 0. -1.
         23    2    1    2    0    0  0.88817841970E-15  0.71054273576E-14  0.00000000000E+00  0.91188000000E+02  0.91188000000E+02 0.  0.
    9900012    2    3    3    0    0 -0.70636125508E+01 -0.41890448162E+02  0.14980292925E+02  0.46142318236E+02  0.10000004332E+02 0.  0.
         12    1    3    3    0    0  0.70636125508E+01  0.41890448162E+02 -0.14980292925E+02  0.45045681764E+02  0.00000000000E+00 0. -1.
         11    1    4    4    0    0 -0.10910710702E+01 -0.23553060963E+02  0.10380325738E+02  0.25762148192E+02  0.51100000000E-03 0. -1.
        -11    1    4    4    0    0 -0.43249466678E+01 -0.15400864300E+02  0.54637701964E+01  0.16903980889E+02  0.51100000000E-03 0.  1.
         12    1    4    4    0    0 -0.16475948128E+01 -0.29365228985E+01 -0.86380300931E+00  0.34761891548E+01  0.00000000000E+00 0. -1.
</event>
<event>
 8    1  0.2962813E-009  0.9118800E+02  0.7816164E-02  0.1184000E+00
        -11   -1    0    0    0    0  0.00000000000E+00  0.00000000000E+00  0.45593999997E+02  0.45594000000E+02  0.51100000000E-03 0. -1.
         11   -1    0    0    0    0 -0.00000000000E+00 -0.00000000000E+00 -0.45593999997E+02  0.45594000000E+02  0.51100000000E-03 0.  1.
         23    2    1    2    0    0  0.35527136788E-14  0.00000000000E+00  0.00000000000E+00  0.91188000000E+02  0.91188000000E+02 0.  0.
    9900012    2    3    3    0    0  0.30114806037E+02 -0.36461022901E+01 -0.33300419096E+02  0.46142317448E+02  0.99999971463E+01 0.  0.
         12    1    3    3    0    0 -0.30114806037E+02  0.36461022901E+01  0.33300419096E+02  0.45045682552E+02  0.00000000000E+00 0. -1.
         11    1    4    4    0    0  0.10744003995E+01  0.52308729045E+00 -0.42527883786E+01  0.44174841014E+01  0.51100000000E-03 0.  1.
        -11    1    4    4    0    0  0.68019164824E+01 -0.20241014853E+01 -0.10574099840E+02  0.12734780812E+02  0.51100000000E-03 0. -1.
        -12    1    4    4    0    0  0.22238489155E+02 -0.21450880953E+01 -0.18473530878E+02  0.28990052534E+02  0.00000000000E+00 0.  1.
</event>
<event>
 8    1  0.2962813E-009  0.9118800E+02  0.7816164E-02  0.1184000E+00
        -11   -1    0    0    0    0  0.00000000000E+00  0.00000000000E+00  0.45593999997E+02  0.45594000000E+02  0.51100000000E-03 0. -1.
         11   -1    0    0    0    0 -0.00000000000E+00 -0.00000000000E+00 -0.45593999997E+02  0.45594000000E+02  0.51100000000E-03 0.  1.
         23    2    1    2    0    0  0.35527136788E-14 -0.71054273576E-14  0.35527136788E-14  0.91188000000E+02  0.91188000000E+02 0.  0.
    9900012    2    3    3    0    0 -0.19572905478E+02  0.34143336581E+02 -0.21914547044E+02  0.46142318366E+02  0.10000005512E+02 0.  0.
         12    1    3    3    0    0  0.19572905478E+02 -0.34143336581E+02  0.21914547044E+02  0.45045681634E+02  0.00000000000E+00 0. -1.
         11    1    4    4    0    0 -0.43160765561E+01  0.30497662203E+01 -0.37909047648E+01  0.65038873017E+01  0.51100000000E-03 0. -1.
        -11    1    4    4    0    0 -0.50899353941E+00  0.28068890361E+01  0.18283140305E+00  0.28585185092E+01  0.51100000000E-03 0.  1.
        -12    1    4    4    0    0 -0.14747835382E+02  0.28286681325E+02 -0.18306473683E+02  0.36779912555E+02  0.00000000000E+00 0.  1.
</event>
<event>
 8    1  0.2962813E-009  0.9118800E+02  0.7816164E-02  0.1184000E+00
        -11   -1    0    0    0    0  0.00000000000E+00  0.00000000000E+00  0.45593999997E+02  0.45594000000E+02  0.51100000000E-03 0. -1.
         11   -1    0    0    0    0 -0.00000000000E+00 -0.00000000000E+00 -0.45593999997E+02  0.45594000000E+02  0.51100000000E-03 0.  1.
         23    2    1    2    0    0  0.00000000000E+00  0.00000000000E+00 -0.35527136788E-14  0.91188000000E+02  0.91188000000E+02 0.  0.
    9900012    2    3    3    0    0 -0.38843114962E+02 -0.35488753124E+01  0.22532901629E+02  0.46142314837E+02  0.99999733401E+01 0.  0.
        -12    1    3    3    0    0  0.38843114962E+02  0.35488753124E+01 -0.22532901629E+02  0.45045685163E+02  0.00000000000E+00 0.  1.
         11    1    4    4    0    0 -0.34455921844E+02 -0.48195606189E+01  0.22366977485E+02  0.41360855852E+02  0.51100000000E-03 0. -1.
        -11    1    4    4    0    0 -0.37582104689E+01  0.78222472963E+00 -0.31413232507E+00  0.38515841981E+01  0.51100000000E-03 0.  1.
         12    1    4    4    0    0 -0.62898264916E+00  0.48846057678E+00  0.48005646864E+00  0.92987478786E+00  0.00000000000E+00 0. -1.
</event>
<event>
 8    1  0.2962813E-009  0.9118800E+02  0.7816164E-02  0.1184000E+00
        -11   -1    0    0    0    0  0.00000000000E+00  0.00000000000E+00  0.45593999997E+02  0.45594000000E+02  0.51100000000E-03 0. -1.
         11   -1    0    0    0    0 -0.00000000000E+00 -0.00000000000E+00 -0.45593999997E+02  0.45594000000E+02  0.51100000000E-03 0.  1.
         23    2    1    2    0    0 -0.44408920985E-15  0.00000000000E+00  0.00000000000E+00  0.91188000000E+02  0.91188000000E+02 0.  0.
    9900012    2    3    3    0    0 -0.29296489266E+01 -0.11463050989E+02 -0.43464112311E+02  0.46142318300E+02  0.10000004915E+02 0.  0.
         12    1    3    3    0    0  0.29296489266E+01  0.11463050989E+02  0.43464112311E+02  0.45045681700E+02  0.00000000000E+00 0. -1.
         11    1    4    4    0    0 -0.35339668969E+01 -0.50079541955E+01 -0.24453597418E+02  0.25210056608E+02  0.51100000000E-03 0. -1.
        -11    1    4    4    0    0  0.19392483910E+01 -0.30861628625E+01 -0.15367552685E+02  0.15793883669E+02  0.51100000000E-03 0.  1.
         12    1    4    4    0    0 -0.13349304208E+01 -0.33689339315E+01 -0.36429622076E+01  0.51383780232E+01  0.00000000000E+00 0. -1.
</event>
<event>
 8    1  0.2962813E-009  0.9118800E+02  0.7816164E-02  0.1184000E+00
        -11   -1    0    0    0    0  0.00000000000E+00  0.00000000000E+00  0.45593999997E+02  0.45594000000E+02  0.51100000000E-03 0. -1.
         11   -1    0    0    0    0 -0.00000000000E+00 -0.00000000000E+00 -0.45593999997E+02  0.45594000000E+02  0.51100000000E-03 0.  1.
         23    2    1    2    0    0  0.71054273576E-14 -0.17763568394E-14  0.71054273576E-14  0.91188000000E+02  0.91188000000E+02 0.  0.
    9900012    2    3    3    0    0 -0.29423688814E+02  0.12032882736E+02 -0.31915039226E+02  0.46142318085E+02  0.10000002957E+02 0.  0.
         12    1    3    3    0    0  0.29423688814E+02 -0.12032882736E+02  0.31915039226E+02  0.45045681915E+02  0.00000000000E+00 0. -1.
         11    1    4    4    0    0 -0.10656766095E+02  0.24101960653E+01 -0.66023921081E+01  0.12765864267E+02  0.51100000000E-03 0. -1.
        -11    1    4    4    0    0 -0.15117651170E+02  0.63492564986E+01 -0.16319955557E+02  0.23134333460E+02  0.51100000000E-03 0.  1.
         12    1    4    4    0    0 -0.36492715488E+01  0.32734301719E+01 -0.89926915613E+01  0.10242120359E+02  0.00000000000E+00 0. -1.
</event>
<event>
 8    1  0.2962813E-009  0.9118800E+02  0.7816164E-02  0.1184000E+00
        -11   -1    0    0    0    0  0.00000000000E+00  0.00000000000E+00  0.45593999997E+02  0.45594000000E+02  0.51100000000E-03 0. -1.
         11   -1    0    0    0    0 -0.00000000000E+00 -0.00000000000E+00 -0.45593999997E+02  0.45594000000E+02  0.51100000000E-03 0.  1.
         23    2    1    2    0    0 -0.17763568394E-14  0.00000000000E+00  0.00000000000E+00  0.91188000000E+02  0.91188000000E+02 0.  0.
    9900012    2    3    3    0    0  0.14894679860E+02  0.39876101769E+02  0.14736299723E+02  0.46142317522E+02  0.99999978153E+01 0.  0.
        -12    1    3    3    0    0 -0.14894679860E+02 -0.39876101769E+02 -0.14736299723E+02  0.45045682478E+02  0.00000000000E+00 0.  1.
         11    1    4    4    0    0  0.10445255102E+02  0.21922652678E+02  0.79575860804E+01  0.25554436623E+02  0.51100000000E-03 0. -1.
        -11    1    4    4    0    0  0.23073296879E+01  0.21566310884E+01 -0.24495250377E+00  0.31677799688E+01  0.51100000000E-03 0.  1.
        -12    1    4    4    0    0  0.21420950699E+01  0.15796818002E+02  0.70236661465E+01  0.17420100930E+02  0.00000000000E+00 0.  1.
</event>
<event>
 8    1  0.2962813E-009  0.9118800E+02  0.7816164E-02  0.1184000E+00
        -11   -1    0    0    0    0  0.00000000000E+00  0.00000000000E+00  0.45593999997E+02  0.45594000000E+02  0.51100000000E-03 0. -1.
         11   -1    0    0    0    0 -0.00000000000E+00 -0.00000000000E+00 -0.45593999997E+02  0.45594000000E+02  0.51100000000E-03 0.  1.
         23    2    1    2    0    0 -0.17763568394E-14  0.00000000000E+00 -0.35527136788E-14  0.91188000000E+02  0.91188000000E+02 0.  0.
    9900012    2    3    3    0    0  0.15040511782E+02 -0.36307130081E+02  0.22015657126E+02  0.46142313768E+02  0.99999635920E+01 0.  0.
        -12    1    3    3    0    0 -0.15040511782E+02  0.36307130081E+02 -0.22015657126E+02  0.45045686232E+02  0.00000000000E+00 0.  1.
         11    1    4    4    0    0  0.13605922441E+02 -0.31557095566E+02  0.19720210002E+02  0.39621434714E+02  0.51100000000E-03 0. -1.
        -11    1    4    4    0    0 -0.12977451551E+00 -0.44416274211E+01  0.20990412311E+01  0.49143534593E+01  0.51100000000E-03 0.  1.
         12    1    4    4    0    0  0.15643638573E+01 -0.30840709410E+00  0.19640589286E+00  0.16065255953E+01  0.00000000000E+00 0. -1.
</event>
<event>
 8    1  0.2962813E-009  0.9118800E+02  0.7816164E-02  0.1184000E+00
        -11   -1    0    0    0    0  0.00000000000E+00  0.00000000000E+00  0.45593999997E+02  0.45594000000E+02  0.51100000000E-03 0. -1.
         11   -1    0    0    0    0 -0.00000000000E+00 -0.00000000000E+00 -0.45593999997E+02  0.45594000000E+02  0.51100000000E-03 0.  1.
         23    2    1    2    0    0  0.00000000000E+00  0.00000000000E+00 -0.71054273576E-14  0.91188000000E+02  0.91188000000E+02 0.  0.
    9900012    2    3    3    0    0 -0.11471111356E+02 -0.32782902638E+02  0.28684636655E+02  0.46142317842E+02  0.10000000735E+02 0.  0.
        -12    1    3    3    0    0  0.11471111356E+02  0.32782902638E+02 -0.28684636655E+02  0.45045682158E+02  0.00000000000E+00 0.  1.
         11    1    4    4    0    0 -0.84795720649E+01 -0.17257361828E+02  0.20125342117E+02  0.27834314708E+02  0.51100000000E-03 0. -1.
        -11    1    4    4    0    0  0.71021995020E+00 -0.43021698929E+01  0.20963256818E+01  0.48381463176E+01  0.51100000000E-03 0.  1.
         12    1    4    4    0    0 -0.37017592411E+01 -0.11223370917E+02  0.64629688556E+01  0.13469856816E+02  0.00000000000E+00 0. -1.
</event>
<event>
 8    1  0.2962813E-009  0.9118800E+02  0.7816164E-02  0.1184000E+00
        -11   -1    0    0    0    0  0.00000000000E+00  0.00000000000E+00  0.45593999997E+02  0.45594000000E+02  0.51100000000E-03 0. -1.
         11   -1    0    0    0    0 -0.00000000000E+00 -0.00000000000E+00 -0.45593999997E+02  0.45594000000E+02  0.51100000000E-03 0.  1.
         23    2    1    2    0    0  0.17763568394E-14 -0.22204460493E-15 -0.71054273576E-14  0.91188000000E+02  0.91188000000E+02 0.  0.
    9900012    2    3    3    0    0  0.59660248229E+01 -0.19603641859E+01 -0.44605793080E+02  0.46142320338E+02  0.10000023497E+02 0.  0.
         12    1    3    3    0    0 -0.59660248229E+01  0.19603641859E+01  0.44605793080E+02  0.45045679662E+02  0.00000000000E+00 0. -1.
         11    1    4    4    0    0  0.23730301331E+01  0.71376098621E+00 -0.58656258353E+01  0.63675971495E+01  0.51100000000E-03 0. -1.
        -11    1    4    4    0    0  0.54976490212E+01  0.22450707015E+00 -0.25589793055E+02  0.26174645309E+02  0.51100000000E-03 0.  1.
         12    1    4    4    0    0 -0.19046543313E+01 -0.28986322422E+01 -0.13150374189E+02  0.13600077879E+02  0.00000000000E+00 0. -1.
</event>
<event>
 8    1  0.2962813E-009  0.9118800E+02  0.7816164E-02  0.1184000E+00
        -11   -1    0    0    0    0  0.00000000000E+00  0.00000000000E+00  0.45593999997E+02  0.45594000000E+02  0.51100000000E-03 0. -1.
         11   -1    0    0    0    0 -0.00000000000E+00 -0.00000000000E+00 -0.45593999997E+02  0.45594000000E+02  0.51100000000E-03 0.  1.
         23    2    1    2    0    0  0.00000000000E+00  0.00000000000E+00  0.00000000000E+00  0.91188000000E+02  0.91188000000E+02 0.  0.
    9900012    2    3    3    0    0  0.13453561865E+02  0.16453723043E+01  0.42958210835E+02  0.46142318131E+02  0.10000003374E+02 0.  0.
        -12    1    3    3    0    0 -0.13453561865E+02 -0.16453723043E+01 -0.42958210835E+02  0.45045681869E+02  0.00000000000E+00 0.  1.
         11    1    4    4    0    0  0.14495958131E+01  0.36644900720E+00  0.80240353563E+01  0.81621539165E+01  0.51100000000E-03 0. -1.
        -11    1    4    4    0    0  0.90093370412E+00 -0.26231747659E+01  0.10489600823E+02  0.10850090003E+02  0.51100000000E-03 0.  1.
        -12    1    4    4    0    0  0.11103032348E+02  0.39020980631E+01  0.24444574656E+02  0.27130074211E+02  0.00000000000E+00 0.  1.
</event>
<event>
 8    1  0.2962813E-009  0.9118800E+02  0.7816164E-02  0.1184000E+00
        -11   -1    0    0    0    0  0.00000000000E+00  0.00000000000E+00  0.45593999997E+02  0.45594000000E+02  0.51100000000E-03 0. -1.
         11   -1    0    0    0    0 -0.00000000000E+00 -0.00000000000E+00 -0.45593999997E+02  0.45594000000E+02  0.51100000000E-03 0.  1.
         23    2    1    2    0    0  0.00000000000E+00  0.35527136788E-14 -0.35527136788E-14  0.91188000000E+02  0.91188000000E+02 0.  0.
    9900012    2    3    3    0    0 -0.15020232033E+02  0.31756539763E+02 -0.28196240340E+02  0.46142321435E+02  0.10000033499E+02 0.  0.
         12    1    3    3    0    0  0.15020232033E+02 -0.31756539763E+02  0.28196240340E+02  0.45045678565E+02  0.00000000000E+00 0. -1.
         11    1    4    4    0    0 -0.94913257540E+01  0.17885543779E+02 -0.14180248067E+02  0.24719574761E+02  0.51100000000E-03 0. -1.
        -11    1    4    4    0    0 -0.58735875736E+01  0.95853653742E+01 -0.12623096131E+02  0.16903278278E+02  0.51100000000E-03 0.  1.
         12    1    4    4    0    0  0.34468129434E+00  0.42856306103E+01 -0.13928961416E+01  0.45194683962E+01  0.00000000000E+00 0. -1.
</event>
<event>
 8    1  0.2962813E-009  0.9118800E+02  0.7816164E-02  0.1184000E+00
        -11   -1    0    0    0    0  0.00000000000E+00  0.00000000000E+00  0.45593999997E+02  0.45594000000E+02  0.51100000000E-03 0. -1.
         11   -1    0    0    0    0 -0.00000000000E+00 -0.00000000000E+00 -0.45593999997E+02  0.45594000000E+02  0.51100000000E-03 0.  1.
         23    2    1    2    0    0 -0.71054273576E-14  0.00000000000E+00 -0.17763568394E-14  0.91188000000E+02  0.91188000000E+02 0.  0.
    9900012    2    3    3    0    0 -0.42927948775E+02  0.11934803342E+02 -0.66230761855E+01  0.46142318131E+02  0.10000003375E+02 0.  0.
         12    1    3    3    0    0  0.42927948775E+02 -0.11934803342E+02  0.66230761855E+01  0.45045681869E+02  0.00000000000E+00 0. -1.
         11    1    4    4    0    0 -0.21369859846E+02  0.13087566860E+01 -0.28197640807E+01  0.21594786955E+02  0.51100000000E-03 0. -1.
        -11    1    4    4    0    0 -0.75801103771E+01  0.20780737321E+01 -0.15056307258E+01  0.80027112849E+01  0.51100000000E-03 0.  1.
         12    1    4    4    0    0 -0.13977978552E+02  0.85479729240E+01 -0.22976813789E+01  0.16544819891E+02  0.00000000000E+00 0. -1.
</event>
<event>
 8    1  0.2962813E-009  0.9118800E+02  0.7816164E-02  0.1184000E+00
        -11   -1    0    0    0    0  0.00000000000E+00  0.00000000000E+00  0.45593999997E+02  0.45594000000E+02  0.51100000000E-03 0. -1.
         11   -1    0    0    0    0 -0.00000000000E+00 -0.00000000000E+00 -0.45593999997E+02  0.45594000000E+02  0.51100000000E-03 0.  1.
         23    2    1    2    0    0  0.00000000000E+00  0.35527136788E-14  0.00000000000E+00  0.91188000000E+02  0.91188000000E+02 0.  0.
    9900012    2    3    3    0    0  0.64638848713E+01 -0.30951482079E+02 -0.32083282229E+02  0.46142322637E+02  0.10000044465E+02 0.  0.
         12    1    3    3    0    0 -0.64638848713E+01  0.30951482079E+02  0.32083282229E+02  0.45045677363E+02  0.00000000000E+00 0. -1.
         11    1    4    4    0    0  0.52897571403E+01 -0.12015896284E+02 -0.17319714606E+02  0.21733288026E+02  0.51100000000E-03 0. -1.
        -11    1    4    4    0    0  0.19412583350E+01 -0.16661006154E+02 -0.14115314424E+02  0.21922584509E+02  0.51100000000E-03 0.  1.
         12    1    4    4    0    0 -0.76713060403E+00 -0.22745796408E+01 -0.64825319857E+00  0.24864501031E+01  0.00000000000E+00 0. -1.
</event>
<event>
 8    1  0.2962813E-009  0.9118800E+02  0.7816164E-02  0.1184000E+00
        -11   -1    0    0    0    0  0.00000000000E+00  0.00000000000E+00  0.45593999997E+02  0.45594000000E+02  0.51100000000E-03 0. -1.
         11   -1    0    0    0    0 -0.00000000000E+00 -0.00000000000E+00 -0.45593999997E+02  0.45594000000E+02  0.51100000000E-03 0.  1.
         23    2    1    2    0    0  0.00000000000E+00  0.35527136788E-14  0.71054273576E-14  0.91188000000E+02  0.91188000000E+02 0.  0.
    9900012    2    3    3    0    0 -0.73100896523E+01  0.18382550548E+02  0.40469221026E+02  0.46142318456E+02  0.10000006334E+02 0.  0.
        -12    1    3    3    0    0  0.73100896523E+01 -0.18382550548E+02 -0.40469221026E+02  0.45045681544E+02  0.00000000000E+00 0.  1.
         11    1    4    4    0    0 -0.54890917912E+01  0.10306781111E+02  0.20362190880E+02  0.23472935122E+02  0.51100000000E-03 0. -1.
        -11    1    4    4    0    0  0.62140053836E-01  0.14279415201E+01  0.11701824450E+02  0.11788790188E+02  0.51100000000E-03 0.  1.
         12    1    4    4    0    0 -0.18831379149E+01  0.66478279168E+01  0.84052056958E+01  0.10880593146E+02  0.00000000000E+00 0. -1.
</event>
<event>
 8    1  0.2962813E-009  0.9118800E+02  0.7816164E-02  0.1184000E+00
        -11   -1    0    0    0    0  0.00000000000E+00  0.00000000000E+00  0.45593999997E+02  0.45594000000E+02  0.51100000000E-03 0. -1.
         11   -1    0    0    0    0 -0.00000000000E+00 -0.00000000000E+00 -0.45593999997E+02  0.45594000000E+02  0.51100000000E-03 0.  1.
         23    2    1    2    0    0  0.00000000000E+00  0.00000000000E+00 -0.35527136788E-14  0.91188000000E+02  0.91188000000E+02 0.  0.
    9900012    2    3    3    0    0 -0.35800579658E+02 -0.20843042057E+02  0.17691795475E+02  0.46142317264E+02  0.99999954666E+01 0.  0.
        -12    1    3    3    0    0  0.35800579658E+02  0.20843042057E+02 -0.17691795475E+02  0.45045682736E+02  0.00000000000E+00 0.  1.
         11    1    4    4    0    0 -0.68012675757E+01 -0.19721139198E+01  0.28611799719E+01  0.76375928827E+01  0.51100000000E-03 0. -1.
        -11    1    4    4    0    0 -0.50840767610E+00 -0.19622289484E+01 -0.35812144730E+00  0.20584149347E+01  0.51100000000E-03 0.  1.
        -12    1    4    4    0    0 -0.28490904406E+02 -0.16908699189E+02  0.15188736950E+02  0.36446309447E+02  0.00000000000E+00 0.  1.
</event>
<event>
 8    1  0.2962813E-009  0.9118800E+02  0.7816164E-02  0.1184000E+00
        -11   -1    0    0    0    0  0.00000000000E+00  0.00000000000E+00  0.45593999997E+02  0.45594000000E+02  0.51100000000E-03 0. -1.
         11   -1    0    0    0    0 -0.00000000000E+00 -0.00000000000E+00 -0.45593999997E+02  0.45594000000E+02  0.51100000000E-03 0.  1.
         23    2    1    2    0    0  0.00000000000E+00  0.00000000000E+00  0.00000000000E+00  0.91188000000E+02  0.91188000000E+02 0.  0.
    9900012    2    3    3    0    0  0.28077869775E+02  0.33414896989E+02 -0.11144119086E+02  0.46142317609E+02  0.99999986149E+01 0.  0.
         12    1    3    3    0    0 -0.28077869775E+02 -0.33414896989E+02  0.11144119086E+02  0.45045682391E+02  0.00000000000E+00 0. -1.
         11    1    4    4    0    0  0.21646450970E+02  0.21922403022E+02 -0.64743931481E+01  0.31481397059E+02  0.51100000000E-03 0.  1.
        -11    1    4    4    0    0  0.48283605224E+01  0.11050979683E+02 -0.32904643367E+01  0.12500574911E+02  0.51100000000E-03 0. -1.
        -12    1    4    4    0    0  0.16030582818E+01  0.44151428366E+00 -0.13792616015E+01  0.21603456397E+01  0.00000000000E+00 0.  1.
</event>
<event>
 8    1  0.2962813E-009  0.9118800E+02  0.7816164E-02  0.1184000E+00
        -11   -1    0    0    0    0  0.00000000000E+00  0.00000000000E+00  0.45593999997E+02  0.45594000000E+02  0.51100000000E-03 0. -1.
         11   -1    0    0    0    0 -0.00000000000E+00 -0.00000000000E+00 -0.45593999997E+02  0.45594000000E+02  0.51100000000E-03 0.  1.
         23    2    1    2    0    0  0.00000000000E+00  0.00000000000E+00 -0.35527136788E-14  0.91188000000E+02  0.91188000000E+02 0.  0.
    9900012    2    3    3    0    0  0.38880000089E+02 -0.94287370396E+01 -0.20701642686E+02  0.46142317643E+02  0.99999989256E+01 0.  0.
         12    1    3    3    0    0 -0.38880000089E+02  0.94287370396E+01  0.20701642686E+02  0.45045682357E+02  0.00000000000E+00 0. -1.
         11    1    4    4    0    0  0.94376382773E+00 -0.14132445250E+01 -0.26439671699E+01  0.31430101665E+01  0.51100000000E-03 0. -1.
        -11    1    4    4    0    0  0.19915696850E+02 -0.20154665897E+01 -0.87053197284E+01  0.21828414474E+02  0.51100000000E-03 0.  1.
         12    1    4    4    0    0  0.18020539411E+02 -0.60000259249E+01 -0.93523557879E+01  0.21170893003E+02  0.00000000000E+00 0. -1.
</event>
<event>
 8    1  0.2962813E-009  0.9118800E+02  0.7816164E-02  0.1184000E+00
        -11   -1    0    0    0    0  0.00000000000E+00  0.00000000000E+00  0.45593999997E+02  0.45594000000E+02  0.51100000000E-03 0. -1.
         11   -1    0    0    0    0 -0.00000000000E+00 -0.00000000000E+00 -0.45593999997E+02  0.45594000000E+02  0.51100000000E-03 0.  1.
         23    2    1    2    0    0  0.17763568394E-14  0.71054273576E-14  0.35527136788E-14  0.91188000000E+02  0.91188000000E+02 0.  0.
    9900012    2    3    3    0    0 -0.10869504171E+02 -0.37150465047E+02 -0.23039314590E+02  0.46142321063E+02  0.10000030106E+02 0.  0.
         12    1    3    3    0    0  0.10869504171E+02  0.37150465047E+02  0.23039314590E+02  0.45045678937E+02  0.00000000000E+00 0. -1.
         11    1    4    4    0    0 -0.20930595699E+01 -0.94617306915E+01 -0.70845288837E+01  0.12003990828E+02  0.51100000000E-03 0. -1.
        -11    1    4    4    0    0 -0.18712287330E+01 -0.10934194822E+02 -0.20133554107E+01  0.11274383072E+02  0.51100000000E-03 0.  1.
        -12    1    4    4    0    0 -0.69052158680E+01 -0.16754539534E+02 -0.13941430296E+02  0.22863947163E+02  0.00000000000E+00 0.  1.
</event>
<event>
 8    1  0.2962813E-009  0.9118800E+02  0.7816164E-02  0.1184000E+00
        -11   -1    0    0    0    0  0.00000000000E+00  0.00000000000E+00  0.45593999997E+02  0.45594000000E+02  0.51100000000E-03 0. -1.
         11   -1    0    0    0    0 -0.00000000000E+00 -0.00000000000E+00 -0.45593999997E+02  0.45594000000E+02  0.51100000000E-03 0.  1.
         23    2    1    2    0    0  0.00000000000E+00  0.35527136788E-14  0.17763568394E-14  0.91188000000E+02  0.91188000000E+02 0.  0.
    9900012    2    3    3    0    0 -0.29531180422E+02  0.31108751493E+02  0.13757487570E+02  0.46142317623E+02  0.99999987373E+01 0.  0.
        -12    1    3    3    0    0  0.29531180422E+02 -0.31108751493E+02 -0.13757487570E+02  0.45045682377E+02  0.00000000000E+00 0.  1.
         11    1    4    4    0    0 -0.22038041276E+02  0.23660895380E+02  0.56487693375E+01  0.32824104386E+02  0.51100000000E-03 0. -1.
        -11    1    4    4    0    0 -0.66195258701E+01  0.65456439533E+01  0.71517257625E+01  0.11739282736E+02  0.51100000000E-03 0.  1.
         12    1    4    4    0    0 -0.87361327592E+00  0.90221215998E+00  0.95699247013E+00  0.15789305005E+01  0.00000000000E+00 0. -1.
</event>
<event>
 8    1  0.2962813E-009  0.9118800E+02  0.7816164E-02  0.1184000E+00
        -11   -1    0    0    0    0  0.00000000000E+00  0.00000000000E+00  0.45593999997E+02  0.45594000000E+02  0.51100000000E-03 0.  1.
         11   -1    0    0    0    0 -0.00000000000E+00 -0.00000000000E+00 -0.45593999997E+02  0.45594000000E+02  0.51100000000E-03 0. -1.
         23    2    1    2    0    0 -0.35527136788E-14  0.00000000000E+00  0.00000000000E+00  0.91188000000E+02  0.91188000000E+02 0.  0.
    9900012    2    3    3    0    0 -0.28558070422E+02 -0.33198154696E+02  0.10556199022E+02  0.46142309871E+02  0.99999280469E+01 0.  0.
        -12    1    3    3    0    0  0.28558070422E+02  0.33198154696E+02 -0.10556199022E+02  0.45045690129E+02  0.00000000000E+00 0.  1.
         11    1    4    4    0    0 -0.13906347889E+02 -0.10537417595E+02  0.32071454019E+01  0.17740052511E+02  0.51100000000E-03 0. -1.
        -11    1    4    4    0    0 -0.36550191590E+01 -0.96245770658E+01  0.16900144070E+01  0.10433014795E+02  0.51100000000E-03 0.  1.
         12    1    4    4    0    0 -0.10996703374E+02 -0.13036160035E+02  0.56590392133E+01  0.17969242565E+02  0.00000000000E+00 0. -1.
</event>
<event>
 8    1  0.2962813E-009  0.9118800E+02  0.7816164E-02  0.1184000E+00
        -11   -1    0    0    0    0  0.00000000000E+00  0.00000000000E+00  0.45593999997E+02  0.45594000000E+02  0.51100000000E-03 0.  1.
         11   -1    0    0    0    0 -0.00000000000E+00 -0.00000000000E+00 -0.45593999997E+02  0.45594000000E+02  0.51100000000E-03 0. -1.
         23    2    1    2    0    0  0.00000000000E+00  0.00000000000E+00  0.00000000000E+00  0.91188000000E+02  0.91188000000E+02 0.  0.
    9900012    2    3    3    0    0 -0.18207002595E+02  0.37179882169E+02 -0.17755981696E+02  0.46142317991E+02  0.10000002100E+02 0.  0.
         12    1    3    3    0    0  0.18207002595E+02 -0.37179882169E+02  0.17755981696E+02  0.45045682009E+02  0.00000000000E+00 0. -1.
         11    1    4    4    0    0 -0.16280665521E+01  0.23696099484E+01 -0.31624170496E+01  0.42739365768E+01  0.51100000000E-03 0. -1.
        -11    1    4    4    0    0 -0.92873109149E+01  0.14357932537E+02 -0.33806958276E+01  0.17430819697E+02  0.51100000000E-03 0.  1.
        -12    1    4    4    0    0 -0.72916251279E+01  0.20452339684E+02 -0.11212868819E+02  0.24437561717E+02  0.00000000000E+00 0.  1.
</event>
<event>
 8    1  0.2962813E-009  0.9118800E+02  0.7816164E-02  0.1184000E+00
        -11   -1    0    0    0    0  0.00000000000E+00  0.00000000000E+00  0.45593999997E+02  0.45594000000E+02  0.51100000000E-03 0. -1.
         11   -1    0    0    0    0 -0.00000000000E+00 -0.00000000000E+00 -0.45593999997E+02  0.45594000000E+02  0.51100000000E-03 0.  1.
         23    2    1    2    0    0  0.00000000000E+00  0.00000000000E+00  0.00000000000E+00  0.91188000000E+02  0.91188000000E+02 0.  0.
    9900012    2    3    3    0    0  0.22262043185E+02  0.17084393118E+02 -0.35236890847E+02  0.46142317282E+02  0.99999956291E+01 0.  0.
         12    1    3    3    0    0 -0.22262043185E+02 -0.17084393118E+02  0.35236890847E+02  0.45045682718E+02  0.00000000000E+00 0. -1.
         11    1    4    4    0    0  0.84014480977E+01  0.34874907403E+01 -0.13670297663E+02  0.16420230213E+02  0.51100000000E-03 0. -1.
        -11    1    4    4    0    0  0.33061148525E+01  0.59681400091E+00 -0.17836778015E+01  0.38036941426E+01  0.51100000000E-03 0.  1.
        -12    1    4    4    0    0  0.10554480235E+02  0.13000088376E+02 -0.19782915382E+02  0.25918392926E+02  0.00000000000E+00 0.  1.
</event>
<event>
 8    1  0.2962813E-009  0.9118800E+02  0.7816164E-02  0.1184000E+00
        -11   -1    0    0    0    0  0.00000000000E+00  0.00000000000E+00  0.45593999997E+02  0.45594000000E+02  0.51100000000E-03 0. -1.
         11   -1    0    0    0    0 -0.00000000000E+00 -0.00000000000E+00 -0.45593999997E+02  0.45594000000E+02  0.51100000000E-03 0.  1.
         23    2    1    2    0    0  0.00000000000E+00  0.00000000000E+00  0.00000000000E+00  0.91188000000E+02  0.91188000000E+02 0.  0.
    9900012    2    3    3    0    0  0.12224678436E+02 -0.18437631215E+02  0.39239324872E+02  0.46142316254E+02  0.99999862597E+01 0.  0.
        -12    1    3    3    0    0 -0.12224678436E+02  0.18437631215E+02 -0.39239324872E+02  0.45045683746E+02  0.00000000000E+00 0.  1.
         11    1    4    4    0    0 -0.50297298016E+00 -0.11304727915E+01  0.51193361466E+01  0.52667403006E+01  0.51100000000E-03 0. -1.
        -11    1    4    4    0    0  0.41075217099E+00  0.55924022386E+00  0.48063279118E+00  0.84408241010E+00  0.51100000000E-03 0.  1.
         12    1    4    4    0    0  0.12316899245E+02 -0.17866398647E+02  0.33639355935E+02  0.40031493544E+02  0.00000000000E+00 0. -1.
</event>
<event>
 8    1  0.2962813E-009  0.9118800E+02  0.7816164E-02  0.1184000E+00
        -11   -1    0    0    0    0  0.00000000000E+00  0.00000000000E+00  0.45593999997E+02  0.45594000000E+02  0.51100000000E-03 0.  1.
         11   -1    0    0    0    0 -0.00000000000E+00 -0.00000000000E+00 -0.45593999997E+02  0.45594000000E+02  0.51100000000E-03 0. -1.
         23    2    1    2    0    0  0.71054273576E-14  0.00000000000E+00  0.00000000000E+00  0.91188000000E+02  0.91188000000E+02 0.  0.
    9900012    2    3    3    0    0 -0.41920366316E+02 -0.86024178275E+00 -0.16463790611E+02  0.46142317307E+02  0.99999958601E+01 0.  0.
         12    1    3    3    0    0  0.41920366316E+02  0.86024178275E+00  0.16463790611E+02  0.45045682693E+02  0.00000000000E+00 0. -1.
         11    1    4    4    0    0 -0.30799053942E+01  0.14352729423E+01 -0.30389554272E+01  0.45586265482E+01  0.51100000000E-03 0. -1.
        -11    1    4    4    0    0 -0.25121316090E+02 -0.27990875983E+01 -0.11316416529E+02  0.27694344130E+02  0.51100000000E-03 0.  1.
        -12    1    4    4    0    0 -0.13719144831E+02  0.50357287321E+00 -0.21084186548E+01  0.13889346629E+02  0.00000000000E+00 0.  1.
</event>
<event>
 8    1  0.2962813E-009  0.9118800E+02  0.7816164E-02  0.1184000E+00
        -11   -1    0    0    0    0  0.00000000000E+00  0.00000000000E+00  0.45593999997E+02  0.45594000000E+02  0.51100000000E-03 0. -1.
         11   -1    0    0    0    0 -0.00000000000E+00 -0.00000000000E+00 -0.45593999997E+02  0.45594000000E+02  0.51100000000E-03 0.  1.
         23    2    1    2    0    0  0.00000000000E+00 -0.22204460493E-15  0.00000000000E+00  0.91188000000E+02  0.91188000000E+02 0.  0.
    9900012    2    3    3    0    0 -0.83455671382E+01 -0.10292386634E+01 -0.44253876416E+02  0.46142318732E+02  0.10000008851E+02 0.  0.
         12    1    3    3    0    0  0.83455671382E+01  0.10292386634E+01  0.44253876416E+02  0.45045681268E+02  0.00000000000E+00 0. -1.
         11    1    4    4    0    0 -0.81630567863E+00  0.94249232689E+00 -0.15757267945E+02  0.15806522075E+02  0.51100000000E-03 0. -1.
        -11    1    4    4    0    0 -0.27338476981E+00  0.17771323280E+01 -0.93299992678E+01  0.95016748598E+01  0.51100000000E-03 0.  1.
        -12    1    4    4    0    0 -0.72558766898E+01 -0.37488633183E+01 -0.19166609203E+02  0.20834121797E+02  0.00000000000E+00 0.  1.
</event>
<event>
 8    1  0.2962813E-009  0.9118800E+02  0.7816164E-02  0.1184000E+00
        -11   -1    0    0    0    0  0.00000000000E+00  0.00000000000E+00  0.45593999997E+02  0.45594000000E+02  0.51100000000E-03 0.  1.
         11   -1    0    0    0    0 -0.00000000000E+00 -0.00000000000E+00 -0.45593999997E+02  0.45594000000E+02  0.51100000000E-03 0. -1.
         23    2    1    2    0    0  0.00000000000E+00  0.00000000000E+00  0.17763568394E-14  0.91188000000E+02  0.91188000000E+02 0.  0.
    9900012    2    3    3    0    0 -0.16340311107E+02  0.39782318202E+02 -0.13396824405E+02  0.46142317491E+02  0.99999975369E+01 0.  0.
        -12    1    3    3    0    0  0.16340311107E+02 -0.39782318202E+02  0.13396824405E+02  0.45045682509E+02  0.00000000000E+00 0.  1.
         11    1    4    4    0    0 -0.20100618599E+01  0.45367648316E+01 -0.24236353824E+01  0.55223720036E+01  0.51100000000E-03 0. -1.
        -11    1    4    4    0    0 -0.11989007654E+02  0.22776993402E+02 -0.37217577883E+01  0.26007291559E+02  0.51100000000E-03 0.  1.
        -12    1    4    4    0    0 -0.23412415927E+01  0.12468559969E+02 -0.72514312341E+01  0.14612653928E+02  0.00000000000E+00 0.  1.
</event>
<event>
 8    1  0.2962813E-009  0.9118800E+02  0.7816164E-02  0.1184000E+00
        -11   -1    0    0    0    0  0.00000000000E+00  0.00000000000E+00  0.45593999997E+02  0.45594000000E+02  0.51100000000E-03 0. -1.
         11   -1    0    0    0    0 -0.00000000000E+00 -0.00000000000E+00 -0.45593999997E+02  0.45594000000E+02  0.51100000000E-03 0.  1.
         23    2    1    2    0    0  0.00000000000E+00 -0.35527136788E-14 -0.35527136788E-14  0.91188000000E+02  0.91188000000E+02 0.  0.
    9900012    2    3    3    0    0  0.15507879142E+02 -0.28264071075E+02 -0.31460473435E+02  0.46142318543E+02  0.10000007126E+02 0.  0.
         12    1    3    3    0    0 -0.15507879142E+02  0.28264071075E+02  0.31460473435E+02  0.45045681457E+02  0.00000000000E+00 0. -1.
         11    1    4    4    0    0  0.78296881216E+01 -0.11890382749E+02 -0.19152718600E+02  0.23864447365E+02  0.51100000000E-03 0. -1.
        -11    1    4    4    0    0  0.18428780457E+01 -0.39328750486E+01 -0.93975360881E+00  0.44437419756E+01  0.51100000000E-03 0.  1.
         12    1    4    4    0    0  0.58353129745E+01 -0.12440813277E+02 -0.11368001226E+02  0.17834129202E+02  0.00000000000E+00 0. -1.
</event>
<event>
 8    1  0.2962813E-009  0.9118800E+02  0.7816164E-02  0.1184000E+00
        -11   -1    0    0    0    0  0.00000000000E+00  0.00000000000E+00  0.45593999997E+02  0.45594000000E+02  0.51100000000E-03 0. -1.
         11   -1    0    0    0    0 -0.00000000000E+00 -0.00000000000E+00 -0.45593999997E+02  0.45594000000E+02  0.51100000000E-03 0.  1.
         23    2    1    2    0    0  0.35527136788E-14 -0.17763568394E-14  0.00000000000E+00  0.91188000000E+02  0.91188000000E+02 0.  0.
    9900012    2    3    3    0    0 -0.27546657196E+02  0.13622728638E+02  0.32935031455E+02  0.46142319240E+02  0.10000013486E+02 0.  0.
        -12    1    3    3    0    0  0.27546657196E+02 -0.13622728638E+02 -0.32935031455E+02  0.45045680760E+02  0.00000000000E+00 0.  1.
         11    1    4    4    0    0 -0.98732880912E+01  0.35970634651E+01  0.16362697242E+02  0.19446298995E+02  0.51100000000E-03 0. -1.
        -11    1    4    4    0    0 -0.14912118833E+02  0.64814142682E+01  0.14336539236E+02  0.21677554672E+02  0.51100000000E-03 0.  1.
        -12    1    4    4    0    0 -0.27612502709E+01  0.35442509044E+01  0.22357949768E+01  0.50184655733E+01  0.00000000000E+00 0.  1.
</event>
<event>
 8    1  0.2962813E-009  0.9118800E+02  0.7816164E-02  0.1184000E+00
        -11   -1    0    0    0    0  0.00000000000E+00  0.00000000000E+00  0.45593999997E+02  0.45594000000E+02  0.51100000000E-03 0. -1.
         11   -1    0    0    0    0 -0.00000000000E+00 -0.00000000000E+00 -0.45593999997E+02  0.45594000000E+02  0.51100000000E-03 0.  1.
         23    2    1    2    0    0 -0.71054273576E-14  0.00000000000E+00 -0.35527136788E-14  0.91188000000E+02  0.91188000000E+02 0.  0.
    9900012    2    3    3    0    0 -0.39152801714E+02  0.13562444672E+02  0.17670075305E+02  0.46142319310E+02  0.10000014120E+02 0.  0.
        -12    1    3    3    0    0  0.39152801714E+02 -0.13562444672E+02 -0.17670075305E+02  0.45045680690E+02  0.00000000000E+00 0.  1.
         11    1    4    4    0    0 -0.23245469479E+02  0.31541466528E+01  0.90979618585E+01  0.25160949955E+02  0.51100000000E-03 0. -1.
        -11    1    4    4    0    0 -0.15287233882E+02  0.93454631718E+01  0.79395816693E+01  0.19597810057E+02  0.51100000000E-03 0.  1.
         12    1    4    4    0    0 -0.62009835282E+00  0.10628348477E+01  0.63253177719E+00  0.13835592975E+01  0.00000000000E+00 0. -1.
</event>
<event>
 8    1  0.2962813E-009  0.9118800E+02  0.7816164E-02  0.1184000E+00
        -11   -1    0    0    0    0  0.00000000000E+00  0.00000000000E+00  0.45593999997E+02  0.45594000000E+02  0.51100000000E-03 0. -1.
         11   -1    0    0    0    0 -0.00000000000E+00 -0.00000000000E+00 -0.45593999997E+02  0.45594000000E+02  0.51100000000E-03 0.  1.
         23    2    1    2    0    0  0.35527136788E-14 -0.35527136788E-14  0.00000000000E+00  0.91188000000E+02  0.91188000000E+02 0.  0.
    9900012    2    3    3    0    0  0.26337308528E+02  0.27533913436E+02  0.24027966712E+02  0.46142318809E+02  0.10000009556E+02 0.  0.
        -12    1    3    3    0    0 -0.26337308528E+02 -0.27533913436E+02 -0.24027966712E+02  0.45045681191E+02  0.00000000000E+00 0.  1.
         11    1    4    4    0    0  0.12061418347E+02  0.10937942104E+02  0.15298706735E+02  0.22342041492E+02  0.51100000000E-03 0. -1.
        -11    1    4    4    0    0  0.72053836862E+01  0.91785248101E+01  0.29521207442E+01  0.12036523124E+02  0.51100000000E-03 0.  1.
        -12    1    4    4    0    0  0.70705064948E+01  0.74174465218E+01  0.57771392331E+01  0.11763754193E+02  0.00000000000E+00 0.  1.
</event>
<event>
 8    1  0.2962813E-009  0.9118800E+02  0.7816164E-02  0.1184000E+00
        -11   -1    0    0    0    0  0.00000000000E+00  0.00000000000E+00  0.45593999997E+02  0.45594000000E+02  0.51100000000E-03 0. -1.
         11   -1    0    0    0    0 -0.00000000000E+00 -0.00000000000E+00 -0.45593999997E+02  0.45594000000E+02  0.51100000000E-03 0.  1.
         23    2    1    2    0    0  0.00000000000E+00  0.11102230246E-15  0.00000000000E+00  0.91188000000E+02  0.91188000000E+02 0.  0.
    9900012    2    3    3    0    0 -0.37948143015E+02  0.28199828011E+00 -0.24268758489E+02  0.46142315191E+02  0.99999765615E+01 0.  0.
         12    1    3    3    0    0  0.37948143015E+02 -0.28199828011E+00  0.24268758489E+02  0.45045684809E+02  0.00000000000E+00 0. -1.
         11    1    4    4    0    0 -0.31832602438E+01 -0.14068261546E+01 -0.18693667027E+01  0.39505490428E+01  0.51100000000E-03 0. -1.
        -11    1    4    4    0    0 -0.19027237531E+02 -0.56439040897E+00 -0.16637772291E+02  0.25281807129E+02  0.51100000000E-03 0.  1.
         12    1    4    4    0    0 -0.15737645240E+02  0.22532148437E+01 -0.57616194952E+01  0.16909959019E+02  0.00000000000E+00 0. -1.
</event>
<event>
 8    1  0.2962813E-009  0.9118800E+02  0.7816164E-02  0.1184000E+00
        -11   -1    0    0    0    0  0.00000000000E+00  0.00000000000E+00  0.45593999997E+02  0.45594000000E+02  0.51100000000E-03 0. -1.
         11   -1    0    0    0    0 -0.00000000000E+00 -0.00000000000E+00 -0.45593999997E+02  0.45594000000E+02  0.51100000000E-03 0.  1.
         23    2    1    2    0    0 -0.35527136788E-14 -0.35527136788E-14  0.00000000000E+00  0.91188000000E+02  0.91188000000E+02 0.  0.
    9900012    2    3    3    0    0 -0.21172016595E+02 -0.21368759612E+02  0.33529617711E+02  0.46142318321E+02  0.10000005107E+02 0.  0.
        -12    1    3    3    0    0  0.21172016595E+02  0.21368759612E+02 -0.33529617711E+02  0.45045681679E+02  0.00000000000E+00 0.  1.
         11    1    4    4    0    0 -0.10054131618E+02 -0.13045848662E+02  0.16579250829E+02  0.23369879936E+02  0.51100000000E-03 0. -1.
        -11    1    4    4    0    0 -0.48925649531E+01 -0.74415880709E+01  0.94472850646E+01  0.12983282335E+02  0.51100000000E-03 0.  1.
        -12    1    4    4    0    0 -0.62253200240E+01 -0.88132287928E+00  0.75030818178E+01  0.97891560506E+01  0.00000000000E+00 0.  1.
</event>
<event>
 8    1  0.2962813E-009  0.9118800E+02  0.7816164E-02  0.1184000E+00
        -11   -1    0    0    0    0  0.00000000000E+00  0.00000000000E+00  0.45593999997E+02  0.45594000000E+02  0.51100000000E-03 0. -1.
         11   -1    0    0    0    0 -0.00000000000E+00 -0.00000000000E+00 -0.45593999997E+02  0.45594000000E+02  0.51100000000E-03 0.  1.
         23    2    1    2    0    0  0.88817841970E-15 -0.35527136788E-14  0.71054273576E-14  0.91188000000E+02  0.91188000000E+02 0.  0.
    9900012    2    3    3    0    0  0.46826378796E+01 -0.30966353340E+02  0.32377018768E+02  0.46142317844E+02  0.10000000752E+02 0.  0.
        -12    1    3    3    0    0 -0.46826378796E+01  0.30966353340E+02 -0.32377018768E+02  0.45045682156E+02  0.00000000000E+00 0.  1.
         11    1    4    4    0    0  0.31683653316E+01 -0.14285001047E+02  0.15098954232E+02  0.21025656065E+02  0.51100000000E-03 0. -1.
        -11    1    4    4    0    0 -0.21823437299E+01 -0.11503225185E+02  0.95688693981E+01  0.15121179704E+02  0.51100000000E-03 0.  1.
         12    1    4    4    0    0  0.36966162780E+01 -0.51781271072E+01  0.77091951374E+01  0.99954820750E+01  0.00000000000E+00 0. -1.
</event>
<event>
 8    1  0.2962813E-009  0.9118800E+02  0.7816164E-02  0.1184000E+00
        -11   -1    0    0    0    0  0.00000000000E+00  0.00000000000E+00  0.45593999997E+02  0.45594000000E+02  0.51100000000E-03 0. -1.
         11   -1    0    0    0    0 -0.00000000000E+00 -0.00000000000E+00 -0.45593999997E+02  0.45594000000E+02  0.51100000000E-03 0.  1.
         23    2    1    2    0    0  0.00000000000E+00  0.00000000000E+00  0.00000000000E+00  0.91188000000E+02  0.91188000000E+02 0.  0.
    9900012    2    3    3    0    0 -0.16928364767E+02 -0.38700329195E+02 -0.15646996476E+02  0.46142317496E+02  0.99999975864E+01 0.  0.
         12    1    3    3    0    0  0.16928364767E+02  0.38700329195E+02  0.15646996476E+02  0.45045682504E+02  0.00000000000E+00 0. -1.
         11    1    4    4    0    0 -0.59833085949E+01 -0.20534362220E+02 -0.57450399307E+01  0.22146455644E+02  0.51100000000E-03 0. -1.
        -11    1    4    4    0    0 -0.95825174006E+01 -0.15054685075E+02 -0.10252764997E+02  0.20581238368E+02  0.51100000000E-03 0.  1.
         12    1    4    4    0    0 -0.13625387711E+01 -0.31112819006E+01  0.35080845192E+00  0.34146234840E+01  0.00000000000E+00 0. -1.
</event>
<event>
 8    1  0.2962813E-009  0.9118800E+02  0.7816164E-02  0.1184000E+00
        -11   -1    0    0    0    0  0.00000000000E+00  0.00000000000E+00  0.45593999997E+02  0.45594000000E+02  0.51100000000E-03 0. -1.
         11   -1    0    0    0    0 -0.00000000000E+00 -0.00000000000E+00 -0.45593999997E+02  0.45594000000E+02  0.51100000000E-03 0.  1.
         23    2    1    2    0    0  0.00000000000E+00 -0.71054273576E-14  0.00000000000E+00  0.91188000000E+02  0.91188000000E+02 0.  0.
    9900012    2    3    3    0    0  0.90112218719E+01  0.38263161426E+02 -0.21996405698E+02  0.46142317570E+02  0.99999982605E+01 0.  0.
         12    1    3    3    0    0 -0.90112218719E+01 -0.38263161426E+02  0.21996405698E+02  0.45045682430E+02  0.00000000000E+00 0. -1.
         11    1    4    4    0    0 -0.15682165980E+00 -0.33836172940E+00  0.27534245474E-01  0.37395198716E+00  0.51100000000E-03 0. -1.
        -11    1    4    4    0    0  0.72953816982E+01  0.18654635434E+02 -0.12218491623E+02  0.23462940035E+02  0.51100000000E-03 0.  1.
         12    1    4    4    0    0  0.18726618335E+01  0.19946887721E+02 -0.98054483206E+01  0.22305425548E+02  0.00000000000E+00 0. -1.
</event>
<event>
 8    1  0.2962813E-009  0.9118800E+02  0.7816164E-02  0.1184000E+00
        -11   -1    0    0    0    0  0.00000000000E+00  0.00000000000E+00  0.45593999997E+02  0.45594000000E+02  0.51100000000E-03 0. -1.
         11   -1    0    0    0    0 -0.00000000000E+00 -0.00000000000E+00 -0.45593999997E+02  0.45594000000E+02  0.51100000000E-03 0.  1.
         23    2    1    2    0    0  0.00000000000E+00  0.00000000000E+00  0.00000000000E+00  0.91188000000E+02  0.91188000000E+02 0.  0.
    9900012    2    3    3    0    0 -0.22079056218E+02 -0.41594427288E+01  0.39042641479E+02  0.46142317177E+02  0.99999946770E+01 0.  0.
        -12    1    3    3    0    0  0.22079056218E+02  0.41594427288E+01 -0.39042641479E+02  0.45045682823E+02  0.00000000000E+00 0.  1.
         11    1    4    4    0    0 -0.90249551975E+01 -0.22599303599E+01  0.18005602300E+02  0.20267185695E+02  0.51100000000E-03 0. -1.
        -11    1    4    4    0    0 -0.92495271455E+01 -0.40891591220E+01  0.11125461457E+02  0.15034988115E+02  0.51100000000E-03 0.  1.
        -12    1    4    4    0    0 -0.38045738747E+01  0.21896467530E+01  0.99115777221E+01  0.10840143367E+02  0.00000000000E+00 0.  1.
</event>
<event>
 8    1  0.2962813E-009  0.9118800E+02  0.7816164E-02  0.1184000E+00
        -11   -1    0    0    0    0  0.00000000000E+00  0.00000000000E+00  0.45593999997E+02  0.45594000000E+02  0.51100000000E-03 0.  1.
         11   -1    0    0    0    0 -0.00000000000E+00 -0.00000000000E+00 -0.45593999997E+02  0.45594000000E+02  0.51100000000E-03 0. -1.
         23    2    1    2    0    0  0.00000000000E+00  0.00000000000E+00  0.00000000000E+00  0.91188000000E+02  0.91188000000E+02 0.  0.
    9900012    2    3    3    0    0  0.22304835633E+02 -0.36163746821E+02  0.14959676065E+02  0.46142310032E+02  0.99999295152E+01 0.  0.
        -12    1    3    3    0    0 -0.22304835633E+02  0.36163746821E+02 -0.14959676065E+02  0.45045689968E+02  0.00000000000E+00 0.  1.
         11    1    4    4    0    0  0.51948666474E+01 -0.80336935505E+01  0.18863291242E+01  0.97511593861E+01  0.51100000000E-03 0. -1.
        -11    1    4    4    0    0  0.47237260772E+01 -0.77340638132E+01  0.77908607866E+01  0.11951018500E+02  0.51100000000E-03 0.  1.
        -12    1    4    4    0    0  0.12386242909E+02 -0.20395989457E+02  0.52824861545E+01  0.24440132146E+02  0.00000000000E+00 0.  1.
</event>
<event>
 8    1  0.2962813E-009  0.9118800E+02  0.7816164E-02  0.1184000E+00
        -11   -1    0    0    0    0  0.00000000000E+00  0.00000000000E+00  0.45593999997E+02  0.45594000000E+02  0.51100000000E-03 0. -1.
         11   -1    0    0    0    0 -0.00000000000E+00 -0.00000000000E+00 -0.45593999997E+02  0.45594000000E+02  0.51100000000E-03 0.  1.
         23    2    1    2    0    0  0.44408920985E-15  0.00000000000E+00  0.71054273576E-14  0.91188000000E+02  0.91188000000E+02 0.  0.
    9900012    2    3    3    0    0  0.19926332847E+01 -0.15980216902E+02 -0.42068700207E+02  0.46142318112E+02  0.10000003198E+02 0.  0.
         12    1    3    3    0    0 -0.19926332847E+01  0.15980216902E+02  0.42068700207E+02  0.45045681888E+02  0.00000000000E+00 0. -1.
         11    1    4    4    0    0 -0.25935614221E+00 -0.97592974224E+01 -0.17510462721E+02  0.20048128510E+02  0.51100000000E-03 0. -1.
        -11    1    4    4    0    0  0.20106651856E+01  0.51867999325E+00 -0.57954589656E+01  0.61562284158E+01  0.51100000000E-03 0.  1.
        -12    1    4    4    0    0  0.24132424126E+00 -0.67395994726E+01 -0.18762778520E+02  0.19937961186E+02  0.00000000000E+00 0.  1.
</event>
<event>
 8    1  0.2962813E-009  0.9118800E+02  0.7816164E-02  0.1184000E+00
        -11   -1    0    0    0    0  0.00000000000E+00  0.00000000000E+00  0.45593999997E+02  0.45594000000E+02  0.51100000000E-03 0. -1.
         11   -1    0    0    0    0 -0.00000000000E+00 -0.00000000000E+00 -0.45593999997E+02  0.45594000000E+02  0.51100000000E-03 0.  1.
         23    2    1    2    0    0  0.00000000000E+00 -0.35527136788E-14 -0.71054273576E-14  0.91188000000E+02  0.91188000000E+02 0.  0.
    9900012    2    3    3    0    0  0.74401458196E+01  0.18126786536E+02  0.40560785339E+02  0.46142317995E+02  0.10000002133E+02 0.  0.
        -12    1    3    3    0    0 -0.74401458196E+01 -0.18126786536E+02 -0.40560785339E+02  0.45045682005E+02  0.00000000000E+00 0.  1.
         11    1    4    4    0    0  0.94727480500E+01  0.11412147901E+02  0.25529784875E+02  0.29525243291E+02  0.51100000000E-03 0. -1.
        -11    1    4    4    0    0 -0.19300072879E+01  0.59389548401E+01  0.12587894081E+02  0.14051732647E+02  0.51100000000E-03 0.  1.
         12    1    4    4    0    0 -0.10259494253E+00  0.77568379512E+00  0.24431063833E+01  0.25653420576E+01  0.00000000000E+00 0. -1.
</event>
<event>
 8    1  0.2962813E-009  0.9118800E+02  0.7816164E-02  0.1184000E+00
        -11   -1    0    0    0    0  0.00000000000E+00  0.00000000000E+00  0.45593999997E+02  0.45594000000E+02  0.51100000000E-03 0. -1.
         11   -1    0    0    0    0 -0.00000000000E+00 -0.00000000000E+00 -0.45593999997E+02  0.45594000000E+02  0.51100000000E-03 0.  1.
         23    2    1    2    0    0 -0.35527136788E-14  0.35527136788E-14  0.00000000000E+00  0.91188000000E+02  0.91188000000E+02 0.  0.
    9900012    2    3    3    0    0 -0.27900187430E+02  0.28224201835E+02  0.21309328569E+02  0.46142317500E+02  0.99999976172E+01 0.  0.
        -12    1    3    3    0    0  0.27900187430E+02 -0.28224201835E+02 -0.21309328569E+02  0.45045682500E+02  0.00000000000E+00 0.  1.
         11    1    4    4    0    0 -0.16537344652E+01  0.79615996553E+00  0.26389739525E+01  0.32144816309E+01  0.51100000000E-03 0. -1.
        -11    1    4    4    0    0 -0.74904680316E+01  0.65682580111E+01  0.15997652967E+01  0.10090013573E+02  0.51100000000E-03 0.  1.
         12    1    4    4    0    0 -0.18755984933E+02  0.20859783858E+02  0.17070589320E+02  0.32837822296E+02  0.00000000000E+00 0. -1.
</event>
<event>
 8    1  0.2962813E-009  0.9118800E+02  0.7816164E-02  0.1184000E+00
        -11   -1    0    0    0    0  0.00000000000E+00  0.00000000000E+00  0.45593999997E+02  0.45594000000E+02  0.51100000000E-03 0. -1.
         11   -1    0    0    0    0 -0.00000000000E+00 -0.00000000000E+00 -0.45593999997E+02  0.45594000000E+02  0.51100000000E-03 0.  1.
         23    2    1    2    0    0  0.00000000000E+00  0.00000000000E+00  0.00000000000E+00  0.91188000000E+02  0.91188000000E+02 0.  0.
    9900012    2    3    3    0    0 -0.34464258987E+02  0.13636887226E+01  0.28973586590E+02  0.46142317472E+02  0.99999973662E+01 0.  0.
        -12    1    3    3    0    0  0.34464258987E+02 -0.13636887226E+01 -0.28973586590E+02  0.45045682528E+02  0.00000000000E+00 0.  1.
         11    1    4    4    0    0 -0.73381472553E+00  0.47980146971E+00  0.91110581938E+00  0.12644396296E+01  0.51100000000E-03 0. -1.
        -11    1    4    4    0    0 -0.25273256449E+02 -0.70547756025E+00  0.25475931003E+02  0.35892314649E+02  0.51100000000E-03 0.  1.
        -12    1    4    4    0    0 -0.84571878125E+01  0.15893648131E+01  0.25865497683E+01  0.89855631937E+01  0.00000000000E+00 0.  1.
</event>
<event>
 8    1  0.2962813E-009  0.9118800E+02  0.7816164E-02  0.1184000E+00
        -11   -1    0    0    0    0  0.00000000000E+00  0.00000000000E+00  0.45593999997E+02  0.45594000000E+02  0.51100000000E-03 0. -1.
         11   -1    0    0    0    0 -0.00000000000E+00 -0.00000000000E+00 -0.45593999997E+02  0.45594000000E+02  0.51100000000E-03 0.  1.
         23    2    1    2    0    0  0.17763568394E-14  0.00000000000E+00  0.00000000000E+00  0.91188000000E+02  0.91188000000E+02 0.  0.
    9900012    2    3    3    0    0  0.98501644470E+01 -0.16527609352E+02  0.40729913804E+02  0.46142317755E+02  0.99999999401E+01 0.  0.
        -12    1    3    3    0    0 -0.98501644470E+01  0.16527609352E+02 -0.40729913804E+02  0.45045682245E+02  0.00000000000E+00 0.  1.
         11    1    4    4    0    0  0.63645587427E+01 -0.23801661009E+01  0.99693857834E+01  0.12064885073E+02  0.51100000000E-03 0. -1.
        -11    1    4    4    0    0  0.27001465433E+01 -0.11766210664E+02  0.23960391328E+02  0.26829738307E+02  0.51100000000E-03 0.  1.
         12    1    4    4    0    0  0.78545916095E+00 -0.23812325865E+01  0.68001366920E+01  0.72476943751E+01  0.00000000000E+00 0. -1.
</event>
<event>
 8    1  0.2962813E-009  0.9118800E+02  0.7816164E-02  0.1184000E+00
        -11   -1    0    0    0    0  0.00000000000E+00  0.00000000000E+00  0.45593999997E+02  0.45594000000E+02  0.51100000000E-03 0. -1.
         11   -1    0    0    0    0 -0.00000000000E+00 -0.00000000000E+00 -0.45593999997E+02  0.45594000000E+02  0.51100000000E-03 0.  1.
         23    2    1    2    0    0 -0.17763568394E-14  0.00000000000E+00  0.00000000000E+00  0.91188000000E+02  0.91188000000E+02 0.  0.
    9900012    2    3    3    0    0  0.14716562591E+02 -0.11072418055E+02 -0.41108854963E+02  0.46142316384E+02  0.99999874413E+01 0.  0.
         12    1    3    3    0    0 -0.14716562591E+02  0.11072418055E+02  0.41108854963E+02  0.45045683616E+02  0.00000000000E+00 0. -1.
         11    1    4    4    0    0  0.10884591059E+01 -0.54748888591E+01 -0.13079745060E+02  0.14221071772E+02  0.51100000000E-03 0. -1.
        -11    1    4    4    0    0  0.58423147643E+01 -0.10149323414E+01 -0.14362597237E+02  0.15538562646E+02  0.51100000000E-03 0.  1.
         12    1    4    4    0    0  0.77857887213E+01 -0.45825968541E+01 -0.13666512666E+02  0.16382681966E+02  0.00000000000E+00 0. -1.
</event>
<event>
 8    1  0.2962813E-009  0.9118800E+02  0.7816164E-02  0.1184000E+00
        -11   -1    0    0    0    0  0.00000000000E+00  0.00000000000E+00  0.45593999997E+02  0.45594000000E+02  0.51100000000E-03 0. -1.
         11   -1    0    0    0    0 -0.00000000000E+00 -0.00000000000E+00 -0.45593999997E+02  0.45594000000E+02  0.51100000000E-03 0.  1.
         23    2    1    2    0    0  0.00000000000E+00  0.17763568394E-14  0.00000000000E+00  0.91188000000E+02  0.91188000000E+02 0.  0.
    9900012    2    3    3    0    0  0.26221809244E+02 -0.11632436625E+02 -0.34730630410E+02  0.46142317071E+02  0.99999937110E+01 0.  0.
         12    1    3    3    0    0 -0.26221809244E+02  0.11632436625E+02  0.34730630410E+02  0.45045682929E+02  0.00000000000E+00 0. -1.
         11    1    4    4    0    0  0.19817525367E+02 -0.82266721518E+01 -0.25442219522E+02  0.33282412485E+02  0.51100000000E-03 0. -1.
        -11    1    4    4    0    0  0.71940532012E+01 -0.32555473979E+01 -0.90722654103E+01  0.12027426585E+02  0.51100000000E-03 0.  1.
         12    1    4    4    0    0 -0.78976932420E+00 -0.15021707512E+00 -0.21614547697E+00  0.83247800110E+00  0.00000000000E+00 0. -1.
</event>
<event>
 8    1  0.2962813E-009  0.9118800E+02  0.7816164E-02  0.1184000E+00
        -11   -1    0    0    0    0  0.00000000000E+00  0.00000000000E+00  0.45593999997E+02  0.45594000000E+02  0.51100000000E-03 0. -1.
         11   -1    0    0    0    0 -0.00000000000E+00 -0.00000000000E+00 -0.45593999997E+02  0.45594000000E+02  0.51100000000E-03 0.  1.
         23    2    1    2    0    0 -0.35527136788E-14  0.00000000000E+00  0.00000000000E+00  0.91188000000E+02  0.91188000000E+02 0.  0.
    9900012    2    3    3    0    0  0.22465308345E+02  0.20107597727E+02  0.33468034909E+02  0.46142301803E+02  0.99998544798E+01 0.  0.
        -12    1    3    3    0    0 -0.22465308345E+02 -0.20107597727E+02 -0.33468034909E+02  0.45045698197E+02  0.00000000000E+00 0.  1.
         11    1    4    4    0    0  0.10083550548E+02  0.10366325030E+02  0.22927788907E+02  0.27107603928E+02  0.51100000000E-03 0. -1.
        -11    1    4    4    0    0  0.95972184705E+01  0.77290428633E+01  0.73601642415E+01  0.14353282686E+02  0.51100000000E-03 0.  1.
         12    1    4    4    0    0  0.27845393267E+01  0.20122298341E+01  0.31800817603E+01  0.46814151887E+01  0.00000000000E+00 0. -1.
</event>
<event>
 8    1  0.2962813E-009  0.9118800E+02  0.7816164E-02  0.1184000E+00
        -11   -1    0    0    0    0  0.00000000000E+00  0.00000000000E+00  0.45593999997E+02  0.45594000000E+02  0.51100000000E-03 0.  1.
         11   -1    0    0    0    0 -0.00000000000E+00 -0.00000000000E+00 -0.45593999997E+02  0.45594000000E+02  0.51100000000E-03 0. -1.
         23    2    1    2    0    0  0.00000000000E+00  0.00000000000E+00  0.17763568394E-14  0.91188000000E+02  0.91188000000E+02 0.  0.
    9900012    2    3    3    0    0 -0.28376232315E+02  0.31743390736E+02  0.14705780537E+02  0.46142318775E+02  0.10000009243E+02 0.  0.
         12    1    3    3    0    0  0.28376232315E+02 -0.31743390736E+02 -0.14705780537E+02  0.45045681225E+02  0.00000000000E+00 0. -1.
         11    1    4    4    0    0  0.26821932757E-01  0.43719752206E+00 -0.30875209137E+00  0.53590036800E+00  0.51100000000E-03 0. -1.
        -11    1    4    4    0    0 -0.28601365245E+02  0.31352065334E+02  0.14175405966E+02  0.44742957314E+02  0.51100000000E-03 0.  1.
        -12    1    4    4    0    0  0.19831099735E+00 -0.45872119983E-01  0.83912666291E+00  0.86346109320E+00  0.00000000000E+00 0.  1.
</event>
<event>
 8    1  0.2962813E-009  0.9118800E+02  0.7816164E-02  0.1184000E+00
        -11   -1    0    0    0    0  0.00000000000E+00  0.00000000000E+00  0.45593999997E+02  0.45594000000E+02  0.51100000000E-03 0. -1.
         11   -1    0    0    0    0 -0.00000000000E+00 -0.00000000000E+00 -0.45593999997E+02  0.45594000000E+02  0.51100000000E-03 0.  1.
         23    2    1    2    0    0 -0.88817841970E-15  0.00000000000E+00  0.71054273576E-14  0.91188000000E+02  0.91188000000E+02 0.  0.
    9900012    2    3    3    0    0 -0.63548629387E+01  0.48416920500E+01  0.44331560375E+02  0.46142317520E+02  0.99999977985E+01 0.  0.
        -12    1    3    3    0    0  0.63548629387E+01 -0.48416920500E+01 -0.44331560375E+02  0.45045682480E+02  0.00000000000E+00 0.  1.
         11    1    4    4    0    0 -0.31374777064E+01  0.54913773570E+01  0.24964638341E+02  0.25753294146E+02  0.51100000000E-03 0. -1.
        -11    1    4    4    0    0  0.61967413159E+00 -0.18939811775E+01  0.36049576533E+01  0.41190873592E+01  0.51100000000E-03 0.  1.
        -12    1    4    4    0    0 -0.38370593639E+01  0.12442958705E+01  0.15761964381E+02  0.16269936014E+02  0.00000000000E+00 0.  1.
</event>
<event>
 8    1  0.2962813E-009  0.9118800E+02  0.7816164E-02  0.1184000E+00
        -11   -1    0    0    0    0  0.00000000000E+00  0.00000000000E+00  0.45593999997E+02  0.45594000000E+02  0.51100000000E-03 0. -1.
         11   -1    0    0    0    0 -0.00000000000E+00 -0.00000000000E+00 -0.45593999997E+02  0.45594000000E+02  0.51100000000E-03 0.  1.
         23    2    1    2    0    0  0.00000000000E+00  0.00000000000E+00  0.00000000000E+00  0.91188000000E+02  0.91188000000E+02 0.  0.
    9900012    2    3    3    0    0  0.48764257678E+01  0.25615152993E+02  0.36731428837E+02  0.46142318126E+02  0.10000003326E+02 0.  0.
        -12    1    3    3    0    0 -0.48764257678E+01 -0.25615152993E+02 -0.36731428837E+02  0.45045681874E+02  0.00000000000E+00 0.  1.
         11    1    4    4    0    0  0.71693494641E+01  0.17093018786E+02  0.21238293189E+02  0.28189288051E+02  0.51100000000E-03 0. -1.
        -11    1    4    4    0    0 -0.24157433762E+01  0.54995267884E+01  0.94999501628E+01  0.11239646983E+02  0.51100000000E-03 0.  1.
         12    1    4    4    0    0  0.12281967990E+00  0.30226074182E+01  0.59931854851E+01  0.67133830918E+01  0.00000000000E+00 0. -1.
</event>
<event>
 8    1  0.2962813E-009  0.9118800E+02  0.7816164E-02  0.1184000E+00
        -11   -1    0    0    0    0  0.00000000000E+00  0.00000000000E+00  0.45593999997E+02  0.45594000000E+02  0.51100000000E-03 0. -1.
         11   -1    0    0    0    0 -0.00000000000E+00 -0.00000000000E+00 -0.45593999997E+02  0.45594000000E+02  0.51100000000E-03 0.  1.
         23    2    1    2    0    0 -0.71054273576E-14  0.00000000000E+00  0.35527136788E-14  0.91188000000E+02  0.91188000000E+02 0.  0.
    9900012    2    3    3    0    0 -0.38046428374E+02 -0.10362974942E+02  0.21775937355E+02  0.46142318638E+02  0.10000007996E+02 0.  0.
        -12    1    3    3    0    0  0.38046428374E+02  0.10362974942E+02 -0.21775937355E+02  0.45045681362E+02  0.00000000000E+00 0.  1.
         11    1    4    4    0    0 -0.22953972945E+02 -0.32730470328E+01  0.10271727696E+02  0.25359536687E+02  0.51100000000E-03 0. -1.
        -11    1    4    4    0    0 -0.58107235696E+01 -0.19485661015E+01  0.68639920969E+01  0.92019457737E+01  0.51100000000E-03 0.  1.
        -12    1    4    4    0    0 -0.92817318597E+01 -0.51413618073E+01  0.46402175619E+01  0.11580836178E+02  0.00000000000E+00 0.  1.
</event>
<event>
 8    1  0.2962813E-009  0.9118800E+02  0.7816164E-02  0.1184000E+00
        -11   -1    0    0    0    0  0.00000000000E+00  0.00000000000E+00  0.45593999997E+02  0.45594000000E+02  0.51100000000E-03 0. -1.
         11   -1    0    0    0    0 -0.00000000000E+00 -0.00000000000E+00 -0.45593999997E+02  0.45594000000E+02  0.51100000000E-03 0.  1.
         23    2    1    2    0    0 -0.35527136788E-14  0.00000000000E+00  0.00000000000E+00  0.91188000000E+02  0.91188000000E+02 0.  0.
    9900012    2    3    3    0    0  0.31171255786E+02  0.30925651188E+02  0.10053374840E+02  0.46142318361E+02  0.10000005470E+02 0.  0.
        -12    1    3    3    0    0 -0.31171255786E+02 -0.30925651188E+02 -0.10053374840E+02  0.45045681639E+02  0.00000000000E+00 0.  1.
         11    1    4    4    0    0  0.17872542020E+02  0.13504806046E+02  0.68400053821E+01  0.23422066913E+02  0.51100000000E-03 0. -1.
        -11    1    4    4    0    0  0.51260032914E+01  0.63301780870E+01 -0.12454083520E+01  0.82400307391E+01  0.51100000000E-03 0.  1.
        -12    1    4    4    0    0  0.81727104746E+01  0.11090667055E+02  0.44587778103E+01  0.14480220709E+02  0.00000000000E+00 0.  1.
</event>
<event>
 8    1  0.2962813E-009  0.9118800E+02  0.7816164E-02  0.1184000E+00
        -11   -1    0    0    0    0  0.00000000000E+00  0.00000000000E+00  0.45593999997E+02  0.45594000000E+02  0.51100000000E-03 0. -1.
         11   -1    0    0    0    0 -0.00000000000E+00 -0.00000000000E+00 -0.45593999997E+02  0.45594000000E+02  0.51100000000E-03 0.  1.
         23    2    1    2    0    0  0.00000000000E+00  0.00000000000E+00  0.00000000000E+00  0.91188000000E+02  0.91188000000E+02 0.  0.
    9900012    2    3    3    0    0  0.23231131930E+02  0.35539130051E+02 -0.15046536109E+02  0.46142317583E+02  0.99999983788E+01 0.  0.
         12    1    3    3    0    0 -0.23231131930E+02 -0.35539130051E+02  0.15046536109E+02  0.45045682417E+02  0.00000000000E+00 0. -1.
         11    1    4    4    0    0  0.10354529946E+01 -0.12410180059E+00  0.43803095259E+00  0.11311213628E+01  0.51100000000E-03 0. -1.
        -11    1    4    4    0    0  0.11165512848E+02  0.21734955721E+02 -0.77600602265E+01  0.25637775105E+02  0.51100000000E-03 0.  1.
         12    1    4    4    0    0  0.11030166087E+02  0.13928276130E+02 -0.77245068349E+01  0.19373421115E+02  0.00000000000E+00 0. -1.
</event>
<event>
 8    1  0.2962813E-009  0.9118800E+02  0.7816164E-02  0.1184000E+00
        -11   -1    0    0    0    0  0.00000000000E+00  0.00000000000E+00  0.45593999997E+02  0.45594000000E+02  0.51100000000E-03 0. -1.
         11   -1    0    0    0    0 -0.00000000000E+00 -0.00000000000E+00 -0.45593999997E+02  0.45594000000E+02  0.51100000000E-03 0.  1.
         23    2    1    2    0    0  0.00000000000E+00  0.00000000000E+00  0.00000000000E+00  0.91188000000E+02  0.91188000000E+02 0.  0.
    9900012    2    3    3    0    0 -0.40285913773E+02  0.16560433712E+02  0.11485236576E+02  0.46142317937E+02  0.10000001605E+02 0.  0.
        -12    1    3    3    0    0  0.40285913773E+02 -0.16560433712E+02 -0.11485236576E+02  0.45045682063E+02  0.00000000000E+00 0.  1.
         11    1    4    4    0    0 -0.10401073101E+02  0.51904571811E+01 -0.91320094445E+00  0.11660064478E+02  0.51100000000E-03 0.  1.
        -11    1    4    4    0    0 -0.80399035807E+01  0.39829864423E+01  0.49600503538E+01  0.10252137843E+02  0.51100000000E-03 0. -1.
        -12    1    4    4    0    0 -0.21844937091E+02  0.73869900890E+01  0.74383871665E+01  0.24230115615E+02  0.00000000000E+00 0.  1.
</event>
<event>
 8    1  0.2962813E-009  0.9118800E+02  0.7816164E-02  0.1184000E+00
        -11   -1    0    0    0    0  0.00000000000E+00  0.00000000000E+00  0.45593999997E+02  0.45594000000E+02  0.51100000000E-03 0. -1.
         11   -1    0    0    0    0 -0.00000000000E+00 -0.00000000000E+00 -0.45593999997E+02  0.45594000000E+02  0.51100000000E-03 0.  1.
         23    2    1    2    0    0  0.35527136788E-14  0.00000000000E+00 -0.71054273576E-14  0.91188000000E+02  0.91188000000E+02 0.  0.
    9900012    2    3    3    0    0 -0.18726286426E+02 -0.69493662613E+01  0.40375064395E+02  0.46142319634E+02  0.10000017080E+02 0.  0.
        -12    1    3    3    0    0  0.18726286426E+02  0.69493662613E+01 -0.40375064395E+02  0.45045680366E+02  0.00000000000E+00 0.  1.
         11    1    4    4    0    0 -0.18034570945E+02 -0.87777936300E+01  0.36099376012E+02  0.41297219748E+02  0.51100000000E-03 0. -1.
        -11    1    4    4    0    0 -0.99280757222E+00  0.10872964942E+01  0.29427324239E+01  0.32905250221E+01  0.51100000000E-03 0.  1.
         12    1    4    4    0    0  0.30109209109E+00  0.74113087457E+00  0.13329559588E+01  0.15545748643E+01  0.00000000000E+00 0. -1.
</event>
<event>
 8    1  0.2962813E-009  0.9118800E+02  0.7816164E-02  0.1184000E+00
        -11   -1    0    0    0    0  0.00000000000E+00  0.00000000000E+00  0.45593999997E+02  0.45594000000E+02  0.51100000000E-03 0. -1.
         11   -1    0    0    0    0 -0.00000000000E+00 -0.00000000000E+00 -0.45593999997E+02  0.45594000000E+02  0.51100000000E-03 0.  1.
         23    2    1    2    0    0  0.00000000000E+00  0.00000000000E+00  0.71054273576E-14  0.91188000000E+02  0.91188000000E+02 0.  0.
    9900012    2    3    3    0    0 -0.12745389102E+02  0.32003218650E+02  0.29025205942E+02  0.46142317329E+02  0.99999960573E+01 0.  0.
        -12    1    3    3    0    0  0.12745389102E+02 -0.32003218650E+02 -0.29025205942E+02  0.45045682671E+02  0.00000000000E+00 0.  1.
         11    1    4    4    0    0 -0.95787986927E+01  0.13136631744E+02  0.15432094960E+02  0.22415932572E+02  0.51100000000E-03 0. -1.
        -11    1    4    4    0    0 -0.25208363788E+01  0.13795435116E+02  0.11738460056E+02  0.18288250076E+02  0.51100000000E-03 0.  1.
        -12    1    4    4    0    0 -0.64575403061E+00  0.50711517901E+01  0.18546509264E+01  0.54381346807E+01  0.00000000000E+00 0.  1.
</event>
<event>
 8    1  0.2962813E-009  0.9118800E+02  0.7816164E-02  0.1184000E+00
        -11   -1    0    0    0    0  0.00000000000E+00  0.00000000000E+00  0.45593999997E+02  0.45594000000E+02  0.51100000000E-03 0. -1.
         11   -1    0    0    0    0 -0.00000000000E+00 -0.00000000000E+00 -0.45593999997E+02  0.45594000000E+02  0.51100000000E-03 0.  1.
         23    2    1    2    0    0  0.17763568394E-14 -0.17763568394E-14 -0.71054273576E-14  0.91188000000E+02  0.91188000000E+02 0.  0.
    9900012    2    3    3    0    0 -0.12429378200E+02  0.12161060513E+02  0.41553983271E+02  0.46142308076E+02  0.99999116804E+01 0.  0.
        -12    1    3    3    0    0  0.12429378200E+02 -0.12161060513E+02 -0.41553983271E+02  0.45045691924E+02  0.00000000000E+00 0.  1.
         11    1    4    4    0    0 -0.49509466835E+01  0.19672058270E+01  0.11530242116E+02  0.12701506026E+02  0.51100000000E-03 0.  1.
        -11    1    4    4    0    0 -0.13029496939E+01  0.72988376899E+01  0.19877827703E+02  0.21215530726E+02  0.51100000000E-03 0. -1.
        -12    1    4    4    0    0 -0.61754818229E+01  0.28950169967E+01  0.10145913452E+02  0.12225271324E+02  0.00000000000E+00 0.  1.
</event>
<event>
 8    1  0.2962813E-009  0.9118800E+02  0.7816164E-02  0.1184000E+00
        -11   -1    0    0    0    0  0.00000000000E+00  0.00000000000E+00  0.45593999997E+02  0.45594000000E+02  0.51100000000E-03 0. -1.
         11   -1    0    0    0    0 -0.00000000000E+00 -0.00000000000E+00 -0.45593999997E+02  0.45594000000E+02  0.51100000000E-03 0.  1.
         23    2    1    2    0    0  0.35527136788E-14  0.00000000000E+00  0.35527136788E-14  0.91188000000E+02  0.91188000000E+02 0.  0.
    9900012    2    3    3    0    0 -0.30547592756E+02  0.24786263045E+02 -0.21945368983E+02  0.46142317868E+02  0.10000000975E+02 0.  0.
         12    1    3    3    0    0  0.30547592756E+02 -0.24786263045E+02  0.21945368983E+02  0.45045682132E+02  0.00000000000E+00 0. -1.
         11    1    4    4    0    0 -0.13717173977E+02  0.97748696263E+01 -0.42963788070E+01  0.17382974695E+02  0.51100000000E-03 0. -1.
        -11    1    4    4    0    0 -0.70832081942E+01  0.55924351058E+01 -0.85668484185E+01  0.12443394265E+02  0.51100000000E-03 0.  1.
         12    1    4    4    0    0 -0.97472105845E+01  0.94189583132E+01 -0.90821417571E+01  0.16315948908E+02  0.00000000000E+00 0. -1.
</event>
<event>
 8    1  0.2962813E-009  0.9118800E+02  0.7816164E-02  0.1184000E+00
        -11   -1    0    0    0    0  0.00000000000E+00  0.00000000000E+00  0.45593999997E+02  0.45594000000E+02  0.51100000000E-03 0.  1.
         11   -1    0    0    0    0 -0.00000000000E+00 -0.00000000000E+00 -0.45593999997E+02  0.45594000000E+02  0.51100000000E-03 0. -1.
         23    2    1    2    0    0  0.00000000000E+00  0.00000000000E+00 -0.17763568394E-14  0.91188000000E+02  0.91188000000E+02 0.  0.
    9900012    2    3    3    0    0 -0.43129190899E+02 -0.10208780097E+02  0.80478603724E+01  0.46142308139E+02  0.99999122592E+01 0.  0.
        -12    1    3    3    0    0  0.43129190899E+02  0.10208780097E+02 -0.80478603724E+01  0.45045691861E+02  0.00000000000E+00 0.  1.
         11    1    4    4    0    0 -0.21480724665E+02 -0.18700174827E+01  0.64638962262E+01  0.22510007823E+02  0.51100000000E-03 0. -1.
        -11    1    4    4    0    0 -0.17686798442E+01 -0.50753882746E+00  0.13190461323E+01  0.22640024322E+01  0.51100000000E-03 0.  1.
         12    1    4    4    0    0 -0.19879786390E+02 -0.78312237873E+01  0.26491801388E+00  0.21368297884E+02  0.00000000000E+00 0. -1.
</event>
<event>
 8    1  0.2962813E-009  0.9118800E+02  0.7816164E-02  0.1184000E+00
        -11   -1    0    0    0    0  0.00000000000E+00  0.00000000000E+00  0.45593999997E+02  0.45594000000E+02  0.51100000000E-03 0.  1.
         11   -1    0    0    0    0 -0.00000000000E+00 -0.00000000000E+00 -0.45593999997E+02  0.45594000000E+02  0.51100000000E-03 0. -1.
         23    2    1    2    0    0  0.71054273576E-14 -0.17763568394E-14  0.00000000000E+00  0.91188000000E+02  0.91188000000E+02 0.  0.
    9900012    2    3    3    0    0 -0.43052546677E+02 -0.12039207539E+02 -0.55361740868E+01  0.46142317443E+02  0.99999970978E+01 0.  0.
        -12    1    3    3    0    0  0.43052546677E+02  0.12039207539E+02  0.55361740868E+01  0.45045682557E+02  0.00000000000E+00 0.  1.
         11    1    4    4    0    0 -0.22015485175E+02 -0.90258457167E+01 -0.27924864568E+01  0.23957158831E+02  0.51100000000E-03 0. -1.
        -11    1    4    4    0    0 -0.10315767186E+00 -0.97522909142E+00 -0.17192567602E+00  0.99562642855E+00  0.51100000000E-03 0.  1.
        -12    1    4    4    0    0 -0.20933903830E+02 -0.20381327306E+01 -0.25717619540E+01  0.21189532183E+02  0.00000000000E+00 0.  1.
</event>
<event>
 8    1  0.2962813E-009  0.9118800E+02  0.7816164E-02  0.1184000E+00
        -11   -1    0    0    0    0  0.00000000000E+00  0.00000000000E+00  0.45593999997E+02  0.45594000000E+02  0.51100000000E-03 0. -1.
         11   -1    0    0    0    0 -0.00000000000E+00 -0.00000000000E+00 -0.45593999997E+02  0.45594000000E+02  0.51100000000E-03 0.  1.
         23    2    1    2    0    0  0.44408920985E-15  0.17763568394E-14  0.00000000000E+00  0.91188000000E+02  0.91188000000E+02 0.  0.
    9900012    2    3    3    0    0  0.24043583028E+01  0.14704708913E+02 -0.42510046569E+02  0.46142318050E+02  0.10000002632E+02 0.  0.
         12    1    3    3    0    0 -0.24043583028E+01 -0.14704708913E+02  0.42510046569E+02  0.45045681950E+02  0.00000000000E+00 0. -1.
         11    1    4    4    0    0  0.45400807609E+01  0.23794059340E+01 -0.12432982041E+02  0.13448157815E+02  0.51100000000E-03 0. -1.
        -11    1    4    4    0    0 -0.10190257553E+01  0.10662708021E+02 -0.26691853963E+02  0.28760855760E+02  0.51100000000E-03 0.  1.
         12    1    4    4    0    0 -0.11166967029E+01  0.16625949581E+01 -0.33852105652E+01  0.39333044748E+01  0.00000000000E+00 0. -1.
</event>
<event>
 8    1  0.2962813E-009  0.9118800E+02  0.7816164E-02  0.1184000E+00
        -11   -1    0    0    0    0  0.00000000000E+00  0.00000000000E+00  0.45593999997E+02  0.45594000000E+02  0.51100000000E-03 0. -1.
         11   -1    0    0    0    0 -0.00000000000E+00 -0.00000000000E+00 -0.45593999997E+02  0.45594000000E+02  0.51100000000E-03 0.  1.
         23    2    1    2    0    0  0.00000000000E+00  0.22204460493E-15  0.00000000000E+00  0.91188000000E+02  0.91188000000E+02 0.  0.
    9900012    2    3    3    0    0 -0.19654087094E+02  0.12811876569E+01  0.40511592704E+02  0.46142315137E+02  0.99999760725E+01 0.  0.
        -12    1    3    3    0    0  0.19654087094E+02 -0.12811876569E+01 -0.40511592704E+02  0.45045684863E+02  0.00000000000E+00 0.  1.
         11    1    4    4    0    0 -0.86444370602E+01  0.25500165237E+01  0.15368281953E+02  0.17816087303E+02  0.51100000000E-03 0. -1.
        -11    1    4    4    0    0 -0.57045532029E-01 -0.87318583651E+00 -0.24764134785E-01  0.87539775034E+00  0.51100000000E-03 0.  1.
        -12    1    4    4    0    0 -0.10952604502E+02 -0.39564303030E+00  0.25168074886E+02  0.27450830083E+02  0.00000000000E+00 0.  1.
</event>
<event>
 8    1  0.2962813E-009  0.9118800E+02  0.7816164E-02  0.1184000E+00
        -11   -1    0    0    0    0  0.00000000000E+00  0.00000000000E+00  0.45593999997E+02  0.45594000000E+02  0.51100000000E-03 0. -1.
         11   -1    0    0    0    0 -0.00000000000E+00 -0.00000000000E+00 -0.45593999997E+02  0.45594000000E+02  0.51100000000E-03 0.  1.
         23    2    1    2    0    0 -0.35527136788E-14  0.00000000000E+00  0.00000000000E+00  0.91188000000E+02  0.91188000000E+02 0.  0.
    9900012    2    3    3    0    0  0.30314132867E+02 -0.94390260393E+01  0.31954204968E+02  0.46142322303E+02  0.10000041417E+02 0.  0.
        -12    1    3    3    0    0 -0.30314132867E+02  0.94390260393E+01 -0.31954204968E+02  0.45045677697E+02  0.00000000000E+00 0.  1.
         11    1    4    4    0    0  0.29027000839E+02 -0.88778460069E+01  0.31120446510E+02  0.43472578929E+02  0.51100000000E-03 0. -1.
        -11    1    4    4    0    0  0.65941023810E+00 -0.55623154156E+00 -0.63584262174E+00  0.10716862837E+01  0.51100000000E-03 0.  1.
         12    1    4    4    0    0  0.62772178969E+00 -0.49484909147E-02  0.14696010792E+01  0.15980570906E+01  0.00000000000E+00 0. -1.
</event>
<event>
 8    1  0.2962813E-009  0.9118800E+02  0.7816164E-02  0.1184000E+00
        -11   -1    0    0    0    0  0.00000000000E+00  0.00000000000E+00  0.45593999997E+02  0.45594000000E+02  0.51100000000E-03 0. -1.
         11   -1    0    0    0    0 -0.00000000000E+00 -0.00000000000E+00 -0.45593999997E+02  0.45594000000E+02  0.51100000000E-03 0.  1.
         23    2    1    2    0    0 -0.88817841970E-15  0.00000000000E+00  0.00000000000E+00  0.91188000000E+02  0.91188000000E+02 0.  0.
    9900012    2    3    3    0    0 -0.79168590797E+01  0.12238042076E+02 -0.42622376853E+02  0.46142319406E+02  0.10000015000E+02 0.  0.
         12    1    3    3    0    0  0.79168590797E+01 -0.12238042076E+02  0.42622376853E+02  0.45045680594E+02  0.00000000000E+00 0. -1.
         11    1    4    4    0    0  0.13175729706E+01  0.55738053894E+01 -0.14795497813E+02  0.15865373013E+02  0.51100000000E-03 0. -1.
        -11    1    4    4    0    0 -0.52728190668E+01  0.55575925019E+01 -0.15657219044E+02  0.17430948448E+02  0.51100000000E-03 0.  1.
         12    1    4    4    0    0 -0.39616129835E+01  0.11066441845E+01 -0.12169659996E+02  0.12845997945E+02  0.00000000000E+00 0. -1.
</event>
<event>
 8    1  0.2962813E-009  0.9118800E+02  0.7816164E-02  0.1184000E+00
        -11   -1    0    0    0    0  0.00000000000E+00  0.00000000000E+00  0.45593999997E+02  0.45594000000E+02  0.51100000000E-03 0. -1.
         11   -1    0    0    0    0 -0.00000000000E+00 -0.00000000000E+00 -0.45593999997E+02  0.45594000000E+02  0.51100000000E-03 0.  1.
         23    2    1    2    0    0 -0.17763568394E-14  0.35527136788E-14  0.71054273576E-14  0.91188000000E+02  0.91188000000E+02 0.  0.
    9900012    2    3    3    0    0 -0.14513946080E+02  0.28620987546E+02  0.31611674175E+02  0.46142317598E+02  0.99999985130E+01 0.  0.
        -12    1    3    3    0    0  0.14513946080E+02 -0.28620987546E+02 -0.31611674175E+02  0.45045682402E+02  0.00000000000E+00 0.  1.
         11    1    4    4    0    0 -0.14471062044E+02  0.22937876484E+02  0.22228225502E+02  0.35066391652E+02  0.51100000000E-03 0. -1.
        -11    1    4    4    0    0  0.26544040509E+00  0.23608463099E+01  0.52601923620E+01  0.57718002265E+01  0.51100000000E-03 0.  1.
         12    1    4    4    0    0 -0.30832444186E+00  0.33222647514E+01  0.41232563112E+01  0.53041257194E+01  0.00000000000E+00 0. -1.
</event>
<event>
 8    1  0.2962813E-009  0.9118800E+02  0.7816164E-02  0.1184000E+00
        -11   -1    0    0    0    0  0.00000000000E+00  0.00000000000E+00  0.45593999997E+02  0.45594000000E+02  0.51100000000E-03 0. -1.
         11   -1    0    0    0    0 -0.00000000000E+00 -0.00000000000E+00 -0.45593999997E+02  0.45594000000E+02  0.51100000000E-03 0.  1.
         23    2    1    2    0    0  0.17763568394E-14  0.00000000000E+00  0.00000000000E+00  0.91188000000E+02  0.91188000000E+02 0.  0.
    9900012    2    3    3    0    0 -0.10478935682E+02 -0.34165675912E+02  0.27422837812E+02  0.46142317219E+02  0.99999950536E+01 0.  0.
        -12    1    3    3    0    0  0.10478935682E+02  0.34165675912E+02 -0.27422837812E+02  0.45045682781E+02  0.00000000000E+00 0.  1.
         11    1    4    4    0    0 -0.56110486158E+01 -0.16083001016E+02  0.12927910613E+02  0.21384051565E+02  0.51100000000E-03 0. -1.
        -11    1    4    4    0    0 -0.12428898638E+01  0.33038391689E+00  0.12065649796E+01  0.17634421049E+01  0.51100000000E-03 0.  1.
        -12    1    4    4    0    0 -0.36249972028E+01 -0.18413058813E+02  0.13288362219E+02  0.22994823548E+02  0.00000000000E+00 0.  1.
</event>
<event>
 8    1  0.2962813E-009  0.9118800E+02  0.7816164E-02  0.1184000E+00
        -11   -1    0    0    0    0  0.00000000000E+00  0.00000000000E+00  0.45593999997E+02  0.45594000000E+02  0.51100000000E-03 0. -1.
         11   -1    0    0    0    0 -0.00000000000E+00 -0.00000000000E+00 -0.45593999997E+02  0.45594000000E+02  0.51100000000E-03 0.  1.
         23    2    1    2    0    0  0.17763568394E-14  0.00000000000E+00  0.00000000000E+00  0.91188000000E+02  0.91188000000E+02 0.  0.
    9900012    2    3    3    0    0  0.13128048900E+02 -0.39478661149E+02  0.17268560395E+02  0.46142317275E+02  0.99999955666E+01 0.  0.
        -12    1    3    3    0    0 -0.13128048900E+02  0.39478661149E+02 -0.17268560395E+02  0.45045682725E+02  0.00000000000E+00 0.  1.
         11    1    4    4    0    0  0.13392739034E+02 -0.28951983885E+02  0.11442982633E+02  0.33889890550E+02  0.51100000000E-03 0. -1.
        -11    1    4    4    0    0 -0.10680429966E+00 -0.17603347103E+01  0.20557663105E+01  0.27085717334E+01  0.51100000000E-03 0.  1.
         12    1    4    4    0    0 -0.15788583491E+00 -0.87663425540E+01  0.37698114514E+01  0.95438549910E+01  0.00000000000E+00 0. -1.
</event>
<event>
 8    1  0.2962813E-009  0.9118800E+02  0.7816164E-02  0.1184000E+00
        -11   -1    0    0    0    0  0.00000000000E+00  0.00000000000E+00  0.45593999997E+02  0.45594000000E+02  0.51100000000E-03 0. -1.
         11   -1    0    0    0    0 -0.00000000000E+00 -0.00000000000E+00 -0.45593999997E+02  0.45594000000E+02  0.51100000000E-03 0.  1.
         23    2    1    2    0    0  0.22204460493E-15  0.00000000000E+00  0.00000000000E+00  0.91188000000E+02  0.91188000000E+02 0.  0.
    9900012    2    3    3    0    0  0.11968301018E+01  0.22855983646E+02 -0.38798003720E+02  0.46142317816E+02  0.10000000504E+02 0.  0.
         12    1    3    3    0    0 -0.11968301018E+01 -0.22855983646E+02  0.38798003720E+02  0.45045682184E+02  0.00000000000E+00 0. -1.
         11    1    4    4    0    0 -0.10999594473E+01  0.59336176976E+01 -0.50087510630E+01  0.78425325782E+01  0.51100000000E-03 0. -1.
        -11    1    4    4    0    0 -0.63854230679E+00  0.13359496767E+02 -0.26211987255E+02  0.29427065200E+02  0.51100000000E-03 0.  1.
        -12    1    4    4    0    0  0.29353318558E+01  0.35628691816E+01 -0.75772654018E+01  0.88727200383E+01  0.00000000000E+00 0.  1.
</event>
<event>
 8    1  0.2962813E-009  0.9118800E+02  0.7816164E-02  0.1184000E+00
        -11   -1    0    0    0    0  0.00000000000E+00  0.00000000000E+00  0.45593999997E+02  0.45594000000E+02  0.51100000000E-03 0.  1.
         11   -1    0    0    0    0 -0.00000000000E+00 -0.00000000000E+00 -0.45593999997E+02  0.45594000000E+02  0.51100000000E-03 0. -1.
         23    2    1    2    0    0  0.00000000000E+00  0.00000000000E+00  0.00000000000E+00  0.91188000000E+02  0.91188000000E+02 0.  0.
    9900012    2    3    3    0    0  0.37825027912E+02  0.23750514296E+02 -0.58561071313E+01  0.46142315894E+02  0.99999829700E+01 0.  0.
         12    1    3    3    0    0 -0.37825027912E+02 -0.23750514296E+02  0.58561071313E+01  0.45045684106E+02  0.00000000000E+00 0. -1.
         11    1    4    4    0    0  0.54814989573E+01  0.46323053212E+01 -0.22910136916E+01  0.75335136161E+01  0.51100000000E-03 0. -1.
        -11    1    4    4    0    0  0.19582061870E+02  0.13226290450E+02  0.14755958746E+01  0.23676344515E+02  0.51100000000E-03 0.  1.
        -12    1    4    4    0    0  0.12761467085E+02  0.58919185247E+01 -0.50406893142E+01  0.14932457762E+02  0.00000000000E+00 0.  1.
</event>
<event>
 8    1  0.2962813E-009  0.9118800E+02  0.7816164E-02  0.1184000E+00
        -11   -1    0    0    0    0  0.00000000000E+00  0.00000000000E+00  0.45593999997E+02  0.45594000000E+02  0.51100000000E-03 0. -1.
         11   -1    0    0    0    0 -0.00000000000E+00 -0.00000000000E+00 -0.45593999997E+02  0.45594000000E+02  0.51100000000E-03 0.  1.
         23    2    1    2    0    0  0.00000000000E+00  0.00000000000E+00 -0.17763568394E-14  0.91188000000E+02  0.91188000000E+02 0.  0.
    9900012    2    3    3    0    0 -0.64527282153E+01  0.42579911504E+02 -0.13207077555E+02  0.46142318046E+02  0.10000002601E+02 0.  0.
         12    1    3    3    0    0  0.64527282153E+01 -0.42579911504E+02  0.13207077555E+02  0.45045681954E+02  0.00000000000E+00 0. -1.
         11    1    4    4    0    0 -0.15653861649E+01  0.43044288360E+00 -0.44464601516E+00  0.16832781294E+01  0.51100000000E-03 0. -1.
        -11    1    4    4    0    0 -0.47127105462E+01  0.25618312352E+02 -0.73971622668E+01  0.27078138384E+02  0.51100000000E-03 0.  1.
         12    1    4    4    0    0 -0.17463150418E+00  0.16531156268E+02 -0.53652692735E+01  0.17380901533E+02  0.00000000000E+00 0. -1.
</event>
<event>
 8    1  0.2962813E-009  0.9118800E+02  0.7816164E-02  0.1184000E+00
        -11   -1    0    0    0    0  0.00000000000E+00  0.00000000000E+00  0.45593999997E+02  0.45594000000E+02  0.51100000000E-03 0. -1.
         11   -1    0    0    0    0 -0.00000000000E+00 -0.00000000000E+00 -0.45593999997E+02  0.45594000000E+02  0.51100000000E-03 0.  1.
         23    2    1    2    0    0  0.00000000000E+00 -0.35527136788E-14 -0.17763568394E-14  0.91188000000E+02  0.91188000000E+02 0.  0.
    9900012    2    3    3    0    0 -0.34297482272E+02 -0.24669864640E+02 -0.15626693855E+02  0.46142322379E+02  0.10000042107E+02 0.  0.
         12    1    3    3    0    0  0.34297482272E+02  0.24669864640E+02  0.15626693855E+02  0.45045677621E+02  0.00000000000E+00 0. -1.
         11    1    4    4    0    0 -0.35594082436E+01 -0.38252231542E+01 -0.20985970151E-01  0.52251468780E+01  0.51100000000E-03 0. -1.
        -11    1    4    4    0    0 -0.29400732390E+02 -0.21208565169E+02 -0.14173673673E+02  0.38924276837E+02  0.51100000000E-03 0.  1.
        -12    1    4    4    0    0 -0.13373416375E+01  0.36392368264E+00 -0.14320342116E+01  0.19928986641E+01  0.00000000000E+00 0.  1.
</event>
<event>
 8    1  0.2962813E-009  0.9118800E+02  0.7816164E-02  0.1184000E+00
        -11   -1    0    0    0    0  0.00000000000E+00  0.00000000000E+00  0.45593999997E+02  0.45594000000E+02  0.51100000000E-03 0. -1.
         11   -1    0    0    0    0 -0.00000000000E+00 -0.00000000000E+00 -0.45593999997E+02  0.45594000000E+02  0.51100000000E-03 0.  1.
         23    2    1    2    0    0  0.00000000000E+00 -0.17763568394E-14  0.00000000000E+00  0.91188000000E+02  0.91188000000E+02 0.  0.
    9900012    2    3    3    0    0 -0.31539940418E+02  0.90036787849E+01  0.30875223051E+02  0.46142317946E+02  0.10000001689E+02 0.  0.
        -12    1    3    3    0    0  0.31539940418E+02 -0.90036787849E+01 -0.30875223051E+02  0.45045682054E+02  0.00000000000E+00 0.  1.
         11    1    4    4    0    0 -0.76188286790E+01  0.41397524272E+01  0.11600269296E+02  0.14482760393E+02  0.51100000000E-03 0. -1.
        -11    1    4    4    0    0 -0.20005058814E+02  0.46316339596E+01  0.13143193672E+02  0.24380277919E+02  0.51100000000E-03 0.  1.
        -12    1    4    4    0    0 -0.39160529255E+01  0.23229239806E+00  0.61317600830E+01  0.72792796339E+01  0.00000000000E+00 0.  1.
</event>
<event>
 8    1  0.2962813E-009  0.9118800E+02  0.7816164E-02  0.1184000E+00
        -11   -1    0    0    0    0  0.00000000000E+00  0.00000000000E+00  0.45593999997E+02  0.45594000000E+02  0.51100000000E-03 0. -1.
         11   -1    0    0    0    0 -0.00000000000E+00 -0.00000000000E+00 -0.45593999997E+02  0.45594000000E+02  0.51100000000E-03 0.  1.
         23    2    1    2    0    0  0.71054273576E-14  0.00000000000E+00 -0.44408920985E-15  0.91188000000E+02  0.91188000000E+02 0.  0.
    9900012    2    3    3    0    0 -0.44841158732E+02 -0.16012529423E+01  0.39774323939E+01  0.46142317678E+02  0.99999992395E+01 0.  0.
        -12    1    3    3    0    0  0.44841158732E+02  0.16012529423E+01 -0.39774323939E+01  0.45045682322E+02  0.00000000000E+00 0.  1.
         11    1    4    4    0    0 -0.13180043467E+02  0.19459208739E+00 -0.10461913604E+01  0.13222931918E+02  0.51100000000E-03 0. -1.
        -11    1    4    4    0    0 -0.17130909729E+02  0.35834463159E-01  0.62204819455E+01  0.18225360028E+02  0.51100000000E-03 0.  1.
        -12    1    4    4    0    0 -0.14530205537E+02 -0.18316794928E+01 -0.11968581911E+01  0.14694025733E+02  0.00000000000E+00 0.  1.
</event>
<event>
 8    1  0.2962813E-009  0.9118800E+02  0.7816164E-02  0.1184000E+00
        -11   -1    0    0    0    0  0.00000000000E+00  0.00000000000E+00  0.45593999997E+02  0.45594000000E+02  0.51100000000E-03 0. -1.
         11   -1    0    0    0    0 -0.00000000000E+00 -0.00000000000E+00 -0.45593999997E+02  0.45594000000E+02  0.51100000000E-03 0.  1.
         23    2    1    2    0    0  0.00000000000E+00  0.00000000000E+00  0.00000000000E+00  0.91188000000E+02  0.91188000000E+02 0.  0.
    9900012    2    3    3    0    0 -0.23174054938E+02  0.30681561907E+02  0.23467390915E+02  0.46142317636E+02  0.99999988553E+01 0.  0.
        -12    1    3    3    0    0  0.23174054938E+02 -0.30681561907E+02 -0.23467390915E+02  0.45045682364E+02  0.00000000000E+00 0.  1.
         11    1    4    4    0    0 -0.40543143451E+01  0.27243454936E+01  0.57622918695E+01  0.75540407086E+01  0.51100000000E-03 0. -1.
        -11    1    4    4    0    0 -0.78313450305E+01  0.82056456046E+01  0.78572310330E+01  0.13798502257E+02  0.51100000000E-03 0.  1.
        -12    1    4    4    0    0 -0.11288395563E+02  0.19751570809E+02  0.98478680125E+01  0.24789774670E+02  0.00000000000E+00 0.  1.
</event>
<event>
 8    1  0.2962813E-009  0.9118800E+02  0.7816164E-02  0.1184000E+00
        -11   -1    0    0    0    0  0.00000000000E+00  0.00000000000E+00  0.45593999997E+02  0.45594000000E+02  0.51100000000E-03 0. -1.
         11   -1    0    0    0    0 -0.00000000000E+00 -0.00000000000E+00 -0.45593999997E+02  0.45594000000E+02  0.51100000000E-03 0.  1.
         23    2    1    2    0    0  0.00000000000E+00 -0.35527136788E-14 -0.88817841970E-15  0.91188000000E+02  0.91188000000E+02 0.  0.
    9900012    2    3    3    0    0 -0.35470333279E+02 -0.26930528264E+02  0.67613360233E+01  0.46142316962E+02  0.99999927170E+01 0.  0.
        -12    1    3    3    0    0  0.35470333279E+02  0.26930528264E+02 -0.67613360233E+01  0.45045683038E+02  0.00000000000E+00 0.  1.
         11    1    4    4    0    0 -0.20970198199E+02 -0.12294538301E+02  0.49269885501E+01  0.24802824456E+02  0.51100000000E-03 0. -1.
        -11    1    4    4    0    0 -0.97622921105E+00 -0.24318243628E+00  0.12186039189E+01  0.15802395205E+01  0.51100000000E-03 0.  1.
         12    1    4    4    0    0 -0.13523905869E+02 -0.14392807527E+02  0.61574355430E+00  0.19759252986E+02  0.00000000000E+00 0. -1.
</event>
<event>
 8    1  0.2962813E-009  0.9118800E+02  0.7816164E-02  0.1184000E+00
        -11   -1    0    0    0    0  0.00000000000E+00  0.00000000000E+00  0.45593999997E+02  0.45594000000E+02  0.51100000000E-03 0. -1.
         11   -1    0    0    0    0 -0.00000000000E+00 -0.00000000000E+00 -0.45593999997E+02  0.45594000000E+02  0.51100000000E-03 0.  1.
         23    2    1    2    0    0  0.00000000000E+00  0.00000000000E+00  0.00000000000E+00  0.91188000000E+02  0.91188000000E+02 0.  0.
    9900012    2    3    3    0    0  0.19520760881E+02 -0.20962366273E+02  0.34765389336E+02  0.46142320953E+02  0.10000029104E+02 0.  0.
        -12    1    3    3    0    0 -0.19520760881E+02  0.20962366273E+02 -0.34765389336E+02  0.45045679047E+02  0.00000000000E+00 0.  1.
         11    1    4    4    0    0  0.75842657478E+01 -0.80531845402E+01  0.11826660086E+02  0.16193972867E+02  0.51100000000E-03 0. -1.
        -11    1    4    4    0    0  0.12685758585E+02 -0.12026835195E+02  0.18889310014E+02  0.25736729955E+02  0.51100000000E-03 0.  1.
        -12    1    4    4    0    0 -0.74926345176E+00 -0.88234653773E+00  0.40494192362E+01  0.42116181312E+01  0.00000000000E+00 0.  1.
</event>
<event>
 8    1  0.2962813E-009  0.9118800E+02  0.7816164E-02  0.1184000E+00
        -11   -1    0    0    0    0  0.00000000000E+00  0.00000000000E+00  0.45593999997E+02  0.45594000000E+02  0.51100000000E-03 0. -1.
         11   -1    0    0    0    0 -0.00000000000E+00 -0.00000000000E+00 -0.45593999997E+02  0.45594000000E+02  0.51100000000E-03 0.  1.
         23    2    1    2    0    0 -0.17763568394E-14  0.00000000000E+00  0.00000000000E+00  0.91188000000E+02  0.91188000000E+02 0.  0.
    9900012    2    3    3    0    0 -0.13755819908E+02 -0.17920827141E+02  0.38970949702E+02  0.46142317106E+02  0.99999940243E+01 0.  0.
        -12    1    3    3    0    0  0.13755819908E+02  0.17920827141E+02 -0.38970949702E+02  0.45045682894E+02  0.00000000000E+00 0.  1.
         11    1    4    4    0    0 -0.70515835154E+01 -0.15351792443E+02  0.23066730069E+02  0.28591544163E+02  0.51100000000E-03 0. -1.
        -11    1    4    4    0    0 -0.17835687413E+01  0.38200023722E-01  0.29060253990E+01  0.34099209049E+01  0.51100000000E-03 0.  1.
         12    1    4    4    0    0 -0.49206676509E+01 -0.26072347221E+01  0.12998194233E+02  0.14140852038E+02  0.00000000000E+00 0. -1.
</event>
<event>
 8    1  0.2962813E-009  0.9118800E+02  0.7816164E-02  0.1184000E+00
        -11   -1    0    0    0    0  0.00000000000E+00  0.00000000000E+00  0.45593999997E+02  0.45594000000E+02  0.51100000000E-03 0. -1.
         11   -1    0    0    0    0 -0.00000000000E+00 -0.00000000000E+00 -0.45593999997E+02  0.45594000000E+02  0.51100000000E-03 0.  1.
         23    2    1    2    0    0 -0.88817841970E-15  0.00000000000E+00  0.00000000000E+00  0.91188000000E+02  0.91188000000E+02 0.  0.
    9900012    2    3    3    0    0  0.45407386432E+01  0.21558381297E+02 -0.39290347354E+02  0.46142317557E+02  0.99999981407E+01 0.  0.
         12    1    3    3    0    0 -0.45407386432E+01 -0.21558381297E+02  0.39290347354E+02  0.45045682443E+02  0.00000000000E+00 0. -1.
         11    1    4    4    0    0 -0.22331844130E+01  0.62384742309E+01 -0.98429175391E+01  0.11865441386E+02  0.51100000000E-03 0. -1.
        -11    1    4    4    0    0  0.45143231772E+01  0.55612154093E+01 -0.89548787241E+01  0.11467174186E+02  0.51100000000E-03 0.  1.
         12    1    4    4    0    0  0.22595998790E+01  0.97586916567E+01 -0.20492551090E+02  0.22809701985E+02  0.00000000000E+00 0. -1.
</event>
<event>
 8    1  0.2962813E-009  0.9118800E+02  0.7816164E-02  0.1184000E+00
        -11   -1    0    0    0    0  0.00000000000E+00  0.00000000000E+00  0.45593999997E+02  0.45594000000E+02  0.51100000000E-03 0. -1.
         11   -1    0    0    0    0 -0.00000000000E+00 -0.00000000000E+00 -0.45593999997E+02  0.45594000000E+02  0.51100000000E-03 0.  1.
         23    2    1    2    0    0 -0.35527136788E-14  0.00000000000E+00  0.00000000000E+00  0.91188000000E+02  0.91188000000E+02 0.  0.
    9900012    2    3    3    0    0 -0.20340277090E+02 -0.50194921260E+01  0.39877202833E+02  0.46142317864E+02  0.10000000935E+02 0.  0.
        -12    1    3    3    0    0  0.20340277090E+02  0.50194921260E+01 -0.39877202833E+02  0.45045682136E+02  0.00000000000E+00 0.  1.
         11    1    4    4    0    0 -0.56471465899E+01 -0.44143457042E+01  0.65615660052E+01  0.97175542863E+01  0.51100000000E-03 0. -1.
        -11    1    4    4    0    0 -0.11178391833E+02 -0.23399139509E+00  0.24726057105E+02  0.27136490122E+02  0.51100000000E-03 0.  1.
         12    1    4    4    0    0 -0.35147386670E+01 -0.37115502677E+00  0.85895797233E+01  0.92882734549E+01  0.00000000000E+00 0. -1.
</event>
<event>
 8    1  0.2962813E-009  0.9118800E+02  0.7816164E-02  0.1184000E+00
        -11   -1    0    0    0    0  0.00000000000E+00  0.00000000000E+00  0.45593999997E+02  0.45594000000E+02  0.51100000000E-03 0. -1.
         11   -1    0    0    0    0 -0.00000000000E+00 -0.00000000000E+00 -0.45593999997E+02  0.45594000000E+02  0.51100000000E-03 0.  1.
         23    2    1    2    0    0  0.00000000000E+00 -0.35527136788E-14  0.00000000000E+00  0.91188000000E+02  0.91188000000E+02 0.  0.
    9900012    2    3    3    0    0  0.17773007820E+02  0.22439686661E+02 -0.34780657767E+02  0.46142317642E+02  0.99999989138E+01 0.  0.
         12    1    3    3    0    0 -0.17773007820E+02 -0.22439686661E+02  0.34780657767E+02  0.45045682358E+02  0.00000000000E+00 0. -1.
         11    1    4    4    0    0  0.45333259696E+00  0.32137389787E+01 -0.78482916390E+00  0.33390995409E+01  0.51100000000E-03 0. -1.
        -11    1    4    4    0    0  0.14964852569E+02  0.16664264535E+02 -0.27829589540E+02  0.35722969909E+02  0.51100000000E-03 0.  1.
         12    1    4    4    0    0  0.23548226534E+01  0.25616831478E+01 -0.61662390633E+01  0.70802481922E+01  0.00000000000E+00 0. -1.
</event>
<event>
 8    1  0.2962813E-009  0.9118800E+02  0.7816164E-02  0.1184000E+00
        -11   -1    0    0    0    0  0.00000000000E+00  0.00000000000E+00  0.45593999997E+02  0.45594000000E+02  0.51100000000E-03 0. -1.
         11   -1    0    0    0    0 -0.00000000000E+00 -0.00000000000E+00 -0.45593999997E+02  0.45594000000E+02  0.51100000000E-03 0.  1.
         23    2    1    2    0    0  0.00000000000E+00  0.00000000000E+00  0.00000000000E+00  0.91188000000E+02  0.91188000000E+02 0.  0.
    9900012    2    3    3    0    0 -0.14841562064E+02  0.34575845572E+02  0.24765951689E+02  0.46142318469E+02  0.10000006457E+02 0.  0.
        -12    1    3    3    0    0  0.14841562064E+02 -0.34575845572E+02 -0.24765951689E+02  0.45045681531E+02  0.00000000000E+00 0.  1.
         11    1    4    4    0    0 -0.12593341798E+00  0.84713274790E+01  0.83623442803E+01  0.11904119060E+02  0.51100000000E-03 0. -1.
        -11    1    4    4    0    0 -0.72041694395E+01  0.10595637402E+02  0.73850926179E+01  0.14788751891E+02  0.51100000000E-03 0.  1.
         12    1    4    4    0    0 -0.75114592060E+01  0.15508880691E+02  0.90185147908E+01  0.19449447518E+02  0.00000000000E+00 0. -1.
</event>
<event>
 8    1  0.2962813E-009  0.9118800E+02  0.7816164E-02  0.1184000E+00
        -11   -1    0    0    0    0  0.00000000000E+00  0.00000000000E+00  0.45593999997E+02  0.45594000000E+02  0.51100000000E-03 0. -1.
         11   -1    0    0    0    0 -0.00000000000E+00 -0.00000000000E+00 -0.45593999997E+02  0.45594000000E+02  0.51100000000E-03 0.  1.
         23    2    1    2    0    0  0.35527136788E-14  0.00000000000E+00  0.35527136788E-14  0.91188000000E+02  0.91188000000E+02 0.  0.
    9900012    2    3    3    0    0  0.25893486227E+02  0.19117807747E+02  0.31514285941E+02  0.46142318516E+02  0.10000006882E+02 0.  0.
        -12    1    3    3    0    0 -0.25893486227E+02 -0.19117807747E+02 -0.31514285941E+02  0.45045681484E+02  0.00000000000E+00 0.  1.
         11    1    4    4    0    0  0.18784568256E+02  0.12519184548E+02  0.22268795477E+02  0.31709450304E+02  0.51100000000E-03 0. -1.
        -11    1    4    4    0    0  0.34735253329E+01  0.35141009155E+00  0.48411223069E+01  0.59686960671E+01  0.51100000000E-03 0.  1.
         12    1    4    4    0    0  0.36353926376E+01  0.62472131068E+01  0.44043681572E+01  0.84641721447E+01  0.00000000000E+00 0. -1.
</event>
<event>
 8    1  0.2962813E-009  0.9118800E+02  0.7816164E-02  0.1184000E+00
        -11   -1    0    0    0    0  0.00000000000E+00  0.00000000000E+00  0.45593999997E+02  0.45594000000E+02  0.51100000000E-03 0. -1.
         11   -1    0    0    0    0 -0.00000000000E+00 -0.00000000000E+00 -0.45593999997E+02  0.45594000000E+02  0.51100000000E-03 0.  1.
         23    2    1    2    0    0  0.35527136788E-14  0.35527136788E-14  0.35527136788E-14  0.91188000000E+02  0.91188000000E+02 0.  0.
    9900012    2    3    3    0    0 -0.29386795957E+02 -0.19698680844E+02 -0.27883536726E+02  0.46142318476E+02  0.10000006523E+02 0.  0.
         12    1    3    3    0    0  0.29386795957E+02  0.19698680844E+02  0.27883536726E+02  0.45045681524E+02  0.00000000000E+00 0. -1.
         11    1    4    4    0    0 -0.85123170256E+01 -0.34793923288E+01 -0.65502865426E+01  0.11290348364E+02  0.51100000000E-03 0. -1.
        -11    1    4    4    0    0 -0.15790518866E+02 -0.15374595779E+02 -0.14873745523E+02  0.26588474713E+02  0.51100000000E-03 0.  1.
        -12    1    4    4    0    0 -0.50839600653E+01 -0.84469273569E+00 -0.64595046603E+01  0.82634953997E+01  0.00000000000E+00 0.  1.
</event>
<event>
 8    1  0.2962813E-009  0.9118800E+02  0.7816164E-02  0.1184000E+00
        -11   -1    0    0    0    0  0.00000000000E+00  0.00000000000E+00  0.45593999997E+02  0.45594000000E+02  0.51100000000E-03 0. -1.
         11   -1    0    0    0    0 -0.00000000000E+00 -0.00000000000E+00 -0.45593999997E+02  0.45594000000E+02  0.51100000000E-03 0.  1.
         23    2    1    2    0    0  0.00000000000E+00 -0.17763568394E-14  0.00000000000E+00  0.91188000000E+02  0.91188000000E+02 0.  0.
    9900012    2    3    3    0    0  0.16749255468E+02  0.12556965629E+02  0.39886069458E+02  0.46142317839E+02  0.10000000708E+02 0.  0.
        -12    1    3    3    0    0 -0.16749255468E+02 -0.12556965629E+02 -0.39886069458E+02  0.45045682161E+02  0.00000000000E+00 0.  1.
         11    1    4    4    0    0  0.11538798902E+02  0.94247437910E+01  0.34459144210E+02  0.37542007080E+02  0.51100000000E-03 0. -1.
        -11    1    4    4    0    0  0.45552368935E+01  0.14539438339E+01  0.45341845287E+01  0.65896104156E+01  0.51100000000E-03 0.  1.
        -12    1    4    4    0    0  0.65521967257E+00  0.16782780041E+01  0.89274071937E+00  0.20107003433E+01  0.00000000000E+00 0.  1.
</event>
<event>
 8    1  0.3080521E-009  0.9118800E+02  0.7816164E-02  0.1184000E+00
        -11   -1    0    0    0    0  0.00000000000E+00  0.00000000000E+00  0.45593999997E+02  0.45594000000E+02  0.51100000000E-03 0. -1.
         11   -1    0    0    0    0 -0.00000000000E+00 -0.00000000000E+00 -0.45593999997E+02  0.45594000000E+02  0.51100000000E-03 0.  1.
         23    2    1    2    0    0 -0.17763568394E-14  0.00000000000E+00  0.71054273576E-14  0.91188000000E+02  0.91188000000E+02 0.  0.
    9900012    2    3    3    0    0  0.15302615589E+02 -0.23683342140E+02 -0.35128944682E+02  0.46142317707E+02  0.99999995029E+01 0.  0.
         12    1    3    3    0    0 -0.15302615589E+02  0.23683342140E+02  0.35128944682E+02  0.45045682293E+02  0.00000000000E+00 0. -1.
         11    1    4    4    0    0  0.21732566602E+01 -0.11795320761E+01 -0.82035195399E+01  0.85680845895E+01  0.51100000000E-03 0. -1.
        -11    1    4    4    0    0  0.90482802918E+01 -0.16569280767E+02 -0.21082345194E+02  0.28299783047E+02  0.51100000000E-03 0.  1.
         12    1    4    4    0    0  0.40810786369E+01 -0.59345292968E+01 -0.58430799486E+01  0.92744500700E+01  0.00000000000E+00 0. -1.
</event>
<event>
 8    1  0.2962813E-009  0.9118800E+02  0.7816164E-02  0.1184000E+00
        -11   -1    0    0    0    0  0.00000000000E+00  0.00000000000E+00  0.45593999997E+02  0.45594000000E+02  0.51100000000E-03 0. -1.
         11   -1    0    0    0    0 -0.00000000000E+00 -0.00000000000E+00 -0.45593999997E+02  0.45594000000E+02  0.51100000000E-03 0.  1.
         23    2    1    2    0    0  0.00000000000E+00 -0.71054273576E-14  0.35527136788E-14  0.91188000000E+02  0.91188000000E+02 0.  0.
    9900012    2    3    3    0    0  0.37788474889E+01 -0.35415154151E+02  0.27578990050E+02  0.46142317365E+02  0.99999963894E+01 0.  0.
        -12    1    3    3    0    0 -0.37788474889E+01  0.35415154151E+02 -0.27578990050E+02  0.45045682635E+02  0.00000000000E+00 0.  1.
         11    1    4    4    0    0 -0.78559482018E-01 -0.38872910838E+01  0.40584133746E+01  0.56203134203E+01  0.51100000000E-03 0.  1.
        -11    1    4    4    0    0  0.82193584976E-01 -0.26748575644E+02  0.17543293674E+02  0.31988438660E+02  0.51100000000E-03 0. -1.
        -12    1    4    4    0    0  0.37752133859E+01 -0.47792874236E+01  0.59772830012E+01  0.85335652844E+01  0.00000000000E+00 0.  1.
</event>
<event>
 8    1  0.2962813E-009  0.9118800E+02  0.7816164E-02  0.1184000E+00
        -11   -1    0    0    0    0  0.00000000000E+00  0.00000000000E+00  0.45593999997E+02  0.45594000000E+02  0.51100000000E-03 0. -1.
         11   -1    0    0    0    0 -0.00000000000E+00 -0.00000000000E+00 -0.45593999997E+02  0.45594000000E+02  0.51100000000E-03 0.  1.
         23    2    1    2    0    0  0.35527136788E-14 -0.35527136788E-14  0.35527136788E-14  0.91188000000E+02  0.91188000000E+02 0.  0.
    9900012    2    3    3    0    0 -0.31598959348E+02  0.17948775789E+02 -0.26616925189E+02  0.46142317735E+02  0.99999997642E+01 0.  0.
         12    1    3    3    0    0  0.31598959348E+02 -0.17948775789E+02  0.26616925189E+02  0.45045682265E+02  0.00000000000E+00 0. -1.
         11    1    4    4    0    0 -0.10245830420E+02  0.97414260658E+01 -0.86646745147E+01  0.16581586399E+02  0.51100000000E-03 0. -1.
        -11    1    4    4    0    0 -0.55308092165E+01  0.32214223444E+01 -0.78845854193E+01  0.10155496049E+02  0.51100000000E-03 0.  1.
         12    1    4    4    0    0 -0.15822319711E+02  0.49859273788E+01 -0.10067665255E+02  0.19405235287E+02  0.00000000000E+00 0. -1.
</event>
<event>
 8    1  0.2962813E-009  0.9118800E+02  0.7816164E-02  0.1184000E+00
        -11   -1    0    0    0    0  0.00000000000E+00  0.00000000000E+00  0.45593999997E+02  0.45594000000E+02  0.51100000000E-03 0. -1.
         11   -1    0    0    0    0 -0.00000000000E+00 -0.00000000000E+00 -0.45593999997E+02  0.45594000000E+02  0.51100000000E-03 0.  1.
         23    2    1    2    0    0 -0.35527136788E-14  0.00000000000E+00  0.00000000000E+00  0.91188000000E+02  0.91188000000E+02 0.  0.
    9900012    2    3    3    0    0 -0.22324553538E+02  0.44248742429E+01 -0.38873490885E+02  0.46142317673E+02  0.99999991958E+01 0.  0.
         12    1    3    3    0    0  0.22324553538E+02 -0.44248742429E+01  0.38873490885E+02  0.45045682327E+02  0.00000000000E+00 0. -1.
         11    1    4    4    0    0 -0.27539335923E+00  0.82323303880E+00 -0.15585444238E+01  0.17839885427E+01  0.51100000000E-03 0. -1.
        -11    1    4    4    0    0 -0.17433206658E+02  0.21674696353E+00 -0.32489024094E+02  0.36871403018E+02  0.51100000000E-03 0.  1.
        -12    1    4    4    0    0 -0.46159535208E+01  0.33848942405E+01 -0.48259223669E+01  0.74869261127E+01  0.00000000000E+00 0.  1.
</event>
<event>
 8    1  0.2962813E-009  0.9118800E+02  0.7816164E-02  0.1184000E+00
        -11   -1    0    0    0    0  0.00000000000E+00  0.00000000000E+00  0.45593999997E+02  0.45594000000E+02  0.51100000000E-03 0. -1.
         11   -1    0    0    0    0 -0.00000000000E+00 -0.00000000000E+00 -0.45593999997E+02  0.45594000000E+02  0.51100000000E-03 0.  1.
         23    2    1    2    0    0  0.00000000000E+00  0.35527136788E-14  0.00000000000E+00  0.91188000000E+02  0.91188000000E+02 0.  0.
    9900012    2    3    3    0    0  0.10258367026E+02 -0.17219898018E+02 -0.40340481953E+02  0.46142318009E+02  0.10000002260E+02 0.  0.
         12    1    3    3    0    0 -0.10258367026E+02  0.17219898018E+02  0.40340481953E+02  0.45045681991E+02  0.00000000000E+00 0. -1.
         11    1    4    4    0    0  0.64902163260E+01 -0.26245693125E+01 -0.10280151132E+02  0.12437555210E+02  0.51100000000E-03 0. -1.
        -11    1    4    4    0    0  0.30431876566E+01 -0.10475536649E+02 -0.23729113388E+02  0.26116444659E+02  0.51100000000E-03 0.  1.
         12    1    4    4    0    0  0.72496304309E+00 -0.41197920569E+01 -0.63312174330E+01  0.75883181398E+01  0.00000000000E+00 0. -1.
</event>
<event>
 8    1  0.2962813E-009  0.9118800E+02  0.7816164E-02  0.1184000E+00
        -11   -1    0    0    0    0  0.00000000000E+00  0.00000000000E+00  0.45593999997E+02  0.45594000000E+02  0.51100000000E-03 0. -1.
         11   -1    0    0    0    0 -0.00000000000E+00 -0.00000000000E+00 -0.45593999997E+02  0.45594000000E+02  0.51100000000E-03 0.  1.
         23    2    1    2    0    0  0.00000000000E+00  0.00000000000E+00  0.71054273576E-14  0.91188000000E+02  0.91188000000E+02 0.  0.
    9900012    2    3    3    0    0 -0.40017690358E+01 -0.27420591308E+02 -0.35513526067E+02  0.46142317445E+02  0.99999971206E+01 0.  0.
         12    1    3    3    0    0  0.40017690358E+01  0.27420591308E+02  0.35513526067E+02  0.45045682555E+02  0.00000000000E+00 0. -1.
         11    1    4    4    0    0 -0.12002731329E+01 -0.17669812480E+02 -0.26855482212E+02  0.32169548548E+02  0.51100000000E-03 0. -1.
        -11    1    4    4    0    0 -0.20711255482E+01 -0.86669591058E+01 -0.52968080690E+01  0.10366383996E+02  0.51100000000E-03 0.  1.
        -12    1    4    4    0    0 -0.73037035465E+00 -0.10838197221E+01 -0.33612357863E+01  0.36063849012E+01  0.00000000000E+00 0.  1.
</event>
<event>
 8    1  0.2962813E-009  0.9118800E+02  0.7816164E-02  0.1184000E+00
        -11   -1    0    0    0    0  0.00000000000E+00  0.00000000000E+00  0.45593999997E+02  0.45594000000E+02  0.51100000000E-03 0. -1.
         11   -1    0    0    0    0 -0.00000000000E+00 -0.00000000000E+00 -0.45593999997E+02  0.45594000000E+02  0.51100000000E-03 0.  1.
         23    2    1    2    0    0  0.00000000000E+00  0.00000000000E+00 -0.71054273576E-14  0.91188000000E+02  0.91188000000E+02 0.  0.
    9900012    2    3    3    0    0 -0.14213665651E+02 -0.20524316244E+01 -0.42695112657E+02  0.46142318613E+02  0.10000007767E+02 0.  0.
         12    1    3    3    0    0  0.14213665651E+02  0.20524316244E+01  0.42695112657E+02  0.45045681387E+02  0.00000000000E+00 0. -1.
         11    1    4    4    0    0 -0.41735509542E+01 -0.20185143152E+01 -0.54898144991E+01  0.71854708338E+01  0.51100000000E-03 0. -1.
        -11    1    4    4    0    0 -0.68442034854E+01  0.73686522106E+00 -0.14933351952E+02  0.16443572985E+02  0.51100000000E-03 0.  1.
         12    1    4    4    0    0 -0.31959112113E+01 -0.77078253027E+00 -0.22271946206E+02  0.22513274794E+02  0.00000000000E+00 0. -1.
</event>
<event>
 8    1  0.2962813E-009  0.9118800E+02  0.7816164E-02  0.1184000E+00
        -11   -1    0    0    0    0  0.00000000000E+00  0.00000000000E+00  0.45593999997E+02  0.45594000000E+02  0.51100000000E-03 0. -1.
         11   -1    0    0    0    0 -0.00000000000E+00 -0.00000000000E+00 -0.45593999997E+02  0.45594000000E+02  0.51100000000E-03 0.  1.
         23    2    1    2    0    0 -0.71054273576E-14 -0.22204460493E-15  0.00000000000E+00  0.91188000000E+02  0.91188000000E+02 0.  0.
    9900012    2    3    3    0    0  0.41706868199E+02  0.19637499210E+01 -0.16905452631E+02  0.46142317661E+02  0.99999990904E+01 0.  0.
         12    1    3    3    0    0 -0.41706868199E+02 -0.19637499210E+01  0.16905452631E+02  0.45045682339E+02  0.00000000000E+00 0. -1.
         11    1    4    4    0    0  0.31970545548E+01  0.19528953598E+01 -0.13299552561E+01  0.39753917237E+01  0.51100000000E-03 0. -1.
        -11    1    4    4    0    0  0.26862988727E+02  0.32271990395E+01 -0.98168954400E+01  0.28782050193E+02  0.51100000000E-03 0.  1.
        -12    1    4    4    0    0  0.11646824917E+02 -0.32163444783E+01 -0.57586019346E+01  0.13384875745E+02  0.00000000000E+00 0.  1.
</event>
<event>
 8    1  0.2962813E-009  0.9118800E+02  0.7816164E-02  0.1184000E+00
        -11   -1    0    0    0    0  0.00000000000E+00  0.00000000000E+00  0.45593999997E+02  0.45594000000E+02  0.51100000000E-03 0. -1.
         11   -1    0    0    0    0 -0.00000000000E+00 -0.00000000000E+00 -0.45593999997E+02  0.45594000000E+02  0.51100000000E-03 0.  1.
         23    2    1    2    0    0 -0.88817841970E-15 -0.88817841970E-15 -0.71054273576E-14  0.91188000000E+02  0.91188000000E+02 0.  0.
    9900012    2    3    3    0    0  0.59303075672E+01  0.59156051771E+01  0.44260018265E+02  0.46142332625E+02  0.10000135543E+02 0.  0.
        -12    1    3    3    0    0 -0.59303075672E+01 -0.59156051771E+01 -0.44260018265E+02  0.45045667375E+02  0.00000000000E+00 0.  1.
         11    1    4    4    0    0  0.52325248858E+01  0.26909032642E+01  0.95344558538E+01  0.11203844240E+02  0.51100000000E-03 0.  1.
        -11    1    4    4    0    0  0.11867358314E+01  0.30469634916E+01  0.27389109199E+02  0.27583611646E+02  0.51100000000E-03 0. -1.
         12    1    4    4    0    0 -0.48895314998E+00  0.17773842134E+00  0.73364532119E+01  0.73548767400E+01  0.00000000000E+00 0. -1.
</event>
<event>
 8    1  0.2962813E-009  0.9118800E+02  0.7816164E-02  0.1184000E+00
        -11   -1    0    0    0    0  0.00000000000E+00  0.00000000000E+00  0.45593999997E+02  0.45594000000E+02  0.51100000000E-03 0. -1.
         11   -1    0    0    0    0 -0.00000000000E+00 -0.00000000000E+00 -0.45593999997E+02  0.45594000000E+02  0.51100000000E-03 0.  1.
         23    2    1    2    0    0  0.35527136788E-14  0.35527136788E-14  0.00000000000E+00  0.91188000000E+02  0.91188000000E+02 0.  0.
    9900012    2    3    3    0    0 -0.24193536056E+02 -0.25418574935E+02  0.28243271139E+02  0.46142317596E+02  0.99999984936E+01 0.  0.
        -12    1    3    3    0    0  0.24193536056E+02  0.25418574935E+02 -0.28243271139E+02  0.45045682404E+02  0.00000000000E+00 0.  1.
         11    1    4    4    0    0 -0.16787612754E+02 -0.13257815138E+02  0.13753211948E+02  0.25431170704E+02  0.51100000000E-03 0. -1.
        -11    1    4    4    0    0 -0.58520381811E+01 -0.10618395416E+02  0.13897852181E+02  0.18443073702E+02  0.51100000000E-03 0.  1.
        -12    1    4    4    0    0 -0.15538851204E+01 -0.15423643815E+01  0.59220701033E+00  0.22680731901E+01  0.00000000000E+00 0.  1.
</event>
<event>
 8    1  0.2962813E-009  0.9118800E+02  0.7816164E-02  0.1184000E+00
        -11   -1    0    0    0    0  0.00000000000E+00  0.00000000000E+00  0.45593999997E+02  0.45594000000E+02  0.51100000000E-03 0. -1.
         11   -1    0    0    0    0 -0.00000000000E+00 -0.00000000000E+00 -0.45593999997E+02  0.45594000000E+02  0.51100000000E-03 0.  1.
         23    2    1    2    0    0  0.00000000000E+00 -0.35527136788E-14  0.00000000000E+00  0.91188000000E+02  0.91188000000E+02 0.  0.
    9900012    2    3    3    0    0  0.37331745862E+02  0.21857376704E+02 -0.12558235448E+02  0.46142318265E+02  0.10000004592E+02 0.  0.
         12    1    3    3    0    0 -0.37331745862E+02 -0.21857376704E+02  0.12558235448E+02  0.45045681735E+02  0.00000000000E+00 0. -1.
         11    1    4    4    0    0  0.79325157559E+01  0.96826966894E+01 -0.30452846158E+01  0.12882281632E+02  0.51100000000E-03 0. -1.
        -11    1    4    4    0    0  0.76758967889E+01  0.39711878460E+01 -0.22590489575E+01  0.89326942675E+01  0.51100000000E-03 0.  1.
         12    1    4    4    0    0  0.21723333317E+02  0.82034921682E+01 -0.72539018744E+01  0.24327342365E+02  0.00000000000E+00 0. -1.
</event>
<event>
 8    1  0.2962813E-009  0.9118800E+02  0.7816164E-02  0.1184000E+00
        -11   -1    0    0    0    0  0.00000000000E+00  0.00000000000E+00  0.45593999997E+02  0.45594000000E+02  0.51100000000E-03 0. -1.
         11   -1    0    0    0    0 -0.00000000000E+00 -0.00000000000E+00 -0.45593999997E+02  0.45594000000E+02  0.51100000000E-03 0.  1.
         23    2    1    2    0    0  0.17763568394E-14  0.71054273576E-14  0.00000000000E+00  0.91188000000E+02  0.91188000000E+02 0.  0.
    9900012    2    3    3    0    0 -0.10961747126E+02 -0.41484276590E+02  0.13711624127E+02  0.46142314963E+02  0.99999744872E+01 0.  0.
        -12    1    3    3    0    0  0.10961747126E+02  0.41484276590E+02 -0.13711624127E+02  0.45045685037E+02  0.00000000000E+00 0.  1.
         11    1    4    4    0    0 -0.70047568161E+01 -0.18920088589E+02  0.10726035091E+02  0.22849161895E+02  0.51100000000E-03 0. -1.
        -11    1    4    4    0    0 -0.63636170498E+00 -0.62694578653E+01 -0.43018008920E+00  0.63163370172E+01  0.51100000000E-03 0.  1.
         12    1    4    4    0    0 -0.33206286046E+01 -0.16294730135E+02  0.34157691249E+01  0.16976816051E+02  0.00000000000E+00 0. -1.
</event>
<event>
 8    1  0.2962813E-009  0.9118800E+02  0.7816164E-02  0.1184000E+00
        -11   -1    0    0    0    0  0.00000000000E+00  0.00000000000E+00  0.45593999997E+02  0.45594000000E+02  0.51100000000E-03 0. -1.
         11   -1    0    0    0    0 -0.00000000000E+00 -0.00000000000E+00 -0.45593999997E+02  0.45594000000E+02  0.51100000000E-03 0.  1.
         23    2    1    2    0    0  0.35527136788E-14  0.00000000000E+00 -0.71054273576E-14  0.91188000000E+02  0.91188000000E+02 0.  0.
    9900012    2    3    3    0    0  0.21022464154E+02 -0.83641850732E+00 -0.39830514872E+02  0.46142317521E+02  0.99999978095E+01 0.  0.
         12    1    3    3    0    0 -0.21022464154E+02  0.83641850732E+00  0.39830514872E+02  0.45045682479E+02  0.00000000000E+00 0. -1.
         11    1    4    4    0    0  0.13772364810E+02  0.25435003497E+01 -0.25310578187E+02  0.28927025338E+02  0.51100000000E-03 0. -1.
        -11    1    4    4    0    0  0.97792515271E+00 -0.22881110956E+01 -0.20892662323E+01  0.32491265966E+01  0.51100000000E-03 0.  1.
        -12    1    4    4    0    0  0.62721741919E+01 -0.10918077614E+01 -0.12430670453E+02  0.13966165586E+02  0.00000000000E+00 0.  1.
</event>
<event>
 8    1  0.2962813E-009  0.9118800E+02  0.7816164E-02  0.1184000E+00
        -11   -1    0    0    0    0  0.00000000000E+00  0.00000000000E+00  0.45593999997E+02  0.45594000000E+02  0.51100000000E-03 0. -1.
         11   -1    0    0    0    0 -0.00000000000E+00 -0.00000000000E+00 -0.45593999997E+02  0.45594000000E+02  0.51100000000E-03 0.  1.
         23    2    1    2    0    0  0.00000000000E+00  0.35527136788E-14  0.00000000000E+00  0.91188000000E+02  0.91188000000E+02 0.  0.
    9900012    2    3    3    0    0  0.35156406509E+02  0.17757076746E+02  0.21859249065E+02  0.46142318044E+02  0.10000002578E+02 0.  0.
        -12    1    3    3    0    0 -0.35156406509E+02 -0.17757076746E+02 -0.21859249065E+02  0.45045681956E+02  0.00000000000E+00 0.  1.
         11    1    4    4    0    0  0.14062751022E+01  0.23204074662E+01  0.49026420244E+00  0.27572195635E+01  0.51100000000E-03 0.  1.
        -11    1    4    4    0    0  0.29240989383E+02  0.12326645976E+02  0.20650344954E+02  0.37860512518E+02  0.51100000000E-03 0. -1.
         12    1    4    4    0    0  0.45091420237E+01  0.31100233038E+01  0.71863990890E+00  0.55245859627E+01  0.00000000000E+00 0. -1.
</event>
<event>
 8    1  0.2962813E-009  0.9118800E+02  0.7816164E-02  0.1184000E+00
        -11   -1    0    0    0    0  0.00000000000E+00  0.00000000000E+00  0.45593999997E+02  0.45594000000E+02  0.51100000000E-03 0. -1.
         11   -1    0    0    0    0 -0.00000000000E+00 -0.00000000000E+00 -0.45593999997E+02  0.45594000000E+02  0.51100000000E-03 0.  1.
         23    2    1    2    0    0  0.17763568394E-14 -0.71054273576E-14 -0.35527136788E-14  0.91188000000E+02  0.91188000000E+02 0.  0.
    9900012    2    3    3    0    0  0.15461156824E+02  0.38984705273E+02  0.16439552271E+02  0.46142317693E+02  0.99999993830E+01 0.  0.
        -12    1    3    3    0    0 -0.15461156824E+02 -0.38984705273E+02 -0.16439552271E+02  0.45045682307E+02  0.00000000000E+00 0.  1.
         11    1    4    4    0    0  0.83737020090E+01  0.12730229461E+02  0.44012057362E+01  0.15860272370E+02  0.51100000000E-03 0. -1.
        -11    1    4    4    0    0  0.16497944643E+01  0.10301033431E+02  0.74330984815E+01  0.12809530234E+02  0.51100000000E-03 0.  1.
        -12    1    4    4    0    0  0.54376603505E+01  0.15953442382E+02  0.46052480536E+01  0.17472515089E+02  0.00000000000E+00 0.  1.
</event>
<event>
 8    1  0.2962813E-009  0.9118800E+02  0.7816164E-02  0.1184000E+00
        -11   -1    0    0    0    0  0.00000000000E+00  0.00000000000E+00  0.45593999997E+02  0.45594000000E+02  0.51100000000E-03 0. -1.
         11   -1    0    0    0    0 -0.00000000000E+00 -0.00000000000E+00 -0.45593999997E+02  0.45594000000E+02  0.51100000000E-03 0.  1.
         23    2    1    2    0    0  0.35527136788E-14  0.35527136788E-14  0.35527136788E-14  0.91188000000E+02  0.91188000000E+02 0.  0.
    9900012    2    3    3    0    0  0.26393930262E+02  0.25345473127E+02  0.26269390004E+02  0.46142318588E+02  0.10000007542E+02 0.  0.
        -12    1    3    3    0    0 -0.26393930262E+02 -0.25345473127E+02 -0.26269390004E+02  0.45045681412E+02  0.00000000000E+00 0.  1.
         11    1    4    4    0    0  0.20436582658E+02  0.19374067739E+02  0.16824462676E+02  0.32803520483E+02  0.51100000000E-03 0. -1.
        -11    1    4    4    0    0  0.11967209746E+01  0.14516120957E+01  0.51786857062E+01  0.55098189328E+01  0.51100000000E-03 0.  1.
        -12    1    4    4    0    0  0.47606266296E+01  0.45197932921E+01  0.42662416211E+01  0.78289791723E+01  0.00000000000E+00 0.  1.
</event>
<event>
 8    1  0.2962813E-009  0.9118800E+02  0.7816164E-02  0.1184000E+00
        -11   -1    0    0    0    0  0.00000000000E+00  0.00000000000E+00  0.45593999997E+02  0.45594000000E+02  0.51100000000E-03 0. -1.
         11   -1    0    0    0    0 -0.00000000000E+00 -0.00000000000E+00 -0.45593999997E+02  0.45594000000E+02  0.51100000000E-03 0.  1.
         23    2    1    2    0    0  0.00000000000E+00 -0.35527136788E-14  0.35527136788E-14  0.91188000000E+02  0.91188000000E+02 0.  0.
    9900012    2    3    3    0    0 -0.23420717867E+02 -0.30196482312E+02  0.23848601746E+02  0.46142319023E+02  0.10000011505E+02 0.  0.
        -12    1    3    3    0    0  0.23420717867E+02  0.30196482312E+02 -0.23848601746E+02  0.45045680977E+02  0.00000000000E+00 0.  1.
         11    1    4    4    0    0 -0.73531171063E+01 -0.48464010474E+01  0.61852467272E+01  0.10761654688E+02  0.51100000000E-03 0. -1.
        -11    1    4    4    0    0 -0.12566345620E+02 -0.23477161602E+02  0.16071199676E+02  0.31102630410E+02  0.51100000000E-03 0.  1.
        -12    1    4    4    0    0 -0.35012551405E+01 -0.18729196626E+01  0.15921553431E+01  0.42780339243E+01  0.00000000000E+00 0.  1.
</event>
<event>
 8    1  0.2962813E-009  0.9118800E+02  0.7816164E-02  0.1184000E+00
        -11   -1    0    0    0    0  0.00000000000E+00  0.00000000000E+00  0.45593999997E+02  0.45594000000E+02  0.51100000000E-03 0. -1.
         11   -1    0    0    0    0 -0.00000000000E+00 -0.00000000000E+00 -0.45593999997E+02  0.45594000000E+02  0.51100000000E-03 0.  1.
         23    2    1    2    0    0  0.00000000000E+00  0.00000000000E+00  0.35527136788E-14  0.91188000000E+02  0.91188000000E+02 0.  0.
    9900012    2    3    3    0    0  0.20505011516E+02 -0.30701800707E+02 -0.25808088912E+02  0.46142317441E+02  0.99999970781E+01 0.  0.
         12    1    3    3    0    0 -0.20505011516E+02  0.30701800707E+02  0.25808088912E+02  0.45045682559E+02  0.00000000000E+00 0. -1.
         11    1    4    4    0    0  0.95801256214E+01 -0.10991488375E+02 -0.14097231957E+02  0.20281113696E+02  0.51100000000E-03 0. -1.
        -11    1    4    4    0    0  0.86607911502E+01 -0.17312260176E+02 -0.11587521227E+02  0.22560902113E+02  0.51100000000E-03 0.  1.
         12    1    4    4    0    0  0.22640947444E+01 -0.23980521567E+01 -0.12333572838E+00  0.33003016316E+01  0.00000000000E+00 0. -1.
</event>
<event>
 8    1  0.2962813E-009  0.9118800E+02  0.7816164E-02  0.1184000E+00
        -11   -1    0    0    0    0  0.00000000000E+00  0.00000000000E+00  0.45593999997E+02  0.45594000000E+02  0.51100000000E-03 0. -1.
         11   -1    0    0    0    0 -0.00000000000E+00 -0.00000000000E+00 -0.45593999997E+02  0.45594000000E+02  0.51100000000E-03 0.  1.
         23    2    1    2    0    0  0.35527136788E-14  0.00000000000E+00  0.00000000000E+00  0.91188000000E+02  0.91188000000E+02 0.  0.
    9900012    2    3    3    0    0  0.19479202773E+02  0.23742265500E+02 -0.32954195353E+02  0.46142317597E+02  0.99999985069E+01 0.  0.
         12    1    3    3    0    0 -0.19479202773E+02 -0.23742265500E+02  0.32954195353E+02  0.45045682403E+02  0.00000000000E+00 0. -1.
         11    1    4    4    0    0  0.30113685709E+01  0.56013360474E+01 -0.24519972963E+01  0.68158342988E+01  0.51100000000E-03 0. -1.
        -11    1    4    4    0    0  0.10440733924E+02  0.94820567668E+01 -0.19688787263E+02  0.24219138497E+02  0.51100000000E-03 0.  1.
         12    1    4    4    0    0  0.60271002781E+01  0.86588726862E+01 -0.10813410794E+02  0.15107344802E+02  0.00000000000E+00 0. -1.
</event>
<event>
 8    1  0.2962813E-009  0.9118800E+02  0.7816164E-02  0.1184000E+00
        -11   -1    0    0    0    0  0.00000000000E+00  0.00000000000E+00  0.45593999997E+02  0.45594000000E+02  0.51100000000E-03 0. -1.
         11   -1    0    0    0    0 -0.00000000000E+00 -0.00000000000E+00 -0.45593999997E+02  0.45594000000E+02  0.51100000000E-03 0.  1.
         23    2    1    2    0    0 -0.17763568394E-14  0.35527136788E-14  0.00000000000E+00  0.91188000000E+02  0.91188000000E+02 0.  0.
    9900012    2    3    3    0    0 -0.11916706200E+02  0.22522488773E+02 -0.37146239320E+02  0.46142317823E+02  0.10000000564E+02 0.  0.
         12    1    3    3    0    0  0.11916706200E+02 -0.22522488773E+02  0.37146239320E+02  0.45045682177E+02  0.00000000000E+00 0. -1.
         11    1    4    4    0    0 -0.28647827595E+01  0.36456072302E+01 -0.13144679988E+02  0.13938437667E+02  0.51100000000E-03 0. -1.
        -11    1    4    4    0    0 -0.70339682842E+01  0.94048847401E+01 -0.12143060352E+02  0.16893267351E+02  0.51100000000E-03 0.  1.
         12    1    4    4    0    0 -0.20179551566E+01  0.94719968027E+01 -0.11858498979E+02  0.15310612805E+02  0.00000000000E+00 0. -1.
</event>
<event>
 8    1  0.2962813E-009  0.9118800E+02  0.7816164E-02  0.1184000E+00
        -11   -1    0    0    0    0  0.00000000000E+00  0.00000000000E+00  0.45593999997E+02  0.45594000000E+02  0.51100000000E-03 0.  1.
         11   -1    0    0    0    0 -0.00000000000E+00 -0.00000000000E+00 -0.45593999997E+02  0.45594000000E+02  0.51100000000E-03 0. -1.
         23    2    1    2    0    0  0.00000000000E+00  0.00000000000E+00  0.00000000000E+00  0.91188000000E+02  0.91188000000E+02 0.  0.
    9900012    2    3    3    0    0  0.25285227627E+02 -0.36563670283E+02 -0.72710883054E+01  0.46142318232E+02  0.10000004297E+02 0.  0.
         12    1    3    3    0    0 -0.25285227627E+02  0.36563670283E+02  0.72710883054E+01  0.45045681768E+02  0.00000000000E+00 0. -1.
         11    1    4    4    0    0  0.25538364472E+01 -0.33079164978E+01 -0.29396346126E+01  0.51093878373E+01  0.51100000000E-03 0. -1.
        -11    1    4    4    0    0  0.15830363243E+02 -0.27274462976E+02 -0.47480298089E+01  0.31891072706E+02  0.51100000000E-03 0.  1.
         12    1    4    4    0    0  0.69010279372E+01 -0.59812908098E+01  0.41657611608E+00  0.91418576887E+01  0.00000000000E+00 0. -1.
</event>
<event>
 8    1  0.2962813E-009  0.9118800E+02  0.7816164E-02  0.1184000E+00
        -11   -1    0    0    0    0  0.00000000000E+00  0.00000000000E+00  0.45593999997E+02  0.45594000000E+02  0.51100000000E-03 0.  1.
         11   -1    0    0    0    0 -0.00000000000E+00 -0.00000000000E+00 -0.45593999997E+02  0.45594000000E+02  0.51100000000E-03 0. -1.
         23    2    1    2    0    0 -0.35527136788E-14  0.00000000000E+00 -0.17763568394E-14  0.91188000000E+02  0.91188000000E+02 0.  0.
    9900012    2    3    3    0    0 -0.26921599219E+02 -0.33435991088E+02 -0.13651947604E+02  0.46142315657E+02  0.99999808103E+01 0.  0.
         12    1    3    3    0    0  0.26921599219E+02  0.33435991088E+02  0.13651947604E+02  0.45045684343E+02  0.00000000000E+00 0. -1.
         11    1    4    4    0    0 -0.26932999073E+01 -0.55761969103E+00 -0.16446266885E+01  0.32046218679E+01  0.51100000000E-03 0. -1.
        -11    1    4    4    0    0 -0.10335297921E+02 -0.18197155426E+02 -0.74815843356E+01  0.22224512439E+02  0.51100000000E-03 0.  1.
        -12    1    4    4    0    0 -0.13893001391E+02 -0.14681215971E+02 -0.45257365801E+01  0.20713181350E+02  0.00000000000E+00 0.  1.
</event>
<event>
 8    1  0.2962813E-009  0.9118800E+02  0.7816164E-02  0.1184000E+00
        -11   -1    0    0    0    0  0.00000000000E+00  0.00000000000E+00  0.45593999997E+02  0.45594000000E+02  0.51100000000E-03 0. -1.
         11   -1    0    0    0    0 -0.00000000000E+00 -0.00000000000E+00 -0.45593999997E+02  0.45594000000E+02  0.51100000000E-03 0.  1.
         23    2    1    2    0    0 -0.35527136788E-14  0.00000000000E+00  0.00000000000E+00  0.91188000000E+02  0.91188000000E+02 0.  0.
    9900012    2    3    3    0    0  0.16679693152E+02  0.36668725220E+02  0.20157033683E+02  0.46142316746E+02  0.99999907478E+01 0.  0.
        -12    1    3    3    0    0 -0.16679693152E+02 -0.36668725220E+02 -0.20157033683E+02  0.45045683254E+02  0.00000000000E+00 0.  1.
         11    1    4    4    0    0  0.10681330352E+02  0.26247145427E+02  0.14453301877E+02  0.31810397617E+02  0.51100000000E-03 0. -1.
        -11    1    4    4    0    0  0.71576606049E+00  0.52874382088E+01  0.42544857515E+01  0.68242195990E+01  0.51100000000E-03 0.  1.
         12    1    4    4    0    0  0.52825967387E+01  0.51341415843E+01  0.14492460545E+01  0.75076995303E+01  0.00000000000E+00 0. -1.
</event>
<event>
 8    1  0.2962813E-009  0.9118800E+02  0.7816164E-02  0.1184000E+00
        -11   -1    0    0    0    0  0.00000000000E+00  0.00000000000E+00  0.45593999997E+02  0.45594000000E+02  0.51100000000E-03 0. -1.
         11   -1    0    0    0    0 -0.00000000000E+00 -0.00000000000E+00 -0.45593999997E+02  0.45594000000E+02  0.51100000000E-03 0.  1.
         23    2    1    2    0    0  0.00000000000E+00 -0.17763568394E-14 -0.35527136788E-14  0.91188000000E+02  0.91188000000E+02 0.  0.
    9900012    2    3    3    0    0 -0.37053371611E+02  0.11634994722E+02  0.22820770950E+02  0.46142322774E+02  0.10000045715E+02 0.  0.
        -12    1    3    3    0    0  0.37053371611E+02 -0.11634994722E+02 -0.22820770950E+02  0.45045677226E+02  0.00000000000E+00 0.  1.
         11    1    4    4    0    0 -0.34230390554E+02  0.11188340897E+02  0.23377754105E+02  0.42935043925E+02  0.51100000000E-03 0. -1.
        -11    1    4    4    0    0 -0.76788162311E+00 -0.45589847695E+00  0.66153678743E-02  0.89304514589E+00  0.51100000000E-03 0.  1.
         12    1    4    4    0    0 -0.20550994338E+01  0.90255230247E+00 -0.56359852308E+00  0.23142337040E+01  0.00000000000E+00 0. -1.
</event>
<event>
 8    1  0.2962813E-009  0.9118800E+02  0.7816164E-02  0.1184000E+00
        -11   -1    0    0    0    0  0.00000000000E+00  0.00000000000E+00  0.45593999997E+02  0.45594000000E+02  0.51100000000E-03 0. -1.
         11   -1    0    0    0    0 -0.00000000000E+00 -0.00000000000E+00 -0.45593999997E+02  0.45594000000E+02  0.51100000000E-03 0.  1.
         23    2    1    2    0    0 -0.35527136788E-14  0.00000000000E+00  0.35527136788E-14  0.91188000000E+02  0.91188000000E+02 0.  0.
    9900012    2    3    3    0    0 -0.24776887732E+02 -0.23201781851E+02 -0.29612441366E+02  0.46142317295E+02  0.99999957454E+01 0.  0.
         12    1    3    3    0    0  0.24776887732E+02  0.23201781851E+02  0.29612441366E+02  0.45045682705E+02  0.00000000000E+00 0. -1.
         11    1    4    4    0    0 -0.91933220289E+01 -0.13433266128E+02 -0.15056640158E+02  0.22173683093E+02  0.51100000000E-03 0. -1.
        -11    1    4    4    0    0 -0.11627954970E+02 -0.58493601057E+01 -0.12460471702E+02  0.18019092811E+02  0.51100000000E-03 0.  1.
         12    1    4    4    0    0 -0.39556107336E+01 -0.39191556169E+01 -0.20953295066E+01  0.59495413913E+01  0.00000000000E+00 0. -1.
</event>
<event>
 8    1  0.3084676E-009  0.9118800E+02  0.7816164E-02  0.1184000E+00
        -11   -1    0    0    0    0  0.00000000000E+00  0.00000000000E+00  0.45593999997E+02  0.45594000000E+02  0.51100000000E-03 0. -1.
         11   -1    0    0    0    0 -0.00000000000E+00 -0.00000000000E+00 -0.45593999997E+02  0.45594000000E+02  0.51100000000E-03 0.  1.
         23    2    1    2    0    0  0.00000000000E+00  0.00000000000E+00  0.00000000000E+00  0.91188000000E+02  0.91188000000E+02 0.  0.
    9900012    2    3    3    0    0  0.76833850150E+01  0.21511698899E+02 -0.38824297277E+02  0.46142315924E+02  0.99999832494E+01 0.  0.
         12    1    3    3    0    0 -0.76833850150E+01 -0.21511698899E+02  0.38824297277E+02  0.45045684076E+02  0.00000000000E+00 0. -1.
         11    1    4    4    0    0  0.19525740157E+01  0.17224442164E+01 -0.12542553582E+01  0.28900719940E+01  0.51100000000E-03 0. -1.
        -11    1    4    4    0    0  0.35952465957E+01  0.57318697006E+01 -0.16500059400E+02  0.17833454203E+02  0.51100000000E-03 0.  1.
        -12    1    4    4    0    0  0.21355644036E+01  0.14057384982E+02 -0.21069982519E+02  0.25418789727E+02  0.00000000000E+00 0.  1.
</event>
<event>
 8    1  0.2962813E-009  0.9118800E+02  0.7816164E-02  0.1184000E+00
        -11   -1    0    0    0    0  0.00000000000E+00  0.00000000000E+00  0.45593999997E+02  0.45594000000E+02  0.51100000000E-03 0. -1.
         11   -1    0    0    0    0 -0.00000000000E+00 -0.00000000000E+00 -0.45593999997E+02  0.45594000000E+02  0.51100000000E-03 0.  1.
         23    2    1    2    0    0  0.00000000000E+00  0.00000000000E+00  0.00000000000E+00  0.91188000000E+02  0.91188000000E+02 0.  0.
    9900012    2    3    3    0    0 -0.21880456457E+02 -0.52774533842E+01 -0.39019321675E+02  0.46142319264E+02  0.10000013705E+02 0.  0.
         12    1    3    3    0    0  0.21880456457E+02  0.52774533842E+01  0.39019321675E+02  0.45045680736E+02  0.00000000000E+00 0. -1.
         11    1    4    4    0    0 -0.35661196291E+01 -0.74962175913E+00 -0.18179394341E+01  0.40723514139E+01  0.51100000000E-03 0. -1.
        -11    1    4    4    0    0 -0.47929750107E+01  0.54210395568E+00 -0.13267410085E+02  0.14117034277E+02  0.51100000000E-03 0.  1.
         12    1    4    4    0    0 -0.13521361817E+02 -0.50699355808E+01 -0.23933972156E+02  0.27952933573E+02  0.00000000000E+00 0. -1.
</event>
<event>
 8    1  0.2962813E-009  0.9118800E+02  0.7816164E-02  0.1184000E+00
        -11   -1    0    0    0    0  0.00000000000E+00  0.00000000000E+00  0.45593999997E+02  0.45594000000E+02  0.51100000000E-03 0. -1.
         11   -1    0    0    0    0 -0.00000000000E+00 -0.00000000000E+00 -0.45593999997E+02  0.45594000000E+02  0.51100000000E-03 0.  1.
         23    2    1    2    0    0  0.00000000000E+00  0.00000000000E+00  0.00000000000E+00  0.91188000000E+02  0.91188000000E+02 0.  0.
    9900012    2    3    3    0    0 -0.31431929363E+02  0.20338240548E+02  0.25050015621E+02  0.46142317691E+02  0.99999993644E+01 0.  0.
        -12    1    3    3    0    0  0.31431929363E+02 -0.20338240548E+02 -0.25050015621E+02  0.45045682309E+02  0.00000000000E+00 0.  1.
         11    1    4    4    0    0 -0.27733375342E+01  0.36584813648E+01  0.10462930615E+01  0.47085684032E+01  0.51100000000E-03 0. -1.
        -11    1    4    4    0    0 -0.12108957644E+02  0.70322582753E+01  0.63196395465E+01  0.15362856373E+02  0.51100000000E-03 0.  1.
         12    1    4    4    0    0 -0.16549634184E+02  0.96475009080E+01  0.17684083013E+02  0.26070892915E+02  0.00000000000E+00 0. -1.
</event>
<event>
 8    1  0.2962813E-009  0.9118800E+02  0.7816164E-02  0.1184000E+00
        -11   -1    0    0    0    0  0.00000000000E+00  0.00000000000E+00  0.45593999997E+02  0.45594000000E+02  0.51100000000E-03 0. -1.
         11   -1    0    0    0    0 -0.00000000000E+00 -0.00000000000E+00 -0.45593999997E+02  0.45594000000E+02  0.51100000000E-03 0.  1.
         23    2    1    2    0    0  0.00000000000E+00  0.11102230246E-15  0.00000000000E+00  0.91188000000E+02  0.91188000000E+02 0.  0.
    9900012    2    3    3    0    0  0.12399085351E+02  0.13212792405E+00  0.43305414281E+02  0.46142315619E+02  0.99999804636E+01 0.  0.
        -12    1    3    3    0    0 -0.12399085351E+02 -0.13212792405E+00 -0.43305414281E+02  0.45045684381E+02  0.00000000000E+00 0.  1.
         11    1    4    4    0    0 -0.21173295035E+00 -0.43805620689E+00  0.57601482558E+01  0.57806601935E+01  0.51100000000E-03 0. -1.
        -11    1    4    4    0    0  0.24812994733E+01 -0.31273884569E+01  0.89164849737E+01  0.97693966130E+01  0.51100000000E-03 0.  1.
        -12    1    4    4    0    0  0.10129518828E+02  0.36975725878E+01  0.28628781052E+02  0.30592258812E+02  0.00000000000E+00 0.  1.
</event>
<event>
 8    1  0.2962813E-009  0.9118800E+02  0.7816164E-02  0.1184000E+00
        -11   -1    0    0    0    0  0.00000000000E+00  0.00000000000E+00  0.45593999997E+02  0.45594000000E+02  0.51100000000E-03 0. -1.
         11   -1    0    0    0    0 -0.00000000000E+00 -0.00000000000E+00 -0.45593999997E+02  0.45594000000E+02  0.51100000000E-03 0.  1.
         23    2    1    2    0    0  0.00000000000E+00  0.00000000000E+00  0.00000000000E+00  0.91188000000E+02  0.91188000000E+02 0.  0.
    9900012    2    3    3    0    0  0.21828664912E+02  0.56206806296E+01 -0.39000395526E+02  0.46142317479E+02  0.99999974277E+01 0.  0.
         12    1    3    3    0    0 -0.21828664912E+02 -0.56206806296E+01  0.39000395526E+02  0.45045682521E+02  0.00000000000E+00 0. -1.
         11    1    4    4    0    0  0.82888742104E+01  0.45032329373E+01 -0.11447368781E+02  0.14833300200E+02  0.51100000000E-03 0. -1.
        -11    1    4    4    0    0  0.16672992890E+01  0.12702692533E+01 -0.93050568187E+01  0.95382154283E+01  0.51100000000E-03 0.  1.
        -12    1    4    4    0    0  0.11872491413E+02 -0.15282156106E+00 -0.18247969927E+02  0.21770801851E+02  0.00000000000E+00 0.  1.
</event>
<event>
 8    1  0.3790132E-009  0.9118800E+02  0.7816164E-02  0.1184000E+00
        -11   -1    0    0    0    0  0.00000000000E+00  0.00000000000E+00  0.45593999997E+02  0.45594000000E+02  0.51100000000E-03 0. -1.
         11   -1    0    0    0    0 -0.00000000000E+00 -0.00000000000E+00 -0.45593999997E+02  0.45594000000E+02  0.51100000000E-03 0.  1.
         23    2    1    2    0    0  0.35527136788E-14 -0.17763568394E-14  0.00000000000E+00  0.91188000000E+02  0.91188000000E+02 0.  0.
    9900012    2    3    3    0    0  0.20631798571E+02  0.10697165470E+02 -0.38587730506E+02  0.46142318664E+02  0.10000008238E+02 0.  0.
         12    1    3    3    0    0 -0.20631798571E+02 -0.10697165470E+02  0.38587730506E+02  0.45045681336E+02  0.00000000000E+00 0. -1.
         11    1    4    4    0    0  0.57781957344E+00 -0.78307972831E+00 -0.55121185677E+00  0.11184471791E+01  0.51100000000E-03 0. -1.
        -11    1    4    4    0    0  0.16291333211E+02  0.65037612297E+01 -0.24644315340E+02  0.30249772342E+02  0.51100000000E-03 0.  1.
        -12    1    4    4    0    0  0.37626457863E+01  0.49764839686E+01 -0.13392203310E+02  0.14774099143E+02  0.00000000000E+00 0.  1.
</event>
<event>
 8    1  0.2962813E-009  0.9118800E+02  0.7816164E-02  0.1184000E+00
        -11   -1    0    0    0    0  0.00000000000E+00  0.00000000000E+00  0.45593999997E+02  0.45594000000E+02  0.51100000000E-03 0. -1.
         11   -1    0    0    0    0 -0.00000000000E+00 -0.00000000000E+00 -0.45593999997E+02  0.45594000000E+02  0.51100000000E-03 0.  1.
         23    2    1    2    0    0 -0.22204460493E-15  0.00000000000E+00  0.35527136788E-14  0.91188000000E+02  0.91188000000E+02 0.  0.
    9900012    2    3    3    0    0  0.12861705151E+01 -0.32201433242E+02 -0.31472638273E+02  0.46142317662E+02  0.99999990971E+01 0.  0.
         12    1    3    3    0    0 -0.12861705151E+01  0.32201433242E+02  0.31472638273E+02  0.45045682338E+02  0.00000000000E+00 0. -1.
         11    1    4    4    0    0 -0.32471861460E+01 -0.72650519230E+01 -0.87308754567E+01  0.11813271512E+02  0.51100000000E-03 0. -1.
        -11    1    4    4    0    0  0.29695386601E+01 -0.12173801891E+02 -0.13955911965E+02  0.18755988147E+02  0.51100000000E-03 0.  1.
        -12    1    4    4    0    0  0.15638180010E+01 -0.12762579428E+02 -0.87858508517E+01  0.15573058004E+02  0.00000000000E+00 0.  1.
</event>
<event>
 8    1  0.2962813E-009  0.9118800E+02  0.7816164E-02  0.1184000E+00
        -11   -1    0    0    0    0  0.00000000000E+00  0.00000000000E+00  0.45593999997E+02  0.45594000000E+02  0.51100000000E-03 0. -1.
         11   -1    0    0    0    0 -0.00000000000E+00 -0.00000000000E+00 -0.45593999997E+02  0.45594000000E+02  0.51100000000E-03 0.  1.
         23    2    1    2    0    0  0.00000000000E+00  0.35527136788E-14  0.00000000000E+00  0.91188000000E+02  0.91188000000E+02 0.  0.
    9900012    2    3    3    0    0  0.22954504387E+02 -0.16177302978E+02  0.35220723637E+02  0.46142314559E+02  0.99999708045E+01 0.  0.
        -12    1    3    3    0    0 -0.22954504387E+02  0.16177302978E+02 -0.35220723637E+02  0.45045685441E+02  0.00000000000E+00 0.  1.
         11    1    4    4    0    0  0.13593313914E+02 -0.13732390859E+02  0.23005689039E+02  0.30043609475E+02  0.51100000000E-03 0. -1.
        -11    1    4    4    0    0  0.11155425534E+01  0.90558503156E+00  0.27721683681E+01  0.31224088713E+01  0.51100000000E-03 0.  1.
        -12    1    4    4    0    0  0.82456479199E+01 -0.33504971503E+01  0.94428662305E+01  0.12976296213E+02  0.00000000000E+00 0.  1.
</event>
<event>
 8    1  0.2962813E-009  0.9118800E+02  0.7816164E-02  0.1184000E+00
        -11   -1    0    0    0    0  0.00000000000E+00  0.00000000000E+00  0.45593999997E+02  0.45594000000E+02  0.51100000000E-03 0. -1.
         11   -1    0    0    0    0 -0.00000000000E+00 -0.00000000000E+00 -0.45593999997E+02  0.45594000000E+02  0.51100000000E-03 0.  1.
         23    2    1    2    0    0  0.17763568394E-14  0.00000000000E+00  0.00000000000E+00  0.91188000000E+02  0.91188000000E+02 0.  0.
    9900012    2    3    3    0    0 -0.84881432497E+01 -0.44187253643E+02  0.21334235717E+01  0.46142318116E+02  0.10000003232E+02 0.  0.
        -12    1    3    3    0    0  0.84881432497E+01  0.44187253643E+02 -0.21334235717E+01  0.45045681884E+02  0.00000000000E+00 0.  1.
         11    1    4    4    0    0 -0.52539498584E+01 -0.13622861367E+02 -0.39196003070E+00  0.14606162188E+02  0.51100000000E-03 0. -1.
        -11    1    4    4    0    0  0.11694998683E+01 -0.99213823298E+01 -0.13339433379E+01  0.10078738134E+02  0.51100000000E-03 0.  1.
        -12    1    4    4    0    0 -0.44036932597E+01 -0.20643009946E+02  0.38593269403E+01  0.21457417794E+02  0.00000000000E+00 0.  1.
</event>
<event>
 8    1  0.2962813E-009  0.9118800E+02  0.7816164E-02  0.1184000E+00
        -11   -1    0    0    0    0  0.00000000000E+00  0.00000000000E+00  0.45593999997E+02  0.45594000000E+02  0.51100000000E-03 0. -1.
         11   -1    0    0    0    0 -0.00000000000E+00 -0.00000000000E+00 -0.45593999997E+02  0.45594000000E+02  0.51100000000E-03 0.  1.
         23    2    1    2    0    0  0.17763568394E-14  0.00000000000E+00  0.00000000000E+00  0.91188000000E+02  0.91188000000E+02 0.  0.
    9900012    2    3    3    0    0  0.15466379037E+02 -0.23576767585E+01  0.42241519048E+02  0.46142318169E+02  0.10000003715E+02 0.  0.
        -12    1    3    3    0    0 -0.15466379037E+02  0.23576767585E+01 -0.42241519048E+02  0.45045681831E+02  0.00000000000E+00 0.  1.
         11    1    4    4    0    0  0.35080993589E+01  0.20413010441E+00  0.14107908166E+02  0.14538965001E+02  0.51100000000E-03 0. -1.
        -11    1    4    4    0    0  0.91172236191E+01 -0.30778563332E+01  0.12873543676E+02  0.16072494927E+02  0.51100000000E-03 0.  1.
        -12    1    4    4    0    0  0.28410560586E+01  0.51604947032E+00  0.15260067205E+02  0.15530858241E+02  0.00000000000E+00 0.  1.
</event>
<event>
 8    1  0.2962813E-009  0.9118800E+02  0.7816164E-02  0.1184000E+00
        -11   -1    0    0    0    0  0.00000000000E+00  0.00000000000E+00  0.45593999997E+02  0.45594000000E+02  0.51100000000E-03 0. -1.
         11   -1    0    0    0    0 -0.00000000000E+00 -0.00000000000E+00 -0.45593999997E+02  0.45594000000E+02  0.51100000000E-03 0.  1.
         23    2    1    2    0    0  0.00000000000E+00  0.00000000000E+00  0.00000000000E+00  0.91188000000E+02  0.91188000000E+02 0.  0.
    9900012    2    3    3    0    0  0.12060379958E+02  0.28300402514E+02  0.32905136748E+02  0.46142316837E+02  0.99999915712E+01 0.  0.
        -12    1    3    3    0    0 -0.12060379958E+02 -0.28300402514E+02 -0.32905136748E+02  0.45045683163E+02  0.00000000000E+00 0.  1.
         11    1    4    4    0    0  0.65471559430E+01  0.75301655787E+01  0.80948550858E+01  0.12848942513E+02  0.51100000000E-03 0. -1.
        -11    1    4    4    0    0  0.77645654942E+00  0.12810298462E+02  0.15985732647E+02  0.20500006829E+02  0.51100000000E-03 0.  1.
         12    1    4    4    0    0  0.47367674657E+01  0.79599384735E+01  0.88245490155E+01  0.12793367495E+02  0.00000000000E+00 0. -1.
</event>
<event>
 8    1  0.2962813E-009  0.9118800E+02  0.7816164E-02  0.1184000E+00
        -11   -1    0    0    0    0  0.00000000000E+00  0.00000000000E+00  0.45593999997E+02  0.45594000000E+02  0.51100000000E-03 0. -1.
         11   -1    0    0    0    0 -0.00000000000E+00 -0.00000000000E+00 -0.45593999997E+02  0.45594000000E+02  0.51100000000E-03 0.  1.
         23    2    1    2    0    0 -0.17763568394E-14  0.00000000000E+00  0.00000000000E+00  0.91188000000E+02  0.91188000000E+02 0.  0.
    9900012    2    3    3    0    0  0.80086366325E+01 -0.37705288724E+02 -0.23308504990E+02  0.46142318039E+02  0.10000002534E+02 0.  0.
         12    1    3    3    0    0 -0.80086366325E+01  0.37705288724E+02  0.23308504990E+02  0.45045681961E+02  0.00000000000E+00 0. -1.
         11    1    4    4    0    0 -0.57003859348E+00 -0.32439429671E+01 -0.46652627182E+00  0.33265232594E+01  0.51100000000E-03 0. -1.
        -11    1    4    4    0    0  0.44171505376E+01 -0.23444677168E+02 -0.11572032183E+02  0.26515580995E+02  0.51100000000E-03 0.  1.
        -12    1    4    4    0    0  0.41615246884E+01 -0.11016668589E+02 -0.11269946535E+02  0.16300213785E+02  0.00000000000E+00 0.  1.
</event>
<event>
 8    1  0.2962813E-009  0.9118800E+02  0.7816164E-02  0.1184000E+00
        -11   -1    0    0    0    0  0.00000000000E+00  0.00000000000E+00  0.45593999997E+02  0.45594000000E+02  0.51100000000E-03 0. -1.
         11   -1    0    0    0    0 -0.00000000000E+00 -0.00000000000E+00 -0.45593999997E+02  0.45594000000E+02  0.51100000000E-03 0.  1.
         23    2    1    2    0    0  0.35527136788E-14 -0.17763568394E-14  0.71054273576E-14  0.91188000000E+02  0.91188000000E+02 0.  0.
    9900012    2    3    3    0    0  0.18626154748E+02 -0.63901951985E+01  0.40513519101E+02  0.46142318017E+02  0.10000002336E+02 0.  0.
        -12    1    3    3    0    0 -0.18626154748E+02  0.63901951985E+01 -0.40513519101E+02  0.45045681983E+02  0.00000000000E+00 0.  1.
         11    1    4    4    0    0  0.72398124697E+01 -0.15188526831E+00  0.17835542022E+02  0.19249532805E+02  0.51100000000E-03 0. -1.
        -11    1    4    4    0    0  0.10168080141E+02 -0.75437270306E+01  0.20160335539E+02  0.23806234490E+02  0.51100000000E-03 0.  1.
         12    1    4    4    0    0  0.12182621369E+01  0.13054171005E+01  0.25176415397E+01  0.30865507225E+01  0.00000000000E+00 0. -1.
</event>
<event>
 8    1  0.2962813E-009  0.9118800E+02  0.7816164E-02  0.1184000E+00
        -11   -1    0    0    0    0  0.00000000000E+00  0.00000000000E+00  0.45593999997E+02  0.45594000000E+02  0.51100000000E-03 0. -1.
         11   -1    0    0    0    0 -0.00000000000E+00 -0.00000000000E+00 -0.45593999997E+02  0.45594000000E+02  0.51100000000E-03 0.  1.
         23    2    1    2    0    0 -0.17763568394E-14  0.00000000000E+00  0.00000000000E+00  0.91188000000E+02  0.91188000000E+02 0.  0.
    9900012    2    3    3    0    0  0.15712291069E+02  0.32928620590E+02 -0.26418619108E+02  0.46142316742E+02  0.99999907056E+01 0.  0.
         12    1    3    3    0    0 -0.15712291069E+02 -0.32928620590E+02  0.26418619108E+02  0.45045683258E+02  0.00000000000E+00 0. -1.
         11    1    4    4    0    0  0.65451323082E+01  0.47628048315E+01 -0.57465405101E+01  0.99270234658E+01  0.51100000000E-03 0. -1.
        -11    1    4    4    0    0  0.50734998365E+01  0.19537038344E+02 -0.13996202994E+02  0.24562776032E+02  0.51100000000E-03 0.  1.
         12    1    4    4    0    0  0.40936589242E+01  0.86287774147E+01 -0.66758756036E+01  0.11652517245E+02  0.00000000000E+00 0. -1.
</event>
<event>
 8    1  0.2962813E-009  0.9118800E+02  0.7816164E-02  0.1184000E+00
        -11   -1    0    0    0    0  0.00000000000E+00  0.00000000000E+00  0.45593999997E+02  0.45594000000E+02  0.51100000000E-03 0.  1.
         11   -1    0    0    0    0 -0.00000000000E+00 -0.00000000000E+00 -0.45593999997E+02  0.45594000000E+02  0.51100000000E-03 0. -1.
         23    2    1    2    0    0 -0.35527136788E-14  0.00000000000E+00  0.00000000000E+00  0.91188000000E+02  0.91188000000E+02 0.  0.
    9900012    2    3    3    0    0 -0.29987853647E+02 -0.14711495053E+02 -0.30222730885E+02  0.46142324123E+02  0.10000058011E+02 0.  0.
         12    1    3    3    0    0  0.29987853647E+02  0.14711495053E+02  0.30222730885E+02  0.45045675877E+02  0.00000000000E+00 0. -1.
         11    1    4    4    0    0 -0.26035195640E+01 -0.35824500723E+00 -0.56058634084E+01  0.61913131418E+01  0.51100000000E-03 0. -1.
        -11    1    4    4    0    0 -0.26067124813E+02 -0.12185753662E+02 -0.23613349190E+02  0.37223350851E+02  0.51100000000E-03 0.  1.
        -12    1    4    4    0    0 -0.13172092706E+01 -0.21674963833E+01 -0.10035182870E+01  0.27276601304E+01  0.00000000000E+00 0.  1.
</event>
<event>
 8    1  0.2962813E-009  0.9118800E+02  0.7816164E-02  0.1184000E+00
        -11   -1    0    0    0    0  0.00000000000E+00  0.00000000000E+00  0.45593999997E+02  0.45594000000E+02  0.51100000000E-03 0. -1.
         11   -1    0    0    0    0 -0.00000000000E+00 -0.00000000000E+00 -0.45593999997E+02  0.45594000000E+02  0.51100000000E-03 0.  1.
         23    2    1    2    0    0 -0.35527136788E-14  0.00000000000E+00 -0.35527136788E-14  0.91188000000E+02  0.91188000000E+02 0.  0.
    9900012    2    3    3    0    0  0.21909025872E+02 -0.26367508609E+02  0.29220931112E+02  0.46142314968E+02  0.99999745331E+01 0.  0.
        -12    1    3    3    0    0 -0.21909025872E+02  0.26367508609E+02 -0.29220931112E+02  0.45045685032E+02  0.00000000000E+00 0.  1.
         11    1    4    4    0    0  0.11665729755E+02 -0.13973634413E+02  0.19787757424E+02  0.26886930906E+02  0.51100000000E-03 0. -1.
        -11    1    4    4    0    0  0.38376855559E+01 -0.83358691692E+01  0.46225984085E+01  0.10275357003E+02  0.51100000000E-03 0.  1.
         12    1    4    4    0    0  0.64056105614E+01 -0.40580050261E+01  0.48105752801E+01  0.89800270591E+01  0.00000000000E+00 0. -1.
</event>
<event>
 8    1  0.2962813E-009  0.9118800E+02  0.7816164E-02  0.1184000E+00
        -11   -1    0    0    0    0  0.00000000000E+00  0.00000000000E+00  0.45593999997E+02  0.45594000000E+02  0.51100000000E-03 0. -1.
         11   -1    0    0    0    0 -0.00000000000E+00 -0.00000000000E+00 -0.45593999997E+02  0.45594000000E+02  0.51100000000E-03 0.  1.
         23    2    1    2    0    0  0.00000000000E+00  0.35527136788E-14  0.00000000000E+00  0.91188000000E+02  0.91188000000E+02 0.  0.
    9900012    2    3    3    0    0  0.33206635976E+02  0.26663285603E+02 -0.14679988141E+02  0.46142317368E+02  0.99999964157E+01 0.  0.
         12    1    3    3    0    0 -0.33206635976E+02 -0.26663285603E+02  0.14679988141E+02  0.45045682632E+02  0.00000000000E+00 0. -1.
         11    1    4    4    0    0 -0.31397149586E+00  0.16932782875E+01 -0.28544340110E+00  0.17456367478E+01  0.51100000000E-03 0. -1.
        -11    1    4    4    0    0  0.16620757639E+02  0.11181392018E+02 -0.87989955174E+01  0.21879109542E+02  0.51100000000E-03 0.  1.
        -12    1    4    4    0    0  0.16899849832E+02  0.13788615297E+02 -0.55955492229E+01  0.22517571078E+02  0.00000000000E+00 0.  1.
</event>
<event>
 8    1  0.2962813E-009  0.9118800E+02  0.7816164E-02  0.1184000E+00
        -11   -1    0    0    0    0  0.00000000000E+00  0.00000000000E+00  0.45593999997E+02  0.45594000000E+02  0.51100000000E-03 0. -1.
         11   -1    0    0    0    0 -0.00000000000E+00 -0.00000000000E+00 -0.45593999997E+02  0.45594000000E+02  0.51100000000E-03 0.  1.
         23    2    1    2    0    0  0.00000000000E+00  0.00000000000E+00  0.00000000000E+00  0.91188000000E+02  0.91188000000E+02 0.  0.
    9900012    2    3    3    0    0  0.25849005913E+02  0.14798501608E+02 -0.33792702644E+02  0.46142317537E+02  0.99999979593E+01 0.  0.
         12    1    3    3    0    0 -0.25849005913E+02 -0.14798501608E+02  0.33792702644E+02  0.45045682463E+02  0.00000000000E+00 0. -1.
         11    1    4    4    0    0  0.13877520390E+02  0.47458605430E+01 -0.14188134978E+02  0.20406174038E+02  0.51100000000E-03 0. -1.
        -11    1    4    4    0    0  0.49639647058E+01  0.77329901677E+01 -0.12278328038E+02  0.15336147567E+02  0.51100000000E-03 0.  1.
        -12    1    4    4    0    0  0.70075208180E+01  0.23196508969E+01 -0.73262396282E+01  0.10399995932E+02  0.00000000000E+00 0.  1.
</event>
<event>
 8    1  0.2962813E-009  0.9118800E+02  0.7816164E-02  0.1184000E+00
        -11   -1    0    0    0    0  0.00000000000E+00  0.00000000000E+00  0.45593999997E+02  0.45594000000E+02  0.51100000000E-03 0. -1.
         11   -1    0    0    0    0 -0.00000000000E+00 -0.00000000000E+00 -0.45593999997E+02  0.45594000000E+02  0.51100000000E-03 0.  1.
         23    2    1    2    0    0 -0.22204460493E-15  0.71054273576E-14  0.35527136788E-14  0.91188000000E+02  0.91188000000E+02 0.  0.
    9900012    2    3    3    0    0  0.19087340922E+01  0.35586507321E+02  0.27551239577E+02  0.46142316840E+02  0.99999915965E+01 0.  0.
        -12    1    3    3    0    0 -0.19087340922E+01 -0.35586507321E+02 -0.27551239577E+02  0.45045683160E+02  0.00000000000E+00 0.  1.
         11    1    4    4    0    0  0.37292648118E+01  0.13830606692E+02  0.12691611506E+02  0.19138184354E+02  0.51100000000E-03 0.  1.
        -11    1    4    4    0    0  0.41497183479E+00  0.20036845658E+01  0.36462930288E+01  0.41811967875E+01  0.51100000000E-03 0. -1.
         12    1    4    4    0    0 -0.22355025545E+01  0.19752216064E+02  0.11213335043E+02  0.22822935698E+02  0.00000000000E+00 0. -1.
</event>
<event>
 8    1  0.2962813E-009  0.9118800E+02  0.7816164E-02  0.1184000E+00
        -11   -1    0    0    0    0  0.00000000000E+00  0.00000000000E+00  0.45593999997E+02  0.45594000000E+02  0.51100000000E-03 0. -1.
         11   -1    0    0    0    0 -0.00000000000E+00 -0.00000000000E+00 -0.45593999997E+02  0.45594000000E+02  0.51100000000E-03 0.  1.
         23    2    1    2    0    0  0.35527136788E-14  0.00000000000E+00  0.00000000000E+00  0.91188000000E+02  0.91188000000E+02 0.  0.
    9900012    2    3    3    0    0 -0.30651376218E+02 -0.14834961520E+01  0.32975838189E+02  0.46142317309E+02  0.99999958730E+01 0.  0.
        -12    1    3    3    0    0  0.30651376218E+02  0.14834961520E+01 -0.32975838189E+02  0.45045682691E+02  0.00000000000E+00 0.  1.
         11    1    4    4    0    0 -0.20441709147E+02 -0.49421213397E+00  0.21108692654E+02  0.29388511774E+02  0.51100000000E-03 0. -1.
        -11    1    4    4    0    0 -0.74059914018E+01  0.35717004258E+00  0.42972528910E+01  0.85698694129E+01  0.51100000000E-03 0.  1.
         12    1    4    4    0    0 -0.28036756685E+01 -0.13464540606E+01  0.75698926445E+01  0.81839361215E+01  0.00000000000E+00 0. -1.
</event>
<event>
 8    1  0.2962813E-009  0.9118800E+02  0.7816164E-02  0.1184000E+00
        -11   -1    0    0    0    0  0.00000000000E+00  0.00000000000E+00  0.45593999997E+02  0.45594000000E+02  0.51100000000E-03 0. -1.
         11   -1    0    0    0    0 -0.00000000000E+00 -0.00000000000E+00 -0.45593999997E+02  0.45594000000E+02  0.51100000000E-03 0.  1.
         23    2    1    2    0    0 -0.88817841970E-15  0.17763568394E-14  0.00000000000E+00  0.91188000000E+02  0.91188000000E+02 0.  0.
    9900012    2    3    3    0    0 -0.66084620869E+01  0.94087615619E+01 -0.43553593670E+02  0.46142333318E+02  0.10000141856E+02 0.  0.
         12    1    3    3    0    0  0.66084620869E+01 -0.94087615619E+01  0.43553593670E+02  0.45045666682E+02  0.00000000000E+00 0. -1.
         11    1    4    4    0    0 -0.32887943526E+01 -0.54333162777E+00 -0.59963389910E+01  0.68605727974E+01  0.51100000000E-03 0. -1.
        -11    1    4    4    0    0 -0.31849309367E+01  0.53354724829E+01 -0.14646181738E+02  0.15909798599E+02  0.51100000000E-03 0.  1.
        -12    1    4    4    0    0 -0.13473679757E+00  0.46166207068E+01 -0.22911072941E+02  0.23371961921E+02  0.00000000000E+00 0.  1.
</event>
<event>
 8    1  0.2962813E-009  0.9118800E+02  0.7816164E-02  0.1184000E+00
        -11   -1    0    0    0    0  0.00000000000E+00  0.00000000000E+00  0.45593999997E+02  0.45594000000E+02  0.51100000000E-03 0. -1.
         11   -1    0    0    0    0 -0.00000000000E+00 -0.00000000000E+00 -0.45593999997E+02  0.45594000000E+02  0.51100000000E-03 0.  1.
         23    2    1    2    0    0  0.00000000000E+00 -0.88817841970E-15  0.00000000000E+00  0.91188000000E+02  0.91188000000E+02 0.  0.
    9900012    2    3    3    0    0  0.38458685573E+02  0.79165090252E+01  0.22076503255E+02  0.46142316443E+02  0.99999879819E+01 0.  0.
        -12    1    3    3    0    0 -0.38458685573E+02 -0.79165090252E+01 -0.22076503255E+02  0.45045683557E+02  0.00000000000E+00 0.  1.
         11    1    4    4    0    0  0.10782263389E+02 -0.29200986427E+00  0.47801404440E+01  0.11797975101E+02  0.51100000000E-03 0. -1.
        -11    1    4    4    0    0  0.25968537832E+01  0.28433168903E+01  0.35896566197E+01  0.52643836694E+01  0.51100000000E-03 0.  1.
        -12    1    4    4    0    0  0.25079568401E+02  0.53652019991E+01  0.13706706191E+02  0.29079957673E+02  0.00000000000E+00 0.  1.
</event>
<event>
 8    1  0.2962813E-009  0.9118800E+02  0.7816164E-02  0.1184000E+00
        -11   -1    0    0    0    0  0.00000000000E+00  0.00000000000E+00  0.45593999997E+02  0.45594000000E+02  0.51100000000E-03 0. -1.
         11   -1    0    0    0    0 -0.00000000000E+00 -0.00000000000E+00 -0.45593999997E+02  0.45594000000E+02  0.51100000000E-03 0.  1.
         23    2    1    2    0    0  0.00000000000E+00  0.00000000000E+00  0.11102230246E-15  0.91188000000E+02  0.91188000000E+02 0.  0.
    9900012    2    3    3    0    0  0.39029022740E+02  0.22479226690E+02  0.73020762865E+00  0.46142318167E+02  0.10000003700E+02 0.  0.
         12    1    3    3    0    0 -0.39029022740E+02 -0.22479226690E+02 -0.73020762865E+00  0.45045681833E+02  0.00000000000E+00 0. -1.
         11    1    4    4    0    0  0.59029101991E+00  0.16830821427E+01  0.14737758535E+01  0.23137036359E+01  0.51100000000E-03 0. -1.
        -11    1    4    4    0    0  0.21010862510E+02  0.98288253882E+01 -0.12626162577E+01  0.23230504773E+02  0.51100000000E-03 0.  1.
        -12    1    4    4    0    0  0.17427869210E+02  0.10967319159E+02  0.51904803291E+00  0.20598109758E+02  0.00000000000E+00 0.  1.
</event>
<event>
 8    1  0.2962813E-009  0.9118800E+02  0.7816164E-02  0.1184000E+00
        -11   -1    0    0    0    0  0.00000000000E+00  0.00000000000E+00  0.45593999997E+02  0.45594000000E+02  0.51100000000E-03 0. -1.
         11   -1    0    0    0    0 -0.00000000000E+00 -0.00000000000E+00 -0.45593999997E+02  0.45594000000E+02  0.51100000000E-03 0.  1.
         23    2    1    2    0    0  0.00000000000E+00 -0.88817841970E-15  0.71054273576E-14  0.91188000000E+02  0.91188000000E+02 0.  0.
    9900012    2    3    3    0    0  0.19282196520E+02  0.53385617314E+01 -0.40358517845E+02  0.46142319778E+02  0.10000018392E+02 0.  0.
         12    1    3    3    0    0 -0.19282196520E+02 -0.53385617314E+01  0.40358517845E+02  0.45045680222E+02  0.00000000000E+00 0. -1.
         11    1    4    4    0    0  0.50253218740E+01 -0.13725608157E+01 -0.15856589977E+02  0.16690393317E+02  0.51100000000E-03 0. -1.
        -11    1    4    4    0    0  0.47199306632E+01  0.28061803057E+01 -0.12368897840E+02  0.13532997725E+02  0.51100000000E-03 0.  1.
        -12    1    4    4    0    0  0.95369439827E+01  0.39049422413E+01 -0.12133030028E+02  0.15918928736E+02  0.00000000000E+00 0.  1.
</event>
<event>
 8    1  0.2962813E-009  0.9118800E+02  0.7816164E-02  0.1184000E+00
        -11   -1    0    0    0    0  0.00000000000E+00  0.00000000000E+00  0.45593999997E+02  0.45594000000E+02  0.51100000000E-03 0. -1.
         11   -1    0    0    0    0 -0.00000000000E+00 -0.00000000000E+00 -0.45593999997E+02  0.45594000000E+02  0.51100000000E-03 0.  1.
         23    2    1    2    0    0  0.17763568394E-14  0.35527136788E-14  0.00000000000E+00  0.91188000000E+02  0.91188000000E+02 0.  0.
    9900012    2    3    3    0    0  0.13917416140E+02  0.29880686844E+02 -0.30701198069E+02  0.46142317841E+02  0.10000000724E+02 0.  0.
         12    1    3    3    0    0 -0.13917416140E+02 -0.29880686844E+02  0.30701198069E+02  0.45045682159E+02  0.00000000000E+00 0. -1.
         11    1    4    4    0    0  0.82137553609E+00  0.39159531419E+01 -0.78595900522E+01  0.88194389181E+01  0.51100000000E-03 0. -1.
        -11    1    4    4    0    0  0.48644966287E+01  0.51936451025E+01 -0.45358316944E+01  0.84386637759E+01  0.51100000000E-03 0.  1.
        -12    1    4    4    0    0  0.82315439754E+01  0.20771088600E+02 -0.18305776323E+02  0.28884215147E+02  0.00000000000E+00 0.  1.
</event>
<event>
 8    1  0.2962813E-009  0.9118800E+02  0.7816164E-02  0.1184000E+00
        -11   -1    0    0    0    0  0.00000000000E+00  0.00000000000E+00  0.45593999997E+02  0.45594000000E+02  0.51100000000E-03 0. -1.
         11   -1    0    0    0    0 -0.00000000000E+00 -0.00000000000E+00 -0.45593999997E+02  0.45594000000E+02  0.51100000000E-03 0.  1.
         23    2    1    2    0    0  0.35527136788E-14  0.00000000000E+00  0.00000000000E+00  0.91188000000E+02  0.91188000000E+02 0.  0.
    9900012    2    3    3    0    0 -0.24668829148E+02 -0.32751595480E+02  0.18651952573E+02  0.46142317933E+02  0.10000001572E+02 0.  0.
        -12    1    3    3    0    0  0.24668829148E+02  0.32751595480E+02 -0.18651952573E+02  0.45045682067E+02  0.00000000000E+00 0.  1.
         11    1    4    4    0    0 -0.99818106057E+01 -0.16103061157E+02  0.80932420092E+01  0.20602079703E+02  0.51100000000E-03 0. -1.
        -11    1    4    4    0    0 -0.29532519892E+01 -0.58148837054E+01  0.61699686863E+01  0.89779220130E+01  0.51100000000E-03 0.  1.
        -12    1    4    4    0    0 -0.11733766553E+02 -0.10833650618E+02  0.43887418779E+01  0.16562316218E+02  0.00000000000E+00 0.  1.
</event>
<event>
 8    1  0.2962813E-009  0.9118800E+02  0.7816164E-02  0.1184000E+00
        -11   -1    0    0    0    0  0.00000000000E+00  0.00000000000E+00  0.45593999997E+02  0.45594000000E+02  0.51100000000E-03 0. -1.
         11   -1    0    0    0    0 -0.00000000000E+00 -0.00000000000E+00 -0.45593999997E+02  0.45594000000E+02  0.51100000000E-03 0.  1.
         23    2    1    2    0    0 -0.35527136788E-14  0.88817841970E-15  0.00000000000E+00  0.91188000000E+02  0.91188000000E+02 0.  0.
    9900012    2    3    3    0    0 -0.17341066552E+02  0.34992337940E+01  0.41426516088E+02  0.46142318060E+02  0.10000002722E+02 0.  0.
        -12    1    3    3    0    0  0.17341066552E+02 -0.34992337940E+01 -0.41426516088E+02  0.45045681940E+02  0.00000000000E+00 0.  1.
         11    1    4    4    0    0 -0.64217870262E+01  0.50471014581E+00  0.58796583251E+01  0.87214943227E+01  0.51100000000E-03 0. -1.
        -11    1    4    4    0    0 -0.98076963876E+01  0.24074964388E+01  0.33745429810E+02  0.35224153373E+02  0.51100000000E-03 0.  1.
        -12    1    4    4    0    0 -0.11115831385E+01  0.58702720939E+00  0.18014279526E+01  0.21966703637E+01  0.00000000000E+00 0.  1.
</event>
<event>
 8    1  0.2962813E-009  0.9118800E+02  0.7816164E-02  0.1184000E+00
        -11   -1    0    0    0    0  0.00000000000E+00  0.00000000000E+00  0.45593999997E+02  0.45594000000E+02  0.51100000000E-03 0. -1.
         11   -1    0    0    0    0 -0.00000000000E+00 -0.00000000000E+00 -0.45593999997E+02  0.45594000000E+02  0.51100000000E-03 0.  1.
         23    2    1    2    0    0  0.35527136788E-14  0.00000000000E+00  0.71054273576E-14  0.91188000000E+02  0.91188000000E+02 0.  0.
    9900012    2    3    3    0    0 -0.17869282417E+02  0.20103483889E+02 -0.36133811303E+02  0.46142316102E+02  0.99999848692E+01 0.  0.
         12    1    3    3    0    0  0.17869282417E+02 -0.20103483889E+02  0.36133811303E+02  0.45045683898E+02  0.00000000000E+00 0. -1.
         11    1    4    4    0    0 -0.42259999730E+01  0.87557740382E+01 -0.17570122610E+02  0.20080634043E+02  0.51100000000E-03 0. -1.
        -11    1    4    4    0    0 -0.10811476579E+02  0.87126756118E+01 -0.16841753348E+02  0.21827583426E+02  0.51100000000E-03 0.  1.
         12    1    4    4    0    0 -0.28318058656E+01  0.26350342386E+01 -0.17219353453E+01  0.42340986328E+01  0.00000000000E+00 0. -1.
</event>
<event>
 8    1  0.2962813E-009  0.9118800E+02  0.7816164E-02  0.1184000E+00
        -11   -1    0    0    0    0  0.00000000000E+00  0.00000000000E+00  0.45593999997E+02  0.45594000000E+02  0.51100000000E-03 0. -1.
         11   -1    0    0    0    0 -0.00000000000E+00 -0.00000000000E+00 -0.45593999997E+02  0.45594000000E+02  0.51100000000E-03 0.  1.
         23    2    1    2    0    0  0.00000000000E+00  0.00000000000E+00  0.00000000000E+00  0.91188000000E+02  0.91188000000E+02 0.  0.
    9900012    2    3    3    0    0  0.21874294309E+02 -0.46478491862E+01 -0.39102764481E+02  0.46142318257E+02  0.10000004522E+02 0.  0.
         12    1    3    3    0    0 -0.21874294309E+02  0.46478491862E+01  0.39102764481E+02  0.45045681743E+02  0.00000000000E+00 0. -1.
         11    1    4    4    0    0  0.13533669438E+02 -0.70569402460E+00 -0.24794281841E+02  0.28256231610E+02  0.51100000000E-03 0.  1.
        -11    1    4    4    0    0  0.55693198238E+01  0.13061470379E+00 -0.57162850241E+01  0.79818731033E+01  0.51100000000E-03 0. -1.
         12    1    4    4    0    0  0.27713050477E+01 -0.40727698654E+01 -0.85921976163E+01  0.99042135438E+01  0.00000000000E+00 0. -1.
</event>
<event>
 8    1  0.2962813E-009  0.9118800E+02  0.7816164E-02  0.1184000E+00
        -11   -1    0    0    0    0  0.00000000000E+00  0.00000000000E+00  0.45593999997E+02  0.45594000000E+02  0.51100000000E-03 0. -1.
         11   -1    0    0    0    0 -0.00000000000E+00 -0.00000000000E+00 -0.45593999997E+02  0.45594000000E+02  0.51100000000E-03 0.  1.
         23    2    1    2    0    0  0.00000000000E+00  0.00000000000E+00  0.00000000000E+00  0.91188000000E+02  0.91188000000E+02 0.  0.
    9900012    2    3    3    0    0 -0.98004996805E+01  0.20430959536E+02 -0.38931216475E+02  0.46142317434E+02  0.99999970211E+01 0.  0.
         12    1    3    3    0    0  0.98004996805E+01 -0.20430959536E+02  0.38931216475E+02  0.45045682566E+02  0.00000000000E+00 0. -1.
         11    1    4    4    0    0 -0.78028380186E+01  0.76805020202E+01 -0.12985903831E+02  0.16985525926E+02  0.51100000000E-03 0. -1.
        -11    1    4    4    0    0  0.15922500791E+00  0.21269618349E+01 -0.71292525832E+01  0.74414757882E+01  0.51100000000E-03 0.  1.
         12    1    4    4    0    0 -0.21568866698E+01  0.10623495681E+02 -0.18816060061E+02  0.21715315720E+02  0.00000000000E+00 0. -1.
</event>
<event>
 8    1  0.2962813E-009  0.9118800E+02  0.7816164E-02  0.1184000E+00
        -11   -1    0    0    0    0  0.00000000000E+00  0.00000000000E+00  0.45593999997E+02  0.45594000000E+02  0.51100000000E-03 0. -1.
         11   -1    0    0    0    0 -0.00000000000E+00 -0.00000000000E+00 -0.45593999997E+02  0.45594000000E+02  0.51100000000E-03 0.  1.
         23    2    1    2    0    0  0.00000000000E+00 -0.71054273576E-14 -0.35527136788E-14  0.91188000000E+02  0.91188000000E+02 0.  0.
    9900012    2    3    3    0    0  0.23165470608E+02  0.32870858549E+02  0.20297318117E+02  0.46142317710E+02  0.99999995337E+01 0.  0.
        -12    1    3    3    0    0 -0.23165470608E+02 -0.32870858549E+02 -0.20297318117E+02  0.45045682290E+02  0.00000000000E+00 0.  1.
         11    1    4    4    0    0  0.12965687471E+02  0.23135739909E+02  0.12964709012E+02  0.29520419929E+02  0.51100000000E-03 0. -1.
        -11    1    4    4    0    0  0.40467547240E+01  0.61068031451E+01  0.16884189969E+01  0.75179802753E+01  0.51100000000E-03 0.  1.
         12    1    4    4    0    0  0.61530284124E+01  0.36283154944E+01  0.56441901081E+01  0.91039175055E+01  0.00000000000E+00 0. -1.
</event>
<event>
 8    1  0.2962813E-009  0.9118800E+02  0.7816164E-02  0.1184000E+00
        -11   -1    0    0    0    0  0.00000000000E+00  0.00000000000E+00  0.45593999997E+02  0.45594000000E+02  0.51100000000E-03 0. -1.
         11   -1    0    0    0    0 -0.00000000000E+00 -0.00000000000E+00 -0.45593999997E+02  0.45594000000E+02  0.51100000000E-03 0.  1.
         23    2    1    2    0    0 -0.44408920985E-15  0.00000000000E+00  0.00000000000E+00  0.91188000000E+02  0.91188000000E+02 0.  0.
    9900012    2    3    3    0    0 -0.39639769975E+01  0.15100837583E+02  0.42253580196E+02  0.46142318201E+02  0.10000004016E+02 0.  0.
        -12    1    3    3    0    0  0.39639769975E+01 -0.15100837583E+02 -0.42253580196E+02  0.45045681799E+02  0.00000000000E+00 0.  1.
         11    1    4    4    0    0  0.19585370406E+01  0.65658336896E+01  0.18769296000E+02  0.19980803587E+02  0.51100000000E-03 0. -1.
        -11    1    4    4    0    0 -0.53062489505E+01  0.46715384268E+01  0.10976594283E+02  0.13056231137E+02  0.51100000000E-03 0.  1.
        -12    1    4    4    0    0 -0.61626508758E+00  0.38634654664E+01  0.12507689913E+02  0.13105283477E+02  0.00000000000E+00 0.  1.
</event>
<event>
 8    1  0.2962813E-009  0.9118800E+02  0.7816164E-02  0.1184000E+00
        -11   -1    0    0    0    0  0.00000000000E+00  0.00000000000E+00  0.45593999997E+02  0.45594000000E+02  0.51100000000E-03 0. -1.
         11   -1    0    0    0    0 -0.00000000000E+00 -0.00000000000E+00 -0.45593999997E+02  0.45594000000E+02  0.51100000000E-03 0.  1.
         23    2    1    2    0    0  0.00000000000E+00  0.17763568394E-14  0.00000000000E+00  0.91188000000E+02  0.91188000000E+02 0.  0.
    9900012    2    3    3    0    0  0.33806959535E+02 -0.15460663735E+02 -0.25439550452E+02  0.46142319149E+02  0.10000012655E+02 0.  0.
         12    1    3    3    0    0 -0.33806959535E+02  0.15460663735E+02  0.25439550452E+02  0.45045680851E+02  0.00000000000E+00 0. -1.
         11    1    4    4    0    0  0.24675682118E+02 -0.10454711134E+02 -0.17645315803E+02  0.32086561719E+02  0.51100000000E-03 0. -1.
        -11    1    4    4    0    0  0.97547672357E+01 -0.41312826442E+01 -0.67731019097E+01  0.12573698336E+02  0.51100000000E-03 0.  1.
         12    1    4    4    0    0 -0.62348981839E+00 -0.87466995731E+00 -0.10211327392E+01  0.14820590943E+01  0.00000000000E+00 0. -1.
</event>
<event>
 8    1  0.2962813E-009  0.9118800E+02  0.7816164E-02  0.1184000E+00
        -11   -1    0    0    0    0  0.00000000000E+00  0.00000000000E+00  0.45593999997E+02  0.45594000000E+02  0.51100000000E-03 0. -1.
         11   -1    0    0    0    0 -0.00000000000E+00 -0.00000000000E+00 -0.45593999997E+02  0.45594000000E+02  0.51100000000E-03 0.  1.
         23    2    1    2    0    0  0.00000000000E+00  0.35527136788E-14  0.00000000000E+00  0.91188000000E+02  0.91188000000E+02 0.  0.
    9900012    2    3    3    0    0  0.22357425778E+02  0.27027755911E+02  0.28262331235E+02  0.46142318255E+02  0.10000004502E+02 0.  0.
        -12    1    3    3    0    0 -0.22357425778E+02 -0.27027755911E+02 -0.28262331235E+02  0.45045681745E+02  0.00000000000E+00 0.  1.
         11    1    4    4    0    0  0.33604887548E+01  0.53061693332E+01  0.50288386240E+01  0.80459639466E+01  0.51100000000E-03 0. -1.
        -11    1    4    4    0    0  0.59655277223E+01  0.12927480202E+02  0.86911995158E+01  0.16680653904E+02  0.51100000000E-03 0.  1.
        -12    1    4    4    0    0  0.13031409301E+02  0.87941063761E+01  0.14542293096E+02  0.21415700404E+02  0.00000000000E+00 0.  1.
</event>
<event>
 8    1  0.2962813E-009  0.9118800E+02  0.7816164E-02  0.1184000E+00
        -11   -1    0    0    0    0  0.00000000000E+00  0.00000000000E+00  0.45593999997E+02  0.45594000000E+02  0.51100000000E-03 0. -1.
         11   -1    0    0    0    0 -0.00000000000E+00 -0.00000000000E+00 -0.45593999997E+02  0.45594000000E+02  0.51100000000E-03 0.  1.
         23    2    1    2    0    0  0.35527136788E-14  0.00000000000E+00  0.00000000000E+00  0.91188000000E+02  0.91188000000E+02 0.  0.
    9900012    2    3    3    0    0 -0.28744763802E+02 -0.33084705104E+02  0.10404537123E+02  0.46142317070E+02  0.99999936996E+01 0.  0.
        -12    1    3    3    0    0  0.28744763802E+02  0.33084705104E+02 -0.10404537123E+02  0.45045682930E+02  0.00000000000E+00 0.  1.
         11    1    4    4    0    0 -0.38124718872E+01 -0.54684590729E+01  0.34357926666E+01  0.74995771902E+01  0.51100000000E-03 0. -1.
        -11    1    4    4    0    0 -0.29307724882E+00  0.52373270352E+00  0.20048140299E+00  0.63275846307E+00  0.51100000000E-03 0.  1.
         12    1    4    4    0    0 -0.24639214666E+02 -0.28139978735E+02  0.67682630537E+01  0.38009981417E+02  0.00000000000E+00 0. -1.
</event>
<event>
 8    1  0.2962813E-009  0.9118800E+02  0.7816164E-02  0.1184000E+00
        -11   -1    0    0    0    0  0.00000000000E+00  0.00000000000E+00  0.45593999997E+02  0.45594000000E+02  0.51100000000E-03 0. -1.
         11   -1    0    0    0    0 -0.00000000000E+00 -0.00000000000E+00 -0.45593999997E+02  0.45594000000E+02  0.51100000000E-03 0.  1.
         23    2    1    2    0    0 -0.17763568394E-14  0.00000000000E+00 -0.71054273576E-14  0.91188000000E+02  0.91188000000E+02 0.  0.
    9900012    2    3    3    0    0 -0.13001085791E+02 -0.34034623097E+01 -0.42994204728E+02  0.46142318435E+02  0.10000006148E+02 0.  0.
         12    1    3    3    0    0  0.13001085791E+02  0.34034623097E+01  0.42994204728E+02  0.45045681565E+02  0.00000000000E+00 0. -1.
         11    1    4    4    0    0 -0.92210629283E+01  0.89775087577E-01 -0.20530734873E+02  0.22506602048E+02  0.51100000000E-03 0. -1.
        -11    1    4    4    0    0 -0.73725909537E+00  0.37509602389E+00 -0.12456661108E+02  0.12484096052E+02  0.51100000000E-03 0.  1.
        -12    1    4    4    0    0 -0.30427637670E+01 -0.38683334211E+01 -0.10006808747E+02  0.11151620335E+02  0.00000000000E+00 0.  1.
</event>
<event>
 8    1  0.2962813E-009  0.9118800E+02  0.7816164E-02  0.1184000E+00
        -11   -1    0    0    0    0  0.00000000000E+00  0.00000000000E+00  0.45593999997E+02  0.45594000000E+02  0.51100000000E-03 0. -1.
         11   -1    0    0    0    0 -0.00000000000E+00 -0.00000000000E+00 -0.45593999997E+02  0.45594000000E+02  0.51100000000E-03 0.  1.
         23    2    1    2    0    0 -0.17763568394E-14  0.00000000000E+00  0.00000000000E+00  0.91188000000E+02  0.91188000000E+02 0.  0.
    9900012    2    3    3    0    0 -0.13288828194E+02  0.20491240766E+02  0.37850091764E+02  0.46142319304E+02  0.10000014065E+02 0.  0.
        -12    1    3    3    0    0  0.13288828194E+02 -0.20491240766E+02 -0.37850091764E+02  0.45045680696E+02  0.00000000000E+00 0.  1.
         11    1    4    4    0    0 -0.31257008566E+01  0.88767942576E+01  0.11373044226E+02  0.14761897485E+02  0.51100000000E-03 0. -1.
        -11    1    4    4    0    0 -0.67729604349E+01  0.61977047010E+01  0.93661460824E+01  0.13115228908E+02  0.51100000000E-03 0.  1.
        -12    1    4    4    0    0 -0.33901669021E+01  0.54167418077E+01  0.17110901456E+02  0.18265192911E+02  0.00000000000E+00 0.  1.
</event>
<event>
 8    1  0.2962813E-009  0.9118800E+02  0.7816164E-02  0.1184000E+00
        -11   -1    0    0    0    0  0.00000000000E+00  0.00000000000E+00  0.45593999997E+02  0.45594000000E+02  0.51100000000E-03 0. -1.
         11   -1    0    0    0    0 -0.00000000000E+00 -0.00000000000E+00 -0.45593999997E+02  0.45594000000E+02  0.51100000000E-03 0.  1.
         23    2    1    2    0    0  0.17763568394E-14  0.00000000000E+00  0.00000000000E+00  0.91188000000E+02  0.91188000000E+02 0.  0.
    9900012    2    3    3    0    0 -0.11429599883E+02 -0.58020217162E+01  0.43183495683E+02  0.46142317533E+02  0.99999979228E+01 0.  0.
        -12    1    3    3    0    0  0.11429599883E+02  0.58020217162E+01 -0.43183495683E+02  0.45045682467E+02  0.00000000000E+00 0.  1.
         11    1    4    4    0    0 -0.21885916926E+01 -0.22369809397E+01  0.21685613894E+02  0.21910268541E+02  0.51100000000E-03 0. -1.
        -11    1    4    4    0    0 -0.78030587407E+00  0.11467890366E+01  0.17128088153E+01  0.22040228335E+01  0.51100000000E-03 0.  1.
         12    1    4    4    0    0 -0.84607023166E+01 -0.47118298131E+01  0.19785072974E+02  0.22028026159E+02  0.00000000000E+00 0. -1.
</event>
<event>
 8    1  0.2962813E-009  0.9118800E+02  0.7816164E-02  0.1184000E+00
        -11   -1    0    0    0    0  0.00000000000E+00  0.00000000000E+00  0.45593999997E+02  0.45594000000E+02  0.51100000000E-03 0. -1.
         11   -1    0    0    0    0 -0.00000000000E+00 -0.00000000000E+00 -0.45593999997E+02  0.45594000000E+02  0.51100000000E-03 0.  1.
         23    2    1    2    0    0  0.16653345369E-15  0.00000000000E+00  0.00000000000E+00  0.91188000000E+02  0.91188000000E+02 0.  0.
    9900012    2    3    3    0    0  0.46742493674E+00  0.25308152440E+02  0.37261136704E+02  0.46142319025E+02  0.10000011527E+02 0.  0.
        -12    1    3    3    0    0 -0.46742493674E+00 -0.25308152440E+02 -0.37261136704E+02  0.45045680975E+02  0.00000000000E+00 0.  1.
         11    1    4    4    0    0 -0.66872191916E+00  0.16950734914E+02  0.25824361440E+02  0.30897770909E+02  0.51100000000E-03 0. -1.
        -11    1    4    4    0    0 -0.16422058149E+00 -0.27220303310E+00 -0.41722662137E+00  0.52453904079E+00  0.51100000000E-03 0.  1.
        -12    1    4    4    0    0  0.13003674374E+01  0.86296205594E+01  0.11854001886E+02  0.14720009075E+02  0.00000000000E+00 0.  1.
</event>
<event>
 8    1  0.2962813E-009  0.9118800E+02  0.7816164E-02  0.1184000E+00
        -11   -1    0    0    0    0  0.00000000000E+00  0.00000000000E+00  0.45593999997E+02  0.45594000000E+02  0.51100000000E-03 0.  1.
         11   -1    0    0    0    0 -0.00000000000E+00 -0.00000000000E+00 -0.45593999997E+02  0.45594000000E+02  0.51100000000E-03 0. -1.
         23    2    1    2    0    0  0.00000000000E+00  0.00000000000E+00  0.00000000000E+00  0.91188000000E+02  0.91188000000E+02 0.  0.
    9900012    2    3    3    0    0 -0.34715138617E+02  0.20180001593E+02 -0.20414213115E+02  0.46142318624E+02  0.10000007870E+02 0.  0.
         12    1    3    3    0    0  0.34715138617E+02 -0.20180001593E+02  0.20414213115E+02  0.45045681376E+02  0.00000000000E+00 0. -1.
         11    1    4    4    0    0 -0.99527907931E+00 -0.37991134542E+00 -0.11328871175E+01  0.15551033915E+01  0.51100000000E-03 0. -1.
        -11    1    4    4    0    0 -0.20122492969E+02  0.10403353329E+02 -0.14712487215E+02  0.27011141481E+02  0.51100000000E-03 0.  1.
        -12    1    4    4    0    0 -0.13597366568E+02  0.10156559609E+02 -0.45688387820E+01  0.17576073751E+02  0.00000000000E+00 0.  1.
</event>
<event>
 8    1  0.2962813E-009  0.9118800E+02  0.7816164E-02  0.1184000E+00
        -11   -1    0    0    0    0  0.00000000000E+00  0.00000000000E+00  0.45593999997E+02  0.45594000000E+02  0.51100000000E-03 0.  1.
         11   -1    0    0    0    0 -0.00000000000E+00 -0.00000000000E+00 -0.45593999997E+02  0.45594000000E+02  0.51100000000E-03 0. -1.
         23    2    1    2    0    0  0.44408920985E-15  0.00000000000E+00 -0.35527136788E-14  0.91188000000E+02  0.91188000000E+02 0.  0.
    9900012    2    3    3    0    0 -0.32082705455E+01 -0.40211438927E+02  0.20046463322E+02  0.46142317497E+02  0.99999975920E+01 0.  0.
        -12    1    3    3    0    0  0.32082705455E+01  0.40211438927E+02 -0.20046463322E+02  0.45045682503E+02  0.00000000000E+00 0.  1.
         11    1    4    4    0    0 -0.42372053267E+01 -0.30844543176E+02  0.16647432917E+02  0.35305477985E+02  0.51100000000E-03 0. -1.
        -11    1    4    4    0    0  0.22894447108E+01 -0.29020329099E+01  0.14139915007E+01  0.39576159893E+01  0.51100000000E-03 0.  1.
        -12    1    4    4    0    0 -0.12605099296E+01 -0.64648628407E+01  0.19850389036E+01  0.68792235231E+01  0.00000000000E+00 0.  1.
</event>
<event>
 8    1  0.2962813E-009  0.9118800E+02  0.7816164E-02  0.1184000E+00
        -11   -1    0    0    0    0  0.00000000000E+00  0.00000000000E+00  0.45593999997E+02  0.45594000000E+02  0.51100000000E-03 0.  1.
         11   -1    0    0    0    0 -0.00000000000E+00 -0.00000000000E+00 -0.45593999997E+02  0.45594000000E+02  0.51100000000E-03 0. -1.
         23    2    1    2    0    0  0.00000000000E+00  0.35527136788E-14 -0.17763568394E-14  0.91188000000E+02  0.91188000000E+02 0.  0.
    9900012    2    3    3    0    0 -0.32958612468E+02 -0.29873369547E+02  0.71010643057E+01  0.46142318096E+02  0.10000003053E+02 0.  0.
        -12    1    3    3    0    0  0.32958612468E+02  0.29873369547E+02 -0.71010643057E+01  0.45045681904E+02  0.00000000000E+00 0.  1.
         11    1    4    4    0    0 -0.48340057999E+01 -0.60243729424E+00  0.78035419691E-01  0.48720255084E+01  0.51100000000E-03 0. -1.
        -11    1    4    4    0    0 -0.18849340079E+02 -0.19242850204E+02  0.34977501905E+01  0.27162826842E+02  0.51100000000E-03 0.  1.
         12    1    4    4    0    0 -0.92752665887E+01 -0.10028082049E+02  0.35252786955E+01  0.14107465745E+02  0.00000000000E+00 0. -1.
</event>
<event>
 8    1  0.2962813E-009  0.9118800E+02  0.7816164E-02  0.1184000E+00
        -11   -1    0    0    0    0  0.00000000000E+00  0.00000000000E+00  0.45593999997E+02  0.45594000000E+02  0.51100000000E-03 0. -1.
         11   -1    0    0    0    0 -0.00000000000E+00 -0.00000000000E+00 -0.45593999997E+02  0.45594000000E+02  0.51100000000E-03 0.  1.
         23    2    1    2    0    0  0.00000000000E+00  0.00000000000E+00  0.00000000000E+00  0.91188000000E+02  0.91188000000E+02 0.  0.
    9900012    2    3    3    0    0  0.39243009658E+02 -0.35607164049E+01 -0.21827070372E+02  0.46142317528E+02  0.99999978773E+01 0.  0.
         12    1    3    3    0    0 -0.39243009658E+02  0.35607164049E+01  0.21827070372E+02  0.45045682472E+02  0.00000000000E+00 0. -1.
         11    1    4    4    0    0  0.33328190146E+00  0.42478749502E+00 -0.32628016605E+00  0.63085675842E+00  0.51100000000E-03 0. -1.
        -11    1    4    4    0    0  0.45826619415E+01 -0.34168248693E+01 -0.21900827391E+01  0.61214332736E+01  0.51100000000E-03 0.  1.
        -12    1    4    4    0    0  0.34327065815E+02 -0.56867903066E+00 -0.19310707467E+02  0.39390027496E+02  0.00000000000E+00 0.  1.
</event>
<event>
 8    1  0.2962813E-009  0.9118800E+02  0.7816164E-02  0.1184000E+00
        -11   -1    0    0    0    0  0.00000000000E+00  0.00000000000E+00  0.45593999997E+02  0.45594000000E+02  0.51100000000E-03 0. -1.
         11   -1    0    0    0    0 -0.00000000000E+00 -0.00000000000E+00 -0.45593999997E+02  0.45594000000E+02  0.51100000000E-03 0.  1.
         23    2    1    2    0    0  0.35527136788E-14  0.22204460493E-15  0.00000000000E+00  0.91188000000E+02  0.91188000000E+02 0.  0.
    9900012    2    3    3    0    0 -0.26360056712E+02 -0.93249975578E+00 -0.36515632368E+02  0.46142317045E+02  0.99999934681E+01 0.  0.
         12    1    3    3    0    0  0.26360056712E+02  0.93249975578E+00  0.36515632368E+02  0.45045682955E+02  0.00000000000E+00 0. -1.
         11    1    4    4    0    0 -0.38138421332E+01 -0.76009594932E+00 -0.10904894216E+02  0.11577558283E+02  0.51100000000E-03 0.  1.
        -11    1    4    4    0    0 -0.94582073435E+01 -0.23138847338E+01 -0.13188312255E+02  0.16393392850E+02  0.51100000000E-03 0. -1.
        -12    1    4    4    0    0 -0.13088007236E+02  0.21414809274E+01 -0.12422425896E+02  0.18171365912E+02  0.00000000000E+00 0.  1.
</event>
<event>
 8    1  0.2962813E-009  0.9118800E+02  0.7816164E-02  0.1184000E+00
        -11   -1    0    0    0    0  0.00000000000E+00  0.00000000000E+00  0.45593999997E+02  0.45594000000E+02  0.51100000000E-03 0. -1.
         11   -1    0    0    0    0 -0.00000000000E+00 -0.00000000000E+00 -0.45593999997E+02  0.45594000000E+02  0.51100000000E-03 0.  1.
         23    2    1    2    0    0  0.11102230246E-15  0.00000000000E+00  0.00000000000E+00  0.91188000000E+02  0.91188000000E+02 0.  0.
    9900012    2    3    3    0    0 -0.16618095577E+00 -0.71941443367E+01  0.44467178691E+02  0.46142319745E+02  0.10000018093E+02 0.  0.
        -12    1    3    3    0    0  0.16618095577E+00  0.71941443367E+01 -0.44467178691E+02  0.45045680255E+02  0.00000000000E+00 0.  1.
         11    1    4    4    0    0  0.15625458233E+01  0.75817366529E+00  0.35848727715E+01  0.39834268922E+01  0.51100000000E-03 0. -1.
        -11    1    4    4    0    0  0.11510058950E+01 -0.52292204358E+01  0.31826562013E+02  0.32273822376E+02  0.51100000000E-03 0.  1.
        -12    1    4    4    0    0 -0.28797326740E+01 -0.27230975661E+01  0.90557439065E+01  0.98850704767E+01  0.00000000000E+00 0.  1.
</event>
<event>
 8    1  0.2962813E-009  0.9118800E+02  0.7816164E-02  0.1184000E+00
        -11   -1    0    0    0    0  0.00000000000E+00  0.00000000000E+00  0.45593999997E+02  0.45594000000E+02  0.51100000000E-03 0. -1.
         11   -1    0    0    0    0 -0.00000000000E+00 -0.00000000000E+00 -0.45593999997E+02  0.45594000000E+02  0.51100000000E-03 0.  1.
         23    2    1    2    0    0  0.88817841970E-15  0.00000000000E+00 -0.35527136788E-14  0.91188000000E+02  0.91188000000E+02 0.  0.
    9900012    2    3    3    0    0 -0.49841969978E+01  0.38085299333E+02  0.23532564121E+02  0.46142314091E+02  0.99999665287E+01 0.  0.
        -12    1    3    3    0    0  0.49841969978E+01 -0.38085299333E+02 -0.23532564121E+02  0.45045685909E+02  0.00000000000E+00 0.  1.
         11    1    4    4    0    0 -0.60086413215E+00  0.20024105983E+02  0.16378654788E+02  0.25876363559E+02  0.51100000000E-03 0. -1.
        -11    1    4    4    0    0 -0.12685937844E+01  0.13851368350E+01  0.63452615199E-01  0.18793511479E+01  0.51100000000E-03 0.  1.
         12    1    4    4    0    0 -0.31147390812E+01  0.16676056515E+02  0.70904567172E+01  0.18386599384E+02  0.00000000000E+00 0. -1.
</event>
<event>
 8    1  0.2962813E-009  0.9118800E+02  0.7816164E-02  0.1184000E+00
        -11   -1    0    0    0    0  0.00000000000E+00  0.00000000000E+00  0.45593999997E+02  0.45594000000E+02  0.51100000000E-03 0. -1.
         11   -1    0    0    0    0 -0.00000000000E+00 -0.00000000000E+00 -0.45593999997E+02  0.45594000000E+02  0.51100000000E-03 0.  1.
         23    2    1    2    0    0 -0.88817841970E-15  0.71054273576E-14  0.14210854715E-13  0.91188000000E+02  0.91188000000E+02 0.  0.
    9900012    2    3    3    0    0 -0.60791700377E+01  0.29071279031E+02  0.33867652741E+02  0.46142317909E+02  0.10000001348E+02 0.  0.
        -12    1    3    3    0    0  0.60791700377E+01 -0.29071279031E+02 -0.33867652741E+02  0.45045682091E+02  0.00000000000E+00 0.  1.
         11    1    4    4    0    0 -0.20118385983E+01  0.18053973531E+02  0.22135311318E+02  0.28635039064E+02  0.51100000000E-03 0. -1.
        -11    1    4    4    0    0 -0.39978376419E+01  0.95556989359E+01  0.12168700785E+02  0.15980343145E+02  0.51100000000E-03 0.  1.
        -12    1    4    4    0    0 -0.69493797451E-01  0.14616065646E+01 -0.43635936262E+00  0.15269356996E+01  0.00000000000E+00 0.  1.
</event>
<event>
 8    1  0.2962813E-009  0.9118800E+02  0.7816164E-02  0.1184000E+00
        -11   -1    0    0    0    0  0.00000000000E+00  0.00000000000E+00  0.45593999997E+02  0.45594000000E+02  0.51100000000E-03 0. -1.
         11   -1    0    0    0    0 -0.00000000000E+00 -0.00000000000E+00 -0.45593999997E+02  0.45594000000E+02  0.51100000000E-03 0.  1.
         23    2    1    2    0    0  0.00000000000E+00 -0.71054273576E-14  0.17763568394E-14  0.91188000000E+02  0.91188000000E+02 0.  0.
    9900012    2    3    3    0    0 -0.15345897343E+02  0.41436079600E+02  0.87560509459E+01  0.46142315566E+02  0.99999799872E+01 0.  0.
        -12    1    3    3    0    0  0.15345897343E+02 -0.41436079600E+02 -0.87560509459E+01  0.45045684434E+02  0.00000000000E+00 0.  1.
         11    1    4    4    0    0 -0.61120914588E+01  0.11775514883E+02 -0.90494827608E+00  0.13298095518E+02  0.51100000000E-03 0. -1.
        -11    1    4    4    0    0 -0.95313357783E+01  0.28548235440E+02  0.86597821382E+01  0.31318364188E+02  0.51100000000E-03 0.  1.
        -12    1    4    4    0    0  0.29752989364E+00  0.11123292773E+01  0.10012170838E+01  0.15258558607E+01  0.00000000000E+00 0.  1.
</event>
<event>
 8    1  0.2962813E-009  0.9118800E+02  0.7816164E-02  0.1184000E+00
        -11   -1    0    0    0    0  0.00000000000E+00  0.00000000000E+00  0.45593999997E+02  0.45594000000E+02  0.51100000000E-03 0. -1.
         11   -1    0    0    0    0 -0.00000000000E+00 -0.00000000000E+00 -0.45593999997E+02  0.45594000000E+02  0.51100000000E-03 0.  1.
         23    2    1    2    0    0  0.00000000000E+00  0.22204460493E-15  0.00000000000E+00  0.91188000000E+02  0.91188000000E+02 0.  0.
    9900012    2    3    3    0    0 -0.34784810711E+02 -0.80294224319E+00 -0.28609192438E+02  0.46142315807E+02  0.99999821812E+01 0.  0.
         12    1    3    3    0    0  0.34784810711E+02  0.80294224319E+00  0.28609192438E+02  0.45045684193E+02  0.00000000000E+00 0. -1.
         11    1    4    4    0    0 -0.43120157730E+01  0.23826240223E+01 -0.69786002530E+01  0.85423204699E+01  0.51100000000E-03 0. -1.
        -11    1    4    4    0    0 -0.15900001987E+02 -0.59267645959E+00 -0.12191118457E+02  0.20044567794E+02  0.51100000000E-03 0.  1.
         12    1    4    4    0    0 -0.14572792952E+02 -0.25928898059E+01 -0.94394737276E+01  0.17555427543E+02  0.00000000000E+00 0. -1.
</event>
<event>
 8    1  0.2962813E-009  0.9118800E+02  0.7816164E-02  0.1184000E+00
        -11   -1    0    0    0    0  0.00000000000E+00  0.00000000000E+00  0.45593999997E+02  0.45594000000E+02  0.51100000000E-03 0. -1.
         11   -1    0    0    0    0 -0.00000000000E+00 -0.00000000000E+00 -0.45593999997E+02  0.45594000000E+02  0.51100000000E-03 0.  1.
         23    2    1    2    0    0  0.00000000000E+00 -0.35527136788E-14  0.00000000000E+00  0.91188000000E+02  0.91188000000E+02 0.  0.
    9900012    2    3    3    0    0 -0.12756153324E+02  0.26063928979E+02  0.34453818309E+02  0.46142318326E+02  0.10000005149E+02 0.  0.
        -12    1    3    3    0    0  0.12756153324E+02 -0.26063928979E+02 -0.34453818309E+02  0.45045681674E+02  0.00000000000E+00 0.  1.
         11    1    4    4    0    0 -0.25496998813E+01  0.43277933179E+00  0.40388676240E+01  0.47959065233E+01  0.51100000000E-03 0. -1.
        -11    1    4    4    0    0 -0.81112628090E+01  0.21101424666E+02  0.27374154542E+02  0.35502211825E+02  0.51100000000E-03 0.  1.
         12    1    4    4    0    0 -0.20951906341E+01  0.45297249812E+01  0.30407961423E+01  0.58441999775E+01  0.00000000000E+00 0. -1.
</event>
<event>
 8    1  0.2962813E-009  0.9118800E+02  0.7816164E-02  0.1184000E+00
        -11   -1    0    0    0    0  0.00000000000E+00  0.00000000000E+00  0.45593999997E+02  0.45594000000E+02  0.51100000000E-03 0. -1.
         11   -1    0    0    0    0 -0.00000000000E+00 -0.00000000000E+00 -0.45593999997E+02  0.45594000000E+02  0.51100000000E-03 0.  1.
         23    2    1    2    0    0 -0.35527136788E-14  0.00000000000E+00  0.35527136788E-14  0.91188000000E+02  0.91188000000E+02 0.  0.
    9900012    2    3    3    0    0 -0.20819838220E+02  0.36223556397E+02 -0.16837515534E+02  0.46142316179E+02  0.99999855750E+01 0.  0.
         12    1    3    3    0    0  0.20819838220E+02 -0.36223556397E+02  0.16837515534E+02  0.45045683821E+02  0.00000000000E+00 0. -1.
         11    1    4    4    0    0 -0.74090010413E+01  0.83471312803E+01 -0.61195916247E+01  0.12728601610E+02  0.51100000000E-03 0. -1.
        -11    1    4    4    0    0 -0.96378123927E+01  0.20702215347E+02 -0.10904563459E+02  0.25305703951E+02  0.51100000000E-03 0.  1.
        -12    1    4    4    0    0 -0.37730247856E+01  0.71742097701E+01  0.18663954949E+00  0.81080106179E+01  0.00000000000E+00 0.  1.
</event>
<event>
 8    1  0.2962813E-009  0.9118800E+02  0.7816164E-02  0.1184000E+00
        -11   -1    0    0    0    0  0.00000000000E+00  0.00000000000E+00  0.45593999997E+02  0.45594000000E+02  0.51100000000E-03 0. -1.
         11   -1    0    0    0    0 -0.00000000000E+00 -0.00000000000E+00 -0.45593999997E+02  0.45594000000E+02  0.51100000000E-03 0.  1.
         23    2    1    2    0    0  0.00000000000E+00  0.00000000000E+00  0.00000000000E+00  0.91188000000E+02  0.91188000000E+02 0.  0.
    9900012    2    3    3    0    0  0.25756199569E+02 -0.12244851090E+02 -0.34868255372E+02  0.46142318440E+02  0.10000006194E+02 0.  0.
         12    1    3    3    0    0 -0.25756199569E+02  0.12244851090E+02  0.34868255372E+02  0.45045681560E+02  0.00000000000E+00 0. -1.
         11    1    4    4    0    0  0.10553279147E+02 -0.47864454981E+01 -0.19202006612E+02  0.22427635173E+02  0.51100000000E-03 0. -1.
        -11    1    4    4    0    0  0.11462163056E+02 -0.74655046130E+01 -0.10080738917E+02  0.16992240536E+02  0.51100000000E-03 0.  1.
        -12    1    4    4    0    0  0.37407573664E+01  0.70990213843E-02 -0.55855098434E+01  0.67224427318E+01  0.00000000000E+00 0.  1.
</event>
<event>
 8    1  0.2962813E-009  0.9118800E+02  0.7816164E-02  0.1184000E+00
        -11   -1    0    0    0    0  0.00000000000E+00  0.00000000000E+00  0.45593999997E+02  0.45594000000E+02  0.51100000000E-03 0. -1.
         11   -1    0    0    0    0 -0.00000000000E+00 -0.00000000000E+00 -0.45593999997E+02  0.45594000000E+02  0.51100000000E-03 0.  1.
         23    2    1    2    0    0  0.00000000000E+00  0.00000000000E+00  0.00000000000E+00  0.91188000000E+02  0.91188000000E+02 0.  0.
    9900012    2    3    3    0    0 -0.26259419364E+02  0.54129886602E+01  0.36197456792E+02  0.46142318412E+02  0.10000005931E+02 0.  0.
        -12    1    3    3    0    0  0.26259419364E+02 -0.54129886602E+01 -0.36197456792E+02  0.45045681588E+02  0.00000000000E+00 0.  1.
         11    1    4    4    0    0 -0.13898493857E+02  0.69326688965E+00  0.23270006932E+02  0.27113501680E+02  0.51100000000E-03 0. -1.
        -11    1    4    4    0    0 -0.80799280460E+00 -0.45576909144E+00 -0.10603825333E-01  0.92773408865E+00  0.51100000000E-03 0.  1.
         12    1    4    4    0    0 -0.11552932702E+02  0.51754908620E+01  0.12938053686E+02  0.18101082643E+02  0.00000000000E+00 0. -1.
</event>
<event>
 8    1  0.2962813E-009  0.9118800E+02  0.7816164E-02  0.1184000E+00
        -11   -1    0    0    0    0  0.00000000000E+00  0.00000000000E+00  0.45593999997E+02  0.45594000000E+02  0.51100000000E-03 0. -1.
         11   -1    0    0    0    0 -0.00000000000E+00 -0.00000000000E+00 -0.45593999997E+02  0.45594000000E+02  0.51100000000E-03 0.  1.
         23    2    1    2    0    0 -0.88817841970E-15 -0.17763568394E-14 -0.71054273576E-14  0.91188000000E+02  0.91188000000E+02 0.  0.
    9900012    2    3    3    0    0  0.56058425285E+01  0.13237219741E+02  0.42690327444E+02  0.46142317474E+02  0.99999973823E+01 0.  0.
        -12    1    3    3    0    0 -0.56058425285E+01 -0.13237219741E+02 -0.42690327444E+02  0.45045682526E+02  0.00000000000E+00 0.  1.
         11    1    4    4    0    0  0.40989970373E+01  0.11950889622E+02  0.24061558352E+02  0.27176904351E+02  0.51100000000E-03 0. -1.
        -11    1    4    4    0    0  0.13898871491E+01  0.20700795621E+01  0.16619990558E+02  0.16805984115E+02  0.51100000000E-03 0.  1.
         12    1    4    4    0    0  0.11695834212E+00 -0.78374944279E+00  0.20087785339E+01  0.21594290081E+01  0.00000000000E+00 0. -1.
</event>
<event>
 8    1  0.2962813E-009  0.9118800E+02  0.7816164E-02  0.1184000E+00
        -11   -1    0    0    0    0  0.00000000000E+00  0.00000000000E+00  0.45593999997E+02  0.45594000000E+02  0.51100000000E-03 0. -1.
         11   -1    0    0    0    0 -0.00000000000E+00 -0.00000000000E+00 -0.45593999997E+02  0.45594000000E+02  0.51100000000E-03 0.  1.
         23    2    1    2    0    0  0.00000000000E+00  0.88817841970E-15  0.00000000000E+00  0.91188000000E+02  0.91188000000E+02 0.  0.
    9900012    2    3    3    0    0  0.23827088083E+02  0.71727748133E+01 -0.37549095933E+02  0.46142318405E+02  0.10000005868E+02 0.  0.
         12    1    3    3    0    0 -0.23827088083E+02 -0.71727748133E+01  0.37549095933E+02  0.45045681595E+02  0.00000000000E+00 0. -1.
         11    1    4    4    0    0  0.71344279490E+01 -0.12672143355E+01 -0.12286842137E+02  0.14264374655E+02  0.51100000000E-03 0.  1.
        -11    1    4    4    0    0  0.34616046304E+01  0.40452039882E+00 -0.22666062277E+01  0.41573846854E+01  0.51100000000E-03 0. -1.
         12    1    4    4    0    0  0.13231055503E+02  0.80354687500E+01 -0.22995647568E+02  0.27720559064E+02  0.00000000000E+00 0. -1.
</event>
<event>
 8    1  0.2962813E-009  0.9118800E+02  0.7816164E-02  0.1184000E+00
        -11   -1    0    0    0    0  0.00000000000E+00  0.00000000000E+00  0.45593999997E+02  0.45594000000E+02  0.51100000000E-03 0. -1.
         11   -1    0    0    0    0 -0.00000000000E+00 -0.00000000000E+00 -0.45593999997E+02  0.45594000000E+02  0.51100000000E-03 0.  1.
         23    2    1    2    0    0  0.35527136788E-14  0.00000000000E+00  0.00000000000E+00  0.91188000000E+02  0.91188000000E+02 0.  0.
    9900012    2    3    3    0    0 -0.30282292116E+02  0.19081343622E+02 -0.27349564223E+02  0.46142317039E+02  0.99999934198E+01 0.  0.
         12    1    3    3    0    0  0.30282292116E+02 -0.19081343622E+02  0.27349564223E+02  0.45045682961E+02  0.00000000000E+00 0. -1.
         11    1    4    4    0    0 -0.30922467380E+01  0.54519292196E+01 -0.23396327641E+01  0.66902469189E+01  0.51100000000E-03 0. -1.
        -11    1    4    4    0    0 -0.54743566620E+01  0.35385953200E+01 -0.44691716201E+01  0.79034000869E+01  0.51100000000E-03 0.  1.
         12    1    4    4    0    0 -0.21715688716E+02  0.10090819082E+02 -0.20540759838E+02  0.31548670034E+02  0.00000000000E+00 0. -1.
</event>
<event>
 8    1  0.2962813E-009  0.9118800E+02  0.7816164E-02  0.1184000E+00
        -11   -1    0    0    0    0  0.00000000000E+00  0.00000000000E+00  0.45593999997E+02  0.45594000000E+02  0.51100000000E-03 0. -1.
         11   -1    0    0    0    0 -0.00000000000E+00 -0.00000000000E+00 -0.45593999997E+02  0.45594000000E+02  0.51100000000E-03 0.  1.
         23    2    1    2    0    0  0.88817841970E-15  0.00000000000E+00  0.00000000000E+00  0.91188000000E+02  0.91188000000E+02 0.  0.
    9900012    2    3    3    0    0  0.77326575504E+01 -0.40277712928E+02  0.18628613655E+02  0.46142318762E+02  0.10000009129E+02 0.  0.
        -12    1    3    3    0    0 -0.77326575504E+01  0.40277712928E+02 -0.18628613655E+02  0.45045681238E+02  0.00000000000E+00 0.  1.
         11    1    4    4    0    0  0.93996146017E+00 -0.22880286714E+02  0.12540333804E+02  0.26108447289E+02  0.51100000000E-03 0. -1.
        -11    1    4    4    0    0 -0.17561807892E+00 -0.36830761936E+01  0.85665655786E+00  0.37854659788E+01  0.51100000000E-03 0.  1.
         12    1    4    4    0    0  0.69683141692E+01 -0.13714350020E+02  0.52316232930E+01  0.16248405495E+02  0.00000000000E+00 0. -1.
</event>
<event>
 8    1  0.2962813E-009  0.9118800E+02  0.7816164E-02  0.1184000E+00
        -11   -1    0    0    0    0  0.00000000000E+00  0.00000000000E+00  0.45593999997E+02  0.45594000000E+02  0.51100000000E-03 0. -1.
         11   -1    0    0    0    0 -0.00000000000E+00 -0.00000000000E+00 -0.45593999997E+02  0.45594000000E+02  0.51100000000E-03 0.  1.
         23    2    1    2    0    0 -0.35527136788E-14  0.00000000000E+00  0.00000000000E+00  0.91188000000E+02  0.91188000000E+02 0.  0.
    9900012    2    3    3    0    0  0.27638055870E+02 -0.12747389943E+02 -0.33207758007E+02  0.46142320135E+02  0.10000021645E+02 0.  0.
         12    1    3    3    0    0 -0.27638055870E+02  0.12747389943E+02  0.33207758007E+02  0.45045679865E+02  0.00000000000E+00 0. -1.
         11    1    4    4    0    0  0.11131167195E+02 -0.35667733707E+01 -0.13918922982E+02  0.18175840356E+02  0.51100000000E-03 0.  1.
        -11    1    4    4    0    0  0.15708743007E+02 -0.92642924978E+01 -0.15029296893E+02  0.23632001348E+02  0.51100000000E-03 0. -1.
        -12    1    4    4    0    0  0.79814566760E+00  0.83675925677E-01 -0.42595381317E+01  0.43344784303E+01  0.00000000000E+00 0.  1.
</event>
<event>
 8    1  0.2962813E-009  0.9118800E+02  0.7816164E-02  0.1184000E+00
        -11   -1    0    0    0    0  0.00000000000E+00  0.00000000000E+00  0.45593999997E+02  0.45594000000E+02  0.51100000000E-03 0.  1.
         11   -1    0    0    0    0 -0.00000000000E+00 -0.00000000000E+00 -0.45593999997E+02  0.45594000000E+02  0.51100000000E-03 0. -1.
         23    2    1    2    0    0  0.00000000000E+00  0.00000000000E+00  0.00000000000E+00  0.91188000000E+02  0.91188000000E+02 0.  0.
    9900012    2    3    3    0    0 -0.41180338209E+02 -0.67618767476E+01 -0.16957896646E+02  0.46142317734E+02  0.99999997541E+01 0.  0.
         12    1    3    3    0    0  0.41180338209E+02  0.67618767476E+01  0.16957896646E+02  0.45045682266E+02  0.00000000000E+00 0. -1.
         11    1    4    4    0    0 -0.33638025641E+01  0.12602325223E+01 -0.16083561948E+01  0.39357545160E+01  0.51100000000E-03 0. -1.
        -11    1    4    4    0    0 -0.21940155720E+02 -0.11233324020E+01 -0.76730266261E+01  0.23270316856E+02  0.51100000000E-03 0.  1.
        -12    1    4    4    0    0 -0.15876379925E+02 -0.68987768679E+01 -0.76765138246E+01  0.18936246362E+02  0.00000000000E+00 0.  1.
</event>
<event>
 8    1  0.3066289E-009  0.9118800E+02  0.7816164E-02  0.1184000E+00
        -11   -1    0    0    0    0  0.00000000000E+00  0.00000000000E+00  0.45593999997E+02  0.45594000000E+02  0.51100000000E-03 0. -1.
         11   -1    0    0    0    0 -0.00000000000E+00 -0.00000000000E+00 -0.45593999997E+02  0.45594000000E+02  0.51100000000E-03 0.  1.
         23    2    1    2    0    0 -0.35527136788E-14  0.00000000000E+00  0.71054273576E-14  0.91188000000E+02  0.91188000000E+02 0.  0.
    9900012    2    3    3    0    0  0.19702303091E+02 -0.20899970910E+01 -0.40454477302E+02  0.46142316870E+02  0.99999918702E+01 0.  0.
         12    1    3    3    0    0 -0.19702303091E+02  0.20899970910E+01  0.40454477302E+02  0.45045683130E+02  0.00000000000E+00 0. -1.
         11    1    4    4    0    0  0.13967165027E+02 -0.25464227396E+01 -0.30585432564E+02  0.33719944440E+02  0.51100000000E-03 0. -1.
        -11    1    4    4    0    0  0.57567939986E+01 -0.88468230162E+00 -0.92824427422E+01  0.10958425226E+02  0.51100000000E-03 0.  1.
         12    1    4    4    0    0 -0.21655933671E-01  0.13411079502E+01 -0.58660199571E+00  0.14639472036E+01  0.00000000000E+00 0. -1.
</event>
<event>
 8    1  0.2962813E-009  0.9118800E+02  0.7816164E-02  0.1184000E+00
        -11   -1    0    0    0    0  0.00000000000E+00  0.00000000000E+00  0.45593999997E+02  0.45594000000E+02  0.51100000000E-03 0. -1.
         11   -1    0    0    0    0 -0.00000000000E+00 -0.00000000000E+00 -0.45593999997E+02  0.45594000000E+02  0.51100000000E-03 0.  1.
         23    2    1    2    0    0 -0.71054273576E-14  0.00000000000E+00 -0.71054273576E-14  0.91188000000E+02  0.91188000000E+02 0.  0.
    9900012    2    3    3    0    0 -0.29718071990E+02  0.40007443120E+01 -0.33614644856E+02  0.46142310898E+02  0.99999374204E+01 0.  0.
         12    1    3    3    0    0  0.29718071990E+02 -0.40007443120E+01  0.33614644856E+02  0.45045689102E+02  0.00000000000E+00 0. -1.
         11    1    4    4    0    0  0.20174594448E+00  0.60843045544E-01 -0.14572974658E+01  0.14724535535E+01  0.51100000000E-03 0. -1.
        -11    1    4    4    0    0 -0.23392338230E+02  0.41379633414E+01 -0.28780032477E+02  0.37317750443E+02  0.51100000000E-03 0.  1.
        -12    1    4    4    0    0 -0.65274797039E+01 -0.19806207499E+00 -0.33773149129E+01  0.73521069016E+01  0.00000000000E+00 0.  1.
</event>
<event>
 8    1  0.2962813E-009  0.9118800E+02  0.7816164E-02  0.1184000E+00
        -11   -1    0    0    0    0  0.00000000000E+00  0.00000000000E+00  0.45593999997E+02  0.45594000000E+02  0.51100000000E-03 0.  1.
         11   -1    0    0    0    0 -0.00000000000E+00 -0.00000000000E+00 -0.45593999997E+02  0.45594000000E+02  0.51100000000E-03 0. -1.
         23    2    1    2    0    0  0.17763568394E-14  0.00000000000E+00  0.00000000000E+00  0.91188000000E+02  0.91188000000E+02 0.  0.
    9900012    2    3    3    0    0 -0.10581188776E+02 -0.42804015119E+02  0.92178280553E+01  0.46142316297E+02  0.99999866449E+01 0.  0.
        -12    1    3    3    0    0  0.10581188776E+02  0.42804015119E+02 -0.92178280553E+01  0.45045683703E+02  0.00000000000E+00 0.  1.
         11    1    4    4    0    0  0.64577010956E+00 -0.11815017500E+02  0.44689762525E+01  0.12648454710E+02  0.51100000000E-03 0. -1.
        -11    1    4    4    0    0 -0.11042427360E+02 -0.28650602370E+02  0.50885923008E+01  0.31123720697E+02  0.51100000000E-03 0.  1.
         12    1    4    4    0    0 -0.18453152503E+00 -0.23383952502E+01 -0.33974049801E+00  0.23701408895E+01  0.00000000000E+00 0. -1.
</event>
<event>
 8    1  0.2962813E-009  0.9118800E+02  0.7816164E-02  0.1184000E+00
        -11   -1    0    0    0    0  0.00000000000E+00  0.00000000000E+00  0.45593999997E+02  0.45594000000E+02  0.51100000000E-03 0. -1.
         11   -1    0    0    0    0 -0.00000000000E+00 -0.00000000000E+00 -0.45593999997E+02  0.45594000000E+02  0.51100000000E-03 0.  1.
         23    2    1    2    0    0  0.35527136788E-14 -0.17763568394E-14  0.71054273576E-14  0.91188000000E+02  0.91188000000E+02 0.  0.
    9900012    2    3    3    0    0  0.27730332842E+02 -0.11096144978E+02  0.33719692514E+02  0.46142318119E+02  0.10000003262E+02 0.  0.
        -12    1    3    3    0    0 -0.27730332842E+02  0.11096144978E+02 -0.33719692514E+02  0.45045681881E+02  0.00000000000E+00 0.  1.
         11    1    4    4    0    0  0.10134184270E+02 -0.84972824717E+01  0.15548180922E+02  0.20412041310E+02  0.51100000000E-03 0. -1.
        -11    1    4    4    0    0  0.13373325673E+02 -0.22171861389E+01  0.11262719362E+02  0.17624148253E+02  0.51100000000E-03 0.  1.
        -12    1    4    4    0    0  0.42228228980E+01 -0.38167636749E+00  0.69087922305E+01  0.81061285557E+01  0.00000000000E+00 0.  1.
</event>
<event>
 8    1  0.2962813E-009  0.9118800E+02  0.7816164E-02  0.1184000E+00
        -11   -1    0    0    0    0  0.00000000000E+00  0.00000000000E+00  0.45593999997E+02  0.45594000000E+02  0.51100000000E-03 0. -1.
         11   -1    0    0    0    0 -0.00000000000E+00 -0.00000000000E+00 -0.45593999997E+02  0.45594000000E+02  0.51100000000E-03 0.  1.
         23    2    1    2    0    0  0.00000000000E+00  0.17763568394E-14  0.00000000000E+00  0.91188000000E+02  0.91188000000E+02 0.  0.
    9900012    2    3    3    0    0 -0.36545429323E+02 -0.75934664373E+01  0.25216746858E+02  0.46142318087E+02  0.10000002969E+02 0.  0.
        -12    1    3    3    0    0  0.36545429323E+02  0.75934664373E+01 -0.25216746858E+02  0.45045681913E+02  0.00000000000E+00 0.  1.
         11    1    4    4    0    0 -0.17268933618E+02 -0.50093809500E+01  0.12987743392E+02  0.22180880155E+02  0.51100000000E-03 0. -1.
        -11    1    4    4    0    0 -0.10654879193E+02 -0.43896291023E+01  0.88381572037E+01  0.14522682855E+02  0.51100000000E-03 0.  1.
        -12    1    4    4    0    0 -0.86216165116E+01  0.18055436150E+01  0.33908462629E+01  0.94387550767E+01  0.00000000000E+00 0.  1.
</event>
<event>
 8    1  0.2962813E-009  0.9118800E+02  0.7816164E-02  0.1184000E+00
        -11   -1    0    0    0    0  0.00000000000E+00  0.00000000000E+00  0.45593999997E+02  0.45594000000E+02  0.51100000000E-03 0. -1.
         11   -1    0    0    0    0 -0.00000000000E+00 -0.00000000000E+00 -0.45593999997E+02  0.45594000000E+02  0.51100000000E-03 0.  1.
         23    2    1    2    0    0  0.00000000000E+00  0.00000000000E+00  0.71054273576E-14  0.91188000000E+02  0.91188000000E+02 0.  0.
    9900012    2    3    3    0    0 -0.36806524925E+02 -0.13943112555E+02  0.21908497324E+02  0.46142324073E+02  0.10000057555E+02 0.  0.
        -12    1    3    3    0    0  0.36806524925E+02  0.13943112555E+02 -0.21908497324E+02  0.45045675927E+02  0.00000000000E+00 0.  1.
         11    1    4    4    0    0 -0.18736129818E+02 -0.10901366684E+02  0.13426932331E+02  0.25498330695E+02  0.51100000000E-03 0. -1.
        -11    1    4    4    0    0 -0.14694776329E+02 -0.23715468325E+01  0.48847415875E+01  0.15665930753E+02  0.51100000000E-03 0.  1.
        -12    1    4    4    0    0 -0.33756187782E+01 -0.67019903820E+00  0.35968234055E+01  0.49780626248E+01  0.00000000000E+00 0.  1.
</event>
<event>
 8    1  0.2962813E-009  0.9118800E+02  0.7816164E-02  0.1184000E+00
        -11   -1    0    0    0    0  0.00000000000E+00  0.00000000000E+00  0.45593999997E+02  0.45594000000E+02  0.51100000000E-03 0. -1.
         11   -1    0    0    0    0 -0.00000000000E+00 -0.00000000000E+00 -0.45593999997E+02  0.45594000000E+02  0.51100000000E-03 0.  1.
         23    2    1    2    0    0  0.71054273576E-14 -0.35527136788E-14 -0.35527136788E-14  0.91188000000E+02  0.91188000000E+02 0.  0.
    9900012    2    3    3    0    0 -0.36251988240E+02  0.20767399141E+02  0.16841079179E+02  0.46142318005E+02  0.10000002222E+02 0.  0.
        -12    1    3    3    0    0  0.36251988240E+02 -0.20767399141E+02 -0.16841079179E+02  0.45045681995E+02  0.00000000000E+00 0.  1.
         11    1    4    4    0    0 -0.22310345726E+01  0.20400790019E+01  0.33533437646E+01  0.45149033503E+01  0.51100000000E-03 0. -1.
        -11    1    4    4    0    0 -0.31343528867E+02  0.15430621176E+02  0.10663579660E+02  0.36527151588E+02  0.51100000000E-03 0.  1.
        -12    1    4    4    0    0 -0.26774248008E+01  0.32966989634E+01  0.28241557544E+01  0.51002630662E+01  0.00000000000E+00 0.  1.
</event>
<event>
 8    1  0.2962813E-009  0.9118800E+02  0.7816164E-02  0.1184000E+00
        -11   -1    0    0    0    0  0.00000000000E+00  0.00000000000E+00  0.45593999997E+02  0.45594000000E+02  0.51100000000E-03 0.  1.
         11   -1    0    0    0    0 -0.00000000000E+00 -0.00000000000E+00 -0.45593999997E+02  0.45594000000E+02  0.51100000000E-03 0. -1.
         23    2    1    2    0    0  0.00000000000E+00  0.35527136788E-14  0.00000000000E+00  0.91188000000E+02  0.91188000000E+02 0.  0.
    9900012    2    3    3    0    0 -0.24066250787E+02  0.31054248487E+02  0.22035485277E+02  0.46142318882E+02  0.10000010217E+02 0.  0.
        -12    1    3    3    0    0  0.24066250787E+02 -0.31054248487E+02 -0.22035485277E+02  0.45045681118E+02  0.00000000000E+00 0.  1.
         11    1    4    4    0    0 -0.11576602224E+02  0.14117730452E+02  0.56185728222E+01  0.19102261462E+02  0.51100000000E-03 0. -1.
        -11    1    4    4    0    0 -0.13824035830E+01  0.29116896113E+01  0.45337255041E+01  0.55627010765E+01  0.51100000000E-03 0.  1.
         12    1    4    4    0    0 -0.11107244981E+02  0.14024828424E+02  0.11883186950E+02  0.21477356343E+02  0.00000000000E+00 0. -1.
</event>
<event>
 8    1  0.2962813E-009  0.9118800E+02  0.7816164E-02  0.1184000E+00
        -11   -1    0    0    0    0  0.00000000000E+00  0.00000000000E+00  0.45593999997E+02  0.45594000000E+02  0.51100000000E-03 0. -1.
         11   -1    0    0    0    0 -0.00000000000E+00 -0.00000000000E+00 -0.45593999997E+02  0.45594000000E+02  0.51100000000E-03 0.  1.
         23    2    1    2    0    0  0.88817841970E-15 -0.17763568394E-14  0.71054273576E-14  0.91188000000E+02  0.91188000000E+02 0.  0.
    9900012    2    3    3    0    0 -0.31381898263E+01  0.13881027371E+02 -0.42738534373E+02  0.46142317891E+02  0.10000001188E+02 0.  0.
         12    1    3    3    0    0  0.31381898263E+01 -0.13881027371E+02  0.42738534373E+02  0.45045682109E+02  0.00000000000E+00 0. -1.
         11    1    4    4    0    0 -0.34018582995E+01  0.15816771785E+01 -0.50043106919E+01  0.62543959220E+01  0.51100000000E-03 0. -1.
        -11    1    4    4    0    0 -0.46315857383E+00  0.16936212030E+01 -0.10620701772E+02  0.10764858338E+02  0.51100000000E-03 0.  1.
         12    1    4    4    0    0  0.72682704695E+00  0.10605728990E+02 -0.27113521909E+02  0.29123063631E+02  0.00000000000E+00 0. -1.
</event>
<event>
 8    1  0.2962813E-009  0.9118800E+02  0.7816164E-02  0.1184000E+00
        -11   -1    0    0    0    0  0.00000000000E+00  0.00000000000E+00  0.45593999997E+02  0.45594000000E+02  0.51100000000E-03 0. -1.
         11   -1    0    0    0    0 -0.00000000000E+00 -0.00000000000E+00 -0.45593999997E+02  0.45594000000E+02  0.51100000000E-03 0.  1.
         23    2    1    2    0    0 -0.16653345369E-15  0.00000000000E+00  0.00000000000E+00  0.91188000000E+02  0.91188000000E+02 0.  0.
    9900012    2    3    3    0    0 -0.26649909340E+00  0.25884280735E+02  0.36865244695E+02  0.46142320103E+02  0.10000021357E+02 0.  0.
        -12    1    3    3    0    0  0.26649909340E+00 -0.25884280735E+02 -0.36865244695E+02  0.45045679897E+02  0.00000000000E+00 0.  1.
         11    1    4    4    0    0  0.29045486389E+01  0.13901932228E+02  0.13676076007E+02  0.19716368268E+02  0.51100000000E-03 0. -1.
        -11    1    4    4    0    0 -0.14497781266E+01  0.96256644283E+01  0.17195781047E+02  0.19759811699E+02  0.51100000000E-03 0.  1.
         12    1    4    4    0    0 -0.17212696057E+01  0.23566840790E+01  0.59933876408E+01  0.66661401363E+01  0.00000000000E+00 0. -1.
</event>
<event>
 8    1  0.2962813E-009  0.9118800E+02  0.7816164E-02  0.1184000E+00
        -11   -1    0    0    0    0  0.00000000000E+00  0.00000000000E+00  0.45593999997E+02  0.45594000000E+02  0.51100000000E-03 0. -1.
         11   -1    0    0    0    0 -0.00000000000E+00 -0.00000000000E+00 -0.45593999997E+02  0.45594000000E+02  0.51100000000E-03 0.  1.
         23    2    1    2    0    0  0.00000000000E+00  0.88817841970E-15 -0.35527136788E-14  0.91188000000E+02  0.91188000000E+02 0.  0.
    9900012    2    3    3    0    0 -0.37369204974E+02  0.56616365286E+01 -0.24507179838E+02  0.46142317940E+02  0.10000001634E+02 0.  0.
         12    1    3    3    0    0  0.37369204974E+02 -0.56616365286E+01  0.24507179838E+02  0.45045682060E+02  0.00000000000E+00 0. -1.
         11    1    4    4    0    0 -0.13850445130E+02  0.48991799987E+00 -0.61139630511E+01  0.15147785132E+02  0.51100000000E-03 0. -1.
        -11    1    4    4    0    0 -0.64285347059E+01  0.37196041497E+01 -0.81069813386E+01  0.10994756031E+02  0.51100000000E-03 0.  1.
        -12    1    4    4    0    0 -0.17090225138E+02  0.14521143790E+01 -0.10286235449E+02  0.19999776777E+02  0.00000000000E+00 0.  1.
</event>
<event>
 8    1  0.2962813E-009  0.9118800E+02  0.7816164E-02  0.1184000E+00
        -11   -1    0    0    0    0  0.00000000000E+00  0.00000000000E+00  0.45593999997E+02  0.45594000000E+02  0.51100000000E-03 0. -1.
         11   -1    0    0    0    0 -0.00000000000E+00 -0.00000000000E+00 -0.45593999997E+02  0.45594000000E+02  0.51100000000E-03 0.  1.
         23    2    1    2    0    0  0.00000000000E+00  0.00000000000E+00  0.00000000000E+00  0.91188000000E+02  0.91188000000E+02 0.  0.
    9900012    2    3    3    0    0  0.12099669093E+02 -0.16092008945E+02 -0.40295890289E+02  0.46142317429E+02  0.99999969742E+01 0.  0.
         12    1    3    3    0    0 -0.12099669093E+02  0.16092008945E+02  0.40295890289E+02  0.45045682571E+02  0.00000000000E+00 0. -1.
         11    1    4    4    0    0  0.57602196892E+01 -0.10779368247E+02 -0.14788136106E+02  0.19184991020E+02  0.51100000000E-03 0.  1.
        -11    1    4    4    0    0  0.47074635833E+01 -0.28735884547E+01 -0.13226681494E+02  0.14330485951E+02  0.51100000000E-03 0. -1.
         12    1    4    4    0    0  0.16319858205E+01 -0.24390522438E+01 -0.12281072689E+02  0.12626840458E+02  0.00000000000E+00 0. -1.
</event>
<event>
 8    1  0.2962813E-009  0.9118800E+02  0.7816164E-02  0.1184000E+00
        -11   -1    0    0    0    0  0.00000000000E+00  0.00000000000E+00  0.45593999997E+02  0.45594000000E+02  0.51100000000E-03 0. -1.
         11   -1    0    0    0    0 -0.00000000000E+00 -0.00000000000E+00 -0.45593999997E+02  0.45594000000E+02  0.51100000000E-03 0.  1.
         23    2    1    2    0    0  0.00000000000E+00  0.00000000000E+00  0.35527136788E-14  0.91188000000E+02  0.91188000000E+02 0.  0.
    9900012    2    3    3    0    0  0.24611659844E+02 -0.20397729445E+02 -0.31738184454E+02  0.46142317419E+02  0.99999968794E+01 0.  0.
         12    1    3    3    0    0 -0.24611659844E+02  0.20397729445E+02  0.31738184454E+02  0.45045682581E+02  0.00000000000E+00 0. -1.
         11    1    4    4    0    0  0.12148423193E+01 -0.49127873294E+01 -0.30755574187E+01  0.59220245610E+01  0.51100000000E-03 0. -1.
        -11    1    4    4    0    0  0.13891402292E+02 -0.84922181352E+01 -0.14666110055E+02  0.21913092226E+02  0.51100000000E-03 0.  1.
        -12    1    4    4    0    0  0.95054152328E+01 -0.69927239807E+01 -0.13996516980E+02  0.18307200632E+02  0.00000000000E+00 0.  1.
</event>
<event>
 8    1  0.3299901E-009  0.9118800E+02  0.7816164E-02  0.1184000E+00
        -11   -1    0    0    0    0  0.00000000000E+00  0.00000000000E+00  0.45593999997E+02  0.45594000000E+02  0.51100000000E-03 0. -1.
         11   -1    0    0    0    0 -0.00000000000E+00 -0.00000000000E+00 -0.45593999997E+02  0.45594000000E+02  0.51100000000E-03 0.  1.
         23    2    1    2    0    0  0.11102230246E-15  0.00000000000E+00  0.00000000000E+00  0.91188000000E+02  0.91188000000E+02 0.  0.
    9900012    2    3    3    0    0  0.60391173297E+00  0.90719624943E+01 -0.44118571150E+02  0.46142317264E+02  0.99999954666E+01 0.  0.
         12    1    3    3    0    0 -0.60391173297E+00 -0.90719624943E+01  0.44118571150E+02  0.45045682736E+02  0.00000000000E+00 0. -1.
         11    1    4    4    0    0  0.23119612448E+01  0.97933596143E+00 -0.25502738740E+01  0.35788490910E+01  0.51100000000E-03 0. -1.
        -11    1    4    4    0    0  0.11118065357E+01  0.40481753936E+01 -0.17666004248E+02  0.18157960903E+02  0.51100000000E-03 0.  1.
         12    1    4    4    0    0 -0.28198560475E+01  0.40444511393E+01 -0.23902293027E+02  0.24405507270E+02  0.00000000000E+00 0. -1.
</event>
<event>
 8    1  0.2962813E-009  0.9118800E+02  0.7816164E-02  0.1184000E+00
        -11   -1    0    0    0    0  0.00000000000E+00  0.00000000000E+00  0.45593999997E+02  0.45594000000E+02  0.51100000000E-03 0. -1.
         11   -1    0    0    0    0 -0.00000000000E+00 -0.00000000000E+00 -0.45593999997E+02  0.45594000000E+02  0.51100000000E-03 0.  1.
         23    2    1    2    0    0  0.17763568394E-14  0.88817841970E-15  0.00000000000E+00  0.91188000000E+02  0.91188000000E+02 0.  0.
    9900012    2    3    3    0    0  0.15752132111E+02  0.79291871566E+01  0.41450110623E+02  0.46142319345E+02  0.10000014442E+02 0.  0.
        -12    1    3    3    0    0 -0.15752132111E+02 -0.79291871566E+01 -0.41450110623E+02  0.45045680655E+02  0.00000000000E+00 0.  1.
         11    1    4    4    0    0  0.11228417785E+01  0.14832822663E+01  0.90747126022E+01  0.92634393728E+01  0.51100000000E-03 0. -1.
        -11    1    4    4    0    0  0.10351387587E+02  0.29046066358E+01  0.27357355216E+02  0.29394095485E+02  0.51100000000E-03 0.  1.
        -12    1    4    4    0    0  0.42779027456E+01  0.35412982544E+01  0.50180428046E+01  0.74847844870E+01  0.00000000000E+00 0.  1.
</event>
<event>
 8    1  0.2962813E-009  0.9118800E+02  0.7816164E-02  0.1184000E+00
        -11   -1    0    0    0    0  0.00000000000E+00  0.00000000000E+00  0.45593999997E+02  0.45594000000E+02  0.51100000000E-03 0. -1.
         11   -1    0    0    0    0 -0.00000000000E+00 -0.00000000000E+00 -0.45593999997E+02  0.45594000000E+02  0.51100000000E-03 0.  1.
         23    2    1    2    0    0  0.00000000000E+00  0.00000000000E+00 -0.35527136788E-14  0.91188000000E+02  0.91188000000E+02 0.  0.
    9900012    2    3    3    0    0  0.32913053991E+02  0.80795129105E+01  0.29674329180E+02  0.46142318030E+02  0.10000002451E+02 0.  0.
        -12    1    3    3    0    0 -0.32913053991E+02 -0.80795129105E+01 -0.29674329180E+02  0.45045681970E+02  0.00000000000E+00 0.  1.
         11    1    4    4    0    0  0.17060153731E+02  0.12813498593E+01  0.11911619527E+02  0.20846519681E+02  0.51100000000E-03 0.  1.
        -11    1    4    4    0    0  0.79029727077E+01  0.27018800622E+01  0.12127456565E+02  0.14725227892E+02  0.51100000000E-03 0. -1.
         12    1    4    4    0    0  0.79499275518E+01  0.40962829890E+01  0.56352530877E+01  0.10570570456E+02  0.00000000000E+00 0. -1.
</event>
<event>
 8    1  0.2962813E-009  0.9118800E+02  0.7816164E-02  0.1184000E+00
        -11   -1    0    0    0    0  0.00000000000E+00  0.00000000000E+00  0.45593999997E+02  0.45594000000E+02  0.51100000000E-03 0.  1.
         11   -1    0    0    0    0 -0.00000000000E+00 -0.00000000000E+00 -0.45593999997E+02  0.45594000000E+02  0.51100000000E-03 0. -1.
         23    2    1    2    0    0 -0.17763568394E-14 -0.71054273576E-14  0.00000000000E+00  0.91188000000E+02  0.91188000000E+02 0.  0.
    9900012    2    3    3    0    0  0.13913870514E+02  0.31489463701E+02 -0.29050493862E+02  0.46142319736E+02  0.10000018009E+02 0.  0.
         12    1    3    3    0    0 -0.13913870514E+02 -0.31489463701E+02  0.29050493862E+02  0.45045680264E+02  0.00000000000E+00 0. -1.
         11    1    4    4    0    0  0.10264420675E+02  0.12105242590E+02 -0.12036823766E+02  0.19919346289E+02  0.51100000000E-03 0. -1.
        -11    1    4    4    0    0  0.21066457423E+01  0.16841059797E+02 -0.14214470369E+02  0.22138437604E+02  0.51100000000E-03 0.  1.
         12    1    4    4    0    0  0.15428040959E+01  0.25431613134E+01 -0.27991997263E+01  0.40845358429E+01  0.00000000000E+00 0. -1.
</event>
<event>
 8    1  0.2962813E-009  0.9118800E+02  0.7816164E-02  0.1184000E+00
        -11   -1    0    0    0    0  0.00000000000E+00  0.00000000000E+00  0.45593999997E+02  0.45594000000E+02  0.51100000000E-03 0.  1.
         11   -1    0    0    0    0 -0.00000000000E+00 -0.00000000000E+00 -0.45593999997E+02  0.45594000000E+02  0.51100000000E-03 0. -1.
         23    2    1    2    0    0  0.00000000000E+00 -0.88817841970E-15  0.27755575616E-16  0.91188000000E+02  0.91188000000E+02 0.  0.
    9900012    2    3    3    0    0 -0.44979537416E+02 -0.24368144984E+01  0.13102340199E+00  0.46142311880E+02  0.99999463729E+01 0.  0.
         12    1    3    3    0    0  0.44979537416E+02  0.24368144984E+01 -0.13102340199E+00  0.45045688120E+02  0.00000000000E+00 0. -1.
         11    1    4    4    0    0 -0.29085047716E+02 -0.37400814479E+01  0.13181810317E+01  0.29354144705E+02  0.51100000000E-03 0. -1.
        -11    1    4    4    0    0 -0.16162717227E+02  0.83856409841E+00 -0.98367952558E+00  0.16214322174E+02  0.51100000000E-03 0.  1.
         12    1    4    4    0    0  0.26822752687E+00  0.46470285108E+00 -0.20347810411E+00  0.57384500070E+00  0.00000000000E+00 0. -1.
</event>
<event>
 8    1  0.2962813E-009  0.9118800E+02  0.7816164E-02  0.1184000E+00
        -11   -1    0    0    0    0  0.00000000000E+00  0.00000000000E+00  0.45593999997E+02  0.45594000000E+02  0.51100000000E-03 0.  1.
         11   -1    0    0    0    0 -0.00000000000E+00 -0.00000000000E+00 -0.45593999997E+02  0.45594000000E+02  0.51100000000E-03 0. -1.
         23    2    1    2    0    0  0.00000000000E+00  0.00000000000E+00 -0.11102230246E-15  0.91188000000E+02  0.91188000000E+02 0.  0.
    9900012    2    3    3    0    0 -0.22664133771E+02 -0.38917486924E+02 -0.93783278188E+00  0.46142320092E+02  0.10000021251E+02 0.  0.
         12    1    3    3    0    0  0.22664133771E+02  0.38917486924E+02  0.93783278188E+00  0.45045679908E+02  0.00000000000E+00 0. -1.
         11    1    4    4    0    0 -0.14778972066E+02 -0.19262512806E+02 -0.33434328300E+01  0.24507977442E+02  0.51100000000E-03 0. -1.
        -11    1    4    4    0    0 -0.52480651020E+01 -0.81797402180E+01  0.13679874685E+01  0.98143633173E+01  0.51100000000E-03 0.  1.
         12    1    4    4    0    0 -0.26370966031E+01 -0.11475233900E+02  0.10376125795E+01  0.11819979332E+02  0.00000000000E+00 0. -1.
</event>
<event>
 8    1  0.2962813E-009  0.9118800E+02  0.7816164E-02  0.1184000E+00
        -11   -1    0    0    0    0  0.00000000000E+00  0.00000000000E+00  0.45593999997E+02  0.45594000000E+02  0.51100000000E-03 0. -1.
         11   -1    0    0    0    0 -0.00000000000E+00 -0.00000000000E+00 -0.45593999997E+02  0.45594000000E+02  0.51100000000E-03 0.  1.
         23    2    1    2    0    0  0.00000000000E+00  0.00000000000E+00  0.00000000000E+00  0.91188000000E+02  0.91188000000E+02 0.  0.
    9900012    2    3    3    0    0 -0.35968996215E+02  0.25474963246E+02 -0.92936028869E+01  0.46142317679E+02  0.99999992524E+01 0.  0.
         12    1    3    3    0    0  0.35968996215E+02 -0.25474963246E+02  0.92936028869E+01  0.45045682321E+02  0.00000000000E+00 0. -1.
         11    1    4    4    0    0 -0.56558247781E+00  0.17130931693E+01  0.60879691706E+00  0.19039972934E+01  0.51100000000E-03 0. -1.
        -11    1    4    4    0    0 -0.18675608847E+02  0.10019481456E+02 -0.24126266387E+01  0.21330474491E+02  0.51100000000E-03 0.  1.
         12    1    4    4    0    0 -0.16727804890E+02  0.13742388621E+02 -0.74897731653E+01  0.22907845894E+02  0.00000000000E+00 0. -1.
</event>
<event>
 8    1  0.2962813E-009  0.9118800E+02  0.7816164E-02  0.1184000E+00
        -11   -1    0    0    0    0  0.00000000000E+00  0.00000000000E+00  0.45593999997E+02  0.45594000000E+02  0.51100000000E-03 0. -1.
         11   -1    0    0    0    0 -0.00000000000E+00 -0.00000000000E+00 -0.45593999997E+02  0.45594000000E+02  0.51100000000E-03 0.  1.
         23    2    1    2    0    0 -0.17763568394E-14  0.00000000000E+00  0.71054273576E-14  0.91188000000E+02  0.91188000000E+02 0.  0.
    9900012    2    3    3    0    0 -0.66175148006E+01 -0.26560541229E+02  0.35775126577E+02  0.46142317253E+02  0.99999953690E+01 0.  0.
        -12    1    3    3    0    0  0.66175148006E+01  0.26560541229E+02 -0.35775126577E+02  0.45045682747E+02  0.00000000000E+00 0.  1.
         11    1    4    4    0    0 -0.38333419842E+00 -0.23772256383E+01  0.36101063851E+01  0.43394717669E+01  0.51100000000E-03 0. -1.
        -11    1    4    4    0    0 -0.49180983088E+01 -0.12396634884E+02  0.23826143418E+02  0.27304749731E+02  0.51100000000E-03 0.  1.
        -12    1    4    4    0    0 -0.13160822933E+01 -0.11786680707E+02  0.83388767739E+01  0.14498095755E+02  0.00000000000E+00 0.  1.
</event>
<event>
 8    1  0.2962813E-009  0.9118800E+02  0.7816164E-02  0.1184000E+00
        -11   -1    0    0    0    0  0.00000000000E+00  0.00000000000E+00  0.45593999997E+02  0.45594000000E+02  0.51100000000E-03 0. -1.
         11   -1    0    0    0    0 -0.00000000000E+00 -0.00000000000E+00 -0.45593999997E+02  0.45594000000E+02  0.51100000000E-03 0.  1.
         23    2    1    2    0    0  0.00000000000E+00  0.35527136788E-14  0.00000000000E+00  0.91188000000E+02  0.91188000000E+02 0.  0.
    9900012    2    3    3    0    0 -0.36165426769E+01  0.16955128474E+02 -0.41575927053E+02  0.46142317934E+02  0.10000001577E+02 0.  0.
         12    1    3    3    0    0  0.36165426769E+01 -0.16955128474E+02  0.41575927053E+02  0.45045682066E+02  0.00000000000E+00 0. -1.
         11    1    4    4    0    0  0.31949810564E+01  0.64168488754E+01 -0.15746660910E+02  0.17301479229E+02  0.51100000000E-03 0. -1.
        -11    1    4    4    0    0 -0.15844652560E+01  0.94801441905E+00 -0.28182428490E+01  0.33692364867E+01  0.51100000000E-03 0.  1.
        -12    1    4    4    0    0 -0.52270584773E+01  0.95902651799E+01 -0.23011023293E+02  0.25471602218E+02  0.00000000000E+00 0.  1.
</event>
<event>
 8    1  0.2962813E-009  0.9118800E+02  0.7816164E-02  0.1184000E+00
        -11   -1    0    0    0    0  0.00000000000E+00  0.00000000000E+00  0.45593999997E+02  0.45594000000E+02  0.51100000000E-03 0. -1.
         11   -1    0    0    0    0 -0.00000000000E+00 -0.00000000000E+00 -0.45593999997E+02  0.45594000000E+02  0.51100000000E-03 0.  1.
         23    2    1    2    0    0  0.00000000000E+00  0.00000000000E+00 -0.71054273576E-14  0.91188000000E+02  0.91188000000E+02 0.  0.
    9900012    2    3    3    0    0 -0.19364529665E+02  0.18591825050E+02  0.36172813502E+02  0.46142318692E+02  0.10000008486E+02 0.  0.
        -12    1    3    3    0    0  0.19364529665E+02 -0.18591825050E+02 -0.36172813502E+02  0.45045681308E+02  0.00000000000E+00 0.  1.
         11    1    4    4    0    0 -0.35798865826E+01  0.78300801373E+01  0.13455264289E+02  0.15974037694E+02  0.51100000000E-03 0. -1.
        -11    1    4    4    0    0 -0.12117647170E+02  0.10048463549E+02  0.15783116138E+02  0.22291607118E+02  0.51100000000E-03 0.  1.
        -12    1    4    4    0    0 -0.36669959123E+01  0.71328136451E+00  0.69344330757E+01  0.78766738797E+01  0.00000000000E+00 0.  1.
</event>
<event>
 8    1  0.4525962E-009  0.9118800E+02  0.7816164E-02  0.1184000E+00
        -11   -1    0    0    0    0  0.00000000000E+00  0.00000000000E+00  0.45593999997E+02  0.45594000000E+02  0.51100000000E-03 0. -1.
         11   -1    0    0    0    0 -0.00000000000E+00 -0.00000000000E+00 -0.45593999997E+02  0.45594000000E+02  0.51100000000E-03 0.  1.
         23    2    1    2    0    0  0.00000000000E+00 -0.44408920985E-15  0.00000000000E+00  0.91188000000E+02  0.91188000000E+02 0.  0.
    9900012    2    3    3    0    0 -0.34276682252E+01  0.19476477397E+00 -0.44914658097E+02  0.46142319244E+02  0.10000013526E+02 0.  0.
         12    1    3    3    0    0  0.34276682252E+01 -0.19476477397E+00  0.44914658097E+02  0.45045680756E+02  0.00000000000E+00 0. -1.
         11    1    4    4    0    0 -0.71329191165E+00  0.87723026139E+00 -0.12042107953E+01  0.16517996801E+01  0.51100000000E-03 0. -1.
        -11    1    4    4    0    0 -0.45584024022E+00 -0.35645415899E+01 -0.10916061839E+02  0.11492351953E+02  0.51100000000E-03 0.  1.
        -12    1    4    4    0    0 -0.22585360733E+01  0.28820761025E+01 -0.32794385462E+02  0.32998167611E+02  0.00000000000E+00 0.  1.
</event>
<event>
 8    1  0.2962813E-009  0.9118800E+02  0.7816164E-02  0.1184000E+00
        -11   -1    0    0    0    0  0.00000000000E+00  0.00000000000E+00  0.45593999997E+02  0.45594000000E+02  0.51100000000E-03 0.  1.
         11   -1    0    0    0    0 -0.00000000000E+00 -0.00000000000E+00 -0.45593999997E+02  0.45594000000E+02  0.51100000000E-03 0. -1.
         23    2    1    2    0    0  0.00000000000E+00  0.00000000000E+00  0.00000000000E+00  0.91188000000E+02  0.91188000000E+02 0.  0.
    9900012    2    3    3    0    0  0.33800033130E+02  0.28024556751E+02  0.10064566098E+02  0.46142317505E+02  0.99999976661E+01 0.  0.
        -12    1    3    3    0    0 -0.33800033130E+02 -0.28024556751E+02 -0.10064566098E+02  0.45045682495E+02  0.00000000000E+00 0.  1.
         11    1    4    4    0    0  0.39372977493E+01  0.62318228550E+00  0.68214727716E+00  0.40442545539E+01  0.51100000000E-03 0. -1.
        -11    1    4    4    0    0  0.21996766224E+01  0.15628793641E+01 -0.94867759275E+00  0.28602724671E+01  0.51100000000E-03 0.  1.
         12    1    4    4    0    0  0.27663058758E+02  0.25838495102E+02  0.10331096414E+02  0.39237790484E+02  0.00000000000E+00 0. -1.
</event>
<event>
 8    1  0.2962813E-009  0.9118800E+02  0.7816164E-02  0.1184000E+00
        -11   -1    0    0    0    0  0.00000000000E+00  0.00000000000E+00  0.45593999997E+02  0.45594000000E+02  0.51100000000E-03 0. -1.
         11   -1    0    0    0    0 -0.00000000000E+00 -0.00000000000E+00 -0.45593999997E+02  0.45594000000E+02  0.51100000000E-03 0.  1.
         23    2    1    2    0    0  0.00000000000E+00  0.71054273576E-14  0.22204460493E-15  0.91188000000E+02  0.91188000000E+02 0.  0.
    9900012    2    3    3    0    0 -0.11177762508E+01  0.44998657127E+02  0.17276791160E+01  0.46142318275E+02  0.10000004682E+02 0.  0.
         12    1    3    3    0    0  0.11177762508E+01 -0.44998657127E+02 -0.17276791160E+01  0.45045681725E+02  0.00000000000E+00 0. -1.
         11    1    4    4    0    0 -0.88675044615E+00  0.63930339088E+01  0.22655461982E+01  0.68403149598E+01  0.51100000000E-03 0. -1.
        -11    1    4    4    0    0 -0.14705231412E+01  0.26076475511E+02  0.28252120068E+01  0.26270265254E+02  0.51100000000E-03 0.  1.
        -12    1    4    4    0    0  0.12394973366E+01  0.12529147707E+02 -0.33630790890E+01  0.13031738061E+02  0.00000000000E+00 0.  1.
</event>
<event>
 8    1  0.2962813E-009  0.9118800E+02  0.7816164E-02  0.1184000E+00
        -11   -1    0    0    0    0  0.00000000000E+00  0.00000000000E+00  0.45593999997E+02  0.45594000000E+02  0.51100000000E-03 0. -1.
         11   -1    0    0    0    0 -0.00000000000E+00 -0.00000000000E+00 -0.45593999997E+02  0.45594000000E+02  0.51100000000E-03 0.  1.
         23    2    1    2    0    0  0.00000000000E+00  0.00000000000E+00 -0.71054273576E-14  0.91188000000E+02  0.91188000000E+02 0.  0.
    9900012    2    3    3    0    0  0.16385101067E+02 -0.13541448172E+02  0.39714882844E+02  0.46142309031E+02  0.99999203882E+01 0.  0.
        -12    1    3    3    0    0 -0.16385101067E+02  0.13541448172E+02 -0.39714882844E+02  0.45045690969E+02  0.00000000000E+00 0.  1.
         11    1    4    4    0    0  0.59037319561E+01 -0.36027608919E+01  0.13962765960E+02  0.15581808964E+02  0.51100000000E-03 0. -1.
        -11    1    4    4    0    0  0.11207599054E+02 -0.87916080408E+01  0.25456856482E+02  0.29171119120E+02  0.51100000000E-03 0.  1.
        -12    1    4    4    0    0 -0.72622994316E+00 -0.11470792390E+01  0.29526040187E+00  0.13893809470E+01  0.00000000000E+00 0.  1.
</event>
<event>
 8    1  0.2962813E-009  0.9118800E+02  0.7816164E-02  0.1184000E+00
        -11   -1    0    0    0    0  0.00000000000E+00  0.00000000000E+00  0.45593999997E+02  0.45594000000E+02  0.51100000000E-03 0. -1.
         11   -1    0    0    0    0 -0.00000000000E+00 -0.00000000000E+00 -0.45593999997E+02  0.45594000000E+02  0.51100000000E-03 0.  1.
         23    2    1    2    0    0  0.00000000000E+00  0.00000000000E+00 -0.71054273576E-14  0.91188000000E+02  0.91188000000E+02 0.  0.
    9900012    2    3    3    0    0 -0.82547345144E+01 -0.16776469595E+02  0.40981985957E+02  0.46142314890E+02  0.99999738209E+01 0.  0.
        -12    1    3    3    0    0  0.82547345144E+01  0.16776469595E+02 -0.40981985957E+02  0.45045685110E+02  0.00000000000E+00 0.  1.
         11    1    4    4    0    0 -0.67882293032E+01 -0.57457213022E+01  0.16752651336E+02  0.18966936954E+02  0.51100000000E-03 0. -1.
        -11    1    4    4    0    0  0.18411939448E+00 -0.33416621751E+01  0.28510317838E+01  0.43964745578E+01  0.51100000000E-03 0.  1.
         12    1    4    4    0    0 -0.16506246057E+01 -0.76890861182E+01  0.21378302838E+02  0.22778903379E+02  0.00000000000E+00 0. -1.
</event>
<event>
 8    1  0.2962813E-009  0.9118800E+02  0.7816164E-02  0.1184000E+00
        -11   -1    0    0    0    0  0.00000000000E+00  0.00000000000E+00  0.45593999997E+02  0.45594000000E+02  0.51100000000E-03 0.  1.
         11   -1    0    0    0    0 -0.00000000000E+00 -0.00000000000E+00 -0.45593999997E+02  0.45594000000E+02  0.51100000000E-03 0. -1.
         23    2    1    2    0    0 -0.71054273576E-14 -0.88817841970E-15  0.44408920985E-15  0.91188000000E+02  0.91188000000E+02 0.  0.
    9900012    2    3    3    0    0 -0.44773471939E+02 -0.32019995822E+01  0.37678792451E+01  0.46142317579E+02  0.99999983407E+01 0.  0.
         12    1    3    3    0    0  0.44773471939E+02  0.32019995822E+01 -0.37678792451E+01  0.45045682421E+02  0.00000000000E+00 0. -1.
         11    1    4    4    0    0 -0.14749934449E+02 -0.61298808828E+00  0.17006947537E+00  0.14763646044E+02  0.51100000000E-03 0. -1.
        -11    1    4    4    0    0 -0.26893478085E+02 -0.34608243091E+01  0.85850114405E+00  0.27128831396E+02  0.51100000000E-03 0.  1.
         12    1    4    4    0    0 -0.31300594048E+01  0.87181281515E+00  0.27393086257E+01  0.42498401392E+01  0.00000000000E+00 0. -1.
</event>
<event>
 8    1  0.2962813E-009  0.9118800E+02  0.7816164E-02  0.1184000E+00
        -11   -1    0    0    0    0  0.00000000000E+00  0.00000000000E+00  0.45593999997E+02  0.45594000000E+02  0.51100000000E-03 0. -1.
         11   -1    0    0    0    0 -0.00000000000E+00 -0.00000000000E+00 -0.45593999997E+02  0.45594000000E+02  0.51100000000E-03 0.  1.
         23    2    1    2    0    0  0.17763568394E-14  0.00000000000E+00  0.71054273576E-14  0.91188000000E+02  0.91188000000E+02 0.  0.
    9900012    2    3    3    0    0 -0.10561950125E+02  0.18283011432E+02 -0.39790579974E+02  0.46142317053E+02  0.99999935467E+01 0.  0.
         12    1    3    3    0    0  0.10561950125E+02 -0.18283011432E+02  0.39790579974E+02  0.45045682947E+02  0.00000000000E+00 0. -1.
         11    1    4    4    0    0 -0.17880256287E+01  0.53192998123E+01 -0.74552541072E+01  0.93312807377E+01  0.51100000000E-03 0. -1.
        -11    1    4    4    0    0 -0.61794211513E+01  0.59716117625E+01 -0.24636660709E+02  0.26092344547E+02  0.51100000000E-03 0.  1.
        -12    1    4    4    0    0 -0.25945033449E+01  0.69920998575E+01 -0.76986651575E+01  0.10718691769E+02  0.00000000000E+00 0.  1.
</event>
<event>
 8    1  0.2962813E-009  0.9118800E+02  0.7816164E-02  0.1184000E+00
        -11   -1    0    0    0    0  0.00000000000E+00  0.00000000000E+00  0.45593999997E+02  0.45594000000E+02  0.51100000000E-03 0. -1.
         11   -1    0    0    0    0 -0.00000000000E+00 -0.00000000000E+00 -0.45593999997E+02  0.45594000000E+02  0.51100000000E-03 0.  1.
         23    2    1    2    0    0 -0.22204460493E-15  0.17763568394E-14 -0.71054273576E-14  0.91188000000E+02  0.91188000000E+02 0.  0.
    9900012    2    3    3    0    0  0.62167496016E+00  0.93254527625E+01 -0.44065438975E+02  0.46142318064E+02  0.10000002762E+02 0.  0.
         12    1    3    3    0    0 -0.62167496016E+00 -0.93254527625E+01  0.44065438975E+02  0.45045681936E+02  0.00000000000E+00 0. -1.
         11    1    4    4    0    0  0.13507954225E+01  0.22397043246E+01 -0.10324544543E+02  0.10650687491E+02  0.51100000000E-03 0. -1.
        -11    1    4    4    0    0 -0.27712415093E+01  0.38064494756E+01 -0.28982630186E+02  0.29362589972E+02  0.51100000000E-03 0.  1.
        -12    1    4    4    0    0  0.20421210470E+01  0.32792989623E+01 -0.47582642461E+01  0.61290406012E+01  0.00000000000E+00 0.  1.
</event>
<event>
 8    1  0.2962813E-009  0.9118800E+02  0.7816164E-02  0.1184000E+00
        -11   -1    0    0    0    0  0.00000000000E+00  0.00000000000E+00  0.45593999997E+02  0.45594000000E+02  0.51100000000E-03 0. -1.
         11   -1    0    0    0    0 -0.00000000000E+00 -0.00000000000E+00 -0.45593999997E+02  0.45594000000E+02  0.51100000000E-03 0.  1.
         23    2    1    2    0    0  0.00000000000E+00  0.00000000000E+00  0.00000000000E+00  0.91188000000E+02  0.91188000000E+02 0.  0.
    9900012    2    3    3    0    0  0.51142711140E+01  0.37114277091E+02 -0.25009761515E+02  0.46142317587E+02  0.99999984130E+01 0.  0.
         12    1    3    3    0    0 -0.51142711140E+01 -0.37114277091E+02  0.25009761515E+02  0.45045682413E+02  0.00000000000E+00 0. -1.
         11    1    4    4    0    0 -0.14053691524E+01  0.22098578221E+02 -0.12397037293E+02  0.25377327593E+02  0.51100000000E-03 0. -1.
        -11    1    4    4    0    0  0.27616253399E+01  0.63626139172E+01 -0.40947873231E+01  0.80546082375E+01  0.51100000000E-03 0.  1.
        -12    1    4    4    0    0  0.37580149265E+01  0.86530849525E+01 -0.85179368993E+01  0.12710381757E+02  0.00000000000E+00 0.  1.
</event>
<event>
 8    1  0.2962813E-009  0.9118800E+02  0.7816164E-02  0.1184000E+00
        -11   -1    0    0    0    0  0.00000000000E+00  0.00000000000E+00  0.45593999997E+02  0.45594000000E+02  0.51100000000E-03 0. -1.
         11   -1    0    0    0    0 -0.00000000000E+00 -0.00000000000E+00 -0.45593999997E+02  0.45594000000E+02  0.51100000000E-03 0.  1.
         23    2    1    2    0    0  0.00000000000E+00  0.00000000000E+00  0.35527136788E-14  0.91188000000E+02  0.91188000000E+02 0.  0.
    9900012    2    3    3    0    0 -0.30880308309E+02  0.17590157704E+02  0.27678627582E+02  0.46142317475E+02  0.99999973904E+01 0.  0.
        -12    1    3    3    0    0  0.30880308309E+02 -0.17590157704E+02 -0.27678627582E+02  0.45045682525E+02  0.00000000000E+00 0.  1.
         11    1    4    4    0    0 -0.19281527656E+02  0.64363085915E+01  0.14763310583E+02  0.25122872381E+02  0.51100000000E-03 0. -1.
        -11    1    4    4    0    0 -0.93854789700E+00  0.27293626282E+01  0.13949525528E+01  0.32056489822E+01  0.51100000000E-03 0.  1.
        -12    1    4    4    0    0 -0.10660232756E+02  0.84244864846E+01  0.11520364446E+02  0.17813796112E+02  0.00000000000E+00 0.  1.
</event>
<event>
 8    1  0.2962813E-009  0.9118800E+02  0.7816164E-02  0.1184000E+00
        -11   -1    0    0    0    0  0.00000000000E+00  0.00000000000E+00  0.45593999997E+02  0.45594000000E+02  0.51100000000E-03 0.  1.
         11   -1    0    0    0    0 -0.00000000000E+00 -0.00000000000E+00 -0.45593999997E+02  0.45594000000E+02  0.51100000000E-03 0. -1.
         23    2    1    2    0    0  0.00000000000E+00  0.00000000000E+00  0.00000000000E+00  0.91188000000E+02  0.91188000000E+02 0.  0.
    9900012    2    3    3    0    0 -0.36372448205E+02  0.17166740165E+01 -0.26518141211E+02  0.46142314619E+02  0.99999713518E+01 0.  0.
         12    1    3    3    0    0  0.36372448205E+02 -0.17166740165E+01  0.26518141211E+02  0.45045685381E+02  0.00000000000E+00 0. -1.
         11    1    4    4    0    0 -0.10749183910E+02  0.11153283070E+01 -0.13511607020E+02  0.17301804429E+02  0.51100000000E-03 0. -1.
        -11    1    4    4    0    0 -0.19180865717E+02  0.61905656934E+00 -0.10856076478E+02  0.22048656137E+02  0.51100000000E-03 0.  1.
        -12    1    4    4    0    0 -0.64423985785E+01 -0.17710859820E-01 -0.21504577134E+01  0.67918540544E+01  0.00000000000E+00 0.  1.
</event>
<event>
 8    1  0.2962813E-009  0.9118800E+02  0.7816164E-02  0.1184000E+00
        -11   -1    0    0    0    0  0.00000000000E+00  0.00000000000E+00  0.45593999997E+02  0.45594000000E+02  0.51100000000E-03 0. -1.
         11   -1    0    0    0    0 -0.00000000000E+00 -0.00000000000E+00 -0.45593999997E+02  0.45594000000E+02  0.51100000000E-03 0.  1.
         23    2    1    2    0    0  0.00000000000E+00  0.71054273576E-14 -0.35527136788E-14  0.91188000000E+02  0.91188000000E+02 0.  0.
    9900012    2    3    3    0    0  0.15557786375E+02  0.32018655201E+02 -0.27602078577E+02  0.46142314973E+02  0.99999745803E+01 0.  0.
         12    1    3    3    0    0 -0.15557786375E+02 -0.32018655201E+02  0.27602078577E+02  0.45045685027E+02  0.00000000000E+00 0. -1.
         11    1    4    4    0    0  0.31034361131E+01  0.58773416259E+01 -0.35388167968E+01  0.75297865095E+01  0.51100000000E-03 0. -1.
        -11    1    4    4    0    0  0.92607591558E+01  0.23965268382E+02 -0.23277501004E+02  0.34668974632E+02  0.51100000000E-03 0.  1.
        -12    1    4    4    0    0  0.31935911056E+01  0.21760451924E+01 -0.78576077629E+00  0.39435538321E+01  0.00000000000E+00 0.  1.
</event>
<event>
 8    1  0.2962813E-009  0.9118800E+02  0.7816164E-02  0.1184000E+00
        -11   -1    0    0    0    0  0.00000000000E+00  0.00000000000E+00  0.45593999997E+02  0.45594000000E+02  0.51100000000E-03 0. -1.
         11   -1    0    0    0    0 -0.00000000000E+00 -0.00000000000E+00 -0.45593999997E+02  0.45594000000E+02  0.51100000000E-03 0.  1.
         23    2    1    2    0    0  0.00000000000E+00  0.00000000000E+00  0.00000000000E+00  0.91188000000E+02  0.91188000000E+02 0.  0.
    9900012    2    3    3    0    0 -0.17296280215E+02 -0.21429695390E+02  0.35647165037E+02  0.46142317311E+02  0.99999958961E+01 0.  0.
        -12    1    3    3    0    0  0.17296280215E+02  0.21429695390E+02 -0.35647165037E+02  0.45045682689E+02  0.00000000000E+00 0.  1.
         11    1    4    4    0    0 -0.51269416325E+01 -0.73666341969E+01  0.85244015306E+01  0.12378136031E+02  0.51100000000E-03 0. -1.
        -11    1    4    4    0    0 -0.10397600472E+02 -0.10800352444E+02  0.15505163116E+02  0.21567748886E+02  0.51100000000E-03 0.  1.
        -12    1    4    4    0    0 -0.17717381098E+01 -0.32627087486E+01  0.11617600390E+02  0.12196432393E+02  0.00000000000E+00 0.  1.
</event>
<event>
 8    1  0.2962813E-009  0.9118800E+02  0.7816164E-02  0.1184000E+00
        -11   -1    0    0    0    0  0.00000000000E+00  0.00000000000E+00  0.45593999997E+02  0.45594000000E+02  0.51100000000E-03 0. -1.
         11   -1    0    0    0    0 -0.00000000000E+00 -0.00000000000E+00 -0.45593999997E+02  0.45594000000E+02  0.51100000000E-03 0.  1.
         23    2    1    2    0    0  0.00000000000E+00  0.00000000000E+00  0.00000000000E+00  0.91188000000E+02  0.91188000000E+02 0.  0.
    9900012    2    3    3    0    0  0.25471328192E+02 -0.26043540054E+02  0.26496395119E+02  0.46142317713E+02  0.99999995611E+01 0.  0.
        -12    1    3    3    0    0 -0.25471328192E+02  0.26043540054E+02 -0.26496395119E+02  0.45045682287E+02  0.00000000000E+00 0.  1.
         11    1    4    4    0    0  0.16088949140E+02 -0.18824710481E+02  0.15262181042E+02  0.29088798180E+02  0.51100000000E-03 0. -1.
        -11    1    4    4    0    0  0.98123039397E+01 -0.69462003776E+01  0.11347829300E+02  0.16531915751E+02  0.51100000000E-03 0.  1.
        -12    1    4    4    0    0 -0.42992488772E+00 -0.27262919508E+00 -0.11361522324E+00  0.52160378262E+00  0.00000000000E+00 0.  1.
</event>
<event>
 8    1  0.2962813E-009  0.9118800E+02  0.7816164E-02  0.1184000E+00
        -11   -1    0    0    0    0  0.00000000000E+00  0.00000000000E+00  0.45593999997E+02  0.45594000000E+02  0.51100000000E-03 0. -1.
         11   -1    0    0    0    0 -0.00000000000E+00 -0.00000000000E+00 -0.45593999997E+02  0.45594000000E+02  0.51100000000E-03 0.  1.
         23    2    1    2    0    0  0.00000000000E+00 -0.22204460493E-15  0.00000000000E+00  0.91188000000E+02  0.91188000000E+02 0.  0.
    9900012    2    3    3    0    0 -0.24690097812E+01  0.13856342051E+01  0.44956617210E+02  0.46142318494E+02  0.10000006679E+02 0.  0.
        -12    1    3    3    0    0  0.24690097812E+01 -0.13856342051E+01 -0.44956617210E+02  0.45045681506E+02  0.00000000000E+00 0.  1.
         11    1    4    4    0    0 -0.10129324908E+01 -0.13132717843E+01  0.28479818737E+02  0.28528070221E+02  0.51100000000E-03 0. -1.
        -11    1    4    4    0    0  0.18671178431E+00  0.37500459341E+01  0.70467543878E+01  0.79846385931E+01  0.51100000000E-03 0.  1.
        -12    1    4    4    0    0 -0.16427890748E+01 -0.10511399446E+01  0.94300440849E+01  0.96296096790E+01  0.00000000000E+00 0.  1.
</event>
<event>
 8    1  0.2962813E-009  0.9118800E+02  0.7816164E-02  0.1184000E+00
        -11   -1    0    0    0    0  0.00000000000E+00  0.00000000000E+00  0.45593999997E+02  0.45594000000E+02  0.51100000000E-03 0. -1.
         11   -1    0    0    0    0 -0.00000000000E+00 -0.00000000000E+00 -0.45593999997E+02  0.45594000000E+02  0.51100000000E-03 0.  1.
         23    2    1    2    0    0  0.00000000000E+00  0.00000000000E+00  0.00000000000E+00  0.91188000000E+02  0.91188000000E+02 0.  0.
    9900012    2    3    3    0    0  0.16292925336E+02  0.55119919933E+01 -0.41632583449E+02  0.46142317895E+02  0.10000001217E+02 0.  0.
         12    1    3    3    0    0 -0.16292925336E+02 -0.55119919933E+01  0.41632583449E+02  0.45045682105E+02  0.00000000000E+00 0. -1.
         11    1    4    4    0    0 -0.84865847279E-01 -0.57087657955E+00  0.23508698635E+00  0.62319213200E+00  0.51100000000E-03 0. -1.
        -11    1    4    4    0    0  0.39217728749E+01  0.20053341844E+01 -0.70112890729E+01  0.82800871009E+01  0.51100000000E-03 0.  1.
         12    1    4    4    0    0  0.12456018308E+02  0.40775343884E+01 -0.34856381362E+02  0.37239038662E+02  0.00000000000E+00 0. -1.
</event>
<event>
 8    1  0.2962813E-009  0.9118800E+02  0.7816164E-02  0.1184000E+00
        -11   -1    0    0    0    0  0.00000000000E+00  0.00000000000E+00  0.45593999997E+02  0.45594000000E+02  0.51100000000E-03 0. -1.
         11   -1    0    0    0    0 -0.00000000000E+00 -0.00000000000E+00 -0.45593999997E+02  0.45594000000E+02  0.51100000000E-03 0.  1.
         23    2    1    2    0    0  0.00000000000E+00  0.00000000000E+00  0.00000000000E+00  0.91188000000E+02  0.91188000000E+02 0.  0.
    9900012    2    3    3    0    0  0.27021878608E+02 -0.34232457784E+02  0.11272561781E+02  0.46142314985E+02  0.99999746822E+01 0.  0.
        -12    1    3    3    0    0 -0.27021878608E+02  0.34232457784E+02 -0.11272561781E+02  0.45045685015E+02  0.00000000000E+00 0.  1.
         11    1    4    4    0    0  0.96122698079E+01 -0.66731921875E+01  0.25760437206E+01  0.11981787277E+02  0.51100000000E-03 0. -1.
        -11    1    4    4    0    0  0.27547926332E+01 -0.87373483231E+01  0.29391264600E+01  0.96212578585E+01  0.51100000000E-03 0.  1.
         12    1    4    4    0    0  0.14654816167E+02 -0.18821917273E+02  0.57573916003E+01  0.24539269850E+02  0.00000000000E+00 0. -1.
</event>
<event>
 8    1  0.2962813E-009  0.9118800E+02  0.7816164E-02  0.1184000E+00
        -11   -1    0    0    0    0  0.00000000000E+00  0.00000000000E+00  0.45593999997E+02  0.45594000000E+02  0.51100000000E-03 0. -1.
         11   -1    0    0    0    0 -0.00000000000E+00 -0.00000000000E+00 -0.45593999997E+02  0.45594000000E+02  0.51100000000E-03 0.  1.
         23    2    1    2    0    0  0.00000000000E+00  0.00000000000E+00  0.00000000000E+00  0.91188000000E+02  0.91188000000E+02 0.  0.
    9900012    2    3    3    0    0  0.12306941705E+02  0.23525074754E+02 -0.36389881965E+02  0.46142318013E+02  0.10000002296E+02 0.  0.
         12    1    3    3    0    0 -0.12306941705E+02 -0.23525074754E+02  0.36389881965E+02  0.45045681987E+02  0.00000000000E+00 0. -1.
         11    1    4    4    0    0  0.99757886517E+01  0.13554718809E+02 -0.15995674043E+02  0.23218706888E+02  0.51100000000E-03 0. -1.
        -11    1    4    4    0    0  0.19855154036E+01  0.59474545536E+01 -0.14286912062E+02  0.15602254440E+02  0.51100000000E-03 0.  1.
         12    1    4    4    0    0  0.34563764954E+00  0.40229013915E+01 -0.61072958592E+01  0.73213566845E+01  0.00000000000E+00 0. -1.
</event>
<event>
 8    1  0.2962813E-009  0.9118800E+02  0.7816164E-02  0.1184000E+00
        -11   -1    0    0    0    0  0.00000000000E+00  0.00000000000E+00  0.45593999997E+02  0.45594000000E+02  0.51100000000E-03 0. -1.
         11   -1    0    0    0    0 -0.00000000000E+00 -0.00000000000E+00 -0.45593999997E+02  0.45594000000E+02  0.51100000000E-03 0.  1.
         23    2    1    2    0    0  0.00000000000E+00  0.00000000000E+00  0.00000000000E+00  0.91188000000E+02  0.91188000000E+02 0.  0.
    9900012    2    3    3    0    0  0.24939839824E+02 -0.31899299563E+02 -0.19737084366E+02  0.46142318494E+02  0.10000006683E+02 0.  0.
         12    1    3    3    0    0 -0.24939839824E+02  0.31899299563E+02  0.19737084366E+02  0.45045681506E+02  0.00000000000E+00 0. -1.
         11    1    4    4    0    0  0.38687877945E+01 -0.58302051065E+01 -0.41342786369E+01  0.81271809806E+01  0.51100000000E-03 0.  1.
        -11    1    4    4    0    0 -0.55664133310E+00 -0.17243414343E+01 -0.20698897599E+01  0.27509356290E+01  0.51100000000E-03 0. -1.
        -12    1    4    4    0    0  0.21627693363E+02 -0.24344753022E+02 -0.13532915969E+02  0.35264201884E+02  0.00000000000E+00 0.  1.
</event>
<event>
 8    1  0.2962813E-009  0.9118800E+02  0.7816164E-02  0.1184000E+00
        -11   -1    0    0    0    0  0.00000000000E+00  0.00000000000E+00  0.45593999997E+02  0.45594000000E+02  0.51100000000E-03 0. -1.
         11   -1    0    0    0    0 -0.00000000000E+00 -0.00000000000E+00 -0.45593999997E+02  0.45594000000E+02  0.51100000000E-03 0.  1.
         23    2    1    2    0    0  0.17763568394E-14  0.00000000000E+00  0.71054273576E-14  0.91188000000E+02  0.91188000000E+02 0.  0.
    9900012    2    3    3    0    0  0.12835638791E+02 -0.36174083011E+02  0.23575317282E+02  0.46142317745E+02  0.99999998544E+01 0.  0.
        -12    1    3    3    0    0 -0.12835638791E+02  0.36174083011E+02 -0.23575317282E+02  0.45045682255E+02  0.00000000000E+00 0.  1.
         11    1    4    4    0    0  0.82703323391E+01 -0.32804804529E+02  0.19908456569E+02  0.39254302190E+02  0.51100000000E-03 0. -1.
        -11    1    4    4    0    0  0.37803271544E+01 -0.31198034849E+01  0.35590957107E+01  0.60573269449E+01  0.51100000000E-03 0.  1.
         12    1    4    4    0    0  0.78497929747E+00 -0.24947499656E+00  0.10776500277E+00  0.83068861024E+00  0.00000000000E+00 0. -1.
</event>
<event>
 8    1  0.2962813E-009  0.9118800E+02  0.7816164E-02  0.1184000E+00
        -11   -1    0    0    0    0  0.00000000000E+00  0.00000000000E+00  0.45593999997E+02  0.45594000000E+02  0.51100000000E-03 0. -1.
         11   -1    0    0    0    0 -0.00000000000E+00 -0.00000000000E+00 -0.45593999997E+02  0.45594000000E+02  0.51100000000E-03 0.  1.
         23    2    1    2    0    0  0.44408920985E-15  0.00000000000E+00  0.35527136788E-14  0.91188000000E+02  0.91188000000E+02 0.  0.
    9900012    2    3    3    0    0 -0.35335604298E+01 -0.36886639295E+02 -0.25612559885E+02  0.46142318390E+02  0.10000005739E+02 0.  0.
         12    1    3    3    0    0  0.35335604298E+01  0.36886639295E+02  0.25612559885E+02  0.45045681610E+02  0.00000000000E+00 0. -1.
         11    1    4    4    0    0 -0.28062353145E+01 -0.20150096095E+02 -0.14452617285E+02  0.24955550002E+02  0.51100000000E-03 0. -1.
        -11    1    4    4    0    0 -0.15239261854E+01 -0.87080040564E+01 -0.94484373171E+01  0.12939267895E+02  0.51100000000E-03 0.  1.
         12    1    4    4    0    0  0.79660107013E+00 -0.80285391438E+01 -0.17115052833E+01  0.82475004931E+01  0.00000000000E+00 0. -1.
</event>
<event>
 8    1  0.2962813E-009  0.9118800E+02  0.7816164E-02  0.1184000E+00
        -11   -1    0    0    0    0  0.00000000000E+00  0.00000000000E+00  0.45593999997E+02  0.45594000000E+02  0.51100000000E-03 0. -1.
         11   -1    0    0    0    0 -0.00000000000E+00 -0.00000000000E+00 -0.45593999997E+02  0.45594000000E+02  0.51100000000E-03 0.  1.
         23    2    1    2    0    0  0.00000000000E+00  0.00000000000E+00  0.00000000000E+00  0.91188000000E+02  0.91188000000E+02 0.  0.
    9900012    2    3    3    0    0  0.25245302901E+02  0.10600161738E+02 -0.35769050465E+02  0.46142315205E+02  0.99999766918E+01 0.  0.
         12    1    3    3    0    0 -0.25245302901E+02 -0.10600161738E+02  0.35769050465E+02  0.45045684795E+02  0.00000000000E+00 0. -1.
         11    1    4    4    0    0  0.56975309244E-02 -0.36494002942E+00 -0.14748016328E-02  0.36498783965E+00  0.51100000000E-03 0. -1.
        -11    1    4    4    0    0  0.10660592706E+01  0.28367097149E+01 -0.45436504517E+01  0.54615166449E+01  0.51100000000E-03 0.  1.
        -12    1    4    4    0    0  0.24173546100E+02  0.81283920525E+01 -0.31223925212E+02  0.40315810720E+02  0.00000000000E+00 0.  1.
</event>
<event>
 8    1  0.2962813E-009  0.9118800E+02  0.7816164E-02  0.1184000E+00
        -11   -1    0    0    0    0  0.00000000000E+00  0.00000000000E+00  0.45593999997E+02  0.45594000000E+02  0.51100000000E-03 0. -1.
         11   -1    0    0    0    0 -0.00000000000E+00 -0.00000000000E+00 -0.45593999997E+02  0.45594000000E+02  0.51100000000E-03 0.  1.
         23    2    1    2    0    0 -0.71054273576E-14  0.00000000000E+00  0.00000000000E+00  0.91188000000E+02  0.91188000000E+02 0.  0.
    9900012    2    3    3    0    0  0.38482795523E+02 -0.11691725201E+02 -0.20285254858E+02  0.46142317032E+02  0.99999933475E+01 0.  0.
         12    1    3    3    0    0 -0.38482795523E+02  0.11691725201E+02  0.20285254858E+02  0.45045682968E+02  0.00000000000E+00 0. -1.
         11    1    4    4    0    0  0.12375126578E+02  0.22860429524E-01 -0.46604444424E+01  0.13223616113E+02  0.51100000000E-03 0. -1.
        -11    1    4    4    0    0  0.19605078199E+02 -0.89692739435E+01 -0.94458243202E+01  0.23537853844E+02  0.51100000000E-03 0.  1.
         12    1    4    4    0    0  0.65025907454E+01 -0.27453116872E+01 -0.61789860958E+01  0.93808470745E+01  0.00000000000E+00 0. -1.
</event>
<event>
 8    1  0.2962813E-009  0.9118800E+02  0.7816164E-02  0.1184000E+00
        -11   -1    0    0    0    0  0.00000000000E+00  0.00000000000E+00  0.45593999997E+02  0.45594000000E+02  0.51100000000E-03 0. -1.
         11   -1    0    0    0    0 -0.00000000000E+00 -0.00000000000E+00 -0.45593999997E+02  0.45594000000E+02  0.51100000000E-03 0.  1.
         23    2    1    2    0    0  0.00000000000E+00  0.00000000000E+00  0.00000000000E+00  0.91188000000E+02  0.91188000000E+02 0.  0.
    9900012    2    3    3    0    0 -0.15955936498E+02 -0.10873236144E+02  0.40697595235E+02  0.46142318390E+02  0.10000005736E+02 0.  0.
        -12    1    3    3    0    0  0.15955936498E+02  0.10873236144E+02 -0.40697595235E+02  0.45045681610E+02  0.00000000000E+00 0.  1.
         11    1    4    4    0    0 -0.85309848762E+01 -0.85500792341E+01  0.31803119599E+02  0.34019405850E+02  0.51100000000E-03 0. -1.
        -11    1    4    4    0    0 -0.70898506328E+01 -0.18859735102E+01  0.89461736133E+01  0.11569654302E+02  0.51100000000E-03 0.  1.
         12    1    4    4    0    0 -0.33510098951E+00 -0.43718339976E+00 -0.51697977459E-01  0.55325823905E+00  0.00000000000E+00 0. -1.
</event>
<event>
 8    1  0.2962813E-009  0.9118800E+02  0.7816164E-02  0.1184000E+00
        -11   -1    0    0    0    0  0.00000000000E+00  0.00000000000E+00  0.45593999997E+02  0.45594000000E+02  0.51100000000E-03 0. -1.
         11   -1    0    0    0    0 -0.00000000000E+00 -0.00000000000E+00 -0.45593999997E+02  0.45594000000E+02  0.51100000000E-03 0.  1.
         23    2    1    2    0    0  0.35527136788E-14  0.00000000000E+00  0.00000000000E+00  0.91188000000E+02  0.91188000000E+02 0.  0.
    9900012    2    3    3    0    0 -0.16976217933E+02 -0.15683166158E+02  0.38664711238E+02  0.46142316843E+02  0.99999916235E+01 0.  0.
        -12    1    3    3    0    0  0.16976217933E+02  0.15683166158E+02 -0.38664711238E+02  0.45045683157E+02  0.00000000000E+00 0.  1.
         11    1    4    4    0    0 -0.84321161552E+01 -0.86270547240E+01  0.12384427158E+02  0.17288744673E+02  0.51100000000E-03 0. -1.
        -11    1    4    4    0    0 -0.80297860554E+01 -0.76192685458E+01  0.25266846813E+02  0.27585218241E+02  0.51100000000E-03 0.  1.
        -12    1    4    4    0    0 -0.51431572208E+00  0.56315711227E+00  0.10134372667E+01  0.12683539288E+01  0.00000000000E+00 0.  1.
</event>
<event>
 8    1  0.2962813E-009  0.9118800E+02  0.7816164E-02  0.1184000E+00
        -11   -1    0    0    0    0  0.00000000000E+00  0.00000000000E+00  0.45593999997E+02  0.45594000000E+02  0.51100000000E-03 0. -1.
         11   -1    0    0    0    0 -0.00000000000E+00 -0.00000000000E+00 -0.45593999997E+02  0.45594000000E+02  0.51100000000E-03 0.  1.
         23    2    1    2    0    0  0.00000000000E+00  0.00000000000E+00  0.17763568394E-14  0.91188000000E+02  0.91188000000E+02 0.  0.
    9900012    2    3    3    0    0 -0.16198136789E+02  0.40394328699E+02 -0.11620329735E+02  0.46142317747E+02  0.99999998745E+01 0.  0.
         12    1    3    3    0    0  0.16198136789E+02 -0.40394328699E+02  0.11620329735E+02  0.45045682253E+02  0.00000000000E+00 0. -1.
         11    1    4    4    0    0 -0.81383216679E+01  0.13590049963E+02 -0.66009983320E+00  0.15854257145E+02  0.51100000000E-03 0. -1.
        -11    1    4    4    0    0 -0.82898057719E+01  0.26579446724E+02 -0.10566919346E+02  0.29779987452E+02  0.51100000000E-03 0.  1.
        -12    1    4    4    0    0  0.22999065068E+00  0.22483201106E+00 -0.39331055614E+00  0.50807315041E+00  0.00000000000E+00 0.  1.
</event>
<event>
 8    1  0.2962813E-009  0.9118800E+02  0.7816164E-02  0.1184000E+00
        -11   -1    0    0    0    0  0.00000000000E+00  0.00000000000E+00  0.45593999997E+02  0.45594000000E+02  0.51100000000E-03 0. -1.
         11   -1    0    0    0    0 -0.00000000000E+00 -0.00000000000E+00 -0.45593999997E+02  0.45594000000E+02  0.51100000000E-03 0.  1.
         23    2    1    2    0    0  0.00000000000E+00  0.00000000000E+00  0.00000000000E+00  0.91188000000E+02  0.91188000000E+02 0.  0.
    9900012    2    3    3    0    0 -0.26279217748E+02 -0.17383325266E+02 -0.32192177062E+02  0.46142317114E+02  0.99999940951E+01 0.  0.
         12    1    3    3    0    0  0.26279217748E+02  0.17383325266E+02  0.32192177062E+02  0.45045682886E+02  0.00000000000E+00 0. -1.
         11    1    4    4    0    0 -0.12578454519E+02 -0.48742890303E+01 -0.10848395247E+02  0.17310802735E+02  0.51100000000E-03 0. -1.
        -11    1    4    4    0    0 -0.15678736647E+01 -0.45780351636E+01 -0.62552003351E+01  0.79084869147E+01  0.51100000000E-03 0.  1.
        -12    1    4    4    0    0 -0.12132889564E+02 -0.79310010717E+01 -0.15088581480E+02  0.20923027463E+02  0.00000000000E+00 0.  1.
</event>
<event>
 8    1  0.5433512E-009  0.9118800E+02  0.7816164E-02  0.1184000E+00
        -11   -1    0    0    0    0  0.00000000000E+00  0.00000000000E+00  0.45593999997E+02  0.45594000000E+02  0.51100000000E-03 0. -1.
         11   -1    0    0    0    0 -0.00000000000E+00 -0.00000000000E+00 -0.45593999997E+02  0.45594000000E+02  0.51100000000E-03 0.  1.
         23    2    1    2    0    0  0.00000000000E+00 -0.35527136788E-14 -0.35527136788E-14  0.91188000000E+02  0.91188000000E+02 0.  0.
    9900012    2    3    3    0    0  0.22016884113E+02  0.26228725325E+02 -0.29264729123E+02  0.46142316646E+02  0.99999898275E+01 0.  0.
         12    1    3    3    0    0 -0.22016884113E+02 -0.26228725325E+02  0.29264729123E+02  0.45045683354E+02  0.00000000000E+00 0. -1.
         11    1    4    4    0    0  0.99390483889E+00  0.32449622719E+00  0.53480755000E+00  0.11743781362E+01  0.51100000000E-03 0. -1.
        -11    1    4    4    0    0  0.19483461601E+02  0.22346139103E+02 -0.27625403389E+02  0.40523056665E+02  0.51100000000E-03 0.  1.
        -12    1    4    4    0    0  0.15395176732E+01  0.35580899944E+01 -0.21741332833E+01  0.44448818441E+01  0.00000000000E+00 0.  1.
</event>
<event>
 8    1  0.2962813E-009  0.9118800E+02  0.7816164E-02  0.1184000E+00
        -11   -1    0    0    0    0  0.00000000000E+00  0.00000000000E+00  0.45593999997E+02  0.45594000000E+02  0.51100000000E-03 0. -1.
         11   -1    0    0    0    0 -0.00000000000E+00 -0.00000000000E+00 -0.45593999997E+02  0.45594000000E+02  0.51100000000E-03 0.  1.
         23    2    1    2    0    0  0.00000000000E+00  0.00000000000E+00  0.00000000000E+00  0.91188000000E+02  0.91188000000E+02 0.  0.
    9900012    2    3    3    0    0 -0.11893534586E+02 -0.23087830382E+02  0.36805019006E+02  0.46142317624E+02  0.99999987508E+01 0.  0.
        -12    1    3    3    0    0  0.11893534586E+02  0.23087830382E+02 -0.36805019006E+02  0.45045682376E+02  0.00000000000E+00 0.  1.
         11    1    4    4    0    0 -0.10586439084E+02 -0.15119753157E+02  0.25906431631E+02  0.31809162644E+02  0.51100000000E-03 0. -1.
        -11    1    4    4    0    0  0.16852564519E+01 -0.39872404026E+01  0.51251503983E+01  0.67086021050E+01  0.51100000000E-03 0.  1.
        -12    1    4    4    0    0 -0.29923519543E+01 -0.39808368218E+01  0.57734369767E+01  0.76245528751E+01  0.00000000000E+00 0.  1.
</event>
<event>
 8    1  0.2962813E-009  0.9118800E+02  0.7816164E-02  0.1184000E+00
        -11   -1    0    0    0    0  0.00000000000E+00  0.00000000000E+00  0.45593999997E+02  0.45594000000E+02  0.51100000000E-03 0. -1.
         11   -1    0    0    0    0 -0.00000000000E+00 -0.00000000000E+00 -0.45593999997E+02  0.45594000000E+02  0.51100000000E-03 0.  1.
         23    2    1    2    0    0  0.00000000000E+00 -0.71054273576E-14  0.00000000000E+00  0.91188000000E+02  0.91188000000E+02 0.  0.
    9900012    2    3    3    0    0 -0.13454043727E+02  0.33954326595E+02  0.26366760405E+02  0.46142316063E+02  0.99999845133E+01 0.  0.
        -12    1    3    3    0    0  0.13454043727E+02 -0.33954326595E+02 -0.26366760405E+02  0.45045683937E+02  0.00000000000E+00 0.  1.
         11    1    4    4    0    0 -0.22510687471E+01  0.99708076168E+01  0.10547323239E+02  0.14687761667E+02  0.51100000000E-03 0. -1.
        -11    1    4    4    0    0 -0.11899015611E+02  0.21354371056E+02  0.14601841554E+02  0.28474717079E+02  0.51100000000E-03 0.  1.
        -12    1    4    4    0    0  0.69604063124E+00  0.26291479217E+01  0.12175956122E+01  0.29798373159E+01  0.00000000000E+00 0.  1.
</event>
<event>
 8    1  0.2962813E-009  0.9118800E+02  0.7816164E-02  0.1184000E+00
        -11   -1    0    0    0    0  0.00000000000E+00  0.00000000000E+00  0.45593999997E+02  0.45594000000E+02  0.51100000000E-03 0. -1.
         11   -1    0    0    0    0 -0.00000000000E+00 -0.00000000000E+00 -0.45593999997E+02  0.45594000000E+02  0.51100000000E-03 0.  1.
         23    2    1    2    0    0  0.00000000000E+00  0.00000000000E+00  0.35527136788E-14  0.91188000000E+02  0.91188000000E+02 0.  0.
    9900012    2    3    3    0    0  0.36328824287E+01  0.35576803913E+02  0.27389901410E+02  0.46142317514E+02  0.99999977443E+01 0.  0.
        -12    1    3    3    0    0 -0.36328824287E+01 -0.35576803913E+02 -0.27389901410E+02  0.45045682486E+02  0.00000000000E+00 0.  1.
         11    1    4    4    0    0  0.37793027132E+01  0.18710362836E+02  0.16792328848E+02  0.25423278995E+02  0.51100000000E-03 0. -1.
        -11    1    4    4    0    0 -0.16190830489E+01  0.15847189769E+02  0.10094348853E+02  0.18858704423E+02  0.51100000000E-03 0.  1.
        -12    1    4    4    0    0  0.14726627644E+01  0.10192513078E+01  0.50322370922E+00  0.18603340957E+01  0.00000000000E+00 0.  1.
</event>
<event>
 8    1  0.2962813E-009  0.9118800E+02  0.7816164E-02  0.1184000E+00
        -11   -1    0    0    0    0  0.00000000000E+00  0.00000000000E+00  0.45593999997E+02  0.45594000000E+02  0.51100000000E-03 0.  1.
         11   -1    0    0    0    0 -0.00000000000E+00 -0.00000000000E+00 -0.45593999997E+02  0.45594000000E+02  0.51100000000E-03 0. -1.
         23    2    1    2    0    0  0.35527136788E-14  0.00000000000E+00  0.00000000000E+00  0.91188000000E+02  0.91188000000E+02 0.  0.
    9900012    2    3    3    0    0  0.20690634566E+02  0.39116924628E+02  0.84188567155E+01  0.46142319857E+02  0.10000019113E+02 0.  0.
        -12    1    3    3    0    0 -0.20690634566E+02 -0.39116924628E+02 -0.84188567155E+01  0.45045680143E+02  0.00000000000E+00 0.  1.
         11    1    4    4    0    0  0.50602787821E+01  0.84167151183E+01 -0.72963095789E+00  0.98478361243E+01  0.51100000000E-03 0. -1.
        -11    1    4    4    0    0  0.42262699549E+01  0.53551463100E+01 -0.58455586041E+00  0.68469449792E+01  0.51100000000E-03 0.  1.
        -12    1    4    4    0    0  0.11404085829E+02  0.25345063200E+02  0.97330435338E+01  0.29447538754E+02  0.00000000000E+00 0.  1.
</event>
<event>
 8    1  0.2962813E-009  0.9118800E+02  0.7816164E-02  0.1184000E+00
        -11   -1    0    0    0    0  0.00000000000E+00  0.00000000000E+00  0.45593999997E+02  0.45594000000E+02  0.51100000000E-03 0. -1.
         11   -1    0    0    0    0 -0.00000000000E+00 -0.00000000000E+00 -0.45593999997E+02  0.45594000000E+02  0.51100000000E-03 0.  1.
         23    2    1    2    0    0  0.44408920985E-15  0.35527136788E-14  0.00000000000E+00  0.91188000000E+02  0.91188000000E+02 0.  0.
    9900012    2    3    3    0    0  0.36112640067E+01  0.21392444053E+02 -0.39477026198E+02  0.46142317768E+02  0.10000000064E+02 0.  0.
         12    1    3    3    0    0 -0.36112640067E+01 -0.21392444053E+02  0.39477026198E+02  0.45045682232E+02  0.00000000000E+00 0. -1.
         11    1    4    4    0    0 -0.31489484414E+00  0.18967698044E+01 -0.60641697115E+01  0.63616860191E+01  0.51100000000E-03 0. -1.
        -11    1    4    4    0    0  0.64247115605E+01  0.16046039237E+02 -0.27788361546E+02  0.32725301091E+02  0.51100000000E-03 0.  1.
         12    1    4    4    0    0 -0.24985527096E+01  0.34496350118E+01 -0.56244949411E+01  0.70553306584E+01  0.00000000000E+00 0. -1.
</event>
<event>
 8    1  0.2962813E-009  0.9118800E+02  0.7816164E-02  0.1184000E+00
        -11   -1    0    0    0    0  0.00000000000E+00  0.00000000000E+00  0.45593999997E+02  0.45594000000E+02  0.51100000000E-03 0. -1.
         11   -1    0    0    0    0 -0.00000000000E+00 -0.00000000000E+00 -0.45593999997E+02  0.45594000000E+02  0.51100000000E-03 0.  1.
         23    2    1    2    0    0  0.00000000000E+00  0.00000000000E+00  0.00000000000E+00  0.91188000000E+02  0.91188000000E+02 0.  0.
    9900012    2    3    3    0    0 -0.86924502554E+01  0.42214712066E+02  0.13094765783E+02  0.46142317664E+02  0.99999991110E+01 0.  0.
        -12    1    3    3    0    0  0.86924502554E+01 -0.42214712066E+02 -0.13094765783E+02  0.45045682336E+02  0.00000000000E+00 0.  1.
         11    1    4    4    0    0 -0.26740671707E+01  0.21432869802E+01  0.98771067888E+00  0.35664950525E+01  0.51100000000E-03 0.  1.
        -11    1    4    4    0    0 -0.37879834042E+01  0.29162285943E+02  0.10955216269E+02  0.31381594979E+02  0.51100000000E-03 0. -1.
        -12    1    4    4    0    0 -0.22303996804E+01  0.10909139143E+02  0.11518388348E+01  0.11194227632E+02  0.00000000000E+00 0.  1.
</event>
<event>
 8    1  0.2962813E-009  0.9118800E+02  0.7816164E-02  0.1184000E+00
        -11   -1    0    0    0    0  0.00000000000E+00  0.00000000000E+00  0.45593999997E+02  0.45594000000E+02  0.51100000000E-03 0. -1.
         11   -1    0    0    0    0 -0.00000000000E+00 -0.00000000000E+00 -0.45593999997E+02  0.45594000000E+02  0.51100000000E-03 0.  1.
         23    2    1    2    0    0  0.00000000000E+00  0.00000000000E+00  0.00000000000E+00  0.91188000000E+02  0.91188000000E+02 0.  0.
    9900012    2    3    3    0    0 -0.21326132817E+02  0.34016737565E+02 -0.20424766635E+02  0.46142317992E+02  0.10000002101E+02 0.  0.
         12    1    3    3    0    0  0.21326132817E+02 -0.34016737565E+02  0.20424766635E+02  0.45045682008E+02  0.00000000000E+00 0. -1.
         11    1    4    4    0    0 -0.13120368527E+02  0.17596177507E+02 -0.12789311950E+02  0.25403464991E+02  0.51100000000E-03 0. -1.
        -11    1    4    4    0    0 -0.85072741617E+00  0.76645226999E+01 -0.42887131930E+01  0.88239280633E+01  0.51100000000E-03 0.  1.
         12    1    4    4    0    0 -0.73550368742E+01  0.87560373584E+01 -0.33467414917E+01  0.11914924937E+02  0.00000000000E+00 0. -1.
</event>
<event>
 8    1  0.2962813E-009  0.9118800E+02  0.7816164E-02  0.1184000E+00
        -11   -1    0    0    0    0  0.00000000000E+00  0.00000000000E+00  0.45593999997E+02  0.45594000000E+02  0.51100000000E-03 0. -1.
         11   -1    0    0    0    0 -0.00000000000E+00 -0.00000000000E+00 -0.45593999997E+02  0.45594000000E+02  0.51100000000E-03 0.  1.
         23    2    1    2    0    0  0.00000000000E+00  0.00000000000E+00  0.00000000000E+00  0.91188000000E+02  0.91188000000E+02 0.  0.
    9900012    2    3    3    0    0 -0.59353593627E+01 -0.13923424261E+02  0.42426682159E+02  0.46142316601E+02  0.99999894187E+01 0.  0.
        -12    1    3    3    0    0  0.59353593627E+01  0.13923424261E+02 -0.42426682159E+02  0.45045683399E+02  0.00000000000E+00 0.  1.
         11    1    4    4    0    0  0.52681225273E+00 -0.35609106752E+01  0.20284023247E+02  0.20600951806E+02  0.51100000000E-03 0. -1.
        -11    1    4    4    0    0 -0.66457506501E+01 -0.85387410450E+01  0.19834878335E+02  0.22594213843E+02  0.51100000000E-03 0.  1.
        -12    1    4    4    0    0  0.18357903468E+00 -0.18237725409E+01  0.23077805770E+01  0.29471509521E+01  0.00000000000E+00 0.  1.
</event>
<event>
 8    1  0.2962813E-009  0.9118800E+02  0.7816164E-02  0.1184000E+00
        -11   -1    0    0    0    0  0.00000000000E+00  0.00000000000E+00  0.45593999997E+02  0.45594000000E+02  0.51100000000E-03 0.  1.
         11   -1    0    0    0    0 -0.00000000000E+00 -0.00000000000E+00 -0.45593999997E+02  0.45594000000E+02  0.51100000000E-03 0. -1.
         23    2    1    2    0    0 -0.17763568394E-14 -0.71054273576E-14  0.00000000000E+00  0.91188000000E+02  0.91188000000E+02 0.  0.
    9900012    2    3    3    0    0 -0.15423434072E+02 -0.37158646145E+02  0.20259974489E+02  0.46142313545E+02  0.99999615570E+01 0.  0.
        -12    1    3    3    0    0  0.15423434072E+02  0.37158646145E+02 -0.20259974489E+02  0.45045686455E+02  0.00000000000E+00 0.  1.
         11    1    4    4    0    0 -0.10896801262E+01 -0.14198479269E+02  0.77947658988E+01  0.16233994950E+02  0.51100000000E-03 0. -1.
        -11    1    4    4    0    0 -0.13671046313E+02 -0.20633550861E+02  0.11643031038E+02  0.27353264895E+02  0.51100000000E-03 0.  1.
        -12    1    4    4    0    0 -0.66270763238E+00 -0.23266160144E+01  0.82217755246E+00  0.25550537005E+01  0.00000000000E+00 0.  1.
</event>
<event>
 8    1  0.2962813E-009  0.9118800E+02  0.7816164E-02  0.1184000E+00
        -11   -1    0    0    0    0  0.00000000000E+00  0.00000000000E+00  0.45593999997E+02  0.45594000000E+02  0.51100000000E-03 0. -1.
         11   -1    0    0    0    0 -0.00000000000E+00 -0.00000000000E+00 -0.45593999997E+02  0.45594000000E+02  0.51100000000E-03 0.  1.
         23    2    1    2    0    0 -0.35527136788E-14  0.00000000000E+00  0.00000000000E+00  0.91188000000E+02  0.91188000000E+02 0.  0.
    9900012    2    3    3    0    0 -0.14199631432E+02  0.27199606630E+02  0.32979775296E+02  0.46142315277E+02  0.99999773448E+01 0.  0.
        -12    1    3    3    0    0  0.14199631432E+02 -0.27199606630E+02 -0.32979775296E+02  0.45045684723E+02  0.00000000000E+00 0.  1.
         11    1    4    4    0    0 -0.58576422867E+01  0.98788972470E+01  0.13150363824E+02  0.17459571958E+02  0.51100000000E-03 0. -1.
        -11    1    4    4    0    0 -0.88245158532E+01  0.17673516593E+02  0.17882006595E+02  0.26645664355E+02  0.51100000000E-03 0.  1.
        -12    1    4    4    0    0  0.48252670750E+00 -0.35280721019E+00  0.19474048768E+01  0.20370789639E+01  0.00000000000E+00 0.  1.
</event>
<event>
 8    1  0.2962813E-009  0.9118800E+02  0.7816164E-02  0.1184000E+00
        -11   -1    0    0    0    0  0.00000000000E+00  0.00000000000E+00  0.45593999997E+02  0.45594000000E+02  0.51100000000E-03 0. -1.
         11   -1    0    0    0    0 -0.00000000000E+00 -0.00000000000E+00 -0.45593999997E+02  0.45594000000E+02  0.51100000000E-03 0.  1.
         23    2    1    2    0    0  0.71054273576E-14  0.44408920985E-15  0.35527136788E-14  0.91188000000E+02  0.91188000000E+02 0.  0.
    9900012    2    3    3    0    0  0.35698892177E+02 -0.76902471146E+00 -0.27461085610E+02  0.46142317360E+02  0.99999963394E+01 0.  0.
         12    1    3    3    0    0 -0.35698892177E+02  0.76902471146E+00  0.27461085610E+02  0.45045682640E+02  0.00000000000E+00 0. -1.
         11    1    4    4    0    0  0.13167686736E+01  0.13009725148E+01 -0.17171247727E+01  0.25248617725E+01  0.51100000000E-03 0. -1.
        -11    1    4    4    0    0  0.21627745158E+02 -0.39830272721E+01 -0.13326531486E+02  0.25714204413E+02  0.51100000000E-03 0.  1.
         12    1    4    4    0    0  0.12754378345E+02  0.19130300459E+01 -0.12417429351E+02  0.17903251174E+02  0.00000000000E+00 0. -1.
</event>
<event>
 8    1  0.2962813E-009  0.9118800E+02  0.7816164E-02  0.1184000E+00
        -11   -1    0    0    0    0  0.00000000000E+00  0.00000000000E+00  0.45593999997E+02  0.45594000000E+02  0.51100000000E-03 0. -1.
         11   -1    0    0    0    0 -0.00000000000E+00 -0.00000000000E+00 -0.45593999997E+02  0.45594000000E+02  0.51100000000E-03 0.  1.
         23    2    1    2    0    0  0.00000000000E+00  0.22204460493E-15  0.00000000000E+00  0.91188000000E+02  0.91188000000E+02 0.  0.
    9900012    2    3    3    0    0  0.13070948676E+02  0.12187202055E+01 -0.43090351416E+02  0.46142319149E+02  0.10000012654E+02 0.  0.
         12    1    3    3    0    0 -0.13070948676E+02 -0.12187202055E+01  0.43090351416E+02  0.45045680851E+02  0.00000000000E+00 0. -1.
         11    1    4    4    0    0  0.85535510413E+01 -0.34450696390E+01 -0.20059708169E+02  0.22077672711E+02  0.51100000000E-03 0. -1.
        -11    1    4    4    0    0  0.28539663818E+01  0.24566351657E+01 -0.17263883146E+02  0.17669800281E+02  0.51100000000E-03 0.  1.
         12    1    4    4    0    0  0.16634312531E+01  0.22071546788E+01 -0.57667601007E+01  0.63948461568E+01  0.00000000000E+00 0. -1.
</event>
<event>
 8    1  0.3356672E-009  0.9118800E+02  0.7816164E-02  0.1184000E+00
        -11   -1    0    0    0    0  0.00000000000E+00  0.00000000000E+00  0.45593999997E+02  0.45594000000E+02  0.51100000000E-03 0. -1.
         11   -1    0    0    0    0 -0.00000000000E+00 -0.00000000000E+00 -0.45593999997E+02  0.45594000000E+02  0.51100000000E-03 0.  1.
         23    2    1    2    0    0  0.00000000000E+00  0.00000000000E+00  0.00000000000E+00  0.91188000000E+02  0.91188000000E+02 0.  0.
    9900012    2    3    3    0    0 -0.18428565203E+02  0.70224375962E+01 -0.40499220918E+02  0.46142317186E+02  0.99999947563E+01 0.  0.
         12    1    3    3    0    0  0.18428565203E+02 -0.70224375962E+01  0.40499220918E+02  0.45045682814E+02  0.00000000000E+00 0. -1.
         11    1    4    4    0    0 -0.66528335308E+01  0.47103126922E-01 -0.21516899735E+02  0.22521975650E+02  0.51100000000E-03 0. -1.
        -11    1    4    4    0    0 -0.76334017975E+01  0.51335748742E+01 -0.14948295021E+02  0.17552035161E+02  0.51100000000E-03 0.  1.
         12    1    4    4    0    0 -0.41423298743E+01  0.18417595951E+01 -0.40340261618E+01  0.60683063756E+01  0.00000000000E+00 0. -1.
</event>
<event>
 8    1  0.2962813E-009  0.9118800E+02  0.7816164E-02  0.1184000E+00
        -11   -1    0    0    0    0  0.00000000000E+00  0.00000000000E+00  0.45593999997E+02  0.45594000000E+02  0.51100000000E-03 0. -1.
         11   -1    0    0    0    0 -0.00000000000E+00 -0.00000000000E+00 -0.45593999997E+02  0.45594000000E+02  0.51100000000E-03 0.  1.
         23    2    1    2    0    0  0.00000000000E+00  0.17763568394E-14  0.00000000000E+00  0.91188000000E+02  0.91188000000E+02 0.  0.
    9900012    2    3    3    0    0 -0.90289463499E+01 -0.98885401304E+01  0.43009398988E+02  0.46142317639E+02  0.99999988833E+01 0.  0.
        -12    1    3    3    0    0  0.90289463499E+01  0.98885401304E+01 -0.43009398988E+02  0.45045682361E+02  0.00000000000E+00 0.  1.
         11    1    4    4    0    0  0.77755383445E+00 -0.20997521461E+01  0.42053603071E+01  0.47643052604E+01  0.51100000000E-03 0. -1.
        -11    1    4    4    0    0 -0.74852017989E+01 -0.38724780027E+01  0.15593075494E+02  0.17724794370E+02  0.51100000000E-03 0.  1.
         12    1    4    4    0    0 -0.23212983854E+01 -0.39163099816E+01  0.23210963187E+02  0.23653218008E+02  0.00000000000E+00 0. -1.
</event>
<event>
 8    1  0.2962813E-009  0.9118800E+02  0.7816164E-02  0.1184000E+00
        -11   -1    0    0    0    0  0.00000000000E+00  0.00000000000E+00  0.45593999997E+02  0.45594000000E+02  0.51100000000E-03 0. -1.
         11   -1    0    0    0    0 -0.00000000000E+00 -0.00000000000E+00 -0.45593999997E+02  0.45594000000E+02  0.51100000000E-03 0.  1.
         23    2    1    2    0    0 -0.35527136788E-14  0.00000000000E+00 -0.71054273576E-14  0.91188000000E+02  0.91188000000E+02 0.  0.
    9900012    2    3    3    0    0 -0.20335827495E+02  0.28292210424E+02 -0.28550280063E+02  0.46142317163E+02  0.99999945441E+01 0.  0.
         12    1    3    3    0    0  0.20335827495E+02 -0.28292210424E+02  0.28550280063E+02  0.45045682837E+02  0.00000000000E+00 0. -1.
         11    1    4    4    0    0 -0.64782009381E+00  0.63634526214E+01 -0.72190358866E+01  0.96450857711E+01  0.51100000000E-03 0. -1.
        -11    1    4    4    0    0 -0.14664138698E+02  0.17217889219E+02 -0.17648767307E+02  0.28687482647E+02  0.51100000000E-03 0.  1.
         12    1    4    4    0    0 -0.50238687033E+01  0.47108685836E+01 -0.36824768701E+01  0.78097487449E+01  0.00000000000E+00 0. -1.
</event>
<event>
 8    1  0.2962813E-009  0.9118800E+02  0.7816164E-02  0.1184000E+00
        -11   -1    0    0    0    0  0.00000000000E+00  0.00000000000E+00  0.45593999997E+02  0.45594000000E+02  0.51100000000E-03 0. -1.
         11   -1    0    0    0    0 -0.00000000000E+00 -0.00000000000E+00 -0.45593999997E+02  0.45594000000E+02  0.51100000000E-03 0.  1.
         23    2    1    2    0    0  0.71054273576E-14  0.88817841970E-15 -0.35527136788E-14  0.91188000000E+02  0.91188000000E+02 0.  0.
    9900012    2    3    3    0    0  0.36402883718E+02  0.76282367704E+01 -0.25411681017E+02  0.46142317951E+02  0.10000001728E+02 0.  0.
         12    1    3    3    0    0 -0.36402883718E+02 -0.76282367704E+01  0.25411681017E+02  0.45045682049E+02  0.00000000000E+00 0. -1.
         11    1    4    4    0    0  0.41855152840E+01  0.13824844616E+01 -0.72150344924E+01  0.84549704001E+01  0.51100000000E-03 0. -1.
        -11    1    4    4    0    0  0.26924222993E+02  0.62308263387E+01 -0.14313443288E+02  0.31122526241E+02  0.51100000000E-03 0.  1.
         12    1    4    4    0    0  0.52931454410E+01  0.14925970152E-01 -0.38832032366E+01  0.65648213092E+01  0.00000000000E+00 0. -1.
</event>
<event>
 8    1  0.2962813E-009  0.9118800E+02  0.7816164E-02  0.1184000E+00
        -11   -1    0    0    0    0  0.00000000000E+00  0.00000000000E+00  0.45593999997E+02  0.45594000000E+02  0.51100000000E-03 0. -1.
         11   -1    0    0    0    0 -0.00000000000E+00 -0.00000000000E+00 -0.45593999997E+02  0.45594000000E+02  0.51100000000E-03 0.  1.
         23    2    1    2    0    0 -0.44408920985E-15  0.00000000000E+00  0.35527136788E-14  0.91188000000E+02  0.91188000000E+02 0.  0.
    9900012    2    3    3    0    0 -0.23425111699E+01 -0.34982640538E+02  0.28281460138E+02  0.46142317797E+02  0.10000000329E+02 0.  0.
        -12    1    3    3    0    0  0.23425111699E+01  0.34982640538E+02 -0.28281460138E+02  0.45045682203E+02  0.00000000000E+00 0.  1.
         11    1    4    4    0    0 -0.27787589831E+01 -0.32365119066E+02  0.22691734880E+02  0.39624957612E+02  0.51100000000E-03 0. -1.
        -11    1    4    4    0    0  0.95746163953E+00 -0.81145016370E+00  0.11756450512E+01  0.17196876771E+01  0.51100000000E-03 0.  1.
         12    1    4    4    0    0 -0.52121382634E+00 -0.18060713086E+01  0.44140802064E+01  0.47976725079E+01  0.00000000000E+00 0. -1.
</event>
<event>
 8    1  0.2962813E-009  0.9118800E+02  0.7816164E-02  0.1184000E+00
        -11   -1    0    0    0    0  0.00000000000E+00  0.00000000000E+00  0.45593999997E+02  0.45594000000E+02  0.51100000000E-03 0. -1.
         11   -1    0    0    0    0 -0.00000000000E+00 -0.00000000000E+00 -0.45593999997E+02  0.45594000000E+02  0.51100000000E-03 0.  1.
         23    2    1    2    0    0 -0.33306690739E-15  0.00000000000E+00 -0.71054273576E-14  0.91188000000E+02  0.91188000000E+02 0.  0.
    9900012    2    3    3    0    0 -0.77286331348E+00 -0.83767841261E+01 -0.44253198530E+02  0.46142318629E+02  0.10000007915E+02 0.  0.
         12    1    3    3    0    0  0.77286331348E+00  0.83767841261E+01  0.44253198530E+02  0.45045681371E+02  0.00000000000E+00 0. -1.
         11    1    4    4    0    0  0.26237606003E+01 -0.32041159999E+01 -0.26654132097E+02  0.26973936256E+02  0.51100000000E-03 0. -1.
        -11    1    4    4    0    0 -0.24084653897E+01 -0.46278395825E+01 -0.17196283011E+02  0.17970246364E+02  0.51100000000E-03 0.  1.
         12    1    4    4    0    0 -0.98815852404E+00 -0.54482854363E+00 -0.40278342214E+00  0.11981360089E+01  0.00000000000E+00 0. -1.
</event>
<event>
 8    1  0.3725282E-009  0.9118800E+02  0.7816164E-02  0.1184000E+00
        -11   -1    0    0    0    0  0.00000000000E+00  0.00000000000E+00  0.45593999997E+02  0.45594000000E+02  0.51100000000E-03 0. -1.
         11   -1    0    0    0    0 -0.00000000000E+00 -0.00000000000E+00 -0.45593999997E+02  0.45594000000E+02  0.51100000000E-03 0.  1.
         23    2    1    2    0    0  0.00000000000E+00  0.35527136788E-14  0.00000000000E+00  0.91188000000E+02  0.91188000000E+02 0.  0.
    9900012    2    3    3    0    0  0.44335774827E+01 -0.19455538282E+02 -0.40384884913E+02  0.46142317537E+02  0.99999979540E+01 0.  0.
         12    1    3    3    0    0 -0.44335774827E+01  0.19455538282E+02  0.40384884913E+02  0.45045682463E+02  0.00000000000E+00 0. -1.
         11    1    4    4    0    0  0.17649736971E+01 -0.19582646104E+01 -0.23482504985E+01  0.35304692465E+01  0.51100000000E-03 0. -1.
        -11    1    4    4    0    0 -0.75392709152E+00 -0.15278389645E-01 -0.52001297069E+01  0.52545207887E+01  0.51100000000E-03 0.  1.
        -12    1    4    4    0    0  0.34225308772E+01 -0.17481995282E+02 -0.32836504708E+02  0.37357327502E+02  0.00000000000E+00 0.  1.
</event>
<event>
 8    1  0.2962813E-009  0.9118800E+02  0.7816164E-02  0.1184000E+00
        -11   -1    0    0    0    0  0.00000000000E+00  0.00000000000E+00  0.45593999997E+02  0.45594000000E+02  0.51100000000E-03 0. -1.
         11   -1    0    0    0    0 -0.00000000000E+00 -0.00000000000E+00 -0.45593999997E+02  0.45594000000E+02  0.51100000000E-03 0.  1.
         23    2    1    2    0    0  0.00000000000E+00  0.00000000000E+00 -0.71054273576E-14  0.91188000000E+02  0.91188000000E+02 0.  0.
    9900012    2    3    3    0    0 -0.28156056619E+02 -0.39059005796E+01 -0.34944152823E+02  0.46142318740E+02  0.10000008926E+02 0.  0.
         12    1    3    3    0    0  0.28156056619E+02  0.39059005796E+01  0.34944152823E+02  0.45045681260E+02  0.00000000000E+00 0. -1.
         11    1    4    4    0    0 -0.11473782598E+02  0.13094419701E+01 -0.95335988029E+01  0.14975040293E+02  0.51100000000E-03 0. -1.
        -11    1    4    4    0    0 -0.10540704010E+02 -0.25317746121E+01 -0.11975800032E+02  0.16153516967E+02  0.51100000000E-03 0.  1.
         12    1    4    4    0    0 -0.61415700102E+01 -0.26835679376E+01 -0.13434753988E+02  0.15013761480E+02  0.00000000000E+00 0. -1.
</event>
<event>
 8    1  0.2962813E-009  0.9118800E+02  0.7816164E-02  0.1184000E+00
        -11   -1    0    0    0    0  0.00000000000E+00  0.00000000000E+00  0.45593999997E+02  0.45594000000E+02  0.51100000000E-03 0. -1.
         11   -1    0    0    0    0 -0.00000000000E+00 -0.00000000000E+00 -0.45593999997E+02  0.45594000000E+02  0.51100000000E-03 0.  1.
         23    2    1    2    0    0 -0.71054273576E-14  0.00000000000E+00  0.35527136788E-14  0.91188000000E+02  0.91188000000E+02 0.  0.
    9900012    2    3    3    0    0  0.40812715690E+02 -0.20999134969E+01 -0.18947978250E+02  0.46142320092E+02  0.10000021251E+02 0.  0.
         12    1    3    3    0    0 -0.40812715690E+02  0.20999134969E+01  0.18947978250E+02  0.45045679908E+02  0.00000000000E+00 0. -1.
         11    1    4    4    0    0  0.25011593039E+02 -0.40338577293E+01 -0.95815591237E+01  0.27086123201E+02  0.51100000000E-03 0. -1.
        -11    1    4    4    0    0  0.46055993025E+01  0.10554717219E+01 -0.53301546500E+01  0.71229287758E+01  0.51100000000E-03 0.  1.
        -12    1    4    4    0    0  0.11195523348E+02  0.87847251049E+00 -0.40362644760E+01  0.11933268115E+02  0.00000000000E+00 0.  1.
</event>
<event>
 8    1  0.2962813E-009  0.9118800E+02  0.7816164E-02  0.1184000E+00
        -11   -1    0    0    0    0  0.00000000000E+00  0.00000000000E+00  0.45593999997E+02  0.45594000000E+02  0.51100000000E-03 0. -1.
         11   -1    0    0    0    0 -0.00000000000E+00 -0.00000000000E+00 -0.45593999997E+02  0.45594000000E+02  0.51100000000E-03 0.  1.
         23    2    1    2    0    0  0.00000000000E+00  0.00000000000E+00  0.00000000000E+00  0.91188000000E+02  0.91188000000E+02 0.  0.
    9900012    2    3    3    0    0  0.20170717436E+02 -0.36788939798E+02  0.16396021854E+02  0.46142318009E+02  0.10000002265E+02 0.  0.
        -12    1    3    3    0    0 -0.20170717436E+02  0.36788939798E+02 -0.16396021854E+02  0.45045681991E+02  0.00000000000E+00 0.  1.
         11    1    4    4    0    0  0.41597718453E+01 -0.31759096689E+01  0.14040427975E+00  0.52354386304E+01  0.51100000000E-03 0. -1.
        -11    1    4    4    0    0  0.83219559354E+00 -0.39018534092E+01  0.30612976320E+01  0.50287725128E+01  0.51100000000E-03 0.  1.
         12    1    4    4    0    0  0.15178749997E+02 -0.29711176720E+02  0.13194319942E+02  0.35878106866E+02  0.00000000000E+00 0. -1.
</event>
<event>
 8    1  0.2962813E-009  0.9118800E+02  0.7816164E-02  0.1184000E+00
        -11   -1    0    0    0    0  0.00000000000E+00  0.00000000000E+00  0.45593999997E+02  0.45594000000E+02  0.51100000000E-03 0.  1.
         11   -1    0    0    0    0 -0.00000000000E+00 -0.00000000000E+00 -0.45593999997E+02  0.45594000000E+02  0.51100000000E-03 0. -1.
         23    2    1    2    0    0  0.00000000000E+00  0.00000000000E+00  0.88817841970E-15  0.91188000000E+02  0.91188000000E+02 0.  0.
    9900012    2    3    3    0    0  0.44421234213E+02 -0.47926665070E+01 -0.57356246505E+01  0.46142322168E+02  0.10000040184E+02 0.  0.
        -12    1    3    3    0    0 -0.44421234213E+02  0.47926665070E+01  0.57356246505E+01  0.45045677832E+02  0.00000000000E+00 0.  1.
         11    1    4    4    0    0  0.12084772956E+02  0.20174577430E+01 -0.10918660326E+01  0.12300570915E+02  0.51100000000E-03 0. -1.
        -11    1    4    4    0    0  0.30885729889E+02 -0.76672222369E+01 -0.46183874648E+01  0.32156556262E+02  0.51100000000E-03 0.  1.
        -12    1    4    4    0    0  0.14507313675E+01  0.85709798692E+00 -0.25371153084E-01  0.16851949903E+01  0.00000000000E+00 0.  1.
</event>
<event>
 8    1  0.2962813E-009  0.9118800E+02  0.7816164E-02  0.1184000E+00
        -11   -1    0    0    0    0  0.00000000000E+00  0.00000000000E+00  0.45593999997E+02  0.45594000000E+02  0.51100000000E-03 0. -1.
         11   -1    0    0    0    0 -0.00000000000E+00 -0.00000000000E+00 -0.45593999997E+02  0.45594000000E+02  0.51100000000E-03 0.  1.
         23    2    1    2    0    0 -0.17763568394E-14  0.35527136788E-14 -0.71054273576E-14  0.91188000000E+02  0.91188000000E+02 0.  0.
    9900012    2    3    3    0    0 -0.15516185326E+02  0.24325796074E+02 -0.34592163545E+02  0.46142310523E+02  0.99999339992E+01 0.  0.
         12    1    3    3    0    0  0.15516185326E+02 -0.24325796074E+02  0.34592163545E+02  0.45045689477E+02  0.00000000000E+00 0. -1.
         11    1    4    4    0    0 -0.77243190717E+01  0.83253706487E+01 -0.77510313993E+01  0.13749741437E+02  0.51100000000E-03 0.  1.
        -11    1    4    4    0    0 -0.44076483290E+01  0.12087840044E+02 -0.20577964584E+02  0.24269237059E+02  0.51100000000E-03 0. -1.
        -12    1    4    4    0    0 -0.33842179251E+01  0.39125853810E+01 -0.62631675618E+01  0.81233320279E+01  0.00000000000E+00 0.  1.
</event>
<event>
 8    1  0.2962813E-009  0.9118800E+02  0.7816164E-02  0.1184000E+00
        -11   -1    0    0    0    0  0.00000000000E+00  0.00000000000E+00  0.45593999997E+02  0.45594000000E+02  0.51100000000E-03 0. -1.
         11   -1    0    0    0    0 -0.00000000000E+00 -0.00000000000E+00 -0.45593999997E+02  0.45594000000E+02  0.51100000000E-03 0.  1.
         23    2    1    2    0    0  0.44408920985E-15 -0.35527136788E-14  0.00000000000E+00  0.91188000000E+02  0.91188000000E+02 0.  0.
    9900012    2    3    3    0    0  0.33871268898E+01 -0.23014714535E+02  0.38574133255E+02  0.46142317964E+02  0.10000001855E+02 0.  0.
        -12    1    3    3    0    0 -0.33871268898E+01  0.23014714535E+02 -0.38574133255E+02  0.45045682036E+02  0.00000000000E+00 0.  1.
         11    1    4    4    0    0  0.36861632113E+01 -0.12317163726E+02  0.21256643393E+02  0.24842407493E+02  0.51100000000E-03 0. -1.
        -11    1    4    4    0    0 -0.23812635566E+01 -0.45984460224E+01  0.11523578616E+02  0.12633645013E+02  0.51100000000E-03 0.  1.
        -12    1    4    4    0    0  0.20822272351E+01 -0.60991047870E+01  0.57939112458E+01  0.86662654579E+01  0.00000000000E+00 0.  1.
</event>
<event>
 8    1  0.2962813E-009  0.9118800E+02  0.7816164E-02  0.1184000E+00
        -11   -1    0    0    0    0  0.00000000000E+00  0.00000000000E+00  0.45593999997E+02  0.45594000000E+02  0.51100000000E-03 0. -1.
         11   -1    0    0    0    0 -0.00000000000E+00 -0.00000000000E+00 -0.45593999997E+02  0.45594000000E+02  0.51100000000E-03 0.  1.
         23    2    1    2    0    0  0.71054273576E-14  0.35527136788E-14  0.00000000000E+00  0.91188000000E+02  0.91188000000E+02 0.  0.
    9900012    2    3    3    0    0 -0.29925099305E+02 -0.24116039292E+02  0.23495091264E+02  0.46142309496E+02  0.99999246283E+01 0.  0.
        -12    1    3    3    0    0  0.29925099305E+02  0.24116039292E+02 -0.23495091264E+02  0.45045690504E+02  0.00000000000E+00 0.  1.
         11    1    4    4    0    0 -0.35944148010E+01 -0.55453072065E+01  0.11991351215E+01  0.67162619869E+01  0.51100000000E-03 0. -1.
        -11    1    4    4    0    0 -0.26055039104E+02 -0.18788045418E+02  0.21811468698E+02  0.38827772024E+02  0.51100000000E-03 0.  1.
        -12    1    4    4    0    0 -0.27564539968E+00  0.21731333307E+00  0.48448744501E+00  0.59827548460E+00  0.00000000000E+00 0.  1.
</event>
<event>
 8    1  0.2962813E-009  0.9118800E+02  0.7816164E-02  0.1184000E+00
        -11   -1    0    0    0    0  0.00000000000E+00  0.00000000000E+00  0.45593999997E+02  0.45594000000E+02  0.51100000000E-03 0. -1.
         11   -1    0    0    0    0 -0.00000000000E+00 -0.00000000000E+00 -0.45593999997E+02  0.45594000000E+02  0.51100000000E-03 0.  1.
         23    2    1    2    0    0  0.17763568394E-14  0.17763568394E-14  0.00000000000E+00  0.91188000000E+02  0.91188000000E+02 0.  0.
    9900012    2    3    3    0    0  0.15526253972E+02  0.13653369642E+02  0.40020424781E+02  0.46142318024E+02  0.10000002399E+02 0.  0.
        -12    1    3    3    0    0 -0.15526253972E+02 -0.13653369642E+02 -0.40020424781E+02  0.45045681976E+02  0.00000000000E+00 0.  1.
         11    1    4    4    0    0 -0.11121775458E+01  0.34360045482E+00  0.17658087874E+01  0.21149659810E+01  0.51100000000E-03 0. -1.
        -11    1    4    4    0    0  0.41210830540E+01  0.14627235234E+01  0.10256621144E+02  0.11149940053E+02  0.51100000000E-03 0.  1.
         12    1    4    4    0    0  0.12517348464E+02  0.11847045664E+02  0.27997994850E+02  0.32877411990E+02  0.00000000000E+00 0. -1.
</event>
<event>
 8    1  0.2962813E-009  0.9118800E+02  0.7816164E-02  0.1184000E+00
        -11   -1    0    0    0    0  0.00000000000E+00  0.00000000000E+00  0.45593999997E+02  0.45594000000E+02  0.51100000000E-03 0.  1.
         11   -1    0    0    0    0 -0.00000000000E+00 -0.00000000000E+00 -0.45593999997E+02  0.45594000000E+02  0.51100000000E-03 0. -1.
         23    2    1    2    0    0  0.00000000000E+00  0.00000000000E+00  0.00000000000E+00  0.91188000000E+02  0.91188000000E+02 0.  0.
    9900012    2    3    3    0    0 -0.20761932844E+02  0.27948377986E+02  0.28582228266E+02  0.46142318075E+02  0.10000002861E+02 0.  0.
        -12    1    3    3    0    0  0.20761932844E+02 -0.27948377986E+02 -0.28582228266E+02  0.45045681925E+02  0.00000000000E+00 0.  1.
         11    1    4    4    0    0 -0.93751212561E+01  0.14811242723E+02  0.15830001595E+02  0.23618949179E+02  0.51100000000E-03 0. -1.
        -11    1    4    4    0    0 -0.19988464115E+01  0.60606822424E+01  0.22727350652E+01  0.67744063325E+01  0.51100000000E-03 0.  1.
         12    1    4    4    0    0 -0.93879651765E+01  0.70764530206E+01  0.10479491606E+02  0.15748962563E+02  0.00000000000E+00 0. -1.
</event>
<event>
 8    1  0.2962813E-009  0.9118800E+02  0.7816164E-02  0.1184000E+00
        -11   -1    0    0    0    0  0.00000000000E+00  0.00000000000E+00  0.45593999997E+02  0.45594000000E+02  0.51100000000E-03 0. -1.
         11   -1    0    0    0    0 -0.00000000000E+00 -0.00000000000E+00 -0.45593999997E+02  0.45594000000E+02  0.51100000000E-03 0.  1.
         23    2    1    2    0    0  0.88817841970E-15 -0.88817841970E-15  0.00000000000E+00  0.91188000000E+02  0.91188000000E+02 0.  0.
    9900012    2    3    3    0    0 -0.77232274763E+01  0.75136073854E+01  0.43737980723E+02  0.46142317673E+02  0.99999991972E+01 0.  0.
        -12    1    3    3    0    0  0.77232274763E+01 -0.75136073854E+01 -0.43737980723E+02  0.45045682327E+02  0.00000000000E+00 0.  1.
         11    1    4    4    0    0 -0.73768958268E+01  0.42924354258E+01  0.31428243584E+02  0.32566517913E+02  0.51100000000E-03 0. -1.
        -11    1    4    4    0    0 -0.14896944924E+01  0.62344524716E+00  0.96462715731E+00  0.18810580721E+01  0.51100000000E-03 0.  1.
        -12    1    4    4    0    0  0.11433628429E+01  0.25977267125E+01  0.11345109981E+02  0.11694741688E+02  0.00000000000E+00 0.  1.
</event>
<event>
 8    1  0.2962813E-009  0.9118800E+02  0.7816164E-02  0.1184000E+00
        -11   -1    0    0    0    0  0.00000000000E+00  0.00000000000E+00  0.45593999997E+02  0.45594000000E+02  0.51100000000E-03 0. -1.
         11   -1    0    0    0    0 -0.00000000000E+00 -0.00000000000E+00 -0.45593999997E+02  0.45594000000E+02  0.51100000000E-03 0.  1.
         23    2    1    2    0    0  0.00000000000E+00 -0.17763568394E-14  0.71054273576E-14  0.91188000000E+02  0.91188000000E+02 0.  0.
    9900012    2    3    3    0    0 -0.14456423493E+02 -0.15567511678E+02  0.39721251705E+02  0.46142318331E+02  0.10000005197E+02 0.  0.
        -12    1    3    3    0    0  0.14456423493E+02  0.15567511678E+02 -0.39721251705E+02  0.45045681669E+02  0.00000000000E+00 0.  1.
         11    1    4    4    0    0 -0.80010495447E+01 -0.48000810880E+01  0.91049084477E+01  0.13036753061E+02  0.51100000000E-03 0. -1.
        -11    1    4    4    0    0 -0.22644395000E+01 -0.29861403235E+01  0.85652144075E+01  0.93492041580E+01  0.51100000000E-03 0.  1.
         12    1    4    4    0    0 -0.41909344485E+01 -0.77812902662E+01  0.22051128849E+02  0.23756361112E+02  0.00000000000E+00 0. -1.
</event>
<event>
 8    1  0.2962813E-009  0.9118800E+02  0.7816164E-02  0.1184000E+00
        -11   -1    0    0    0    0  0.00000000000E+00  0.00000000000E+00  0.45593999997E+02  0.45594000000E+02  0.51100000000E-03 0.  1.
         11   -1    0    0    0    0 -0.00000000000E+00 -0.00000000000E+00 -0.45593999997E+02  0.45594000000E+02  0.51100000000E-03 0. -1.
         23    2    1    2    0    0  0.35527136788E-14  0.22204460493E-15  0.71054273576E-14  0.91188000000E+02  0.91188000000E+02 0.  0.
    9900012    2    3    3    0    0 -0.23943832554E+02  0.15983845315E+01  0.38121536077E+02  0.46142318039E+02  0.10000002530E+02 0.  0.
        -12    1    3    3    0    0  0.23943832554E+02 -0.15983845315E+01 -0.38121536077E+02  0.45045681961E+02  0.00000000000E+00 0.  1.
         11    1    4    4    0    0 -0.89148533822E+01  0.33238276086E+01  0.19992345378E+02  0.22140829135E+02  0.51100000000E-03 0. -1.
        -11    1    4    4    0    0 -0.13960252677E+02 -0.15936235970E+01  0.18113718971E+02  0.22924552475E+02  0.51100000000E-03 0.  1.
         12    1    4    4    0    0 -0.10687264949E+01 -0.13181948004E+00  0.15471727939E-01  0.10769364283E+01  0.00000000000E+00 0. -1.
</event>
<event>
 8    1  0.2962813E-009  0.9118800E+02  0.7816164E-02  0.1184000E+00
        -11   -1    0    0    0    0  0.00000000000E+00  0.00000000000E+00  0.45593999997E+02  0.45594000000E+02  0.51100000000E-03 0. -1.
         11   -1    0    0    0    0 -0.00000000000E+00 -0.00000000000E+00 -0.45593999997E+02  0.45594000000E+02  0.51100000000E-03 0.  1.
         23    2    1    2    0    0  0.35527136788E-14 -0.17763568394E-14 -0.35527136788E-14  0.91188000000E+02  0.91188000000E+02 0.  0.
    9900012    2    3    3    0    0 -0.31774607511E+02  0.14567709968E+02  0.28412491062E+02  0.46142317582E+02  0.99999983673E+01 0.  0.
        -12    1    3    3    0    0  0.31774607511E+02 -0.14567709968E+02 -0.28412491062E+02  0.45045682418E+02  0.00000000000E+00 0.  1.
         11    1    4    4    0    0 -0.49053139038E+01  0.35321657106E+01  0.12794785837E+01  0.61786215946E+01  0.51100000000E-03 0. -1.
        -11    1    4    4    0    0 -0.49315032043E+01  0.45974728067E+00  0.53301900797E+01  0.72761265769E+01  0.51100000000E-03 0.  1.
         12    1    4    4    0    0 -0.21937790402E+02  0.10575796977E+02  0.21802822398E+02  0.32687569411E+02  0.00000000000E+00 0. -1.
</event>
<event>
 8    1  0.2962813E-009  0.9118800E+02  0.7816164E-02  0.1184000E+00
        -11   -1    0    0    0    0  0.00000000000E+00  0.00000000000E+00  0.45593999997E+02  0.45594000000E+02  0.51100000000E-03 0. -1.
         11   -1    0    0    0    0 -0.00000000000E+00 -0.00000000000E+00 -0.45593999997E+02  0.45594000000E+02  0.51100000000E-03 0.  1.
         23    2    1    2    0    0  0.00000000000E+00  0.17763568394E-14  0.00000000000E+00  0.91188000000E+02  0.91188000000E+02 0.  0.
    9900012    2    3    3    0    0 -0.35684442625E+02 -0.11699742380E+02 -0.24876698669E+02  0.46142317034E+02  0.99999933685E+01 0.  0.
         12    1    3    3    0    0  0.35684442625E+02  0.11699742380E+02  0.24876698669E+02  0.45045682966E+02  0.00000000000E+00 0. -1.
         11    1    4    4    0    0 -0.31925410848E+01  0.11644894383E+00 -0.17453417600E+01  0.36403429859E+01  0.51100000000E-03 0. -1.
        -11    1    4    4    0    0  0.48387741963E+00 -0.66697101913E+00 -0.32039732059E+00  0.88410542457E+00  0.51100000000E-03 0.  1.
        -12    1    4    4    0    0 -0.32975778960E+02 -0.11149220304E+02 -0.22810959589E+02  0.41617868623E+02  0.00000000000E+00 0.  1.
</event>
<event>
 8    1  0.2962813E-009  0.9118800E+02  0.7816164E-02  0.1184000E+00
        -11   -1    0    0    0    0  0.00000000000E+00  0.00000000000E+00  0.45593999997E+02  0.45594000000E+02  0.51100000000E-03 0. -1.
         11   -1    0    0    0    0 -0.00000000000E+00 -0.00000000000E+00 -0.45593999997E+02  0.45594000000E+02  0.51100000000E-03 0.  1.
         23    2    1    2    0    0 -0.71054273576E-14 -0.22204460493E-15  0.00000000000E+00  0.91188000000E+02  0.91188000000E+02 0.  0.
    9900012    2    3    3    0    0 -0.31408489806E+02 -0.13573535314E+01  0.32261093986E+02  0.46142314017E+02  0.99999658539E+01 0.  0.
        -12    1    3    3    0    0  0.31408489806E+02  0.13573535314E+01 -0.32261093986E+02  0.45045685983E+02  0.00000000000E+00 0.  1.
         11    1    4    4    0    0 -0.22312301255E+02 -0.27769967988E+00  0.23518436780E+02  0.32419635613E+02  0.51100000000E-03 0. -1.
        -11    1    4    4    0    0 -0.35313713470E+01  0.11932325690E+01  0.61168134130E+01  0.71630855185E+01  0.51100000000E-03 0.  1.
        -12    1    4    4    0    0 -0.55648172039E+01 -0.22728864205E+01  0.26258437931E+01  0.65595928852E+01  0.00000000000E+00 0.  1.
</event>
<event>
 8    1  0.2962813E-009  0.9118800E+02  0.7816164E-02  0.1184000E+00
        -11   -1    0    0    0    0  0.00000000000E+00  0.00000000000E+00  0.45593999997E+02  0.45594000000E+02  0.51100000000E-03 0. -1.
         11   -1    0    0    0    0 -0.00000000000E+00 -0.00000000000E+00 -0.45593999997E+02  0.45594000000E+02  0.51100000000E-03 0.  1.
         23    2    1    2    0    0  0.44408920985E-15  0.35527136788E-14  0.71054273576E-14  0.91188000000E+02  0.91188000000E+02 0.  0.
    9900012    2    3    3    0    0 -0.20161833445E+01 -0.23785048413E+02 -0.38201046867E+02  0.46142317577E+02  0.99999983176E+01 0.  0.
         12    1    3    3    0    0  0.20161833445E+01  0.23785048413E+02  0.38201046867E+02  0.45045682423E+02  0.00000000000E+00 0. -1.
         11    1    4    4    0    0 -0.11540772891E+01 -0.13729984064E+01 -0.89810335998E+01  0.91583832523E+01  0.51100000000E-03 0. -1.
        -11    1    4    4    0    0 -0.24430530340E+00 -0.21409292478E+02 -0.26886797958E+02  0.34370298139E+02  0.51100000000E-03 0.  1.
        -12    1    4    4    0    0 -0.61780075196E+00 -0.10027575282E+01 -0.23332153090E+01  0.26136361850E+01  0.00000000000E+00 0.  1.
</event>
<event>
 8    1  0.2962813E-009  0.9118800E+02  0.7816164E-02  0.1184000E+00
        -11   -1    0    0    0    0  0.00000000000E+00  0.00000000000E+00  0.45593999997E+02  0.45594000000E+02  0.51100000000E-03 0. -1.
         11   -1    0    0    0    0 -0.00000000000E+00 -0.00000000000E+00 -0.45593999997E+02  0.45594000000E+02  0.51100000000E-03 0.  1.
         23    2    1    2    0    0  0.00000000000E+00  0.00000000000E+00 -0.71054273576E-14  0.91188000000E+02  0.91188000000E+02 0.  0.
    9900012    2    3    3    0    0  0.15257258805E+02 -0.88754141049E+01 -0.41443414291E+02  0.46142317523E+02  0.99999978266E+01 0.  0.
         12    1    3    3    0    0 -0.15257258805E+02  0.88754141049E+01  0.41443414291E+02  0.45045682477E+02  0.00000000000E+00 0. -1.
         11    1    4    4    0    0 -0.23082972880E+00  0.13329555807E+01 -0.49912446060E+01  0.51713224539E+01  0.51100000000E-03 0. -1.
        -11    1    4    4    0    0  0.17042063784E+01 -0.69317365327E+00 -0.51613968816E+01  0.54794915024E+01  0.51100000000E-03 0.  1.
         12    1    4    4    0    0  0.13783882155E+02 -0.95151960323E+01 -0.31290772803E+02  0.35491503566E+02  0.00000000000E+00 0. -1.
</event>
<event>
 8    1  0.2962813E-009  0.9118800E+02  0.7816164E-02  0.1184000E+00
        -11   -1    0    0    0    0  0.00000000000E+00  0.00000000000E+00  0.45593999997E+02  0.45594000000E+02  0.51100000000E-03 0. -1.
         11   -1    0    0    0    0 -0.00000000000E+00 -0.00000000000E+00 -0.45593999997E+02  0.45594000000E+02  0.51100000000E-03 0.  1.
         23    2    1    2    0    0  0.17763568394E-14  0.17763568394E-14  0.71054273576E-14  0.91188000000E+02  0.91188000000E+02 0.  0.
    9900012    2    3    3    0    0 -0.85276409713E+01 -0.85953719991E+01 -0.43387929253E+02  0.46142317796E+02  0.10000000321E+02 0.  0.
         12    1    3    3    0    0  0.85276409713E+01  0.85953719991E+01  0.43387929253E+02  0.45045682204E+02  0.00000000000E+00 0. -1.
         11    1    4    4    0    0 -0.54593032080E+01 -0.73787475138E+01 -0.16281520505E+02  0.18690580959E+02  0.51100000000E-03 0. -1.
        -11    1    4    4    0    0 -0.29622045113E+01 -0.13131726494E+01 -0.27115081463E+02  0.27307997381E+02  0.51100000000E-03 0.  1.
         12    1    4    4    0    0 -0.10613325190E+00  0.96548164083E-01  0.86727147642E-02  0.14373945571E+00  0.00000000000E+00 0. -1.
</event>
<event>
 8    1  0.2962813E-009  0.9118800E+02  0.7816164E-02  0.1184000E+00
        -11   -1    0    0    0    0  0.00000000000E+00  0.00000000000E+00  0.45593999997E+02  0.45594000000E+02  0.51100000000E-03 0. -1.
         11   -1    0    0    0    0 -0.00000000000E+00 -0.00000000000E+00 -0.45593999997E+02  0.45594000000E+02  0.51100000000E-03 0.  1.
         23    2    1    2    0    0  0.00000000000E+00  0.35527136788E-14  0.00000000000E+00  0.91188000000E+02  0.91188000000E+02 0.  0.
    9900012    2    3    3    0    0  0.19748711330E+02 -0.22082952318E+02 -0.33932950210E+02  0.46142317718E+02  0.99999996071E+01 0.  0.
         12    1    3    3    0    0 -0.19748711330E+02  0.22082952318E+02  0.33932950210E+02  0.45045682282E+02  0.00000000000E+00 0. -1.
         11    1    4    4    0    0  0.79512265630E+01 -0.86355882816E+01 -0.17962360338E+02  0.21457907121E+02  0.51100000000E-03 0. -1.
        -11    1    4    4    0    0  0.99331506112E+01 -0.82650827725E+01 -0.87612668546E+01  0.15612138593E+02  0.51100000000E-03 0.  1.
         12    1    4    4    0    0  0.18643341563E+01 -0.51822812639E+01 -0.72093230171E+01  0.90722720037E+01  0.00000000000E+00 0. -1.
</event>
<event>
 8    1  0.2962813E-009  0.9118800E+02  0.7816164E-02  0.1184000E+00
        -11   -1    0    0    0    0  0.00000000000E+00  0.00000000000E+00  0.45593999997E+02  0.45594000000E+02  0.51100000000E-03 0. -1.
         11   -1    0    0    0    0 -0.00000000000E+00 -0.00000000000E+00 -0.45593999997E+02  0.45594000000E+02  0.51100000000E-03 0.  1.
         23    2    1    2    0    0 -0.88817841970E-15  0.35527136788E-14  0.71054273576E-14  0.91188000000E+02  0.91188000000E+02 0.  0.
    9900012    2    3    3    0    0  0.52714564987E+01  0.19467007029E+02  0.40278541469E+02  0.46142317420E+02  0.99999968856E+01 0.  0.
        -12    1    3    3    0    0 -0.52714564987E+01 -0.19467007029E+02 -0.40278541469E+02  0.45045682580E+02  0.00000000000E+00 0.  1.
         11    1    4    4    0    0  0.34976117608E+01  0.59656713985E+01  0.20300075965E+02  0.21445643094E+02  0.51100000000E-03 0. -1.
        -11    1    4    4    0    0  0.24230000441E+01  0.10524086113E+02  0.11936797673E+02  0.16097032542E+02  0.51100000000E-03 0.  1.
        -12    1    4    4    0    0 -0.64915530621E+00  0.29772495181E+01  0.80416678308E+01  0.85996417836E+01  0.00000000000E+00 0.  1.
</event>
<event>
 8    1  0.2962813E-009  0.9118800E+02  0.7816164E-02  0.1184000E+00
        -11   -1    0    0    0    0  0.00000000000E+00  0.00000000000E+00  0.45593999997E+02  0.45594000000E+02  0.51100000000E-03 0. -1.
         11   -1    0    0    0    0 -0.00000000000E+00 -0.00000000000E+00 -0.45593999997E+02  0.45594000000E+02  0.51100000000E-03 0.  1.
         23    2    1    2    0    0  0.00000000000E+00  0.00000000000E+00  0.00000000000E+00  0.91188000000E+02  0.91188000000E+02 0.  0.
    9900012    2    3    3    0    0 -0.21499092282E+02 -0.21354709476E+02  0.33329850668E+02  0.46142317284E+02  0.99999956536E+01 0.  0.
        -12    1    3    3    0    0  0.21499092282E+02  0.21354709476E+02 -0.33329850668E+02  0.45045682716E+02  0.00000000000E+00 0.  1.
         11    1    4    4    0    0 -0.12585076140E+02 -0.14704175308E+02  0.15084272407E+02  0.24538381920E+02  0.51100000000E-03 0. -1.
        -11    1    4    4    0    0 -0.83386287635E+01 -0.51810162649E+01  0.14215541150E+02  0.17275915884E+02  0.51100000000E-03 0.  1.
         12    1    4    4    0    0 -0.57538737846E+00 -0.14695179026E+01  0.40300371120E+01  0.43280194807E+01  0.00000000000E+00 0. -1.
</event>
<event>
 8    1  0.2962813E-009  0.9118800E+02  0.7816164E-02  0.1184000E+00
        -11   -1    0    0    0    0  0.00000000000E+00  0.00000000000E+00  0.45593999997E+02  0.45594000000E+02  0.51100000000E-03 0. -1.
         11   -1    0    0    0    0 -0.00000000000E+00 -0.00000000000E+00 -0.45593999997E+02  0.45594000000E+02  0.51100000000E-03 0.  1.
         23    2    1    2    0    0  0.35527136788E-14  0.00000000000E+00  0.35527136788E-14  0.91188000000E+02  0.91188000000E+02 0.  0.
    9900012    2    3    3    0    0  0.29173143856E+02  0.17673688362E+02  0.29422471322E+02  0.46142318725E+02  0.10000008793E+02 0.  0.
        -12    1    3    3    0    0 -0.29173143856E+02 -0.17673688362E+02 -0.29422471322E+02  0.45045681275E+02  0.00000000000E+00 0.  1.
         11    1    4    4    0    0  0.47183995950E+01  0.21613619139E+01  0.31187092213E+01  0.60548433117E+01  0.51100000000E-03 0. -1.
        -11    1    4    4    0    0  0.44573207883E+01  0.65818757796E+01  0.10052268813E+02  0.12815494760E+02  0.51100000000E-03 0.  1.
        -12    1    4    4    0    0  0.19997423473E+02  0.89304506687E+01  0.16251493288E+02  0.27271980654E+02  0.00000000000E+00 0.  1.
</event>
<event>
 8    1  0.2962813E-009  0.9118800E+02  0.7816164E-02  0.1184000E+00
        -11   -1    0    0    0    0  0.00000000000E+00  0.00000000000E+00  0.45593999997E+02  0.45594000000E+02  0.51100000000E-03 0. -1.
         11   -1    0    0    0    0 -0.00000000000E+00 -0.00000000000E+00 -0.45593999997E+02  0.45594000000E+02  0.51100000000E-03 0.  1.
         23    2    1    2    0    0  0.00000000000E+00  0.00000000000E+00 -0.35527136788E-14  0.91188000000E+02  0.91188000000E+02 0.  0.
    9900012    2    3    3    0    0 -0.41072600108E+02 -0.48147563076E+01 -0.17859820497E+02  0.46142317120E+02  0.99999941578E+01 0.  0.
         12    1    3    3    0    0  0.41072600108E+02  0.48147563076E+01  0.17859820497E+02  0.45045682880E+02  0.00000000000E+00 0. -1.
         11    1    4    4    0    0 -0.17045489883E+02  0.14833968345E+01 -0.75040299278E+01  0.18683138305E+02  0.51100000000E-03 0. -1.
        -11    1    4    4    0    0 -0.13730960350E+02 -0.42779462869E+01 -0.87769427429E+01  0.16848585126E+02  0.51100000000E-03 0.  1.
         12    1    4    4    0    0 -0.10296149875E+02 -0.20202068552E+01 -0.15788478261E+01  0.10610593690E+02  0.00000000000E+00 0. -1.
</event>
<event>
 8    1  0.2962813E-009  0.9118800E+02  0.7816164E-02  0.1184000E+00
        -11   -1    0    0    0    0  0.00000000000E+00  0.00000000000E+00  0.45593999997E+02  0.45594000000E+02  0.51100000000E-03 0. -1.
         11   -1    0    0    0    0 -0.00000000000E+00 -0.00000000000E+00 -0.45593999997E+02  0.45594000000E+02  0.51100000000E-03 0.  1.
         23    2    1    2    0    0  0.00000000000E+00  0.00000000000E+00  0.00000000000E+00  0.91188000000E+02  0.91188000000E+02 0.  0.
    9900012    2    3    3    0    0 -0.14623493705E+02  0.38938010144E+02  0.17294457281E+02  0.46142318134E+02  0.10000003398E+02 0.  0.
        -12    1    3    3    0    0  0.14623493705E+02 -0.38938010144E+02 -0.17294457281E+02  0.45045681866E+02  0.00000000000E+00 0.  1.
         11    1    4    4    0    0 -0.12369360457E+02  0.26197117058E+02  0.14218322437E+02  0.32271515512E+02  0.51100000000E-03 0. -1.
        -11    1    4    4    0    0  0.37036747539E-01  0.27595824243E+01  0.23140334291E+01  0.36015854633E+01  0.51100000000E-03 0.  1.
         12    1    4    4    0    0 -0.22911699963E+01  0.99813106619E+01  0.76210141518E+00  0.10269217158E+02  0.00000000000E+00 0. -1.
</event>
<event>
 8    1  0.2962813E-009  0.9118800E+02  0.7816164E-02  0.1184000E+00
        -11   -1    0    0    0    0  0.00000000000E+00  0.00000000000E+00  0.45593999997E+02  0.45594000000E+02  0.51100000000E-03 0. -1.
         11   -1    0    0    0    0 -0.00000000000E+00 -0.00000000000E+00 -0.45593999997E+02  0.45594000000E+02  0.51100000000E-03 0.  1.
         23    2    1    2    0    0 -0.71054273576E-14  0.17763568394E-14  0.17763568394E-14  0.91188000000E+02  0.91188000000E+02 0.  0.
    9900012    2    3    3    0    0  0.40588228999E+02  0.15699545054E+02  0.11628999923E+02  0.46142315553E+02  0.99999798605E+01 0.  0.
        -12    1    3    3    0    0 -0.40588228999E+02 -0.15699545054E+02 -0.11628999923E+02  0.45045684447E+02  0.00000000000E+00 0.  1.
         11    1    4    4    0    0  0.72420662172E+01 -0.54705898697E+00  0.37872873415E+01  0.81908694470E+01  0.51100000000E-03 0.  1.
        -11    1    4    4    0    0  0.24351698264E+02  0.11122319080E+02  0.60341226537E+01  0.27443065180E+02  0.51100000000E-03 0. -1.
         12    1    4    4    0    0  0.89944645179E+01  0.51242849609E+01  0.18075899278E+01  0.10508380925E+02  0.00000000000E+00 0. -1.
</event>
<event>
 8    1  0.2962813E-009  0.9118800E+02  0.7816164E-02  0.1184000E+00
        -11   -1    0    0    0    0  0.00000000000E+00  0.00000000000E+00  0.45593999997E+02  0.45594000000E+02  0.51100000000E-03 0. -1.
         11   -1    0    0    0    0 -0.00000000000E+00 -0.00000000000E+00 -0.45593999997E+02  0.45594000000E+02  0.51100000000E-03 0.  1.
         23    2    1    2    0    0 -0.17763568394E-14  0.00000000000E+00  0.00000000000E+00  0.91188000000E+02  0.91188000000E+02 0.  0.
    9900012    2    3    3    0    0 -0.14567936833E+02  0.29775572962E+01  0.42520851574E+02  0.46142318191E+02  0.10000003924E+02 0.  0.
        -12    1    3    3    0    0  0.14567936833E+02 -0.29775572962E+01 -0.42520851574E+02  0.45045681809E+02  0.00000000000E+00 0.  1.
         11    1    4    4    0    0 -0.16684261829E+01 -0.27751749892E+01  0.62116651874E+01  0.70050001292E+01  0.51100000000E-03 0. -1.
        -11    1    4    4    0    0 -0.13132426487E+02  0.57048692567E+01  0.36029383800E+02  0.38770125818E+02  0.51100000000E-03 0.  1.
        -12    1    4    4    0    0  0.23291583719E+00  0.47863028701E-01  0.27980258711E+00  0.36719224458E+00  0.00000000000E+00 0.  1.
</event>
<event>
 8    1  0.2962813E-009  0.9118800E+02  0.7816164E-02  0.1184000E+00
        -11   -1    0    0    0    0  0.00000000000E+00  0.00000000000E+00  0.45593999997E+02  0.45594000000E+02  0.51100000000E-03 0. -1.
         11   -1    0    0    0    0 -0.00000000000E+00 -0.00000000000E+00 -0.45593999997E+02  0.45594000000E+02  0.51100000000E-03 0.  1.
         23    2    1    2    0    0 -0.35527136788E-14  0.71054273576E-14  0.00000000000E+00  0.91188000000E+02  0.91188000000E+02 0.  0.
    9900012    2    3    3    0    0 -0.19415325422E+02  0.34684907761E+02 -0.21192355416E+02  0.46142316347E+02  0.99999871065E+01 0.  0.
         12    1    3    3    0    0  0.19415325422E+02 -0.34684907761E+02  0.21192355416E+02  0.45045683653E+02  0.00000000000E+00 0. -1.
         11    1    4    4    0    0 -0.24957672949E+01  0.63860569702E+01  0.49247766838E-01  0.68566029213E+01  0.51100000000E-03 0. -1.
        -11    1    4    4    0    0 -0.54419683571E+01  0.11214275542E+02 -0.78686271048E+01  0.14740769597E+02  0.51100000000E-03 0.  1.
         12    1    4    4    0    0 -0.11477589770E+02  0.17084575249E+02 -0.13372976078E+02  0.24544943829E+02  0.00000000000E+00 0. -1.
</event>
<event>
 8    1  0.2962813E-009  0.9118800E+02  0.7816164E-02  0.1184000E+00
        -11   -1    0    0    0    0  0.00000000000E+00  0.00000000000E+00  0.45593999997E+02  0.45594000000E+02  0.51100000000E-03 0. -1.
         11   -1    0    0    0    0 -0.00000000000E+00 -0.00000000000E+00 -0.45593999997E+02  0.45594000000E+02  0.51100000000E-03 0.  1.
         23    2    1    2    0    0  0.00000000000E+00 -0.88817841970E-15 -0.17763568394E-14  0.91188000000E+02  0.91188000000E+02 0.  0.
    9900012    2    3    3    0    0  0.42769671822E+02 -0.65922906848E+01 -0.12506408128E+02  0.46142319092E+02  0.10000012133E+02 0.  0.
         12    1    3    3    0    0 -0.42769671822E+02  0.65922906848E+01  0.12506408128E+02  0.45045680908E+02  0.00000000000E+00 0. -1.
         11    1    4    4    0    0  0.13146344444E+02 -0.48108843972E+01 -0.36534001541E+01  0.14467837222E+02  0.51100000000E-03 0. -1.
        -11    1    4    4    0    0  0.15782082470E+02 -0.24439417179E+01 -0.16446816077E+01  0.16054655277E+02  0.51100000000E-03 0.  1.
         12    1    4    4    0    0  0.13841244908E+02  0.66253543033E+00 -0.72083263662E+01  0.15619826593E+02  0.00000000000E+00 0. -1.
</event>
<event>
 8    1  0.2962813E-009  0.9118800E+02  0.7816164E-02  0.1184000E+00
        -11   -1    0    0    0    0  0.00000000000E+00  0.00000000000E+00  0.45593999997E+02  0.45594000000E+02  0.51100000000E-03 0. -1.
         11   -1    0    0    0    0 -0.00000000000E+00 -0.00000000000E+00 -0.45593999997E+02  0.45594000000E+02  0.51100000000E-03 0.  1.
         23    2    1    2    0    0  0.00000000000E+00  0.00000000000E+00  0.00000000000E+00  0.91188000000E+02  0.91188000000E+02 0.  0.
    9900012    2    3    3    0    0  0.15420828067E+02 -0.13672155311E+02  0.40054758988E+02  0.46142317779E+02  0.10000000166E+02 0.  0.
        -12    1    3    3    0    0 -0.15420828067E+02  0.13672155311E+02 -0.40054758988E+02  0.45045682221E+02  0.00000000000E+00 0.  1.
         11    1    4    4    0    0  0.94903072512E+00  0.10855945005E-01  0.49914454220E+01  0.50808763841E+01  0.51100000000E-03 0. -1.
        -11    1    4    4    0    0  0.88521020664E+01 -0.34927816189E+01  0.18699830749E+02  0.20981966179E+02  0.51100000000E-03 0.  1.
        -12    1    4    4    0    0  0.56196952755E+01 -0.10190229637E+02  0.16363482817E+02  0.20079475216E+02  0.00000000000E+00 0.  1.
</event>
<event>
 8    1  0.2962813E-009  0.9118800E+02  0.7816164E-02  0.1184000E+00
        -11   -1    0    0    0    0  0.00000000000E+00  0.00000000000E+00  0.45593999997E+02  0.45594000000E+02  0.51100000000E-03 0. -1.
         11   -1    0    0    0    0 -0.00000000000E+00 -0.00000000000E+00 -0.45593999997E+02  0.45594000000E+02  0.51100000000E-03 0.  1.
         23    2    1    2    0    0  0.00000000000E+00  0.00000000000E+00  0.00000000000E+00  0.91188000000E+02  0.91188000000E+02 0.  0.
    9900012    2    3    3    0    0  0.53388620135E+01  0.43476982854E+02 -0.10505336423E+02  0.46142316755E+02  0.99999908212E+01 0.  0.
         12    1    3    3    0    0 -0.53388620135E+01 -0.43476982854E+02  0.10505336423E+02  0.45045683245E+02  0.00000000000E+00 0. -1.
         11    1    4    4    0    0  0.30680099157E+01  0.12523329520E+02 -0.21145037487E+00  0.12895393698E+02  0.51100000000E-03 0. -1.
        -11    1    4    4    0    0  0.13869980973E+01  0.23512091621E+02 -0.50164431690E+01  0.24081256580E+02  0.51100000000E-03 0.  1.
         12    1    4    4    0    0  0.88385400056E+00  0.74415617129E+01 -0.52774428790E+01  0.91656664768E+01  0.00000000000E+00 0. -1.
</event>
<event>
 8    1  0.2962813E-009  0.9118800E+02  0.7816164E-02  0.1184000E+00
        -11   -1    0    0    0    0  0.00000000000E+00  0.00000000000E+00  0.45593999997E+02  0.45594000000E+02  0.51100000000E-03 0.  1.
         11   -1    0    0    0    0 -0.00000000000E+00 -0.00000000000E+00 -0.45593999997E+02  0.45594000000E+02  0.51100000000E-03 0. -1.
         23    2    1    2    0    0  0.00000000000E+00  0.00000000000E+00  0.00000000000E+00  0.91188000000E+02  0.91188000000E+02 0.  0.
    9900012    2    3    3    0    0 -0.18133594544E+01 -0.30098629447E+02 -0.33464872177E+02  0.46142318332E+02  0.10000005207E+02 0.  0.
         12    1    3    3    0    0  0.18133594544E+01  0.30098629447E+02  0.33464872177E+02  0.45045681668E+02  0.00000000000E+00 0. -1.
         11    1    4    4    0    0  0.20936794281E+01 -0.34852852367E+01 -0.83025355364E+01  0.92446094197E+01  0.51100000000E-03 0. -1.
        -11    1    4    4    0    0 -0.32587479971E+01 -0.16620100243E+02 -0.16726997473E+02  0.23804193230E+02  0.51100000000E-03 0.  1.
         12    1    4    4    0    0 -0.64829088529E+00 -0.99932439674E+01 -0.84353391675E+01  0.13093515683E+02  0.00000000000E+00 0. -1.
</event>
<event>
 8    1  0.3529932E-009  0.9118800E+02  0.7816164E-02  0.1184000E+00
        -11   -1    0    0    0    0  0.00000000000E+00  0.00000000000E+00  0.45593999997E+02  0.45594000000E+02  0.51100000000E-03 0. -1.
         11   -1    0    0    0    0 -0.00000000000E+00 -0.00000000000E+00 -0.45593999997E+02  0.45594000000E+02  0.51100000000E-03 0.  1.
         23    2    1    2    0    0  0.88817841970E-15  0.00000000000E+00  0.00000000000E+00  0.91188000000E+02  0.91188000000E+02 0.  0.
    9900012    2    3    3    0    0  0.66790553789E+01 -0.13298038429E+02 -0.42516654031E+02  0.46142317889E+02  0.10000001167E+02 0.  0.
         12    1    3    3    0    0 -0.66790553789E+01  0.13298038429E+02  0.42516654031E+02  0.45045682111E+02  0.00000000000E+00 0. -1.
         11    1    4    4    0    0  0.45974217979E+01 -0.22271750374E+01 -0.63401537563E+01  0.81421216983E+01  0.51100000000E-03 0. -1.
        -11    1    4    4    0    0 -0.48796577283E+00 -0.50893654360E+01 -0.15216028419E+02  0.16052017700E+02  0.51100000000E-03 0.  1.
         12    1    4    4    0    0  0.25695993538E+01 -0.59814979552E+01 -0.20960471857E+02  0.21948178491E+02  0.00000000000E+00 0. -1.
</event>
<event>
 8    1  0.2962813E-009  0.9118800E+02  0.7816164E-02  0.1184000E+00
        -11   -1    0    0    0    0  0.00000000000E+00  0.00000000000E+00  0.45593999997E+02  0.45594000000E+02  0.51100000000E-03 0. -1.
         11   -1    0    0    0    0 -0.00000000000E+00 -0.00000000000E+00 -0.45593999997E+02  0.45594000000E+02  0.51100000000E-03 0.  1.
         23    2    1    2    0    0  0.88817841970E-15  0.00000000000E+00  0.00000000000E+00  0.91188000000E+02  0.91188000000E+02 0.  0.
    9900012    2    3    3    0    0  0.62953948987E+01 -0.40782533383E+02 -0.18062848234E+02  0.46142317494E+02  0.99999975658E+01 0.  0.
         12    1    3    3    0    0 -0.62953948987E+01  0.40782533383E+02  0.18062848234E+02  0.45045682506E+02  0.00000000000E+00 0. -1.
         11    1    4    4    0    0  0.63083794128E+01 -0.13782657810E+02 -0.60861395555E+01  0.16333964677E+02  0.51100000000E-03 0. -1.
        -11    1    4    4    0    0  0.12164698269E+01 -0.17749385606E+02 -0.62367481581E+01  0.18852520152E+02  0.51100000000E-03 0.  1.
         12    1    4    4    0    0 -0.12294543410E+01 -0.92504899677E+01 -0.57399605201E+01  0.10955832665E+02  0.00000000000E+00 0. -1.
</event>
<event>
 8    1  0.2962813E-009  0.9118800E+02  0.7816164E-02  0.1184000E+00
        -11   -1    0    0    0    0  0.00000000000E+00  0.00000000000E+00  0.45593999997E+02  0.45594000000E+02  0.51100000000E-03 0.  1.
         11   -1    0    0    0    0 -0.00000000000E+00 -0.00000000000E+00 -0.45593999997E+02  0.45594000000E+02  0.51100000000E-03 0. -1.
         23    2    1    2    0    0  0.00000000000E+00  0.00000000000E+00  0.44408920985E-15  0.91188000000E+02  0.91188000000E+02 0.  0.
    9900012    2    3    3    0    0  0.41931017109E+02 -0.16030558931E+02  0.37315485947E+01  0.46142317961E+02  0.10000001825E+02 0.  0.
        -12    1    3    3    0    0 -0.41931017109E+02  0.16030558931E+02 -0.37315485947E+01  0.45045682039E+02  0.00000000000E+00 0.  1.
         11    1    4    4    0    0  0.89728471028E+01 -0.47158687290E+01  0.16376830446E+01  0.10268077182E+02  0.51100000000E-03 0. -1.
        -11    1    4    4    0    0  0.28603748169E+02 -0.12275304448E+02  0.47423215035E+00  0.31130088420E+02  0.51100000000E-03 0.  1.
         12    1    4    4    0    0  0.43544218368E+01  0.96061424593E+00  0.16196333998E+01  0.47441523597E+01  0.00000000000E+00 0. -1.
</event>
<event>
 8    1  0.2962813E-009  0.9118800E+02  0.7816164E-02  0.1184000E+00
        -11   -1    0    0    0    0  0.00000000000E+00  0.00000000000E+00  0.45593999997E+02  0.45594000000E+02  0.51100000000E-03 0. -1.
         11   -1    0    0    0    0 -0.00000000000E+00 -0.00000000000E+00 -0.45593999997E+02  0.45594000000E+02  0.51100000000E-03 0.  1.
         23    2    1    2    0    0  0.00000000000E+00  0.00000000000E+00  0.00000000000E+00  0.91188000000E+02  0.91188000000E+02 0.  0.
    9900012    2    3    3    0    0  0.10037330605E+02  0.17804769106E+02 -0.40141694166E+02  0.46142318530E+02  0.10000007009E+02 0.  0.
         12    1    3    3    0    0 -0.10037330605E+02 -0.17804769106E+02  0.40141694166E+02  0.45045681470E+02  0.00000000000E+00 0. -1.
         11    1    4    4    0    0  0.24942690314E+00  0.98284799043E+00 -0.29888503156E+00  0.10571359778E+01  0.51100000000E-03 0. -1.
        -11    1    4    4    0    0  0.88501923588E+01  0.17314884448E+02 -0.34181822180E+02  0.39325921426E+02  0.51100000000E-03 0.  1.
         12    1    4    4    0    0  0.93771134270E+00 -0.49296333271E+00 -0.56609869549E+01  0.57592611256E+01  0.00000000000E+00 0. -1.
</event>
<event>
 8    1  0.2962813E-009  0.9118800E+02  0.7816164E-02  0.1184000E+00
        -11   -1    0    0    0    0  0.00000000000E+00  0.00000000000E+00  0.45593999997E+02  0.45594000000E+02  0.51100000000E-03 0. -1.
         11   -1    0    0    0    0 -0.00000000000E+00 -0.00000000000E+00 -0.45593999997E+02  0.45594000000E+02  0.51100000000E-03 0.  1.
         23    2    1    2    0    0  0.88817841970E-15  0.17763568394E-14  0.00000000000E+00  0.91188000000E+02  0.91188000000E+02 0.  0.
    9900012    2    3    3    0    0  0.50671498121E+01  0.14899387926E+02 -0.42207175910E+02  0.46142318008E+02  0.10000002253E+02 0.  0.
         12    1    3    3    0    0 -0.50671498121E+01 -0.14899387926E+02  0.42207175910E+02  0.45045681992E+02  0.00000000000E+00 0. -1.
         11    1    4    4    0    0  0.38963807740E+00  0.25110749998E+01 -0.20596387689E+01  0.32709979525E+01  0.51100000000E-03 0. -1.
        -11    1    4    4    0    0  0.36964394666E+00 -0.94945630931E+00 -0.25338802646E+01  0.27310535306E+01  0.51100000000E-03 0.  1.
        -12    1    4    4    0    0  0.43078677880E+01  0.13337769236E+02 -0.37613656877E+02  0.40140266525E+02  0.00000000000E+00 0.  1.
</event>
<event>
 8    1  0.2962813E-009  0.9118800E+02  0.7816164E-02  0.1184000E+00
        -11   -1    0    0    0    0  0.00000000000E+00  0.00000000000E+00  0.45593999997E+02  0.45594000000E+02  0.51100000000E-03 0. -1.
         11   -1    0    0    0    0 -0.00000000000E+00 -0.00000000000E+00 -0.45593999997E+02  0.45594000000E+02  0.51100000000E-03 0.  1.
         23    2    1    2    0    0  0.17763568394E-14  0.71054273576E-14  0.71054273576E-14  0.91188000000E+02  0.91188000000E+02 0.  0.
    9900012    2    3    3    0    0  0.55036101032E+01  0.30379991871E+02  0.32800608230E+02  0.46142317294E+02  0.99999957384E+01 0.  0.
        -12    1    3    3    0    0 -0.55036101032E+01 -0.30379991871E+02 -0.32800608230E+02  0.45045682706E+02  0.00000000000E+00 0.  1.
         11    1    4    4    0    0  0.42380832243E+00  0.20663150149E+02  0.18979287322E+02  0.28059913312E+02  0.51100000000E-03 0. -1.
        -11    1    4    4    0    0  0.42887248928E+01  0.99418547714E+01  0.13024299631E+02  0.16937119550E+02  0.51100000000E-03 0.  1.
        -12    1    4    4    0    0  0.79107688796E+00 -0.22501304931E+00  0.79702127636E+00  0.11452844319E+01  0.00000000000E+00 0.  1.
</event>
<event>
 8    1  0.2962813E-009  0.9118800E+02  0.7816164E-02  0.1184000E+00
        -11   -1    0    0    0    0  0.00000000000E+00  0.00000000000E+00  0.45593999997E+02  0.45594000000E+02  0.51100000000E-03 0. -1.
         11   -1    0    0    0    0 -0.00000000000E+00 -0.00000000000E+00 -0.45593999997E+02  0.45594000000E+02  0.51100000000E-03 0.  1.
         23    2    1    2    0    0  0.00000000000E+00  0.00000000000E+00  0.00000000000E+00  0.91188000000E+02  0.91188000000E+02 0.  0.
    9900012    2    3    3    0    0  0.54140185269E+01 -0.36558621940E+02  0.25754009392E+02  0.46142318359E+02  0.10000005449E+02 0.  0.
        -12    1    3    3    0    0 -0.54140185269E+01  0.36558621940E+02 -0.25754009392E+02  0.45045681641E+02  0.00000000000E+00 0.  1.
         11    1    4    4    0    0  0.52555411089E+01 -0.15522289908E+02  0.10877341656E+02  0.19669233795E+02  0.51100000000E-03 0.  1.
        -11    1    4    4    0    0  0.21627200565E+01 -0.18559834758E+02  0.13155649488E+02  0.22852044504E+02  0.51100000000E-03 0. -1.
        -12    1    4    4    0    0 -0.20042426386E+01 -0.24764972733E+01  0.17210182487E+01  0.36210400593E+01  0.00000000000E+00 0.  1.
</event>
<event>
 8    1  0.2962813E-009  0.9118800E+02  0.7816164E-02  0.1184000E+00
        -11   -1    0    0    0    0  0.00000000000E+00  0.00000000000E+00  0.45593999997E+02  0.45594000000E+02  0.51100000000E-03 0. -1.
         11   -1    0    0    0    0 -0.00000000000E+00 -0.00000000000E+00 -0.45593999997E+02  0.45594000000E+02  0.51100000000E-03 0.  1.
         23    2    1    2    0    0  0.88817841970E-15 -0.17763568394E-14  0.71054273576E-14  0.91188000000E+02  0.91188000000E+02 0.  0.
    9900012    2    3    3    0    0  0.42887801786E+01 -0.87588250111E+01  0.43977299504E+02  0.46142317380E+02  0.99999965287E+01 0.  0.
        -12    1    3    3    0    0 -0.42887801786E+01  0.87588250111E+01 -0.43977299504E+02  0.45045682620E+02  0.00000000000E+00 0.  1.
         11    1    4    4    0    0  0.14501090241E+01 -0.27145227110E+01  0.97514050695E+01  0.10225524477E+02  0.51100000000E-03 0. -1.
        -11    1    4    4    0    0  0.92245100711E+00 -0.78998499810E+01  0.21741479615E+02  0.23150604348E+02  0.51100000000E-03 0.  1.
        -12    1    4    4    0    0  0.19162201474E+01  0.18555476809E+01  0.12484414819E+02  0.12766188555E+02  0.00000000000E+00 0.  1.
</event>
<event>
 8    1  0.2962813E-009  0.9118800E+02  0.7816164E-02  0.1184000E+00
        -11   -1    0    0    0    0  0.00000000000E+00  0.00000000000E+00  0.45593999997E+02  0.45594000000E+02  0.51100000000E-03 0. -1.
         11   -1    0    0    0    0 -0.00000000000E+00 -0.00000000000E+00 -0.45593999997E+02  0.45594000000E+02  0.51100000000E-03 0.  1.
         23    2    1    2    0    0  0.71054273576E-14  0.44408920985E-15  0.35527136788E-14  0.91188000000E+02  0.91188000000E+02 0.  0.
    9900012    2    3    3    0    0 -0.41677263545E+02 -0.35896443823E+01 -0.16710285887E+02  0.46142317656E+02  0.99999990444E+01 0.  0.
         12    1    3    3    0    0  0.41677263545E+02  0.35896443823E+01  0.16710285887E+02  0.45045682344E+02  0.00000000000E+00 0. -1.
         11    1    4    4    0    0 -0.10811011106E+02 -0.30074025888E+01 -0.80500520638E+01  0.13810350103E+02  0.51100000000E-03 0. -1.
        -11    1    4    4    0    0 -0.24618786235E+02 -0.84638871376E+00 -0.85596035280E+01  0.26078110023E+02  0.51100000000E-03 0.  1.
         12    1    4    4    0    0 -0.62474662034E+01  0.26414692027E+00 -0.10063029562E+00  0.62538575307E+01  0.00000000000E+00 0. -1.
</event>
<event>
 8    1  0.2962813E-009  0.9118800E+02  0.7816164E-02  0.1184000E+00
        -11   -1    0    0    0    0  0.00000000000E+00  0.00000000000E+00  0.45593999997E+02  0.45594000000E+02  0.51100000000E-03 0. -1.
         11   -1    0    0    0    0 -0.00000000000E+00 -0.00000000000E+00 -0.45593999997E+02  0.45594000000E+02  0.51100000000E-03 0.  1.
         23    2    1    2    0    0 -0.88817841970E-15  0.00000000000E+00  0.00000000000E+00  0.91188000000E+02  0.91188000000E+02 0.  0.
    9900012    2    3    3    0    0 -0.46491363244E+01 -0.20998248844E+01  0.44755890118E+02  0.46142318372E+02  0.10000005569E+02 0.  0.
        -12    1    3    3    0    0  0.46491363244E+01  0.20998248844E+01 -0.44755890118E+02  0.45045681628E+02  0.00000000000E+00 0.  1.
         11    1    4    4    0    0  0.10682778366E+01  0.25031595885E+01  0.22962036959E+02  0.23122762963E+02  0.51100000000E-03 0. -1.
        -11    1    4    4    0    0 -0.21386103648E+01 -0.12932795225E+01  0.85168933295E+01  0.88760181649E+01  0.51100000000E-03 0.  1.
         12    1    4    4    0    0 -0.35788037962E+01 -0.33097049503E+01  0.13276959829E+02  0.14143537244E+02  0.00000000000E+00 0. -1.
</event>
<event>
 8    1  0.2962813E-009  0.9118800E+02  0.7816164E-02  0.1184000E+00
        -11   -1    0    0    0    0  0.00000000000E+00  0.00000000000E+00  0.45593999997E+02  0.45594000000E+02  0.51100000000E-03 0. -1.
         11   -1    0    0    0    0 -0.00000000000E+00 -0.00000000000E+00 -0.45593999997E+02  0.45594000000E+02  0.51100000000E-03 0.  1.
         23    2    1    2    0    0  0.00000000000E+00  0.17763568394E-14  0.00000000000E+00  0.91188000000E+02  0.91188000000E+02 0.  0.
    9900012    2    3    3    0    0  0.11191894321E+02  0.14296045599E+02  0.41224728276E+02  0.46142316082E+02  0.99999846850E+01 0.  0.
        -12    1    3    3    0    0 -0.11191894321E+02 -0.14296045599E+02 -0.41224728276E+02  0.45045683918E+02  0.00000000000E+00 0.  1.
         11    1    4    4    0    0  0.76709064954E+01  0.99229724184E+01  0.36047283666E+02  0.38166933961E+02  0.51100000000E-03 0. -1.
        -11    1    4    4    0    0  0.94509289830E+00  0.29291488585E+01  0.22108091132E+01  0.37895634073E+01  0.51100000000E-03 0.  1.
         12    1    4    4    0    0  0.25758949277E+01  0.14439243221E+01  0.29666354967E+01  0.41858187129E+01  0.00000000000E+00 0. -1.
</event>
<event>
 8    1  0.2962813E-009  0.9118800E+02  0.7816164E-02  0.1184000E+00
        -11   -1    0    0    0    0  0.00000000000E+00  0.00000000000E+00  0.45593999997E+02  0.45594000000E+02  0.51100000000E-03 0. -1.
         11   -1    0    0    0    0 -0.00000000000E+00 -0.00000000000E+00 -0.45593999997E+02  0.45594000000E+02  0.51100000000E-03 0.  1.
         23    2    1    2    0    0  0.00000000000E+00  0.88817841970E-15  0.00000000000E+00  0.91188000000E+02  0.91188000000E+02 0.  0.
    9900012    2    3    3    0    0  0.20481184045E+02 -0.76580784505E+01  0.39382590354E+02  0.46142317760E+02  0.99999999901E+01 0.  0.
        -12    1    3    3    0    0 -0.20481184045E+02  0.76580784505E+01 -0.39382590354E+02  0.45045682240E+02  0.00000000000E+00 0.  1.
         11    1    4    4    0    0  0.12298298607E+02 -0.45482547638E+01  0.15988292040E+02  0.20677530139E+02  0.51100000000E-03 0. -1.
        -11    1    4    4    0    0  0.85281858571E+01 -0.34790516323E+01  0.19827911709E+02  0.21862749994E+02  0.51100000000E-03 0.  1.
         12    1    4    4    0    0 -0.34530041855E+00  0.36922794566E+00  0.35663866050E+01  0.36020376277E+01  0.00000000000E+00 0. -1.
</event>
<event>
 8    1  0.2962813E-009  0.9118800E+02  0.7816164E-02  0.1184000E+00
        -11   -1    0    0    0    0  0.00000000000E+00  0.00000000000E+00  0.45593999997E+02  0.45594000000E+02  0.51100000000E-03 0. -1.
         11   -1    0    0    0    0 -0.00000000000E+00 -0.00000000000E+00 -0.45593999997E+02  0.45594000000E+02  0.51100000000E-03 0.  1.
         23    2    1    2    0    0  0.00000000000E+00  0.00000000000E+00  0.00000000000E+00  0.91188000000E+02  0.91188000000E+02 0.  0.
    9900012    2    3    3    0    0  0.17765833720E+02 -0.13013683485E+02  0.39295453436E+02  0.46142318005E+02  0.10000002225E+02 0.  0.
        -12    1    3    3    0    0 -0.17765833720E+02  0.13013683485E+02 -0.39295453436E+02  0.45045681995E+02  0.00000000000E+00 0.  1.
         11    1    4    4    0    0  0.58882971625E+01 -0.55106727532E+01  0.17472108080E+02  0.19243547456E+02  0.51100000000E-03 0. -1.
        -11    1    4    4    0    0  0.54430546287E+01 -0.71226331893E+01  0.15269375660E+02  0.17706286470E+02  0.51100000000E-03 0.  1.
        -12    1    4    4    0    0  0.64344819289E+01 -0.38037754230E+00  0.65539696961E+01  0.91924840791E+01  0.00000000000E+00 0.  1.
</event>
<event>
 8    1  0.2962813E-009  0.9118800E+02  0.7816164E-02  0.1184000E+00
        -11   -1    0    0    0    0  0.00000000000E+00  0.00000000000E+00  0.45593999997E+02  0.45594000000E+02  0.51100000000E-03 0. -1.
         11   -1    0    0    0    0 -0.00000000000E+00 -0.00000000000E+00 -0.45593999997E+02  0.45594000000E+02  0.51100000000E-03 0.  1.
         23    2    1    2    0    0  0.00000000000E+00  0.00000000000E+00 -0.71054273576E-14  0.91188000000E+02  0.91188000000E+02 0.  0.
    9900012    2    3    3    0    0  0.95624966401E+01  0.20841813955E+02 -0.38772296399E+02  0.46142317422E+02  0.99999969055E+01 0.  0.
         12    1    3    3    0    0 -0.95624966401E+01 -0.20841813955E+02  0.38772296399E+02  0.45045682578E+02  0.00000000000E+00 0. -1.
         11    1    4    4    0    0  0.38072269977E+01  0.47076561568E+01 -0.86966858373E+01  0.10596666868E+02  0.51100000000E-03 0. -1.
        -11    1    4    4    0    0  0.49235273226E+01  0.15624924845E+02 -0.22095618527E+02  0.27506285755E+02  0.51100000000E-03 0.  1.
        -12    1    4    4    0    0  0.83174231973E+00  0.50923295291E+00 -0.79799920347E+01  0.80393647983E+01  0.00000000000E+00 0.  1.
</event>
<event>
 8    1  0.2962813E-009  0.9118800E+02  0.7816164E-02  0.1184000E+00
        -11   -1    0    0    0    0  0.00000000000E+00  0.00000000000E+00  0.45593999997E+02  0.45594000000E+02  0.51100000000E-03 0. -1.
         11   -1    0    0    0    0 -0.00000000000E+00 -0.00000000000E+00 -0.45593999997E+02  0.45594000000E+02  0.51100000000E-03 0.  1.
         23    2    1    2    0    0  0.35527136788E-14  0.17763568394E-14  0.71054273576E-14  0.91188000000E+02  0.91188000000E+02 0.  0.
    9900012    2    3    3    0    0 -0.16753922147E+02 -0.83973186653E+01 -0.40962236998E+02  0.46142315102E+02  0.99999757510E+01 0.  0.
         12    1    3    3    0    0  0.16753922147E+02  0.83973186653E+01  0.40962236998E+02  0.45045684898E+02  0.00000000000E+00 0. -1.
         11    1    4    4    0    0 -0.54407075451E+01  0.12876544919E+00 -0.13466353310E+02  0.14524481088E+02  0.51100000000E-03 0. -1.
        -11    1    4    4    0    0 -0.93692600675E+01 -0.57735474229E+01 -0.25315443509E+02  0.27604140348E+02  0.51100000000E-03 0.  1.
         12    1    4    4    0    0 -0.19439545342E+01 -0.27525366915E+01 -0.21804401788E+01  0.40136936658E+01  0.00000000000E+00 0. -1.
</event>
<event>
 8    1  0.2962813E-009  0.9118800E+02  0.7816164E-02  0.1184000E+00
        -11   -1    0    0    0    0  0.00000000000E+00  0.00000000000E+00  0.45593999997E+02  0.45594000000E+02  0.51100000000E-03 0. -1.
         11   -1    0    0    0    0 -0.00000000000E+00 -0.00000000000E+00 -0.45593999997E+02  0.45594000000E+02  0.51100000000E-03 0.  1.
         23    2    1    2    0    0  0.44408920985E-15  0.00000000000E+00  0.00000000000E+00  0.91188000000E+02  0.91188000000E+02 0.  0.
    9900012    2    3    3    0    0 -0.33993388265E+01 -0.14371691223E+02  0.42555991984E+02  0.46142318000E+02  0.10000002180E+02 0.  0.
        -12    1    3    3    0    0  0.33993388265E+01  0.14371691223E+02 -0.42555991984E+02  0.45045682000E+02  0.00000000000E+00 0.  1.
         11    1    4    4    0    0 -0.40279085818E+01 -0.31255495862E+01  0.18836559501E+02  0.19514330166E+02  0.51100000000E-03 0. -1.
        -11    1    4    4    0    0  0.17900696944E+01 -0.57458837123E+01  0.15872911711E+02  0.16975536975E+02  0.51100000000E-03 0.  1.
        -12    1    4    4    0    0 -0.11614999391E+01 -0.55002579245E+01  0.78465207722E+01  0.96524508583E+01  0.00000000000E+00 0.  1.
</event>
<event>
 8    1  0.2962813E-009  0.9118800E+02  0.7816164E-02  0.1184000E+00
        -11   -1    0    0    0    0  0.00000000000E+00  0.00000000000E+00  0.45593999997E+02  0.45594000000E+02  0.51100000000E-03 0. -1.
         11   -1    0    0    0    0 -0.00000000000E+00 -0.00000000000E+00 -0.45593999997E+02  0.45594000000E+02  0.51100000000E-03 0.  1.
         23    2    1    2    0    0  0.22204460493E-15 -0.71054273576E-14 -0.71054273576E-14  0.91188000000E+02  0.91188000000E+02 0.  0.
    9900012    2    3    3    0    0 -0.15874960352E+01  0.28256513883E+02  0.35045153329E+02  0.46142317717E+02  0.99999995951E+01 0.  0.
        -12    1    3    3    0    0  0.15874960352E+01 -0.28256513883E+02 -0.35045153329E+02  0.45045682283E+02  0.00000000000E+00 0.  1.
         11    1    4    4    0    0 -0.41601332918E+01  0.62083063734E+01  0.10277387706E+02  0.12707260734E+02  0.51100000000E-03 0.  1.
        -11    1    4    4    0    0  0.33676077904E+01  0.15358054487E+02  0.17305063730E+02  0.23381100291E+02  0.51100000000E-03 0. -1.
         12    1    4    4    0    0 -0.79497053378E+00  0.66901530236E+01  0.74627018929E+01  0.10053956692E+02  0.00000000000E+00 0. -1.
</event>
<event>
 8    1  0.2962813E-009  0.9118800E+02  0.7816164E-02  0.1184000E+00
        -11   -1    0    0    0    0  0.00000000000E+00  0.00000000000E+00  0.45593999997E+02  0.45594000000E+02  0.51100000000E-03 0. -1.
         11   -1    0    0    0    0 -0.00000000000E+00 -0.00000000000E+00 -0.45593999997E+02  0.45594000000E+02  0.51100000000E-03 0.  1.
         23    2    1    2    0    0  0.00000000000E+00  0.17763568394E-14  0.00000000000E+00  0.91188000000E+02  0.91188000000E+02 0.  0.
    9900012    2    3    3    0    0 -0.41782620532E+02 -0.15801446358E+02 -0.58000356320E+01  0.46142317644E+02  0.99999989349E+01 0.  0.
         12    1    3    3    0    0  0.41782620532E+02  0.15801446358E+02  0.58000356320E+01  0.45045682356E+02  0.00000000000E+00 0. -1.
         11    1    4    4    0    0 -0.14547912826E+02 -0.47320506233E+01 -0.58066022500E+01  0.16363089581E+02  0.51100000000E-03 0. -1.
        -11    1    4    4    0    0 -0.17501542560E+02 -0.91153811870E+01  0.12588486739E+01  0.19773185540E+02  0.51100000000E-03 0.  1.
        -12    1    4    4    0    0 -0.97331651463E+01 -0.19540145474E+01 -0.12522820559E+01  0.10006042523E+02  0.00000000000E+00 0.  1.
</event>
<event>
 8    1  0.2962813E-009  0.9118800E+02  0.7816164E-02  0.1184000E+00
        -11   -1    0    0    0    0  0.00000000000E+00  0.00000000000E+00  0.45593999997E+02  0.45594000000E+02  0.51100000000E-03 0. -1.
         11   -1    0    0    0    0 -0.00000000000E+00 -0.00000000000E+00 -0.45593999997E+02  0.45594000000E+02  0.51100000000E-03 0.  1.
         23    2    1    2    0    0  0.00000000000E+00  0.00000000000E+00  0.00000000000E+00  0.91188000000E+02  0.91188000000E+02 0.  0.
    9900012    2    3    3    0    0 -0.41729276089E+02 -0.90164237371E+01 -0.14369585109E+02  0.46142319229E+02  0.10000013389E+02 0.  0.
         12    1    3    3    0    0  0.41729276089E+02  0.90164237371E+01  0.14369585109E+02  0.45045680771E+02  0.00000000000E+00 0. -1.
         11    1    4    4    0    0 -0.16811126468E+02 -0.69527678731E+01 -0.26918539487E+01  0.18390242852E+02  0.51100000000E-03 0. -1.
        -11    1    4    4    0    0 -0.87240226396E+01 -0.20118119575E+01 -0.47918903151E+01  0.10154711784E+02  0.51100000000E-03 0.  1.
         12    1    4    4    0    0 -0.16194126981E+02 -0.51843906436E-01 -0.68858408453E+01  0.17597364593E+02  0.00000000000E+00 0. -1.
</event>
<event>
 8    1  0.2962813E-009  0.9118800E+02  0.7816164E-02  0.1184000E+00
        -11   -1    0    0    0    0  0.00000000000E+00  0.00000000000E+00  0.45593999997E+02  0.45594000000E+02  0.51100000000E-03 0. -1.
         11   -1    0    0    0    0 -0.00000000000E+00 -0.00000000000E+00 -0.45593999997E+02  0.45594000000E+02  0.51100000000E-03 0.  1.
         23    2    1    2    0    0  0.44408920985E-15  0.17763568394E-14 -0.71054273576E-14  0.91188000000E+02  0.91188000000E+02 0.  0.
    9900012    2    3    3    0    0  0.36691334826E+01  0.42469405572E+01 -0.44694680599E+02  0.46142317428E+02  0.99999969587E+01 0.  0.
         12    1    3    3    0    0 -0.36691334826E+01 -0.42469405572E+01  0.44694680599E+02  0.45045682572E+02  0.00000000000E+00 0. -1.
         11    1    4    4    0    0  0.17253670517E+01  0.58069329880E+01 -0.30793621468E+02  0.31383825222E+02  0.51100000000E-03 0. -1.
        -11    1    4    4    0    0  0.17563909361E+00 -0.49941538926E+00  0.15530969287E+00  0.55171204813E+00  0.51100000000E-03 0.  1.
        -12    1    4    4    0    0  0.17681273372E+01 -0.10605770416E+01 -0.14056368824E+02  0.14206780158E+02  0.00000000000E+00 0.  1.
</event>
<event>
 8    1  0.2962813E-009  0.9118800E+02  0.7816164E-02  0.1184000E+00
        -11   -1    0    0    0    0  0.00000000000E+00  0.00000000000E+00  0.45593999997E+02  0.45594000000E+02  0.51100000000E-03 0. -1.
         11   -1    0    0    0    0 -0.00000000000E+00 -0.00000000000E+00 -0.45593999997E+02  0.45594000000E+02  0.51100000000E-03 0.  1.
         23    2    1    2    0    0  0.00000000000E+00  0.00000000000E+00  0.35527136788E-14  0.91188000000E+02  0.91188000000E+02 0.  0.
    9900012    2    3    3    0    0 -0.10818805817E+02  0.32696062512E+02 -0.29035055423E+02  0.46142317560E+02  0.99999981684E+01 0.  0.
         12    1    3    3    0    0  0.10818805817E+02 -0.32696062512E+02  0.29035055423E+02  0.45045682440E+02  0.00000000000E+00 0. -1.
         11    1    4    4    0    0  0.66844492610E+00 -0.24070702189E+00 -0.12016259630E+01  0.13959454522E+01  0.51100000000E-03 0. -1.
        -11    1    4    4    0    0 -0.34678906554E+01  0.67673674027E+01 -0.71731154845E+01  0.10453569399E+02  0.51100000000E-03 0.  1.
         12    1    4    4    0    0 -0.80193600879E+01  0.26169402131E+02 -0.20660313975E+02  0.34292802709E+02  0.00000000000E+00 0. -1.
</event>
<event>
 8    1  0.2962813E-009  0.9118800E+02  0.7816164E-02  0.1184000E+00
        -11   -1    0    0    0    0  0.00000000000E+00  0.00000000000E+00  0.45593999997E+02  0.45594000000E+02  0.51100000000E-03 0. -1.
         11   -1    0    0    0    0 -0.00000000000E+00 -0.00000000000E+00 -0.45593999997E+02  0.45594000000E+02  0.51100000000E-03 0.  1.
         23    2    1    2    0    0  0.00000000000E+00  0.35527136788E-14  0.00000000000E+00  0.91188000000E+02  0.91188000000E+02 0.  0.
    9900012    2    3    3    0    0  0.24596158289E+01 -0.27970418559E+02  0.35223849013E+02  0.46142316925E+02  0.99999923766E+01 0.  0.
        -12    1    3    3    0    0 -0.24596158289E+01  0.27970418559E+02 -0.35223849013E+02  0.45045683075E+02  0.00000000000E+00 0.  1.
         11    1    4    4    0    0 -0.12474103447E+01 -0.52934207709E+01  0.38521065653E+01  0.66644625648E+01  0.51100000000E-03 0.  1.
        -11    1    4    4    0    0  0.24265248917E+01 -0.15721512345E+02  0.26437167861E+02  0.30854137782E+02  0.51100000000E-03 0. -1.
        -12    1    4    4    0    0  0.12805012818E+01 -0.69554854428E+01  0.49345745867E+01  0.86237165787E+01  0.00000000000E+00 0.  1.
</event>
<event>
 8    1  0.2962813E-009  0.9118800E+02  0.7816164E-02  0.1184000E+00
        -11   -1    0    0    0    0  0.00000000000E+00  0.00000000000E+00  0.45593999997E+02  0.45594000000E+02  0.51100000000E-03 0. -1.
         11   -1    0    0    0    0 -0.00000000000E+00 -0.00000000000E+00 -0.45593999997E+02  0.45594000000E+02  0.51100000000E-03 0.  1.
         23    2    1    2    0    0  0.00000000000E+00  0.00000000000E+00  0.00000000000E+00  0.91188000000E+02  0.91188000000E+02 0.  0.
    9900012    2    3    3    0    0  0.32476987437E+02 -0.86074865415E+01 -0.30004499348E+02  0.46142317425E+02  0.99999969346E+01 0.  0.
         12    1    3    3    0    0 -0.32476987437E+02  0.86074865415E+01  0.30004499348E+02  0.45045682575E+02  0.00000000000E+00 0. -1.
         11    1    4    4    0    0  0.46744273707E+01 -0.32432446039E+01 -0.51381281524E+01  0.76661116595E+01  0.51100000000E-03 0. -1.
        -11    1    4    4    0    0 -0.47770243453E+00 -0.11561743393E+00 -0.62893543377E-01  0.49550263965E+00  0.51100000000E-03 0.  1.
        -12    1    4    4    0    0  0.28280262501E+02 -0.52486245037E+01 -0.24803477652E+02  0.37980703126E+02  0.00000000000E+00 0.  1.
</event>
<event>
 8    1  0.2962813E-009  0.9118800E+02  0.7816164E-02  0.1184000E+00
        -11   -1    0    0    0    0  0.00000000000E+00  0.00000000000E+00  0.45593999997E+02  0.45594000000E+02  0.51100000000E-03 0.  1.
         11   -1    0    0    0    0 -0.00000000000E+00 -0.00000000000E+00 -0.45593999997E+02  0.45594000000E+02  0.51100000000E-03 0. -1.
         23    2    1    2    0    0  0.44408920985E-15  0.00000000000E+00  0.00000000000E+00  0.91188000000E+02  0.91188000000E+02 0.  0.
    9900012    2    3    3    0    0 -0.27676994497E+01  0.42457633651E+02  0.14791976637E+02  0.46142318871E+02  0.10000010125E+02 0.  0.
        -12    1    3    3    0    0  0.27676994497E+01 -0.42457633651E+02 -0.14791976637E+02  0.45045681129E+02  0.00000000000E+00 0.  1.
         11    1    4    4    0    0  0.22796372385E+00  0.15502446637E+02  0.32919651496E+01  0.15849758800E+02  0.51100000000E-03 0. -1.
        -11    1    4    4    0    0  0.13155181044E+01  0.16361078707E+02  0.51101157939E+01  0.17190950178E+02  0.51100000000E-03 0.  1.
        -12    1    4    4    0    0 -0.43111812779E+01  0.10594108307E+02  0.63898956937E+01  0.13101609893E+02  0.00000000000E+00 0.  1.
</event>
<event>
 8    1  0.2962813E-009  0.9118800E+02  0.7816164E-02  0.1184000E+00
        -11   -1    0    0    0    0  0.00000000000E+00  0.00000000000E+00  0.45593999997E+02  0.45594000000E+02  0.51100000000E-03 0. -1.
         11   -1    0    0    0    0 -0.00000000000E+00 -0.00000000000E+00 -0.45593999997E+02  0.45594000000E+02  0.51100000000E-03 0.  1.
         23    2    1    2    0    0  0.00000000000E+00 -0.44408920985E-15  0.00000000000E+00  0.91188000000E+02  0.91188000000E+02 0.  0.
    9900012    2    3    3    0    0 -0.14289760382E+02  0.14430338211E+01  0.42694659288E+02  0.46142317298E+02  0.99999957777E+01 0.  0.
        -12    1    3    3    0    0  0.14289760382E+02 -0.14430338211E+01 -0.42694659288E+02  0.45045682702E+02  0.00000000000E+00 0.  1.
         11    1    4    4    0    0 -0.87735673705E+01 -0.70357924320E-01  0.27214353118E+02  0.28593730965E+02  0.51100000000E-03 0. -1.
        -11    1    4    4    0    0 -0.10493319075E+01  0.32050688373E+01  0.49988166429E+01  0.60300689709E+01  0.51100000000E-03 0.  1.
        -12    1    4    4    0    0 -0.44668611045E+01 -0.16916770918E+01  0.10481489527E+02  0.11518517362E+02  0.00000000000E+00 0.  1.
</event>
<event>
 8    1  0.2962813E-009  0.9118800E+02  0.7816164E-02  0.1184000E+00
        -11   -1    0    0    0    0  0.00000000000E+00  0.00000000000E+00  0.45593999997E+02  0.45594000000E+02  0.51100000000E-03 0. -1.
         11   -1    0    0    0    0 -0.00000000000E+00 -0.00000000000E+00 -0.45593999997E+02  0.45594000000E+02  0.51100000000E-03 0.  1.
         23    2    1    2    0    0  0.00000000000E+00  0.00000000000E+00  0.00000000000E+00  0.91188000000E+02  0.91188000000E+02 0.  0.
    9900012    2    3    3    0    0  0.29017416571E+02  0.17935231235E+02 -0.29418199822E+02  0.46142318024E+02  0.10000002397E+02 0.  0.
         12    1    3    3    0    0 -0.29017416571E+02 -0.17935231235E+02  0.29418199822E+02  0.45045681976E+02  0.00000000000E+00 0. -1.
         11    1    4    4    0    0  0.92674119256E+01  0.16545060739E+01 -0.74535750129E+01  0.12007418327E+02  0.51100000000E-03 0. -1.
        -11    1    4    4    0    0  0.73877699088E+01  0.46549012139E+01 -0.10493771414E+02  0.13651611198E+02  0.51100000000E-03 0.  1.
        -12    1    4    4    0    0  0.12362234737E+02  0.11625823947E+02 -0.11470853395E+02  0.20483288499E+02  0.00000000000E+00 0.  1.
</event>
<event>
 8    1  0.2962813E-009  0.9118800E+02  0.7816164E-02  0.1184000E+00
        -11   -1    0    0    0    0  0.00000000000E+00  0.00000000000E+00  0.45593999997E+02  0.45594000000E+02  0.51100000000E-03 0. -1.
         11   -1    0    0    0    0 -0.00000000000E+00 -0.00000000000E+00 -0.45593999997E+02  0.45594000000E+02  0.51100000000E-03 0.  1.
         23    2    1    2    0    0  0.00000000000E+00  0.00000000000E+00 -0.17763568394E-14  0.91188000000E+02  0.91188000000E+02 0.  0.
    9900012    2    3    3    0    0 -0.16109827102E+02  0.40749431948E+02  0.10443702177E+02  0.46142315984E+02  0.99999837919E+01 0.  0.
        -12    1    3    3    0    0  0.16109827102E+02 -0.40749431948E+02 -0.10443702177E+02  0.45045684016E+02  0.00000000000E+00 0.  1.
         11    1    4    4    0    0 -0.69042985648E+01  0.11589975611E+02  0.10483381338E+01  0.13531292859E+02  0.51100000000E-03 0. -1.
        -11    1    4    4    0    0 -0.24356420434E+01  0.68035125937E+01  0.51404186095E+01  0.88681474682E+01  0.51100000000E-03 0.  1.
         12    1    4    4    0    0 -0.67698864944E+01  0.22355943743E+02  0.42549454339E+01  0.23742875657E+02  0.00000000000E+00 0. -1.
</event>
<event>
 8    1  0.2962813E-009  0.9118800E+02  0.7816164E-02  0.1184000E+00
        -11   -1    0    0    0    0  0.00000000000E+00  0.00000000000E+00  0.45593999997E+02  0.45594000000E+02  0.51100000000E-03 0.  1.
         11   -1    0    0    0    0 -0.00000000000E+00 -0.00000000000E+00 -0.45593999997E+02  0.45594000000E+02  0.51100000000E-03 0. -1.
         23    2    1    2    0    0  0.44408920985E-15  0.00000000000E+00  0.00000000000E+00  0.91188000000E+02  0.91188000000E+02 0.  0.
    9900012    2    3    3    0    0  0.23207883134E+01 -0.39442463524E+02 -0.21633758656E+02  0.46142317623E+02  0.99999987435E+01 0.  0.
         12    1    3    3    0    0 -0.23207883134E+01  0.39442463524E+02  0.21633758656E+02  0.45045682377E+02  0.00000000000E+00 0. -1.
         11    1    4    4    0    0 -0.18517488404E+01 -0.91193934959E+01 -0.28891764839E+01  0.97436980924E+01  0.51100000000E-03 0. -1.
        -11    1    4    4    0    0  0.13989429789E+01 -0.26163599011E+02 -0.15658750647E+02  0.30523555277E+02  0.51100000000E-03 0.  1.
        -12    1    4    4    0    0  0.27735941749E+01 -0.41594710165E+01 -0.30858315250E+01  0.58750642537E+01  0.00000000000E+00 0.  1.
</event>
<event>
 8    1  0.2962813E-009  0.9118800E+02  0.7816164E-02  0.1184000E+00
        -11   -1    0    0    0    0  0.00000000000E+00  0.00000000000E+00  0.45593999997E+02  0.45594000000E+02  0.51100000000E-03 0. -1.
         11   -1    0    0    0    0 -0.00000000000E+00 -0.00000000000E+00 -0.45593999997E+02  0.45594000000E+02  0.51100000000E-03 0.  1.
         23    2    1    2    0    0  0.00000000000E+00  0.22204460493E-15 -0.35527136788E-14  0.91188000000E+02  0.91188000000E+02 0.  0.
    9900012    2    3    3    0    0 -0.35192826794E+02 -0.55842823390E+00  0.28111701867E+02  0.46142304515E+02  0.99998792137E+01 0.  0.
        -12    1    3    3    0    0  0.35192826794E+02  0.55842823390E+00 -0.28111701867E+02  0.45045695485E+02  0.00000000000E+00 0.  1.
         11    1    4    4    0    0 -0.90286690687E+01 -0.55002032908E+00  0.67333450094E+01  0.11276405579E+02  0.51100000000E-03 0. -1.
        -11    1    4    4    0    0 -0.50417544083E+01 -0.11015459907E+01  0.56437846465E+00  0.51914559033E+01  0.51100000000E-03 0.  1.
        -12    1    4    4    0    0 -0.21122403317E+02  0.10931380859E+01  0.20813978393E+02  0.29674443033E+02  0.00000000000E+00 0.  1.
</event>
<event>
 8    1  0.2962813E-009  0.9118800E+02  0.7816164E-02  0.1184000E+00
        -11   -1    0    0    0    0  0.00000000000E+00  0.00000000000E+00  0.45593999997E+02  0.45594000000E+02  0.51100000000E-03 0. -1.
         11   -1    0    0    0    0 -0.00000000000E+00 -0.00000000000E+00 -0.45593999997E+02  0.45594000000E+02  0.51100000000E-03 0.  1.
         23    2    1    2    0    0  0.17763568394E-14  0.00000000000E+00  0.00000000000E+00  0.91188000000E+02  0.91188000000E+02 0.  0.
    9900012    2    3    3    0    0 -0.12490222798E+02 -0.88683384516E+01 -0.42361071639E+02  0.46142317822E+02  0.10000000558E+02 0.  0.
         12    1    3    3    0    0  0.12490222798E+02  0.88683384516E+01  0.42361071639E+02  0.45045682178E+02  0.00000000000E+00 0. -1.
         11    1    4    4    0    0 -0.25081367130E+01  0.67794345993E+00 -0.91509584076E+01  0.95126440669E+01  0.51100000000E-03 0. -1.
        -11    1    4    4    0    0 -0.95798221158E+01 -0.64259233713E+01 -0.20367256551E+02  0.23407063520E+02  0.51100000000E-03 0.  1.
        -12    1    4    4    0    0 -0.40226396868E+00 -0.31203585402E+01 -0.12842856681E+02  0.13222610236E+02  0.00000000000E+00 0.  1.
</event>
<event>
 8    1  0.2962813E-009  0.9118800E+02  0.7816164E-02  0.1184000E+00
        -11   -1    0    0    0    0  0.00000000000E+00  0.00000000000E+00  0.45593999997E+02  0.45594000000E+02  0.51100000000E-03 0. -1.
         11   -1    0    0    0    0 -0.00000000000E+00 -0.00000000000E+00 -0.45593999997E+02  0.45594000000E+02  0.51100000000E-03 0.  1.
         23    2    1    2    0    0 -0.44408920985E-15  0.71054273576E-14  0.00000000000E+00  0.91188000000E+02  0.91188000000E+02 0.  0.
    9900012    2    3    3    0    0 -0.33686892658E+01 -0.40101102858E+02  0.20240230943E+02  0.46142318004E+02  0.10000002217E+02 0.  0.
        -12    1    3    3    0    0  0.33686892658E+01  0.40101102858E+02 -0.20240230943E+02  0.45045681996E+02  0.00000000000E+00 0.  1.
         11    1    4    4    0    0 -0.15532457757E+00 -0.87059688060E+01  0.68751460843E+01  0.11094397348E+02  0.51100000000E-03 0. -1.
        -11    1    4    4    0    0 -0.10384848146E+01 -0.27241608558E+02  0.13360824293E+02  0.30359435331E+02  0.51100000000E-03 0.  1.
        -12    1    4    4    0    0 -0.21748798737E+01 -0.41535254938E+01  0.42605659911E-02  0.46884853252E+01  0.00000000000E+00 0.  1.
</event>
<event>
 8    1  0.2962813E-009  0.9118800E+02  0.7816164E-02  0.1184000E+00
        -11   -1    0    0    0    0  0.00000000000E+00  0.00000000000E+00  0.45593999997E+02  0.45594000000E+02  0.51100000000E-03 0. -1.
         11   -1    0    0    0    0 -0.00000000000E+00 -0.00000000000E+00 -0.45593999997E+02  0.45594000000E+02  0.51100000000E-03 0.  1.
         23    2    1    2    0    0  0.00000000000E+00 -0.35527136788E-14 -0.35527136788E-14  0.91188000000E+02  0.91188000000E+02 0.  0.
    9900012    2    3    3    0    0  0.22367826676E+02  0.29695640691E+02  0.25435435448E+02  0.46142332920E+02  0.10000138232E+02 0.  0.
        -12    1    3    3    0    0 -0.22367826676E+02 -0.29695640691E+02 -0.25435435448E+02  0.45045667080E+02  0.00000000000E+00 0.  1.
         11    1    4    4    0    0  0.93004033508E+01  0.87022151533E+01  0.89727911498E+01  0.15580020293E+02  0.51100000000E-03 0. -1.
        -11    1    4    4    0    0  0.13300964961E+02  0.19311526283E+02  0.16780699357E+02  0.28834746183E+02  0.51100000000E-03 0.  1.
        -12    1    4    4    0    0 -0.23354163588E+00  0.16818992545E+01 -0.31805505875E+00  0.17275664440E+01  0.00000000000E+00 0.  1.
</event>
<event>
 8    1  0.2962813E-009  0.9118800E+02  0.7816164E-02  0.1184000E+00
        -11   -1    0    0    0    0  0.00000000000E+00  0.00000000000E+00  0.45593999997E+02  0.45594000000E+02  0.51100000000E-03 0. -1.
         11   -1    0    0    0    0 -0.00000000000E+00 -0.00000000000E+00 -0.45593999997E+02  0.45594000000E+02  0.51100000000E-03 0.  1.
         23    2    1    2    0    0  0.00000000000E+00  0.00000000000E+00  0.00000000000E+00  0.91188000000E+02  0.91188000000E+02 0.  0.
    9900012    2    3    3    0    0 -0.30044384588E+01  0.53741201794E+01  0.44622927512E+02  0.46142317877E+02  0.10000001059E+02 0.  0.
        -12    1    3    3    0    0  0.30044384588E+01 -0.53741201794E+01 -0.44622927512E+02  0.45045682123E+02  0.00000000000E+00 0.  1.
         11    1    4    4    0    0  0.32048616634E+01  0.96625845053E+00  0.99326626063E+01  0.10481535211E+02  0.51100000000E-03 0. -1.
        -11    1    4    4    0    0 -0.28812650196E+01  0.33187269957E+00  0.15105789891E+02  0.15381700689E+02  0.51100000000E-03 0.  1.
         12    1    4    4    0    0 -0.33280351026E+01  0.40759890293E+01  0.19584475015E+02  0.20279081977E+02  0.00000000000E+00 0. -1.
</event>
<event>
 8    1  0.2962813E-009  0.9118800E+02  0.7816164E-02  0.1184000E+00
        -11   -1    0    0    0    0  0.00000000000E+00  0.00000000000E+00  0.45593999997E+02  0.45594000000E+02  0.51100000000E-03 0. -1.
         11   -1    0    0    0    0 -0.00000000000E+00 -0.00000000000E+00 -0.45593999997E+02  0.45594000000E+02  0.51100000000E-03 0.  1.
         23    2    1    2    0    0 -0.35527136788E-14  0.35527136788E-14  0.00000000000E+00  0.91188000000E+02  0.91188000000E+02 0.  0.
    9900012    2    3    3    0    0  0.28703672108E+02 -0.27625626555E+02  0.21024686047E+02  0.46142318094E+02  0.10000003031E+02 0.  0.
         12    1    3    3    0    0 -0.28703672108E+02  0.27625626555E+02 -0.21024686047E+02  0.45045681906E+02  0.00000000000E+00 0. -1.
         11    1    4    4    0    0 -0.18363210292E+00 -0.99565178642E+00  0.51574271123E+00  0.11362367862E+01  0.51100000000E-03 0. -1.
        -11    1    4    4    0    0  0.18000809998E+02 -0.14345178515E+02  0.15837414729E+02  0.27939882118E+02  0.51100000000E-03 0.  1.
        -12    1    4    4    0    0  0.10886494213E+02 -0.12284796254E+02  0.46715286066E+01  0.17066199189E+02  0.00000000000E+00 0.  1.
</event>
<event>
 8    1  0.2962813E-009  0.9118800E+02  0.7816164E-02  0.1184000E+00
        -11   -1    0    0    0    0  0.00000000000E+00  0.00000000000E+00  0.45593999997E+02  0.45594000000E+02  0.51100000000E-03 0. -1.
         11   -1    0    0    0    0 -0.00000000000E+00 -0.00000000000E+00 -0.45593999997E+02  0.45594000000E+02  0.51100000000E-03 0.  1.
         23    2    1    2    0    0  0.00000000000E+00  0.00000000000E+00 -0.71054273576E-14  0.91188000000E+02  0.91188000000E+02 0.  0.
    9900012    2    3    3    0    0  0.24574646832E+01  0.16989598028E+02  0.41646463255E+02  0.46142317905E+02  0.10000001308E+02 0.  0.
        -12    1    3    3    0    0 -0.24574646832E+01 -0.16989598028E+02 -0.41646463255E+02  0.45045682095E+02  0.00000000000E+00 0.  1.
         11    1    4    4    0    0  0.34567838031E+01  0.33986382061E+01  0.66609883809E+01  0.82382560284E+01  0.51100000000E-03 0. -1.
        -11    1    4    4    0    0  0.81995598569E+00  0.31796166609E+01  0.40556899063E+01  0.52183245210E+01  0.51100000000E-03 0.  1.
         12    1    4    4    0    0 -0.18192751056E+01  0.10411343160E+02  0.30929784968E+02  0.32685737355E+02  0.00000000000E+00 0. -1.
</event>
<event>
 8    1  0.2962813E-009  0.9118800E+02  0.7816164E-02  0.1184000E+00
        -11   -1    0    0    0    0  0.00000000000E+00  0.00000000000E+00  0.45593999997E+02  0.45594000000E+02  0.51100000000E-03 0. -1.
         11   -1    0    0    0    0 -0.00000000000E+00 -0.00000000000E+00 -0.45593999997E+02  0.45594000000E+02  0.51100000000E-03 0.  1.
         23    2    1    2    0    0 -0.17763568394E-14 -0.17763568394E-14  0.71054273576E-14  0.91188000000E+02  0.91188000000E+02 0.  0.
    9900012    2    3    3    0    0  0.83120102144E+01  0.13350666359E+02 -0.42211179669E+02  0.46142317686E+02  0.99999993174E+01 0.  0.
         12    1    3    3    0    0 -0.83120102144E+01 -0.13350666359E+02  0.42211179669E+02  0.45045682314E+02  0.00000000000E+00 0. -1.
         11    1    4    4    0    0  0.55618037323E+01  0.40870508717E+01 -0.11088663603E+02  0.13061244441E+02  0.51100000000E-03 0. -1.
        -11    1    4    4    0    0  0.38513667612E+01  0.91980895617E+01 -0.26129068275E+02  0.27967232374E+02  0.51100000000E-03 0.  1.
        -12    1    4    4    0    0 -0.11011602790E+01  0.65525925863E-01 -0.49934477912E+01  0.51138408707E+01  0.00000000000E+00 0.  1.
</event>
<event>
 8    1  0.2962813E-009  0.9118800E+02  0.7816164E-02  0.1184000E+00
        -11   -1    0    0    0    0  0.00000000000E+00  0.00000000000E+00  0.45593999997E+02  0.45594000000E+02  0.51100000000E-03 0. -1.
         11   -1    0    0    0    0 -0.00000000000E+00 -0.00000000000E+00 -0.45593999997E+02  0.45594000000E+02  0.51100000000E-03 0.  1.
         23    2    1    2    0    0 -0.17763568394E-14  0.71054273576E-14 -0.71054273576E-14  0.91188000000E+02  0.91188000000E+02 0.  0.
    9900012    2    3    3    0    0 -0.71428460286E+01  0.22093759547E+02 -0.38599987230E+02  0.46142317915E+02  0.10000001406E+02 0.  0.
         12    1    3    3    0    0  0.71428460286E+01 -0.22093759547E+02  0.38599987230E+02  0.45045682085E+02  0.00000000000E+00 0. -1.
         11    1    4    4    0    0 -0.15282756622E+01  0.42228999081E+01 -0.12172546223E+02  0.12974567119E+02  0.51100000000E-03 0. -1.
        -11    1    4    4    0    0 -0.58333389226E+01  0.97863329834E+01 -0.19177330001E+02  0.22306280337E+02  0.51100000000E-03 0.  1.
         12    1    4    4    0    0  0.21876855625E+00  0.80845266550E+01 -0.72501110064E+01  0.10861470459E+02  0.00000000000E+00 0. -1.
</event>
<event>
 8    1  0.2962813E-009  0.9118800E+02  0.7816164E-02  0.1184000E+00
        -11   -1    0    0    0    0  0.00000000000E+00  0.00000000000E+00  0.45593999997E+02  0.45594000000E+02  0.51100000000E-03 0. -1.
         11   -1    0    0    0    0 -0.00000000000E+00 -0.00000000000E+00 -0.45593999997E+02  0.45594000000E+02  0.51100000000E-03 0.  1.
         23    2    1    2    0    0  0.00000000000E+00 -0.35527136788E-14  0.00000000000E+00  0.91188000000E+02  0.91188000000E+02 0.  0.
    9900012    2    3    3    0    0 -0.18773048512E+02  0.25280920396E+02  0.32211196888E+02  0.46142317727E+02  0.99999996934E+01 0.  0.
        -12    1    3    3    0    0  0.18773048512E+02 -0.25280920396E+02 -0.32211196888E+02  0.45045682273E+02  0.00000000000E+00 0.  1.
         11    1    4    4    0    0 -0.37187779879E+01  0.46504470567E+01  0.84857132590E+01  0.10366450565E+02  0.51100000000E-03 0. -1.
        -11    1    4    4    0    0 -0.10570362971E+02  0.13961686530E+02  0.10856844730E+02  0.20604182630E+02  0.51100000000E-03 0.  1.
        -12    1    4    4    0    0 -0.44839075528E+01  0.66687868092E+01  0.12868638898E+02  0.15171684532E+02  0.00000000000E+00 0.  1.
</event>
<event>
 8    1  0.2962813E-009  0.9118800E+02  0.7816164E-02  0.1184000E+00
        -11   -1    0    0    0    0  0.00000000000E+00  0.00000000000E+00  0.45593999997E+02  0.45594000000E+02  0.51100000000E-03 0. -1.
         11   -1    0    0    0    0 -0.00000000000E+00 -0.00000000000E+00 -0.45593999997E+02  0.45594000000E+02  0.51100000000E-03 0.  1.
         23    2    1    2    0    0  0.00000000000E+00  0.00000000000E+00  0.00000000000E+00  0.91188000000E+02  0.91188000000E+02 0.  0.
    9900012    2    3    3    0    0  0.32773060693E+02  0.29047450062E+02 -0.10549202973E+02  0.46142317126E+02  0.99999942040E+01 0.  0.
         12    1    3    3    0    0 -0.32773060693E+02 -0.29047450062E+02  0.10549202973E+02  0.45045682874E+02  0.00000000000E+00 0. -1.
         11    1    4    4    0    0  0.52271604661E+01  0.97754359078E+00 -0.19808989251E+00  0.53214695223E+01  0.51100000000E-03 0. -1.
        -11    1    4    4    0    0  0.16734645199E+02  0.16071755746E+02 -0.77484581677E+01  0.24461976350E+02  0.51100000000E-03 0.  1.
         12    1    4    4    0    0  0.10811255028E+02  0.11998150725E+02 -0.26026549124E+01  0.16358871254E+02  0.00000000000E+00 0. -1.
</event>
<event>
 8    1  0.2962813E-009  0.9118800E+02  0.7816164E-02  0.1184000E+00
        -11   -1    0    0    0    0  0.00000000000E+00  0.00000000000E+00  0.45593999997E+02  0.45594000000E+02  0.51100000000E-03 0.  1.
         11   -1    0    0    0    0 -0.00000000000E+00 -0.00000000000E+00 -0.45593999997E+02  0.45594000000E+02  0.51100000000E-03 0. -1.
         23    2    1    2    0    0  0.00000000000E+00  0.00000000000E+00  0.17763568394E-14  0.91188000000E+02  0.91188000000E+02 0.  0.
    9900012    2    3    3    0    0 -0.39327910018E+02  0.19404322586E+02  0.10290824915E+02  0.46142319643E+02  0.10000017163E+02 0.  0.
         12    1    3    3    0    0  0.39327910018E+02 -0.19404322586E+02 -0.10290824915E+02  0.45045680357E+02  0.00000000000E+00 0. -1.
         11    1    4    4    0    0 -0.12509382221E+02  0.83341724520E+01  0.75545284710E+01  0.16823019190E+02  0.51100000000E-03 0. -1.
        -11    1    4    4    0    0 -0.61533222440E+01  0.22987051187E+01  0.19652817266E+01  0.68563658294E+01  0.51100000000E-03 0.  1.
         12    1    4    4    0    0 -0.20665205553E+02  0.87714450153E+01  0.77101471732E+00  0.22462934623E+02  0.00000000000E+00 0. -1.
</event>
<event>
 8    1  0.2962813E-009  0.9118800E+02  0.7816164E-02  0.1184000E+00
        -11   -1    0    0    0    0  0.00000000000E+00  0.00000000000E+00  0.45593999997E+02  0.45594000000E+02  0.51100000000E-03 0. -1.
         11   -1    0    0    0    0 -0.00000000000E+00 -0.00000000000E+00 -0.45593999997E+02  0.45594000000E+02  0.51100000000E-03 0.  1.
         23    2    1    2    0    0  0.00000000000E+00  0.35527136788E-14  0.00000000000E+00  0.91188000000E+02  0.91188000000E+02 0.  0.
    9900012    2    3    3    0    0 -0.27128442406E+02  0.25360279660E+02  0.25495438112E+02  0.46142317229E+02  0.99999951484E+01 0.  0.
        -12    1    3    3    0    0  0.27128442406E+02 -0.25360279660E+02 -0.25495438112E+02  0.45045682771E+02  0.00000000000E+00 0.  1.
         11    1    4    4    0    0 -0.94693710608E+01  0.14498907754E+02  0.13811417518E+02  0.22150453008E+02  0.51100000000E-03 0. -1.
        -11    1    4    4    0    0 -0.11278927892E+02  0.56686614162E+01  0.58888712882E+01  0.13929348224E+02  0.51100000000E-03 0.  1.
         12    1    4    4    0    0 -0.63801434536E+01  0.51927104896E+01  0.57951493055E+01  0.10062515997E+02  0.00000000000E+00 0. -1.
</event>
<event>
 8    1  0.2962813E-009  0.9118800E+02  0.7816164E-02  0.1184000E+00
        -11   -1    0    0    0    0  0.00000000000E+00  0.00000000000E+00  0.45593999997E+02  0.45594000000E+02  0.51100000000E-03 0.  1.
         11   -1    0    0    0    0 -0.00000000000E+00 -0.00000000000E+00 -0.45593999997E+02  0.45594000000E+02  0.51100000000E-03 0. -1.
         23    2    1    2    0    0  0.00000000000E+00  0.71054273576E-14 -0.17763568394E-14  0.91188000000E+02  0.91188000000E+02 0.  0.
    9900012    2    3    3    0    0  0.30867491540E+02  0.31480989169E+02 -0.92335594063E+01  0.46142319493E+02  0.10000015793E+02 0.  0.
        -12    1    3    3    0    0 -0.30867491540E+02 -0.31480989169E+02  0.92335594063E+01  0.45045680507E+02  0.00000000000E+00 0.  1.
         11    1    4    4    0    0  0.63337424455E+01  0.28653533170E+01 -0.41777395531E+01  0.81104901844E+01  0.51100000000E-03 0. -1.
        -11    1    4    4    0    0  0.17589253794E+02  0.20698978295E+02 -0.35667468074E+01  0.27396190147E+02  0.51100000000E-03 0.  1.
         12    1    4    4    0    0  0.69444953005E+01  0.79166575563E+01 -0.14890730458E+01  0.10635639162E+02  0.00000000000E+00 0. -1.
</event>
<event>
 8    1  0.2962813E-009  0.9118800E+02  0.7816164E-02  0.1184000E+00
        -11   -1    0    0    0    0  0.00000000000E+00  0.00000000000E+00  0.45593999997E+02  0.45594000000E+02  0.51100000000E-03 0. -1.
         11   -1    0    0    0    0 -0.00000000000E+00 -0.00000000000E+00 -0.45593999997E+02  0.45594000000E+02  0.51100000000E-03 0.  1.
         23    2    1    2    0    0  0.00000000000E+00  0.00000000000E+00  0.00000000000E+00  0.91188000000E+02  0.91188000000E+02 0.  0.
    9900012    2    3    3    0    0 -0.85802609139E+01  0.97488652366E+01  0.43132971210E+02  0.46142307019E+02  0.99999020429E+01 0.  0.
        -12    1    3    3    0    0  0.85802609139E+01 -0.97488652366E+01 -0.43132971210E+02  0.45045692981E+02  0.00000000000E+00 0.  1.
         11    1    4    4    0    0 -0.44720215478E+01  0.25323508682E+01  0.18426298190E+02  0.19129564629E+02  0.51100000000E-03 0. -1.
        -11    1    4    4    0    0  0.50427912219E-01  0.66152207405E+01  0.13246603206E+02  0.14806626394E+02  0.51100000000E-03 0.  1.
        -12    1    4    4    0    0 -0.41586672783E+01  0.60129362780E+00  0.11460069813E+02  0.12206115995E+02  0.00000000000E+00 0.  1.
</event>
<event>
 8    1  0.2962813E-009  0.9118800E+02  0.7816164E-02  0.1184000E+00
        -11   -1    0    0    0    0  0.00000000000E+00  0.00000000000E+00  0.45593999997E+02  0.45594000000E+02  0.51100000000E-03 0. -1.
         11   -1    0    0    0    0 -0.00000000000E+00 -0.00000000000E+00 -0.45593999997E+02  0.45594000000E+02  0.51100000000E-03 0.  1.
         23    2    1    2    0    0  0.17763568394E-14  0.17763568394E-14  0.00000000000E+00  0.91188000000E+02  0.91188000000E+02 0.  0.
    9900012    2    3    3    0    0  0.14681710148E+02  0.11936928827E+02  0.40878731040E+02  0.46142317253E+02  0.99999953681E+01 0.  0.
        -12    1    3    3    0    0 -0.14681710148E+02 -0.11936928827E+02 -0.40878731040E+02  0.45045682747E+02  0.00000000000E+00 0.  1.
         11    1    4    4    0    0  0.10690067485E+02  0.89144201265E+01  0.25260179237E+02  0.28841308645E+02  0.51100000000E-03 0. -1.
        -11    1    4    4    0    0  0.36325590653E+00 -0.15245692163E+01  0.25022869544E+01  0.29525762331E+01  0.51100000000E-03 0.  1.
        -12    1    4    4    0    0  0.36283867561E+01  0.45470779165E+01  0.13116264849E+02  0.14348432375E+02  0.00000000000E+00 0.  1.
</event>
<event>
 8    1  0.2962813E-009  0.9118800E+02  0.7816164E-02  0.1184000E+00
        -11   -1    0    0    0    0  0.00000000000E+00  0.00000000000E+00  0.45593999997E+02  0.45594000000E+02  0.51100000000E-03 0. -1.
         11   -1    0    0    0    0 -0.00000000000E+00 -0.00000000000E+00 -0.45593999997E+02  0.45594000000E+02  0.51100000000E-03 0.  1.
         23    2    1    2    0    0  0.11102230246E-15  0.00000000000E+00  0.00000000000E+00  0.91188000000E+02  0.91188000000E+02 0.  0.
    9900012    2    3    3    0    0  0.56418361569E+00  0.15955414223E+02  0.42121489269E+02  0.46142318693E+02  0.10000008498E+02 0.  0.
        -12    1    3    3    0    0 -0.56418361569E+00 -0.15955414223E+02 -0.42121489269E+02  0.45045681307E+02  0.00000000000E+00 0.  1.
         11    1    4    4    0    0  0.27207920057E+00  0.12172093625E+02  0.19264370328E+02  0.22789248664E+02  0.51100000000E-03 0. -1.
        -11    1    4    4    0    0  0.12880675134E+01  0.10567126441E+01  0.52425604979E+01  0.55009272279E+01  0.51100000000E-03 0.  1.
         12    1    4    4    0    0 -0.99596309832E+00  0.27266079541E+01  0.17614558443E+02  0.17852142801E+02  0.00000000000E+00 0. -1.
</event>
<event>
 8    1  0.2962813E-009  0.9118800E+02  0.7816164E-02  0.1184000E+00
        -11   -1    0    0    0    0  0.00000000000E+00  0.00000000000E+00  0.45593999997E+02  0.45594000000E+02  0.51100000000E-03 0. -1.
         11   -1    0    0    0    0 -0.00000000000E+00 -0.00000000000E+00 -0.45593999997E+02  0.45594000000E+02  0.51100000000E-03 0.  1.
         23    2    1    2    0    0  0.35527136788E-14 -0.71054273576E-14 -0.71054273576E-14  0.91188000000E+02  0.91188000000E+02 0.  0.
    9900012    2    3    3    0    0 -0.23990107334E+02  0.22395289203E+02  0.30855133195E+02  0.46142317933E+02  0.10000001568E+02 0.  0.
        -12    1    3    3    0    0  0.23990107334E+02 -0.22395289203E+02 -0.30855133195E+02  0.45045682067E+02  0.00000000000E+00 0.  1.
         11    1    4    4    0    0 -0.77026384202E+00 -0.32696133622E+00  0.14477852402E+01  0.16722118480E+01  0.51100000000E-03 0.  1.
        -11    1    4    4    0    0 -0.20184329731E+02  0.22627052249E+02  0.26689242646E+02  0.40394384925E+02  0.51100000000E-03 0. -1.
         12    1    4    4    0    0 -0.30355137607E+01  0.95198290552E-01  0.27181053088E+01  0.40757211602E+01  0.00000000000E+00 0. -1.
</event>
<event>
 8    1  0.2962813E-009  0.9118800E+02  0.7816164E-02  0.1184000E+00
        -11   -1    0    0    0    0  0.00000000000E+00  0.00000000000E+00  0.45593999997E+02  0.45594000000E+02  0.51100000000E-03 0. -1.
         11   -1    0    0    0    0 -0.00000000000E+00 -0.00000000000E+00 -0.45593999997E+02  0.45594000000E+02  0.51100000000E-03 0.  1.
         23    2    1    2    0    0  0.00000000000E+00  0.00000000000E+00  0.00000000000E+00  0.91188000000E+02  0.91188000000E+02 0.  0.
    9900012    2    3    3    0    0 -0.20414728749E+02 -0.40049478757E+02  0.28968259168E+01  0.46142317643E+02  0.99999989224E+01 0.  0.
        -12    1    3    3    0    0  0.20414728749E+02  0.40049478757E+02 -0.28968259168E+01  0.45045682357E+02  0.00000000000E+00 0.  1.
         11    1    4    4    0    0 -0.28970794016E+01 -0.13543684470E+02  0.22692651826E+01  0.14034743418E+02  0.51100000000E-03 0. -1.
        -11    1    4    4    0    0 -0.71117338703E+01 -0.73045584910E+01  0.11663645264E+01  0.10261273793E+02  0.51100000000E-03 0.  1.
         12    1    4    4    0    0 -0.10405915477E+02 -0.19201235796E+02 -0.53880379222E+00  0.21846300431E+02  0.00000000000E+00 0. -1.
</event>
<event>
 8    1  0.2962813E-009  0.9118800E+02  0.7816164E-02  0.1184000E+00
        -11   -1    0    0    0    0  0.00000000000E+00  0.00000000000E+00  0.45593999997E+02  0.45594000000E+02  0.51100000000E-03 0. -1.
         11   -1    0    0    0    0 -0.00000000000E+00 -0.00000000000E+00 -0.45593999997E+02  0.45594000000E+02  0.51100000000E-03 0.  1.
         23    2    1    2    0    0 -0.13877787808E-15 -0.35527136788E-14 -0.71054273576E-14  0.91188000000E+02  0.91188000000E+02 0.  0.
    9900012    2    3    3    0    0 -0.14079475983E+00 -0.22955190192E+02 -0.38757617990E+02  0.46142317275E+02  0.99999955689E+01 0.  0.
         12    1    3    3    0    0  0.14079475983E+00  0.22955190192E+02  0.38757617990E+02  0.45045682725E+02  0.00000000000E+00 0. -1.
         11    1    4    4    0    0 -0.12806382460E+01 -0.57327103232E+01 -0.10579629211E+02  0.12100932050E+02  0.51100000000E-03 0. -1.
        -11    1    4    4    0    0  0.77037245861E+00 -0.18091071501E+02 -0.26183591789E+02  0.31834899419E+02  0.51100000000E-03 0.  1.
        -12    1    4    4    0    0  0.36947102753E+00  0.86859163193E+00 -0.19943969889E+01  0.22064858062E+01  0.00000000000E+00 0.  1.
</event>
<event>
 8    1  0.2962813E-009  0.9118800E+02  0.7816164E-02  0.1184000E+00
        -11   -1    0    0    0    0  0.00000000000E+00  0.00000000000E+00  0.45593999997E+02  0.45594000000E+02  0.51100000000E-03 0. -1.
         11   -1    0    0    0    0 -0.00000000000E+00 -0.00000000000E+00 -0.45593999997E+02  0.45594000000E+02  0.51100000000E-03 0.  1.
         23    2    1    2    0    0  0.00000000000E+00  0.17763568394E-14  0.71054273576E-14  0.91188000000E+02  0.91188000000E+02 0.  0.
    9900012    2    3    3    0    0  0.16465104509E+02  0.53263420200E+01  0.41588987914E+02  0.46142317615E+02  0.99999986662E+01 0.  0.
        -12    1    3    3    0    0 -0.16465104509E+02 -0.53263420200E+01 -0.41588987914E+02  0.45045682385E+02  0.00000000000E+00 0.  1.
         11    1    4    4    0    0  0.16440105243E+01  0.73417213044E+00  0.14124649138E+02  0.14238942828E+02  0.51100000000E-03 0.  1.
        -11    1    4    4    0    0  0.94803464231E+01  0.40884417349E+01  0.13884424195E+02  0.17302299258E+02  0.51100000000E-03 0. -1.
        -12    1    4    4    0    0  0.53407475613E+01  0.50372815471E+00  0.13579914582E+02  0.14601075529E+02  0.00000000000E+00 0.  1.
</event>
<event>
 8    1  0.2962813E-009  0.9118800E+02  0.7816164E-02  0.1184000E+00
        -11   -1    0    0    0    0  0.00000000000E+00  0.00000000000E+00  0.45593999997E+02  0.45594000000E+02  0.51100000000E-03 0. -1.
         11   -1    0    0    0    0 -0.00000000000E+00 -0.00000000000E+00 -0.45593999997E+02  0.45594000000E+02  0.51100000000E-03 0.  1.
         23    2    1    2    0    0  0.00000000000E+00  0.00000000000E+00  0.00000000000E+00  0.91188000000E+02  0.91188000000E+02 0.  0.
    9900012    2    3    3    0    0 -0.41593675030E+02  0.96831755471E+01 -0.14328850505E+02  0.46142315989E+02  0.99999838412E+01 0.  0.
         12    1    3    3    0    0  0.41593675030E+02 -0.96831755471E+01  0.14328850505E+02  0.45045684011E+02  0.00000000000E+00 0. -1.
         11    1    4    4    0    0 -0.12539961164E+02  0.26487117776E+01 -0.75693376039E+01  0.14884931041E+02  0.51100000000E-03 0. -1.
        -11    1    4    4    0    0 -0.10992139359E+02 -0.33694738997E+00 -0.28679660341E+01  0.11365117275E+02  0.51100000000E-03 0.  1.
         12    1    4    4    0    0 -0.18061574508E+02  0.73714111595E+01 -0.38915468672E+01  0.19892267674E+02  0.00000000000E+00 0. -1.
</event>
<event>
 8    1  0.2962813E-009  0.9118800E+02  0.7816164E-02  0.1184000E+00
        -11   -1    0    0    0    0  0.00000000000E+00  0.00000000000E+00  0.45593999997E+02  0.45594000000E+02  0.51100000000E-03 0. -1.
         11   -1    0    0    0    0 -0.00000000000E+00 -0.00000000000E+00 -0.45593999997E+02  0.45594000000E+02  0.51100000000E-03 0.  1.
         23    2    1    2    0    0  0.17763568394E-14  0.35527136788E-14 -0.35527136788E-14  0.91188000000E+02  0.91188000000E+02 0.  0.
    9900012    2    3    3    0    0 -0.11745148388E+02 -0.30673710955E+02  0.30826746840E+02  0.46142319017E+02  0.10000011455E+02 0.  0.
        -12    1    3    3    0    0  0.11745148388E+02  0.30673710955E+02 -0.30826746840E+02  0.45045680983E+02  0.00000000000E+00 0.  1.
         11    1    4    4    0    0 -0.11204830980E+02 -0.28222992865E+02  0.29696251045E+02  0.42472966578E+02  0.51100000000E-03 0. -1.
        -11    1    4    4    0    0 -0.11375609358E+01 -0.20227324894E+01 -0.46962893997E-03  0.23206663026E+01  0.51100000000E-03 0.  1.
         12    1    4    4    0    0  0.59724352688E+00 -0.42798560098E+00  0.11309654243E+01  0.13486861369E+01  0.00000000000E+00 0. -1.
</event>
<event>
 8    1  0.2962813E-009  0.9118800E+02  0.7816164E-02  0.1184000E+00
        -11   -1    0    0    0    0  0.00000000000E+00  0.00000000000E+00  0.45593999997E+02  0.45594000000E+02  0.51100000000E-03 0.  1.
         11   -1    0    0    0    0 -0.00000000000E+00 -0.00000000000E+00 -0.45593999997E+02  0.45594000000E+02  0.51100000000E-03 0. -1.
         23    2    1    2    0    0  0.00000000000E+00  0.00000000000E+00  0.00000000000E+00  0.91188000000E+02  0.91188000000E+02 0.  0.
    9900012    2    3    3    0    0  0.58488864294E+00 -0.41952424537E+02 -0.16394067487E+02  0.46142317987E+02  0.10000002062E+02 0.  0.
         12    1    3    3    0    0 -0.58488864294E+00  0.41952424537E+02  0.16394067487E+02  0.45045682013E+02  0.00000000000E+00 0. -1.
         11    1    4    4    0    0 -0.26997690068E+00 -0.66349715987E+01  0.67854250193E+00  0.66750397625E+01  0.51100000000E-03 0. -1.
        -11    1    4    4    0    0  0.13632951406E+00 -0.63579223471E+01 -0.49752569412E+01  0.80743386231E+01  0.51100000000E-03 0.  1.
         12    1    4    4    0    0  0.71853602955E+00 -0.28959530591E+02 -0.12097353048E+02  0.31392939602E+02  0.00000000000E+00 0. -1.
</event>
<event>
 8    1  0.2962813E-009  0.9118800E+02  0.7816164E-02  0.1184000E+00
        -11   -1    0    0    0    0  0.00000000000E+00  0.00000000000E+00  0.45593999997E+02  0.45594000000E+02  0.51100000000E-03 0. -1.
         11   -1    0    0    0    0 -0.00000000000E+00 -0.00000000000E+00 -0.45593999997E+02  0.45594000000E+02  0.51100000000E-03 0.  1.
         23    2    1    2    0    0  0.00000000000E+00  0.00000000000E+00  0.00000000000E+00  0.91188000000E+02  0.91188000000E+02 0.  0.
    9900012    2    3    3    0    0  0.84848762575E+01 -0.42331449547E+02 -0.12851800706E+02  0.46142317330E+02  0.99999960682E+01 0.  0.
         12    1    3    3    0    0 -0.84848762575E+01  0.42331449547E+02  0.12851800706E+02  0.45045682670E+02  0.00000000000E+00 0. -1.
         11    1    4    4    0    0 -0.18105101071E+01 -0.88894255813E+01 -0.24165916941E+01  0.93882772483E+01  0.51100000000E-03 0. -1.
        -11    1    4    4    0    0  0.70893817673E+01 -0.17490815993E+02 -0.42333616277E+01  0.19341906030E+02  0.51100000000E-03 0.  1.
         12    1    4    4    0    0  0.32060045973E+01 -0.15951207973E+02 -0.62018473839E+01  0.17412134052E+02  0.00000000000E+00 0. -1.
</event>
<event>
 8    1  0.2962813E-009  0.9118800E+02  0.7816164E-02  0.1184000E+00
        -11   -1    0    0    0    0  0.00000000000E+00  0.00000000000E+00  0.45593999997E+02  0.45594000000E+02  0.51100000000E-03 0. -1.
         11   -1    0    0    0    0 -0.00000000000E+00 -0.00000000000E+00 -0.45593999997E+02  0.45594000000E+02  0.51100000000E-03 0.  1.
         23    2    1    2    0    0 -0.35527136788E-14  0.00000000000E+00 -0.35527136788E-14  0.91188000000E+02  0.91188000000E+02 0.  0.
    9900012    2    3    3    0    0  0.29788181167E+02 -0.26670383861E+02 -0.20747732537E+02  0.46142317433E+02  0.99999970069E+01 0.  0.
         12    1    3    3    0    0 -0.29788181167E+02  0.26670383861E+02  0.20747732537E+02  0.45045682567E+02  0.00000000000E+00 0. -1.
         11    1    4    4    0    0  0.25649500232E+00 -0.51040253839E+00 -0.18634487219E+01  0.19490361305E+01  0.51100000000E-03 0. -1.
        -11    1    4    4    0    0  0.24056154700E+02 -0.22407306424E+02 -0.18045716267E+02  0.37502451066E+02  0.51100000000E-03 0.  1.
        -12    1    4    4    0    0  0.54755314651E+01 -0.37526748987E+01 -0.83856754747E+00  0.66908302364E+01  0.00000000000E+00 0.  1.
</event>
<event>
 8    1  0.2962813E-009  0.9118800E+02  0.7816164E-02  0.1184000E+00
        -11   -1    0    0    0    0  0.00000000000E+00  0.00000000000E+00  0.45593999997E+02  0.45594000000E+02  0.51100000000E-03 0. -1.
         11   -1    0    0    0    0 -0.00000000000E+00 -0.00000000000E+00 -0.45593999997E+02  0.45594000000E+02  0.51100000000E-03 0.  1.
         23    2    1    2    0    0  0.71054273576E-14  0.00000000000E+00  0.00000000000E+00  0.91188000000E+02  0.91188000000E+02 0.  0.
    9900012    2    3    3    0    0  0.40773069407E+02 -0.90531985314E+01  0.16873348475E+02  0.46142317840E+02  0.10000000718E+02 0.  0.
        -12    1    3    3    0    0 -0.40773069407E+02  0.90531985314E+01 -0.16873348475E+02  0.45045682160E+02  0.00000000000E+00 0.  1.
         11    1    4    4    0    0  0.17253591070E+02 -0.23507538469E+01  0.76255938696E+01  0.19009527364E+02  0.51100000000E-03 0. -1.
        -11    1    4    4    0    0  0.17118428066E+02 -0.70419266529E+01  0.93159950951E+01  0.20722381024E+02  0.51100000000E-03 0.  1.
        -12    1    4    4    0    0  0.64010502707E+01  0.33948196842E+00 -0.68240490214E-01  0.64104094517E+01  0.00000000000E+00 0.  1.
</event>
<event>
 8    1  0.2962813E-009  0.9118800E+02  0.7816164E-02  0.1184000E+00
        -11   -1    0    0    0    0  0.00000000000E+00  0.00000000000E+00  0.45593999997E+02  0.45594000000E+02  0.51100000000E-03 0. -1.
         11   -1    0    0    0    0 -0.00000000000E+00 -0.00000000000E+00 -0.45593999997E+02  0.45594000000E+02  0.51100000000E-03 0.  1.
         23    2    1    2    0    0  0.00000000000E+00  0.00000000000E+00  0.00000000000E+00  0.91188000000E+02  0.91188000000E+02 0.  0.
    9900012    2    3    3    0    0 -0.23446301701E+02 -0.95609273762E+01 -0.37255513353E+02  0.46142315734E+02  0.99999815145E+01 0.  0.
         12    1    3    3    0    0  0.23446301701E+02  0.95609273762E+01  0.37255513353E+02  0.45045684266E+02  0.00000000000E+00 0. -1.
         11    1    4    4    0    0 -0.36259210942E+01  0.69862856717E+00 -0.22057369145E+01  0.43012395020E+01  0.51100000000E-03 0. -1.
        -11    1    4    4    0    0 -0.17686143440E+02 -0.79262555929E+01 -0.27383023615E+02  0.33547804400E+02  0.51100000000E-03 0.  1.
         12    1    4    4    0    0 -0.21342371669E+01 -0.23333003505E+01 -0.76667528243E+01  0.82932718320E+01  0.00000000000E+00 0. -1.
</event>
<event>
 8    1  0.2962813E-009  0.9118800E+02  0.7816164E-02  0.1184000E+00
        -11   -1    0    0    0    0  0.00000000000E+00  0.00000000000E+00  0.45593999997E+02  0.45594000000E+02  0.51100000000E-03 0.  1.
         11   -1    0    0    0    0 -0.00000000000E+00 -0.00000000000E+00 -0.45593999997E+02  0.45594000000E+02  0.51100000000E-03 0. -1.
         23    2    1    2    0    0  0.71054273576E-14  0.00000000000E+00  0.44408920985E-15  0.91188000000E+02  0.91188000000E+02 0.  0.
    9900012    2    3    3    0    0 -0.26162043164E+02  0.36620089035E+02 -0.19052641433E+01  0.46142318133E+02  0.10000003389E+02 0.  0.
        -12    1    3    3    0    0  0.26162043164E+02 -0.36620089035E+02  0.19052641433E+01  0.45045681867E+02  0.00000000000E+00 0.  1.
         11    1    4    4    0    0 -0.24018110647E+02  0.32046950950E+02 -0.47714931605E+00  0.40051271840E+02  0.51100000000E-03 0. -1.
        -11    1    4    4    0    0  0.27262052524E+00  0.23816109698E+01  0.27163490034E+00  0.24125046202E+01  0.51100000000E-03 0.  1.
         12    1    4    4    0    0 -0.24165530426E+01  0.21915271148E+01 -0.16997497276E+01  0.36785416729E+01  0.00000000000E+00 0. -1.
</event>
<event>
 8    1  0.2962813E-009  0.9118800E+02  0.7816164E-02  0.1184000E+00
        -11   -1    0    0    0    0  0.00000000000E+00  0.00000000000E+00  0.45593999997E+02  0.45594000000E+02  0.51100000000E-03 0. -1.
         11   -1    0    0    0    0 -0.00000000000E+00 -0.00000000000E+00 -0.45593999997E+02  0.45594000000E+02  0.51100000000E-03 0.  1.
         23    2    1    2    0    0  0.00000000000E+00  0.17763568394E-14  0.35527136788E-14  0.91188000000E+02  0.91188000000E+02 0.  0.
    9900012    2    3    3    0    0 -0.37976690000E+02  0.12602925332E+02  0.20689406356E+02  0.46142309355E+02  0.99999233496E+01 0.  0.
        -12    1    3    3    0    0  0.37976690000E+02 -0.12602925332E+02 -0.20689406356E+02  0.45045690645E+02  0.00000000000E+00 0.  1.
         11    1    4    4    0    0 -0.85834137872E+01 -0.10227387140E+01  0.53037856010E+01  0.10141554550E+02  0.51100000000E-03 0. -1.
        -11    1    4    4    0    0 -0.87511126187E+01  0.49222638525E+01  0.61172325394E+01  0.11757176009E+02  0.51100000000E-03 0.  1.
         12    1    4    4    0    0 -0.20642163594E+02  0.87034001932E+01  0.92683882159E+01  0.24243578797E+02  0.00000000000E+00 0. -1.
</event>
<event>
 8    1  0.2962813E-009  0.9118800E+02  0.7816164E-02  0.1184000E+00
        -11   -1    0    0    0    0  0.00000000000E+00  0.00000000000E+00  0.45593999997E+02  0.45594000000E+02  0.51100000000E-03 0. -1.
         11   -1    0    0    0    0 -0.00000000000E+00 -0.00000000000E+00 -0.45593999997E+02  0.45594000000E+02  0.51100000000E-03 0.  1.
         23    2    1    2    0    0 -0.35527136788E-14 -0.17763568394E-14 -0.35527136788E-14  0.91188000000E+02  0.91188000000E+02 0.  0.
    9900012    2    3    3    0    0 -0.29779988569E+02 -0.10919944373E+02 -0.31984691504E+02  0.46142318799E+02  0.10000009465E+02 0.  0.
         12    1    3    3    0    0  0.29779988569E+02  0.10919944373E+02  0.31984691504E+02  0.45045681201E+02  0.00000000000E+00 0. -1.
         11    1    4    4    0    0 -0.75045299918E+01 -0.70035955938E+00 -0.34495005667E+01  0.82890004423E+01  0.51100000000E-03 0. -1.
        -11    1    4    4    0    0 -0.68946979755E+01 -0.53528707269E+01 -0.10558804692E+02  0.13699578168E+02  0.51100000000E-03 0.  1.
        -12    1    4    4    0    0 -0.15380760601E+02 -0.48667140862E+01 -0.17976386245E+02  0.24153740189E+02  0.00000000000E+00 0.  1.
</event>
<event>
 8    1  0.2962813E-009  0.9118800E+02  0.7816164E-02  0.1184000E+00
        -11   -1    0    0    0    0  0.00000000000E+00  0.00000000000E+00  0.45593999997E+02  0.45594000000E+02  0.51100000000E-03 0. -1.
         11   -1    0    0    0    0 -0.00000000000E+00 -0.00000000000E+00 -0.45593999997E+02  0.45594000000E+02  0.51100000000E-03 0.  1.
         23    2    1    2    0    0 -0.22204460493E-15 -0.44408920985E-15 -0.71054273576E-14  0.91188000000E+02  0.91188000000E+02 0.  0.
    9900012    2    3    3    0    0  0.18929116528E+01  0.28488119743E+01  0.44915638162E+02  0.46142318790E+02  0.10000009380E+02 0.  0.
        -12    1    3    3    0    0 -0.18929116528E+01 -0.28488119743E+01 -0.44915638162E+02  0.45045681210E+02  0.00000000000E+00 0.  1.
         11    1    4    4    0    0 -0.30722464411E+01  0.15818519130E+01  0.24583157314E+02  0.24824837914E+02  0.51100000000E-03 0. -1.
        -11    1    4    4    0    0  0.44517319082E+01  0.13512889515E+01  0.20265770835E+02  0.20792916260E+02  0.51100000000E-03 0.  1.
         12    1    4    4    0    0  0.51342618572E+00 -0.84328890260E-01  0.66710013009E-01  0.52456461542E+00  0.00000000000E+00 0. -1.
</event>
<event>
 8    1  0.2962813E-009  0.9118800E+02  0.7816164E-02  0.1184000E+00
        -11   -1    0    0    0    0  0.00000000000E+00  0.00000000000E+00  0.45593999997E+02  0.45594000000E+02  0.51100000000E-03 0. -1.
         11   -1    0    0    0    0 -0.00000000000E+00 -0.00000000000E+00 -0.45593999997E+02  0.45594000000E+02  0.51100000000E-03 0.  1.
         23    2    1    2    0    0 -0.27755575616E-16  0.00000000000E+00 -0.88817841970E-15  0.91188000000E+02  0.91188000000E+02 0.  0.
    9900012    2    3    3    0    0 -0.24899409230E+00  0.44587368497E+02 -0.64045353857E+01  0.46142317620E+02  0.99999987173E+01 0.  0.
         12    1    3    3    0    0  0.24899409230E+00 -0.44587368497E+02  0.64045353857E+01  0.45045682380E+02  0.00000000000E+00 0. -1.
         11    1    4    4    0    0  0.11318129029E+01  0.74141692956E+00  0.68286361732E+00  0.15155865174E+01  0.51100000000E-03 0. -1.
        -11    1    4    4    0    0 -0.17479736190E+01  0.16623595474E+02 -0.43007255995E+01  0.17259651769E+02  0.51100000000E-03 0.  1.
         12    1    4    4    0    0  0.36716662381E+00  0.27222356094E+02 -0.27866734035E+01  0.27367079334E+02  0.00000000000E+00 0. -1.
</event>
<event>
 8    1  0.2962813E-009  0.9118800E+02  0.7816164E-02  0.1184000E+00
        -11   -1    0    0    0    0  0.00000000000E+00  0.00000000000E+00  0.45593999997E+02  0.45594000000E+02  0.51100000000E-03 0. -1.
         11   -1    0    0    0    0 -0.00000000000E+00 -0.00000000000E+00 -0.45593999997E+02  0.45594000000E+02  0.51100000000E-03 0.  1.
         23    2    1    2    0    0  0.00000000000E+00  0.35527136788E-14  0.00000000000E+00  0.91188000000E+02  0.91188000000E+02 0.  0.
    9900012    2    3    3    0    0  0.21691744066E+02  0.30911693755E+02  0.24557059790E+02  0.46142314779E+02  0.99999728109E+01 0.  0.
        -12    1    3    3    0    0 -0.21691744066E+02 -0.30911693755E+02 -0.24557059790E+02  0.45045685221E+02  0.00000000000E+00 0.  1.
         11    1    4    4    0    0  0.15366933867E+02  0.25763321666E+02  0.20256185189E+02  0.36196746241E+02  0.51100000000E-03 0. -1.
        -11    1    4    4    0    0  0.59339270923E+01  0.57354352739E+01  0.38343234419E+01  0.90999310456E+01  0.51100000000E-03 0.  1.
        -12    1    4    4    0    0  0.39088310634E+00 -0.58706318448E+00  0.46655115906E+00  0.84563749291E+00  0.00000000000E+00 0.  1.
</event>
<event>
 8    1  0.2962813E-009  0.9118800E+02  0.7816164E-02  0.1184000E+00
        -11   -1    0    0    0    0  0.00000000000E+00  0.00000000000E+00  0.45593999997E+02  0.45594000000E+02  0.51100000000E-03 0.  1.
         11   -1    0    0    0    0 -0.00000000000E+00 -0.00000000000E+00 -0.45593999997E+02  0.45594000000E+02  0.51100000000E-03 0. -1.
         23    2    1    2    0    0  0.00000000000E+00  0.35527136788E-14 -0.17763568394E-14  0.91188000000E+02  0.91188000000E+02 0.  0.
    9900012    2    3    3    0    0  0.34007028696E+02  0.27065575254E+02 -0.11835966222E+02  0.46142318065E+02  0.10000002771E+02 0.  0.
        -12    1    3    3    0    0 -0.34007028696E+02 -0.27065575254E+02  0.11835966222E+02  0.45045681935E+02  0.00000000000E+00 0.  1.
         11    1    4    4    0    0  0.83334463609E+01  0.10546410440E+02 -0.27247202767E+01  0.13714853345E+02  0.51100000000E-03 0. -1.
        -11    1    4    4    0    0  0.91715906170E+01  0.48669326780E+01 -0.59889584101E+01  0.11986356045E+02  0.51100000000E-03 0.  1.
        -12    1    4    4    0    0  0.16501991718E+02  0.11652232137E+02 -0.31222875352E+01  0.20441108676E+02  0.00000000000E+00 0.  1.
</event>
<event>
 8    1  0.2962813E-009  0.9118800E+02  0.7816164E-02  0.1184000E+00
        -11   -1    0    0    0    0  0.00000000000E+00  0.00000000000E+00  0.45593999997E+02  0.45594000000E+02  0.51100000000E-03 0. -1.
         11   -1    0    0    0    0 -0.00000000000E+00 -0.00000000000E+00 -0.45593999997E+02  0.45594000000E+02  0.51100000000E-03 0.  1.
         23    2    1    2    0    0 -0.17763568394E-14  0.71054273576E-14  0.35527136788E-14  0.91188000000E+02  0.91188000000E+02 0.  0.
    9900012    2    3    3    0    0  0.12007360562E+02 -0.33428127216E+02  0.27703740390E+02  0.46142316206E+02  0.99999858221E+01 0.  0.
        -12    1    3    3    0    0 -0.12007360562E+02  0.33428127216E+02 -0.27703740390E+02  0.45045683794E+02  0.00000000000E+00 0.  1.
         11    1    4    4    0    0  0.16572097387E+01 -0.11280143353E+02  0.55606822447E+01  0.12684997653E+02  0.51100000000E-03 0. -1.
        -11    1    4    4    0    0  0.10973522136E+02 -0.21079999048E+02  0.20399218469E+02  0.31319525257E+02  0.51100000000E-03 0.  1.
         12    1    4    4    0    0 -0.62337131232E+00 -0.10679848151E+01  0.17438396760E+01  0.21377932954E+01  0.00000000000E+00 0. -1.
</event>
<event>
 8    1  0.3083648E-009  0.9118800E+02  0.7816164E-02  0.1184000E+00
        -11   -1    0    0    0    0  0.00000000000E+00  0.00000000000E+00  0.45593999997E+02  0.45594000000E+02  0.51100000000E-03 0. -1.
         11   -1    0    0    0    0 -0.00000000000E+00 -0.00000000000E+00 -0.45593999997E+02  0.45594000000E+02  0.51100000000E-03 0.  1.
         23    2    1    2    0    0 -0.17763568394E-14  0.00000000000E+00  0.00000000000E+00  0.91188000000E+02  0.91188000000E+02 0.  0.
    9900012    2    3    3    0    0 -0.10845965938E+02  0.30105139388E+02 -0.31704244124E+02  0.46142317741E+02  0.99999998162E+01 0.  0.
         12    1    3    3    0    0  0.10845965938E+02 -0.30105139388E+02  0.31704244124E+02  0.45045682259E+02  0.00000000000E+00 0. -1.
         11    1    4    4    0    0  0.56006335175E+00  0.10611524159E+02 -0.10709293759E+02  0.15086652677E+02  0.51100000000E-03 0. -1.
        -11    1    4    4    0    0 -0.81288167475E+01  0.14756476613E+02 -0.17626162499E+02  0.24382634568E+02  0.51100000000E-03 0.  1.
         12    1    4    4    0    0 -0.32772125426E+01  0.47371386158E+01 -0.33687878665E+01  0.66730304963E+01  0.00000000000E+00 0. -1.
</event>
<event>
 8    1  0.2962813E-009  0.9118800E+02  0.7816164E-02  0.1184000E+00
        -11   -1    0    0    0    0  0.00000000000E+00  0.00000000000E+00  0.45593999997E+02  0.45594000000E+02  0.51100000000E-03 0. -1.
         11   -1    0    0    0    0 -0.00000000000E+00 -0.00000000000E+00 -0.45593999997E+02  0.45594000000E+02  0.51100000000E-03 0.  1.
         23    2    1    2    0    0  0.88817841970E-15  0.00000000000E+00  0.00000000000E+00  0.91188000000E+02  0.91188000000E+02 0.  0.
    9900012    2    3    3    0    0  0.71727931844E+01  0.17843553328E+02 -0.40734164434E+02  0.46142317526E+02  0.99999978521E+01 0.  0.
         12    1    3    3    0    0 -0.71727931844E+01 -0.17843553328E+02  0.40734164434E+02  0.45045682474E+02  0.00000000000E+00 0. -1.
         11    1    4    4    0    0  0.21319657642E+00  0.10459192837E+02 -0.17759431702E+02  0.20611588542E+02  0.51100000000E-03 0.  1.
        -11    1    4    4    0    0  0.13518253841E+01  0.61043667236E+00 -0.82072864513E+00  0.16951874735E+01  0.51100000000E-03 0. -1.
        -12    1    4    4    0    0  0.56077712238E+01  0.67739238194E+01 -0.22154004087E+02  0.23835541510E+02  0.00000000000E+00 0.  1.
</event>
<event>
 8    1  0.2962813E-009  0.9118800E+02  0.7816164E-02  0.1184000E+00
        -11   -1    0    0    0    0  0.00000000000E+00  0.00000000000E+00  0.45593999997E+02  0.45594000000E+02  0.51100000000E-03 0. -1.
         11   -1    0    0    0    0 -0.00000000000E+00 -0.00000000000E+00 -0.45593999997E+02  0.45594000000E+02  0.51100000000E-03 0.  1.
         23    2    1    2    0    0  0.00000000000E+00  0.00000000000E+00  0.00000000000E+00  0.91188000000E+02  0.91188000000E+02 0.  0.
    9900012    2    3    3    0    0 -0.40538219110E+02 -0.47215713456E+01  0.19064967086E+02  0.46142318580E+02  0.10000007471E+02 0.  0.
        -12    1    3    3    0    0  0.40538219110E+02  0.47215713456E+01 -0.19064967086E+02  0.45045681420E+02  0.00000000000E+00 0.  1.
         11    1    4    4    0    0 -0.17018710027E+02 -0.13259518980E+01  0.85860784195E+01  0.19107992629E+02  0.51100000000E-03 0. -1.
        -11    1    4    4    0    0 -0.16141563341E+02 -0.30522745277E+01  0.10768907126E+02  0.19642703679E+02  0.51100000000E-03 0.  1.
        -12    1    4    4    0    0 -0.73779457425E+01 -0.34334491996E+00 -0.29001845998E+00  0.73916222725E+01  0.00000000000E+00 0.  1.
</event>
<event>
 8    1  0.2962813E-009  0.9118800E+02  0.7816164E-02  0.1184000E+00
        -11   -1    0    0    0    0  0.00000000000E+00  0.00000000000E+00  0.45593999997E+02  0.45594000000E+02  0.51100000000E-03 0.  1.
         11   -1    0    0    0    0 -0.00000000000E+00 -0.00000000000E+00 -0.45593999997E+02  0.45594000000E+02  0.51100000000E-03 0. -1.
         23    2    1    2    0    0  0.00000000000E+00  0.00000000000E+00  0.00000000000E+00  0.91188000000E+02  0.91188000000E+02 0.  0.
    9900012    2    3    3    0    0  0.37394053263E+02  0.23537682431E+02 -0.87621844010E+01  0.46142316643E+02  0.99999898020E+01 0.  0.
         12    1    3    3    0    0 -0.37394053263E+02 -0.23537682431E+02  0.87621844010E+01  0.45045683357E+02  0.00000000000E+00 0. -1.
         11    1    4    4    0    0  0.30455720127E+01  0.67309408948E+00  0.68039826970E+00  0.31924139149E+01  0.51100000000E-03 0. -1.
        -11    1    4    4    0    0  0.16311077034E+02  0.81096928196E+01 -0.12901842774E+01  0.18261514926E+02  0.51100000000E-03 0.  1.
        -12    1    4    4    0    0  0.18037404216E+02  0.14754895522E+02 -0.81523983933E+01  0.24688387802E+02  0.00000000000E+00 0.  1.
</event>
<event>
 8    1  0.2962813E-009  0.9118800E+02  0.7816164E-02  0.1184000E+00
        -11   -1    0    0    0    0  0.00000000000E+00  0.00000000000E+00  0.45593999997E+02  0.45594000000E+02  0.51100000000E-03 0.  1.
         11   -1    0    0    0    0 -0.00000000000E+00 -0.00000000000E+00 -0.45593999997E+02  0.45594000000E+02  0.51100000000E-03 0. -1.
         23    2    1    2    0    0  0.00000000000E+00  0.00000000000E+00  0.00000000000E+00  0.91188000000E+02  0.91188000000E+02 0.  0.
    9900012    2    3    3    0    0  0.37107407652E+02 -0.19534228862E+02  0.16448938413E+02  0.46142319022E+02  0.10000011494E+02 0.  0.
        -12    1    3    3    0    0 -0.37107407652E+02  0.19534228862E+02 -0.16448938413E+02  0.45045680978E+02  0.00000000000E+00 0.  1.
         11    1    4    4    0    0  0.78090030551E+01 -0.57550691266E+00  0.40218029975E+01  0.88026494041E+01  0.51100000000E-03 0.  1.
        -11    1    4    4    0    0  0.14566183258E+02 -0.96835543920E+01  0.87036392902E+01  0.19537099517E+02  0.51100000000E-03 0. -1.
         12    1    4    4    0    0  0.14732221339E+02 -0.92751675575E+01  0.37234961255E+01  0.17802570101E+02  0.00000000000E+00 0. -1.
</event>
<event>
 8    1  0.2962813E-009  0.9118800E+02  0.7816164E-02  0.1184000E+00
        -11   -1    0    0    0    0  0.00000000000E+00  0.00000000000E+00  0.45593999997E+02  0.45594000000E+02  0.51100000000E-03 0. -1.
         11   -1    0    0    0    0 -0.00000000000E+00 -0.00000000000E+00 -0.45593999997E+02  0.45594000000E+02  0.51100000000E-03 0.  1.
         23    2    1    2    0    0  0.00000000000E+00  0.35527136788E-14  0.71054273576E-14  0.91188000000E+02  0.91188000000E+02 0.  0.
    9900012    2    3    3    0    0 -0.10857542459E+02  0.29721913389E+02  0.32059867313E+02  0.46142318121E+02  0.10000003285E+02 0.  0.
        -12    1    3    3    0    0  0.10857542459E+02 -0.29721913389E+02 -0.32059867313E+02  0.45045681879E+02  0.00000000000E+00 0.  1.
         11    1    4    4    0    0 -0.93965494396E+01  0.13215878521E+02  0.15454503126E+02  0.22400809218E+02  0.51100000000E-03 0. -1.
        -11    1    4    4    0    0 -0.30156982497E+00  0.18636885418E+01  0.51856604386E+00  0.19578535040E+01  0.51100000000E-03 0.  1.
         12    1    4    4    0    0 -0.11594231942E+01  0.14642346326E+02  0.16086798143E+02  0.21783655400E+02  0.00000000000E+00 0. -1.
</event>
<event>
 8    1  0.2962813E-009  0.9118800E+02  0.7816164E-02  0.1184000E+00
        -11   -1    0    0    0    0  0.00000000000E+00  0.00000000000E+00  0.45593999997E+02  0.45594000000E+02  0.51100000000E-03 0. -1.
         11   -1    0    0    0    0 -0.00000000000E+00 -0.00000000000E+00 -0.45593999997E+02  0.45594000000E+02  0.51100000000E-03 0.  1.
         23    2    1    2    0    0 -0.35527136788E-14  0.00000000000E+00  0.00000000000E+00  0.91188000000E+02  0.91188000000E+02 0.  0.
    9900012    2    3    3    0    0  0.10195860146E+02  0.36471127142E+02  0.24392924740E+02  0.46142318115E+02  0.10000003226E+02 0.  0.
        -12    1    3    3    0    0 -0.10195860146E+02 -0.36471127142E+02 -0.24392924740E+02  0.45045681885E+02  0.00000000000E+00 0.  1.
         11    1    4    4    0    0  0.84466618348E+01  0.24289597893E+02  0.19155211123E+02  0.32066380765E+02  0.51100000000E-03 0. -1.
        -11    1    4    4    0    0  0.22617532537E+01  0.30469434646E+01  0.68192589778E+00  0.38554397218E+01  0.51100000000E-03 0.  1.
         12    1    4    4    0    0 -0.51255494265E+00  0.91345857839E+01  0.45557877200E+01  0.10220497628E+02  0.00000000000E+00 0. -1.
</event>
<event>
 8    1  0.2962813E-009  0.9118800E+02  0.7816164E-02  0.1184000E+00
        -11   -1    0    0    0    0  0.00000000000E+00  0.00000000000E+00  0.45593999997E+02  0.45594000000E+02  0.51100000000E-03 0. -1.
         11   -1    0    0    0    0 -0.00000000000E+00 -0.00000000000E+00 -0.45593999997E+02  0.45594000000E+02  0.51100000000E-03 0.  1.
         23    2    1    2    0    0  0.00000000000E+00  0.35527136788E-14  0.00000000000E+00  0.91188000000E+02  0.91188000000E+02 0.  0.
    9900012    2    3    3    0    0  0.93888175290E+01  0.19577852742E+02  0.39467344141E+02  0.46142318008E+02  0.10000002253E+02 0.  0.
        -12    1    3    3    0    0 -0.93888175290E+01 -0.19577852742E+02 -0.39467344141E+02  0.45045681992E+02  0.00000000000E+00 0.  1.
         11    1    4    4    0    0  0.78103932141E+01  0.55303752527E+01  0.16563518668E+02  0.19129491460E+02  0.51100000000E-03 0. -1.
        -11    1    4    4    0    0  0.84734316596E-01  0.98055274031E+01  0.16327651341E+02  0.19045937785E+02  0.51100000000E-03 0.  1.
         12    1    4    4    0    0  0.14936899983E+01  0.42419500861E+01  0.65761741322E+01  0.79668887629E+01  0.00000000000E+00 0. -1.
</event>
<event>
 8    1  0.2962813E-009  0.9118800E+02  0.7816164E-02  0.1184000E+00
        -11   -1    0    0    0    0  0.00000000000E+00  0.00000000000E+00  0.45593999997E+02  0.45594000000E+02  0.51100000000E-03 0. -1.
         11   -1    0    0    0    0 -0.00000000000E+00 -0.00000000000E+00 -0.45593999997E+02  0.45594000000E+02  0.51100000000E-03 0.  1.
         23    2    1    2    0    0  0.00000000000E+00 -0.35527136788E-14  0.71054273576E-14  0.91188000000E+02  0.91188000000E+02 0.  0.
    9900012    2    3    3    0    0 -0.20797022606E+02 -0.19093791932E+02 -0.35100205030E+02  0.46142318379E+02  0.10000005630E+02 0.  0.
         12    1    3    3    0    0  0.20797022606E+02  0.19093791932E+02  0.35100205030E+02  0.45045681621E+02  0.00000000000E+00 0. -1.
         11    1    4    4    0    0 -0.73214221182E+01 -0.11224828357E+02 -0.12046790507E+02  0.18020131943E+02  0.51100000000E-03 0. -1.
        -11    1    4    4    0    0 -0.11406301380E+02 -0.75359571552E+01 -0.21631775810E+02  0.25589608953E+02  0.51100000000E-03 0.  1.
         12    1    4    4    0    0 -0.20692991076E+01 -0.33300641918E+00 -0.14216387135E+01  0.25325774823E+01  0.00000000000E+00 0. -1.
</event>
<event>
 8    1  0.2962813E-009  0.9118800E+02  0.7816164E-02  0.1184000E+00
        -11   -1    0    0    0    0  0.00000000000E+00  0.00000000000E+00  0.45593999997E+02  0.45594000000E+02  0.51100000000E-03 0. -1.
         11   -1    0    0    0    0 -0.00000000000E+00 -0.00000000000E+00 -0.45593999997E+02  0.45594000000E+02  0.51100000000E-03 0.  1.
         23    2    1    2    0    0 -0.71054273576E-14  0.00000000000E+00 -0.35527136788E-14  0.91188000000E+02  0.91188000000E+02 0.  0.
    9900012    2    3    3    0    0 -0.38462790202E+02  0.10922494130E+02 -0.20746720410E+02  0.46142317455E+02  0.99999972122E+01 0.  0.
         12    1    3    3    0    0  0.38462790202E+02 -0.10922494130E+02  0.20746720410E+02  0.45045682545E+02  0.00000000000E+00 0. -1.
         11    1    4    4    0    0 -0.18302195172E+02  0.49615410137E+01 -0.13521342321E+02  0.23289781789E+02  0.51100000000E-03 0.  1.
        -11    1    4    4    0    0 -0.20333304330E+02  0.62486790175E+01 -0.68465901770E+01  0.22346477390E+02  0.51100000000E-03 0. -1.
         12    1    4    4    0    0  0.17270930010E+00 -0.28772590138E+00 -0.37878791237E+00  0.50605827651E+00  0.00000000000E+00 0. -1.
</event>
<event>
 8    1  0.3090860E-009  0.9118800E+02  0.7816164E-02  0.1184000E+00
        -11   -1    0    0    0    0  0.00000000000E+00  0.00000000000E+00  0.45593999997E+02  0.45594000000E+02  0.51100000000E-03 0. -1.
         11   -1    0    0    0    0 -0.00000000000E+00 -0.00000000000E+00 -0.45593999997E+02  0.45594000000E+02  0.51100000000E-03 0.  1.
         23    2    1    2    0    0  0.00000000000E+00  0.00000000000E+00  0.00000000000E+00  0.91188000000E+02  0.91188000000E+02 0.  0.
    9900012    2    3    3    0    0  0.76355275890E+01  0.18294686120E+02 -0.40448938088E+02  0.46142318584E+02  0.10000007502E+02 0.  0.
         12    1    3    3    0    0 -0.76355275890E+01 -0.18294686120E+02  0.40448938088E+02  0.45045681416E+02  0.00000000000E+00 0. -1.
         11    1    4    4    0    0 -0.16568242733E+01  0.39678480329E+01 -0.98337992245E+01  0.10732776534E+02  0.51100000000E-03 0. -1.
        -11    1    4    4    0    0  0.53616633422E+01  0.12131345817E+02 -0.23669830377E+02  0.27132597654E+02  0.51100000000E-03 0.  1.
         12    1    4    4    0    0  0.39306885202E+01  0.21954922698E+01 -0.69453084868E+01  0.82769443955E+01  0.00000000000E+00 0. -1.
</event>
<event>
 8    1  0.2962813E-009  0.9118800E+02  0.7816164E-02  0.1184000E+00
        -11   -1    0    0    0    0  0.00000000000E+00  0.00000000000E+00  0.45593999997E+02  0.45594000000E+02  0.51100000000E-03 0. -1.
         11   -1    0    0    0    0 -0.00000000000E+00 -0.00000000000E+00 -0.45593999997E+02  0.45594000000E+02  0.51100000000E-03 0.  1.
         23    2    1    2    0    0  0.00000000000E+00  0.00000000000E+00  0.00000000000E+00  0.91188000000E+02  0.91188000000E+02 0.  0.
    9900012    2    3    3    0    0  0.37031914625E+02 -0.23600463691E+02  0.10038377848E+02  0.46142316332E+02  0.99999869726E+01 0.  0.
        -12    1    3    3    0    0 -0.37031914625E+02  0.23600463691E+02 -0.10038377848E+02  0.45045683668E+02  0.00000000000E+00 0.  1.
         11    1    4    4    0    0  0.11109331780E+01 -0.37600961756E+00  0.90888485866E+00  0.14837882955E+01  0.51100000000E-03 0. -1.
        -11    1    4    4    0    0  0.15205949809E+02 -0.14186741586E+02  0.16898385671E+01  0.20864805320E+02  0.51100000000E-03 0.  1.
        -12    1    4    4    0    0  0.20715031638E+02 -0.90377124878E+01  0.74396544219E+01  0.23793722717E+02  0.00000000000E+00 0.  1.
</event>
<event>
 8    1  0.2962813E-009  0.9118800E+02  0.7816164E-02  0.1184000E+00
        -11   -1    0    0    0    0  0.00000000000E+00  0.00000000000E+00  0.45593999997E+02  0.45594000000E+02  0.51100000000E-03 0. -1.
         11   -1    0    0    0    0 -0.00000000000E+00 -0.00000000000E+00 -0.45593999997E+02  0.45594000000E+02  0.51100000000E-03 0.  1.
         23    2    1    2    0    0  0.88817841970E-15  0.00000000000E+00  0.00000000000E+00  0.91188000000E+02  0.91188000000E+02 0.  0.
    9900012    2    3    3    0    0  0.39757587420E+01 -0.19278991180E+02 -0.40517000956E+02  0.46142317355E+02  0.99999962992E+01 0.  0.
         12    1    3    3    0    0 -0.39757587420E+01  0.19278991180E+02  0.40517000956E+02  0.45045682645E+02  0.00000000000E+00 0. -1.
         11    1    4    4    0    0  0.10112299591E+01 -0.15439047615E+02 -0.34358765292E+02  0.37681713469E+02  0.51100000000E-03 0. -1.
        -11    1    4    4    0    0  0.32700925110E+01 -0.38856714342E+01 -0.63233513713E+01  0.81102848502E+01  0.51100000000E-03 0.  1.
         12    1    4    4    0    0 -0.30556372809E+00  0.45727869701E-01  0.16511570786E+00  0.35031903599E+00  0.00000000000E+00 0. -1.
</event>
<event>
 8    1  0.2962813E-009  0.9118800E+02  0.7816164E-02  0.1184000E+00
        -11   -1    0    0    0    0  0.00000000000E+00  0.00000000000E+00  0.45593999997E+02  0.45594000000E+02  0.51100000000E-03 0.  1.
         11   -1    0    0    0    0 -0.00000000000E+00 -0.00000000000E+00 -0.45593999997E+02  0.45594000000E+02  0.51100000000E-03 0. -1.
         23    2    1    2    0    0 -0.71054273576E-14 -0.35527136788E-14 -0.44408920985E-15  0.91188000000E+02  0.91188000000E+02 0.  0.
    9900012    2    3    3    0    0 -0.35709612650E+02 -0.27437459433E+02 -0.10596667433E+01  0.46142317528E+02  0.99999978758E+01 0.  0.
        -12    1    3    3    0    0  0.35709612650E+02  0.27437459433E+02  0.10596667433E+01  0.45045682472E+02  0.00000000000E+00 0.  1.
         11    1    4    4    0    0 -0.93936543169E+01 -0.12092496131E+02  0.13338907340E+01  0.15370376341E+02  0.51100000000E-03 0. -1.
        -11    1    4    4    0    0 -0.81237035344E+01 -0.41658904228E+01  0.87213772430E+00  0.91711409651E+01  0.51100000000E-03 0.  1.
         12    1    4    4    0    0 -0.18192254798E+02 -0.11179072879E+02 -0.32656952015E+01  0.21600800222E+02  0.00000000000E+00 0. -1.
</event>
<event>
 8    1  0.2962813E-009  0.9118800E+02  0.7816164E-02  0.1184000E+00
        -11   -1    0    0    0    0  0.00000000000E+00  0.00000000000E+00  0.45593999997E+02  0.45594000000E+02  0.51100000000E-03 0. -1.
         11   -1    0    0    0    0 -0.00000000000E+00 -0.00000000000E+00 -0.45593999997E+02  0.45594000000E+02  0.51100000000E-03 0.  1.
         23    2    1    2    0    0  0.00000000000E+00  0.00000000000E+00 -0.71054273576E-14  0.91188000000E+02  0.91188000000E+02 0.  0.
    9900012    2    3    3    0    0  0.15978269698E+02 -0.66842276135E+01  0.41582803545E+02  0.46142317055E+02  0.99999935583E+01 0.  0.
        -12    1    3    3    0    0 -0.15978269698E+02  0.66842276135E+01 -0.41582803545E+02  0.45045682945E+02  0.00000000000E+00 0.  1.
         11    1    4    4    0    0  0.29018933673E+01 -0.91227605458E-01  0.51193080390E+01  0.58852886633E+01  0.51100000000E-03 0. -1.
        -11    1    4    4    0    0  0.10492363246E+01  0.10258060786E+01  0.45530167575E+00  0.15363836932E+01  0.51100000000E-03 0.  1.
        -12    1    4    4    0    0  0.12027140006E+02 -0.76188060866E+01  0.36008193830E+02  0.38720644698E+02  0.00000000000E+00 0.  1.
</event>
<event>
 8    1  0.2962813E-009  0.9118800E+02  0.7816164E-02  0.1184000E+00
        -11   -1    0    0    0    0  0.00000000000E+00  0.00000000000E+00  0.45593999997E+02  0.45594000000E+02  0.51100000000E-03 0. -1.
         11   -1    0    0    0    0 -0.00000000000E+00 -0.00000000000E+00 -0.45593999997E+02  0.45594000000E+02  0.51100000000E-03 0.  1.
         23    2    1    2    0    0  0.00000000000E+00  0.88817841970E-15  0.00000000000E+00  0.91188000000E+02  0.91188000000E+02 0.  0.
    9900012    2    3    3    0    0  0.47414588439E+00 -0.21666166721E+01 -0.44991050113E+02  0.46142316163E+02  0.99999854251E+01 0.  0.
         12    1    3    3    0    0 -0.47414588439E+00  0.21666166721E+01  0.44991050113E+02  0.45045683837E+02  0.00000000000E+00 0. -1.
         11    1    4    4    0    0 -0.33025945555E-01 -0.44219140866E+01 -0.26424361771E+02  0.26791814238E+02  0.51100000000E-03 0.  1.
        -11    1    4    4    0    0  0.14543314284E+00 -0.15083458105E+00  0.27870519135E+00  0.34868139423E+00  0.51100000000E-03 0. -1.
        -12    1    4    4    0    0  0.36173868710E+00  0.24061319956E+01 -0.18845393533E+02  0.19001820530E+02  0.00000000000E+00 0.  1.
</event>
<event>
 8    1  0.2962813E-009  0.9118800E+02  0.7816164E-02  0.1184000E+00
        -11   -1    0    0    0    0  0.00000000000E+00  0.00000000000E+00  0.45593999997E+02  0.45594000000E+02  0.51100000000E-03 0. -1.
         11   -1    0    0    0    0 -0.00000000000E+00 -0.00000000000E+00 -0.45593999997E+02  0.45594000000E+02  0.51100000000E-03 0.  1.
         23    2    1    2    0    0  0.00000000000E+00  0.00000000000E+00  0.00000000000E+00  0.91188000000E+02  0.91188000000E+02 0.  0.
    9900012    2    3    3    0    0 -0.35165923019E+02 -0.27813337395E+02  0.43462045112E+01  0.46142319047E+02  0.10000011727E+02 0.  0.
        -12    1    3    3    0    0  0.35165923019E+02  0.27813337395E+02 -0.43462045112E+01  0.45045680953E+02  0.00000000000E+00 0.  1.
         11    1    4    4    0    0 -0.11264465344E+02 -0.10540630479E+02  0.58268715898E+01  0.16490770242E+02  0.51100000000E-03 0. -1.
        -11    1    4    4    0    0 -0.13850193956E+02 -0.89018571921E+01 -0.18356717673E+01  0.16566249582E+02  0.51100000000E-03 0.  1.
         12    1    4    4    0    0 -0.10051263719E+02 -0.83708497238E+01  0.35500468864E+00  0.13085299224E+02  0.00000000000E+00 0. -1.
</event>
<event>
 8    1  0.2962813E-009  0.9118800E+02  0.7816164E-02  0.1184000E+00
        -11   -1    0    0    0    0  0.00000000000E+00  0.00000000000E+00  0.45593999997E+02  0.45594000000E+02  0.51100000000E-03 0. -1.
         11   -1    0    0    0    0 -0.00000000000E+00 -0.00000000000E+00 -0.45593999997E+02  0.45594000000E+02  0.51100000000E-03 0.  1.
         23    2    1    2    0    0  0.00000000000E+00  0.88817841970E-15 -0.71054273576E-14  0.91188000000E+02  0.91188000000E+02 0.  0.
    9900012    2    3    3    0    0 -0.12841047319E+02  0.50946681025E+01 -0.42874998621E+02  0.46142316010E+02  0.99999840358E+01 0.  0.
         12    1    3    3    0    0  0.12841047319E+02 -0.50946681025E+01  0.42874998621E+02  0.45045683990E+02  0.00000000000E+00 0. -1.
         11    1    4    4    0    0 -0.71927904407E+01  0.51363474776E+01 -0.13763586496E+02  0.16357096724E+02  0.51100000000E-03 0. -1.
        -11    1    4    4    0    0 -0.45219963963E+01 -0.77405298407E+00 -0.17312131426E+02  0.17909704191E+02  0.51100000000E-03 0.  1.
        -12    1    4    4    0    0 -0.11262604820E+01  0.73237360891E+00 -0.11799280699E+02  0.11875515096E+02  0.00000000000E+00 0.  1.
</event>
<event>
 8    1  0.2962813E-009  0.9118800E+02  0.7816164E-02  0.1184000E+00
        -11   -1    0    0    0    0  0.00000000000E+00  0.00000000000E+00  0.45593999997E+02  0.45594000000E+02  0.51100000000E-03 0. -1.
         11   -1    0    0    0    0 -0.00000000000E+00 -0.00000000000E+00 -0.45593999997E+02  0.45594000000E+02  0.51100000000E-03 0.  1.
         23    2    1    2    0    0  0.00000000000E+00 -0.88817841970E-15  0.00000000000E+00  0.91188000000E+02  0.91188000000E+02 0.  0.
    9900012    2    3    3    0    0  0.42780164791E+02 -0.68997494012E+01  0.12303027777E+02  0.46142317256E+02  0.99999953983E+01 0.  0.
        -12    1    3    3    0    0 -0.42780164791E+02  0.68997494012E+01 -0.12303027777E+02  0.45045682744E+02  0.00000000000E+00 0.  1.
         11    1    4    4    0    0  0.34240808849E+02 -0.69531104738E+01  0.71589965176E+01  0.35665529119E+02  0.51100000000E-03 0. -1.
        -11    1    4    4    0    0  0.81600131624E+01 -0.66211266706E+00  0.51406209136E+01  0.96669639305E+01  0.51100000000E-03 0.  1.
        -12    1    4    4    0    0  0.37934277913E+00  0.71547373965E+00  0.34103462850E-02  0.80982420726E+00  0.00000000000E+00 0.  1.
</event>
<event>
 8    1  0.2962813E-009  0.9118800E+02  0.7816164E-02  0.1184000E+00
        -11   -1    0    0    0    0  0.00000000000E+00  0.00000000000E+00  0.45593999997E+02  0.45594000000E+02  0.51100000000E-03 0. -1.
         11   -1    0    0    0    0 -0.00000000000E+00 -0.00000000000E+00 -0.45593999997E+02  0.45594000000E+02  0.51100000000E-03 0.  1.
         23    2    1    2    0    0  0.00000000000E+00  0.00000000000E+00  0.00000000000E+00  0.91188000000E+02  0.91188000000E+02 0.  0.
    9900012    2    3    3    0    0 -0.22092675242E+02 -0.10004441044E+02  0.37959693544E+02  0.46142317922E+02  0.10000001466E+02 0.  0.
        -12    1    3    3    0    0  0.22092675242E+02  0.10004441044E+02 -0.37959693544E+02  0.45045682078E+02  0.00000000000E+00 0.  1.
         11    1    4    4    0    0 -0.10738216999E+02 -0.86217980867E+01  0.26577486593E+02  0.29933384380E+02  0.51100000000E-03 0. -1.
        -11    1    4    4    0    0 -0.40286495488E+01 -0.50204343427E+00  0.50975470923E+01  0.65166748742E+01  0.51100000000E-03 0.  1.
         12    1    4    4    0    0 -0.73258086946E+01 -0.88059952282E+00  0.62846598580E+01  0.96922586676E+01  0.00000000000E+00 0. -1.
</event>
<event>
 8    1  0.3076402E-009  0.9118800E+02  0.7816164E-02  0.1184000E+00
        -11   -1    0    0    0    0  0.00000000000E+00  0.00000000000E+00  0.45593999997E+02  0.45594000000E+02  0.51100000000E-03 0. -1.
         11   -1    0    0    0    0 -0.00000000000E+00 -0.00000000000E+00 -0.45593999997E+02  0.45594000000E+02  0.51100000000E-03 0.  1.
         23    2    1    2    0    0 -0.17763568394E-14  0.35527136788E-14 -0.71054273576E-14  0.91188000000E+02  0.91188000000E+02 0.  0.
    9900012    2    3    3    0    0 -0.91837057195E+01  0.17660973983E+02 -0.40408700424E+02  0.46142317380E+02  0.99999965229E+01 0.  0.
         12    1    3    3    0    0  0.91837057195E+01 -0.17660973983E+02  0.40408700424E+02  0.45045682620E+02  0.00000000000E+00 0. -1.
         11    1    4    4    0    0 -0.48528759373E+01  0.22322005309E+01 -0.14168998954E+02  0.15142445499E+02  0.51100000000E-03 0. -1.
        -11    1    4    4    0    0 -0.38462562940E+01  0.14932719531E+02 -0.26065052541E+02  0.30284761256E+02  0.51100000000E-03 0.  1.
        -12    1    4    4    0    0 -0.48457348822E+00  0.49605392106E+00 -0.17464892897E+00  0.71511062534E+00  0.00000000000E+00 0.  1.
</event>
<event>
 8    1  0.2962813E-009  0.9118800E+02  0.7816164E-02  0.1184000E+00
        -11   -1    0    0    0    0  0.00000000000E+00  0.00000000000E+00  0.45593999997E+02  0.45594000000E+02  0.51100000000E-03 0. -1.
         11   -1    0    0    0    0 -0.00000000000E+00 -0.00000000000E+00 -0.45593999997E+02  0.45594000000E+02  0.51100000000E-03 0.  1.
         23    2    1    2    0    0 -0.17763568394E-14  0.17763568394E-14 -0.71054273576E-14  0.91188000000E+02  0.91188000000E+02 0.  0.
    9900012    2    3    3    0    0  0.43760671632E+01  0.14881793754E+02  0.42290610123E+02  0.46142318145E+02  0.10000003505E+02 0.  0.
        -12    1    3    3    0    0 -0.43760671632E+01 -0.14881793754E+02 -0.42290610123E+02  0.45045681855E+02  0.00000000000E+00 0.  1.
         11    1    4    4    0    0  0.37102584316E+01  0.75604174340E+01  0.18627567752E+02  0.20442901213E+02  0.51100000000E-03 0. -1.
        -11    1    4    4    0    0  0.16285193720E+01  0.76587046726E+01  0.23356886669E+02  0.24634365990E+02  0.51100000000E-03 0.  1.
        -12    1    4    4    0    0 -0.96271064037E+00 -0.33732835294E+00  0.30615570221E+00  0.10650509419E+01  0.00000000000E+00 0.  1.
</event>
<event>
 8    1  0.2962813E-009  0.9118800E+02  0.7816164E-02  0.1184000E+00
        -11   -1    0    0    0    0  0.00000000000E+00  0.00000000000E+00  0.45593999997E+02  0.45594000000E+02  0.51100000000E-03 0.  1.
         11   -1    0    0    0    0 -0.00000000000E+00 -0.00000000000E+00 -0.45593999997E+02  0.45594000000E+02  0.51100000000E-03 0. -1.
         23    2    1    2    0    0 -0.35527136788E-14  0.00000000000E+00  0.00000000000E+00  0.91188000000E+02  0.91188000000E+02 0.  0.
    9900012    2    3    3    0    0  0.28441308039E+02  0.89245431279E+01  0.33772148613E+02  0.46142317688E+02  0.99999993324E+01 0.  0.
        -12    1    3    3    0    0 -0.28441308039E+02 -0.89245431279E+01 -0.33772148613E+02  0.45045682312E+02  0.00000000000E+00 0.  1.
         11    1    4    4    0    0  0.14457999585E+02  0.17566280274E+01  0.14280950348E+02  0.20397672346E+02  0.51100000000E-03 0. -1.
        -11    1    4    4    0    0  0.67473094864E+01  0.20709444461E+01  0.12916161851E+02  0.14718771465E+02  0.51100000000E-03 0.  1.
        -12    1    4    4    0    0  0.72359989674E+01  0.50969706544E+01  0.65750364137E+01  0.11025873877E+02  0.00000000000E+00 0.  1.
</event>
<event>
 8    1  0.2962813E-009  0.9118800E+02  0.7816164E-02  0.1184000E+00
        -11   -1    0    0    0    0  0.00000000000E+00  0.00000000000E+00  0.45593999997E+02  0.45594000000E+02  0.51100000000E-03 0. -1.
         11   -1    0    0    0    0 -0.00000000000E+00 -0.00000000000E+00 -0.45593999997E+02  0.45594000000E+02  0.51100000000E-03 0.  1.
         23    2    1    2    0    0 -0.33306690739E-15  0.00000000000E+00  0.00000000000E+00  0.91188000000E+02  0.91188000000E+02 0.  0.
    9900012    2    3    3    0    0  0.38788829727E+00  0.10242711417E+02 -0.43863992440E+02  0.46142318439E+02  0.10000006184E+02 0.  0.
         12    1    3    3    0    0 -0.38788829727E+00 -0.10242711417E+02  0.43863992440E+02  0.45045681561E+02  0.00000000000E+00 0. -1.
         11    1    4    4    0    0 -0.36228964723E+01  0.42104332943E+01 -0.14939043311E+02  0.15938260341E+02  0.51100000000E-03 0. -1.
        -11    1    4    4    0    0  0.14982050183E+01  0.14615907079E+01 -0.17736832522E+02  0.17859901843E+02  0.51100000000E-03 0.  1.
        -12    1    4    4    0    0  0.25125797513E+01  0.45706874151E+01 -0.11188116607E+02  0.12344156256E+02  0.00000000000E+00 0.  1.
</event>
<event>
 8    1  0.2962813E-009  0.9118800E+02  0.7816164E-02  0.1184000E+00
        -11   -1    0    0    0    0  0.00000000000E+00  0.00000000000E+00  0.45593999997E+02  0.45594000000E+02  0.51100000000E-03 0. -1.
         11   -1    0    0    0    0 -0.00000000000E+00 -0.00000000000E+00 -0.45593999997E+02  0.45594000000E+02  0.51100000000E-03 0.  1.
         23    2    1    2    0    0  0.55511151231E-15  0.35527136788E-14  0.71054273576E-14  0.91188000000E+02  0.91188000000E+02 0.  0.
    9900012    2    3    3    0    0 -0.78181809699E+00 -0.23918359626E+02 -0.38162996225E+02  0.46142318214E+02  0.10000004126E+02 0.  0.
         12    1    3    3    0    0  0.78181809699E+00  0.23918359626E+02  0.38162996225E+02  0.45045681786E+02  0.00000000000E+00 0. -1.
         11    1    4    4    0    0  0.35227220750E+01 -0.13792705327E+02 -0.20132883848E+02  0.24657276885E+02  0.51100000000E-03 0. -1.
        -11    1    4    4    0    0 -0.46267905731E+01 -0.10286711740E+02 -0.17741532406E+02  0.21023453612E+02  0.51100000000E-03 0.  1.
         12    1    4    4    0    0  0.32225040111E+00  0.16105744110E+00 -0.28857997143E+00  0.46158771676E+00  0.00000000000E+00 0. -1.
</event>
<event>
 8    1  0.2962813E-009  0.9118800E+02  0.7816164E-02  0.1184000E+00
        -11   -1    0    0    0    0  0.00000000000E+00  0.00000000000E+00  0.45593999997E+02  0.45594000000E+02  0.51100000000E-03 0. -1.
         11   -1    0    0    0    0 -0.00000000000E+00 -0.00000000000E+00 -0.45593999997E+02  0.45594000000E+02  0.51100000000E-03 0.  1.
         23    2    1    2    0    0  0.00000000000E+00 -0.35527136788E-14 -0.71054273576E-14  0.91188000000E+02  0.91188000000E+02 0.  0.
    9900012    2    3    3    0    0  0.26134080105E+02  0.17855322484E+02  0.32051689375E+02  0.46142317901E+02  0.10000001275E+02 0.  0.
        -12    1    3    3    0    0 -0.26134080105E+02 -0.17855322484E+02 -0.32051689375E+02  0.45045682099E+02  0.00000000000E+00 0.  1.
         11    1    4    4    0    0  0.12703298886E+02  0.37944832492E+01  0.11301627092E+02  0.17421213531E+02  0.51100000000E-03 0. -1.
        -11    1    4    4    0    0  0.39216883684E+01  0.67970633101E+01  0.91693564509E+01  0.12068836203E+02  0.51100000000E-03 0.  1.
         12    1    4    4    0    0  0.95090928512E+01  0.72637759250E+01  0.11580705833E+02  0.16652268168E+02  0.00000000000E+00 0. -1.
</event>
<event>
 8    1  0.2962813E-009  0.9118800E+02  0.7816164E-02  0.1184000E+00
        -11   -1    0    0    0    0  0.00000000000E+00  0.00000000000E+00  0.45593999997E+02  0.45594000000E+02  0.51100000000E-03 0. -1.
         11   -1    0    0    0    0 -0.00000000000E+00 -0.00000000000E+00 -0.45593999997E+02  0.45594000000E+02  0.51100000000E-03 0.  1.
         23    2    1    2    0    0  0.00000000000E+00  0.00000000000E+00  0.00000000000E+00  0.91188000000E+02  0.91188000000E+02 0.  0.
    9900012    2    3    3    0    0 -0.99376570256E+01 -0.23455428135E+02  0.37151033352E+02  0.46142318573E+02  0.10000007402E+02 0.  0.
        -12    1    3    3    0    0  0.99376570256E+01  0.23455428135E+02 -0.37151033352E+02  0.45045681427E+02  0.00000000000E+00 0.  1.
         11    1    4    4    0    0 -0.75845899996E+01 -0.14084950153E+02  0.19946029824E+02  0.25568651358E+02  0.51100000000E-03 0. -1.
        -11    1    4    4    0    0 -0.34755747345E+01 -0.46950431797E+01  0.59675298682E+01  0.83507163275E+01  0.51100000000E-03 0.  1.
         12    1    4    4    0    0  0.11225077084E+01 -0.46754348023E+01  0.11237473659E+02  0.12222950887E+02  0.00000000000E+00 0. -1.
</event>
<event>
 8    1  0.2962813E-009  0.9118800E+02  0.7816164E-02  0.1184000E+00
        -11   -1    0    0    0    0  0.00000000000E+00  0.00000000000E+00  0.45593999997E+02  0.45594000000E+02  0.51100000000E-03 0. -1.
         11   -1    0    0    0    0 -0.00000000000E+00 -0.00000000000E+00 -0.45593999997E+02  0.45594000000E+02  0.51100000000E-03 0.  1.
         23    2    1    2    0    0  0.00000000000E+00  0.00000000000E+00  0.71054273576E-14  0.91188000000E+02  0.91188000000E+02 0.  0.
    9900012    2    3    3    0    0  0.10062083070E+02 -0.16774498716E+01 -0.43875438932E+02  0.46142317685E+02  0.99999993068E+01 0.  0.
         12    1    3    3    0    0 -0.10062083070E+02  0.16774498716E+01  0.43875438932E+02  0.45045682315E+02  0.00000000000E+00 0. -1.
         11    1    4    4    0    0  0.10879430410E+01 -0.23140902275E+01 -0.18910340760E+01  0.31803527760E+01  0.51100000000E-03 0. -1.
        -11    1    4    4    0    0  0.80215770211E+01  0.10073253430E+01 -0.36761944173E+02  0.37640416336E+02  0.51100000000E-03 0.  1.
         12    1    4    4    0    0  0.95256300766E+00 -0.37068498705E+00 -0.52224606821E+01  0.53215485734E+01  0.00000000000E+00 0. -1.
</event>
<event>
 8    1  0.2962813E-009  0.9118800E+02  0.7816164E-02  0.1184000E+00
        -11   -1    0    0    0    0  0.00000000000E+00  0.00000000000E+00  0.45593999997E+02  0.45594000000E+02  0.51100000000E-03 0. -1.
         11   -1    0    0    0    0 -0.00000000000E+00 -0.00000000000E+00 -0.45593999997E+02  0.45594000000E+02  0.51100000000E-03 0.  1.
         23    2    1    2    0    0  0.00000000000E+00  0.00000000000E+00  0.00000000000E+00  0.91188000000E+02  0.91188000000E+02 0.  0.
    9900012    2    3    3    0    0 -0.58680524891E+01  0.25121132878E+02 -0.36927066607E+02  0.46142316464E+02  0.99999881679E+01 0.  0.
         12    1    3    3    0    0  0.58680524891E+01 -0.25121132878E+02  0.36927066607E+02  0.45045683536E+02  0.00000000000E+00 0. -1.
         11    1    4    4    0    0 -0.57199542071E+01  0.82614420460E+01 -0.17467853378E+02  0.20151803956E+02  0.51100000000E-03 0. -1.
        -11    1    4    4    0    0 -0.15476174022E+01  0.95961099402E+01 -0.95675107889E+01  0.13638830909E+02  0.51100000000E-03 0.  1.
        -12    1    4    4    0    0  0.13995191202E+01  0.72635808914E+01 -0.98917024405E+01  0.12351681598E+02  0.00000000000E+00 0.  1.
</event>
<event>
 8    1  0.2962813E-009  0.9118800E+02  0.7816164E-02  0.1184000E+00
        -11   -1    0    0    0    0  0.00000000000E+00  0.00000000000E+00  0.45593999997E+02  0.45594000000E+02  0.51100000000E-03 0. -1.
         11   -1    0    0    0    0 -0.00000000000E+00 -0.00000000000E+00 -0.45593999997E+02  0.45594000000E+02  0.51100000000E-03 0.  1.
         23    2    1    2    0    0  0.00000000000E+00 -0.35527136788E-14  0.00000000000E+00  0.91188000000E+02  0.91188000000E+02 0.  0.
    9900012    2    3    3    0    0  0.32418166880E+02 -0.31204797002E+02  0.21062961056E+01  0.46142318930E+02  0.10000010659E+02 0.  0.
         12    1    3    3    0    0 -0.32418166880E+02  0.31204797002E+02 -0.21062961056E+01  0.45045681070E+02  0.00000000000E+00 0. -1.
         11    1    4    4    0    0  0.27377840581E+01 -0.63453859430E+00 -0.16925069928E+01  0.32806525202E+01  0.51100000000E-03 0. -1.
        -11    1    4    4    0    0  0.20262332160E+02 -0.20427365932E+02  0.13367852167E+01  0.28803235555E+02  0.51100000000E-03 0.  1.
        -12    1    4    4    0    0  0.94180506620E+01 -0.10142892476E+02  0.24620178817E+01  0.14058430855E+02  0.00000000000E+00 0.  1.
</event>
<event>
 8    1  0.2962813E-009  0.9118800E+02  0.7816164E-02  0.1184000E+00
        -11   -1    0    0    0    0  0.00000000000E+00  0.00000000000E+00  0.45593999997E+02  0.45594000000E+02  0.51100000000E-03 0. -1.
         11   -1    0    0    0    0 -0.00000000000E+00 -0.00000000000E+00 -0.45593999997E+02  0.45594000000E+02  0.51100000000E-03 0.  1.
         23    2    1    2    0    0  0.00000000000E+00  0.00000000000E+00  0.00000000000E+00  0.91188000000E+02  0.91188000000E+02 0.  0.
    9900012    2    3    3    0    0  0.40622359810E+02 -0.80120643356E+01 -0.17741032004E+02  0.46142317543E+02  0.99999980130E+01 0.  0.
         12    1    3    3    0    0 -0.40622359810E+02  0.80120643356E+01  0.17741032004E+02  0.45045682457E+02  0.00000000000E+00 0. -1.
         11    1    4    4    0    0  0.65119667468E+00 -0.55670194272E+00 -0.12188342507E+01  0.14898091670E+01  0.51100000000E-03 0. -1.
        -11    1    4    4    0    0  0.15252065911E+02 -0.20527555311E+01 -0.21109609298E+01  0.15533688427E+02  0.51100000000E-03 0.  1.
        -12    1    4    4    0    0  0.24719097224E+02 -0.54026068618E+01 -0.14411236824E+02  0.29118819949E+02  0.00000000000E+00 0.  1.
</event>
<event>
 8    1  0.2962813E-009  0.9118800E+02  0.7816164E-02  0.1184000E+00
        -11   -1    0    0    0    0  0.00000000000E+00  0.00000000000E+00  0.45593999997E+02  0.45594000000E+02  0.51100000000E-03 0. -1.
         11   -1    0    0    0    0 -0.00000000000E+00 -0.00000000000E+00 -0.45593999997E+02  0.45594000000E+02  0.51100000000E-03 0.  1.
         23    2    1    2    0    0  0.00000000000E+00 -0.44408920985E-15  0.00000000000E+00  0.91188000000E+02  0.91188000000E+02 0.  0.
    9900012    2    3    3    0    0  0.23318866409E+02 -0.30850232571E+01  0.38416488422E+02  0.46142317834E+02  0.10000000666E+02 0.  0.
        -12    1    3    3    0    0 -0.23318866409E+02  0.30850232571E+01 -0.38416488422E+02  0.45045682166E+02  0.00000000000E+00 0.  1.
         11    1    4    4    0    0  0.32543820882E+01 -0.33218979387E+01  0.59301166500E+01  0.75360661114E+01  0.51100000000E-03 0.  1.
        -11    1    4    4    0    0  0.13275055818E+02  0.27871265954E+01  0.19989325677E+02  0.24157158834E+02  0.51100000000E-03 0. -1.
        -12    1    4    4    0    0  0.67894285034E+01 -0.25502519138E+01  0.12497046095E+02  0.14449092889E+02  0.00000000000E+00 0.  1.
</event>
<event>
 8    1  0.2962813E-009  0.9118800E+02  0.7816164E-02  0.1184000E+00
        -11   -1    0    0    0    0  0.00000000000E+00  0.00000000000E+00  0.45593999997E+02  0.45594000000E+02  0.51100000000E-03 0.  1.
         11   -1    0    0    0    0 -0.00000000000E+00 -0.00000000000E+00 -0.45593999997E+02  0.45594000000E+02  0.51100000000E-03 0. -1.
         23    2    1    2    0    0 -0.88817841970E-15  0.71054273576E-14 -0.35527136788E-14  0.91188000000E+02  0.91188000000E+02 0.  0.
    9900012    2    3    3    0    0 -0.51202543323E+01  0.37011025877E+02 -0.25161089827E+02  0.46142317830E+02  0.10000000627E+02 0.  0.
         12    1    3    3    0    0  0.51202543323E+01 -0.37011025877E+02  0.25161089827E+02  0.45045682170E+02  0.00000000000E+00 0. -1.
         11    1    4    4    0    0  0.13090698622E+01  0.78664581462E+01 -0.24647748969E+01  0.83468522944E+01  0.51100000000E-03 0. -1.
        -11    1    4    4    0    0 -0.30641178937E+01  0.21483131476E+02 -0.18036747722E+02  0.28217689933E+02  0.51100000000E-03 0.  1.
         12    1    4    4    0    0 -0.33652063008E+01  0.76614362544E+01 -0.46595672084E+01  0.95777756028E+01  0.00000000000E+00 0. -1.
</event>
<event>
 8    1  0.2962813E-009  0.9118800E+02  0.7816164E-02  0.1184000E+00
        -11   -1    0    0    0    0  0.00000000000E+00  0.00000000000E+00  0.45593999997E+02  0.45594000000E+02  0.51100000000E-03 0. -1.
         11   -1    0    0    0    0 -0.00000000000E+00 -0.00000000000E+00 -0.45593999997E+02  0.45594000000E+02  0.51100000000E-03 0.  1.
         23    2    1    2    0    0 -0.22204460493E-15 -0.44408920985E-15  0.00000000000E+00  0.91188000000E+02  0.91188000000E+02 0.  0.
    9900012    2    3    3    0    0  0.15302749741E+01  0.26725269584E+01  0.44940287022E+02  0.46142317194E+02  0.99999948276E+01 0.  0.
        -12    1    3    3    0    0 -0.15302749741E+01 -0.26725269584E+01 -0.44940287022E+02  0.45045682806E+02  0.00000000000E+00 0.  1.
         11    1    4    4    0    0 -0.19931715134E+01  0.38355947989E+01  0.26362038456E+02  0.26714071048E+02  0.51100000000E-03 0. -1.
        -11    1    4    4    0    0  0.39160451328E+01  0.32966858388E+00  0.10668364413E+02  0.11369172809E+02  0.51100000000E-03 0.  1.
         12    1    4    4    0    0 -0.39259864527E+00 -0.14927364244E+01  0.79098841531E+01  0.80590733366E+01  0.00000000000E+00 0. -1.
</event>
<event>
 8    1  0.2962813E-009  0.9118800E+02  0.7816164E-02  0.1184000E+00
        -11   -1    0    0    0    0  0.00000000000E+00  0.00000000000E+00  0.45593999997E+02  0.45594000000E+02  0.51100000000E-03 0.  1.
         11   -1    0    0    0    0 -0.00000000000E+00 -0.00000000000E+00 -0.45593999997E+02  0.45594000000E+02  0.51100000000E-03 0. -1.
         23    2    1    2    0    0  0.00000000000E+00  0.00000000000E+00 -0.71054273576E-14  0.91188000000E+02  0.91188000000E+02 0.  0.
    9900012    2    3    3    0    0  0.38574342423E+01 -0.39679459008E+02  0.20970795327E+02  0.46142317380E+02  0.99999965229E+01 0.  0.
        -12    1    3    3    0    0 -0.38574342423E+01  0.39679459008E+02 -0.20970795327E+02  0.45045682620E+02  0.00000000000E+00 0.  1.
         11    1    4    4    0    0  0.40835675369E+01 -0.21138948685E+02  0.61223543251E+01  0.22383339744E+02  0.51100000000E-03 0. -1.
        -11    1    4    4    0    0 -0.36679428257E+00 -0.12583554785E+02  0.10108016977E+02  0.16144732781E+02  0.51100000000E-03 0.  1.
         12    1    4    4    0    0  0.14066098794E+00 -0.59569555369E+01  0.47404240247E+01  0.76142448553E+01  0.00000000000E+00 0. -1.
</event>
<event>
 8    1  0.2962813E-009  0.9118800E+02  0.7816164E-02  0.1184000E+00
        -11   -1    0    0    0    0  0.00000000000E+00  0.00000000000E+00  0.45593999997E+02  0.45594000000E+02  0.51100000000E-03 0. -1.
         11   -1    0    0    0    0 -0.00000000000E+00 -0.00000000000E+00 -0.45593999997E+02  0.45594000000E+02  0.51100000000E-03 0.  1.
         23    2    1    2    0    0  0.00000000000E+00  0.00000000000E+00  0.00000000000E+00  0.91188000000E+02  0.91188000000E+02 0.  0.
    9900012    2    3    3    0    0  0.31581390727E+02  0.11469838548E+02  0.30002868465E+02  0.46142317047E+02  0.99999934882E+01 0.  0.
        -12    1    3    3    0    0 -0.31581390727E+02 -0.11469838548E+02 -0.30002868465E+02  0.45045682953E+02  0.00000000000E+00 0.  1.
         11    1    4    4    0    0  0.11853106827E+02  0.15069059750E+01  0.84064830770E+01  0.14609444379E+02  0.51100000000E-03 0. -1.
        -11    1    4    4    0    0  0.11340085438E+02  0.36362391089E+01  0.14897524659E+02  0.19072388782E+02  0.51100000000E-03 0.  1.
         12    1    4    4    0    0  0.83881984617E+01  0.63266934644E+01  0.66988607286E+01  0.12460483887E+02  0.00000000000E+00 0. -1.
</event>
<event>
 8    1  0.2962813E-009  0.9118800E+02  0.7816164E-02  0.1184000E+00
        -11   -1    0    0    0    0  0.00000000000E+00  0.00000000000E+00  0.45593999997E+02  0.45594000000E+02  0.51100000000E-03 0.  1.
         11   -1    0    0    0    0 -0.00000000000E+00 -0.00000000000E+00 -0.45593999997E+02  0.45594000000E+02  0.51100000000E-03 0. -1.
         23    2    1    2    0    0  0.00000000000E+00  0.35527136788E-14 -0.17763568394E-14  0.91188000000E+02  0.91188000000E+02 0.  0.
    9900012    2    3    3    0    0  0.32209050808E+02  0.27160283193E+02  0.15937677961E+02  0.46142317456E+02  0.99999972171E+01 0.  0.
         12    1    3    3    0    0 -0.32209050808E+02 -0.27160283193E+02 -0.15937677961E+02  0.45045682544E+02  0.00000000000E+00 0. -1.
         11    1    4    4    0    0  0.11998218753E+02  0.13727861926E+02  0.75526179289E+01  0.19734575854E+02  0.51100000000E-03 0. -1.
        -11    1    4    4    0    0  0.13891857761E+02  0.62532356696E+01  0.69191667060E+01  0.16732051176E+02  0.51100000000E-03 0.  1.
         12    1    4    4    0    0  0.63189742943E+01  0.71791855971E+01  0.14658933261E+01  0.96756904257E+01  0.00000000000E+00 0. -1.
</event>
<event>
 8    1  0.2962813E-009  0.9118800E+02  0.7816164E-02  0.1184000E+00
        -11   -1    0    0    0    0  0.00000000000E+00  0.00000000000E+00  0.45593999997E+02  0.45594000000E+02  0.51100000000E-03 0. -1.
         11   -1    0    0    0    0 -0.00000000000E+00 -0.00000000000E+00 -0.45593999997E+02  0.45594000000E+02  0.51100000000E-03 0.  1.
         23    2    1    2    0    0 -0.17763568394E-14 -0.71054273576E-14  0.00000000000E+00  0.91188000000E+02  0.91188000000E+02 0.  0.
    9900012    2    3    3    0    0  0.15912036326E+02  0.34699621485E+02 -0.23913533235E+02  0.46142315378E+02  0.99999782721E+01 0.  0.
         12    1    3    3    0    0 -0.15912036326E+02 -0.34699621485E+02  0.23913533235E+02  0.45045684622E+02  0.00000000000E+00 0. -1.
         11    1    4    4    0    0  0.88809433632E+01  0.18705143579E+02 -0.13493615296E+02  0.24714999603E+02  0.51100000000E-03 0. -1.
        -11    1    4    4    0    0  0.74367020324E+01  0.16083092412E+02 -0.10891573315E+02  0.20798960747E+02  0.51100000000E-03 0.  1.
         12    1    4    4    0    0 -0.40560906937E+00 -0.88614506250E-01  0.47165537568E+00  0.62835502806E+00  0.00000000000E+00 0. -1.
</event>
<event>
 8    1  0.2962813E-009  0.9118800E+02  0.7816164E-02  0.1184000E+00
        -11   -1    0    0    0    0  0.00000000000E+00  0.00000000000E+00  0.45593999997E+02  0.45594000000E+02  0.51100000000E-03 0. -1.
         11   -1    0    0    0    0 -0.00000000000E+00 -0.00000000000E+00 -0.45593999997E+02  0.45594000000E+02  0.51100000000E-03 0.  1.
         23    2    1    2    0    0  0.00000000000E+00  0.88817841970E-15 -0.71054273576E-14  0.91188000000E+02  0.91188000000E+02 0.  0.
    9900012    2    3    3    0    0  0.17996516666E+02  0.38660880088E+01 -0.41113161498E+02  0.46142319886E+02  0.10000019373E+02 0.  0.
         12    1    3    3    0    0 -0.17996516666E+02 -0.38660880088E+01  0.41113161498E+02  0.45045680114E+02  0.00000000000E+00 0. -1.
         11    1    4    4    0    0  0.12840555225E+02  0.56263270949E+01 -0.22367083567E+02  0.26397383253E+02  0.51100000000E-03 0.  1.
        -11    1    4    4    0    0 -0.38703480166E-01 -0.35705650391E+00 -0.45361938153E+01  0.45503892029E+01  0.51100000000E-03 0. -1.
         12    1    4    4    0    0  0.51946649209E+01 -0.14031825822E+01 -0.14209884116E+02  0.15194547429E+02  0.00000000000E+00 0. -1.
</event>
<event>
 8    1  0.2962813E-009  0.9118800E+02  0.7816164E-02  0.1184000E+00
        -11   -1    0    0    0    0  0.00000000000E+00  0.00000000000E+00  0.45593999997E+02  0.45594000000E+02  0.51100000000E-03 0.  1.
         11   -1    0    0    0    0 -0.00000000000E+00 -0.00000000000E+00 -0.45593999997E+02  0.45594000000E+02  0.51100000000E-03 0. -1.
         23    2    1    2    0    0  0.00000000000E+00  0.00000000000E+00 -0.66613381478E-15  0.91188000000E+02  0.91188000000E+02 0.  0.
    9900012    2    3    3    0    0  0.16000607551E+02 -0.42077492044E+02 -0.16058342445E+01  0.46142317828E+02  0.10000000612E+02 0.  0.
         12    1    3    3    0    0 -0.16000607551E+02  0.42077492044E+02  0.16058342445E+01  0.45045682172E+02  0.00000000000E+00 0. -1.
         11    1    4    4    0    0  0.46398986442E+01 -0.16606203661E+02  0.11053930710E+01  0.17277631595E+02  0.51100000000E-03 0. -1.
        -11    1    4    4    0    0  0.22725743375E+01 -0.33305986926E+01  0.19545214197E+01  0.44808075178E+01  0.51100000000E-03 0.  1.
        -12    1    4    4    0    0  0.90881345693E+01 -0.22140689691E+02 -0.46657487353E+01  0.24383878715E+02  0.00000000000E+00 0.  1.
</event>
<event>
 8    1  0.2962813E-009  0.9118800E+02  0.7816164E-02  0.1184000E+00
        -11   -1    0    0    0    0  0.00000000000E+00  0.00000000000E+00  0.45593999997E+02  0.45594000000E+02  0.51100000000E-03 0. -1.
         11   -1    0    0    0    0 -0.00000000000E+00 -0.00000000000E+00 -0.45593999997E+02  0.45594000000E+02  0.51100000000E-03 0.  1.
         23    2    1    2    0    0  0.00000000000E+00  0.00000000000E+00  0.00000000000E+00  0.91188000000E+02  0.91188000000E+02 0.  0.
    9900012    2    3    3    0    0  0.42500551611E+02 -0.12511511494E+02  0.81411711370E+01  0.46142317915E+02  0.10000001399E+02 0.  0.
        -12    1    3    3    0    0 -0.42500551611E+02  0.12511511494E+02 -0.81411711370E+01  0.45045682085E+02  0.00000000000E+00 0.  1.
         11    1    4    4    0    0  0.19212327735E+02 -0.79191910581E+01  0.71334150825E+00  0.20792690552E+02  0.51100000000E-03 0.  1.
        -11    1    4    4    0    0  0.19734756921E+02 -0.48798401748E+01  0.77804496967E+01  0.21767151136E+02  0.51100000000E-03 0. -1.
        -12    1    4    4    0    0  0.35534669548E+01  0.28751973930E+00 -0.35262006789E+00  0.35824762263E+01  0.00000000000E+00 0.  1.
</event>
<event>
 8    1  0.2962813E-009  0.9118800E+02  0.7816164E-02  0.1184000E+00
        -11   -1    0    0    0    0  0.00000000000E+00  0.00000000000E+00  0.45593999997E+02  0.45594000000E+02  0.51100000000E-03 0. -1.
         11   -1    0    0    0    0 -0.00000000000E+00 -0.00000000000E+00 -0.45593999997E+02  0.45594000000E+02  0.51100000000E-03 0.  1.
         23    2    1    2    0    0  0.35527136788E-14  0.00000000000E+00  0.71054273576E-14  0.91188000000E+02  0.91188000000E+02 0.  0.
    9900012    2    3    3    0    0  0.26773158819E+02  0.46652727512E+01  0.35924179879E+02  0.46142317599E+02  0.99999985197E+01 0.  0.
        -12    1    3    3    0    0 -0.26773158819E+02 -0.46652727512E+01 -0.35924179879E+02  0.45045682401E+02  0.00000000000E+00 0.  1.
         11    1    4    4    0    0  0.99234304829E+01  0.48401465760E+01  0.14682853804E+02  0.18370837965E+02  0.51100000000E-03 0. -1.
        -11    1    4    4    0    0  0.14494084991E+02 -0.19547498093E+01  0.15471107857E+02  0.21289779828E+02  0.51100000000E-03 0.  1.
        -12    1    4    4    0    0  0.23556433447E+01  0.17798759845E+01  0.57702182182E+01  0.64816998058E+01  0.00000000000E+00 0.  1.
</event>
<event>
 8    1  0.2962813E-009  0.9118800E+02  0.7816164E-02  0.1184000E+00
        -11   -1    0    0    0    0  0.00000000000E+00  0.00000000000E+00  0.45593999997E+02  0.45594000000E+02  0.51100000000E-03 0.  1.
         11   -1    0    0    0    0 -0.00000000000E+00 -0.00000000000E+00 -0.45593999997E+02  0.45594000000E+02  0.51100000000E-03 0. -1.
         23    2    1    2    0    0 -0.71054273576E-14 -0.35527136788E-14  0.00000000000E+00  0.91188000000E+02  0.91188000000E+02 0.  0.
    9900012    2    3    3    0    0 -0.41299152115E+02  0.16608841216E+02 -0.69021654150E+01  0.46142318083E+02  0.10000002937E+02 0.  0.
         12    1    3    3    0    0  0.41299152115E+02 -0.16608841216E+02  0.69021654150E+01  0.45045681917E+02  0.00000000000E+00 0. -1.
         11    1    4    4    0    0 -0.11506162977E+02  0.26530476625E+01  0.61357655359E-01  0.11808226513E+02  0.51100000000E-03 0. -1.
        -11    1    4    4    0    0 -0.26727487409E+02  0.10898136738E+02 -0.78546665978E+01  0.29913604851E+02  0.51100000000E-03 0.  1.
         12    1    4    4    0    0 -0.30655017287E+01  0.30576568152E+01  0.89114352751E+00  0.44204867193E+01  0.00000000000E+00 0. -1.
</event>
<event>
 8    1  0.2962813E-009  0.9118800E+02  0.7816164E-02  0.1184000E+00
        -11   -1    0    0    0    0  0.00000000000E+00  0.00000000000E+00  0.45593999997E+02  0.45594000000E+02  0.51100000000E-03 0. -1.
         11   -1    0    0    0    0 -0.00000000000E+00 -0.00000000000E+00 -0.45593999997E+02  0.45594000000E+02  0.51100000000E-03 0.  1.
         23    2    1    2    0    0  0.00000000000E+00 -0.35527136788E-14  0.71054273576E-14  0.91188000000E+02  0.91188000000E+02 0.  0.
    9900012    2    3    3    0    0  0.17422163361E+02 -0.25366335203E+02  0.32895746084E+02  0.46142324867E+02  0.10000064798E+02 0.  0.
        -12    1    3    3    0    0 -0.17422163361E+02  0.25366335203E+02 -0.32895746084E+02  0.45045675133E+02  0.00000000000E+00 0.  1.
         11    1    4    4    0    0  0.14557880343E+02 -0.14847074586E+02  0.25303592043E+02  0.32751172107E+02  0.51100000000E-03 0. -1.
        -11    1    4    4    0    0  0.25807009707E+01 -0.74256938225E+01  0.47778625094E+01  0.91993976251E+01  0.51100000000E-03 0.  1.
         12    1    4    4    0    0  0.28358204691E+00 -0.30935667943E+01  0.28142915309E+01  0.41917551347E+01  0.00000000000E+00 0. -1.
</event>
<event>
 8    1  0.2962813E-009  0.9118800E+02  0.7816164E-02  0.1184000E+00
        -11   -1    0    0    0    0  0.00000000000E+00  0.00000000000E+00  0.45593999997E+02  0.45594000000E+02  0.51100000000E-03 0. -1.
         11   -1    0    0    0    0 -0.00000000000E+00 -0.00000000000E+00 -0.45593999997E+02  0.45594000000E+02  0.51100000000E-03 0.  1.
         23    2    1    2    0    0 -0.88817841970E-15  0.00000000000E+00  0.00000000000E+00  0.91188000000E+02  0.91188000000E+02 0.  0.
    9900012    2    3    3    0    0 -0.72134665865E+01 -0.19624622848E+02  0.39899292927E+02  0.46142317652E+02  0.99999990083E+01 0.  0.
        -12    1    3    3    0    0  0.72134665865E+01  0.19624622848E+02 -0.39899292927E+02  0.45045682348E+02  0.00000000000E+00 0.  1.
         11    1    4    4    0    0 -0.57396472322E+01 -0.16499229538E+02  0.30320029928E+02  0.34992461199E+02  0.51100000000E-03 0. -1.
        -11    1    4    4    0    0  0.92978409829E+00 -0.10635861685E+01  0.44330020902E+00  0.14806178925E+01  0.51100000000E-03 0.  1.
        -12    1    4    4    0    0 -0.24036034526E+01 -0.20618071417E+01  0.91359627895E+01  0.96692385604E+01  0.00000000000E+00 0.  1.
</event>
<event>
 8    1  0.2962813E-009  0.9118800E+02  0.7816164E-02  0.1184000E+00
        -11   -1    0    0    0    0  0.00000000000E+00  0.00000000000E+00  0.45593999997E+02  0.45594000000E+02  0.51100000000E-03 0. -1.
         11   -1    0    0    0    0 -0.00000000000E+00 -0.00000000000E+00 -0.45593999997E+02  0.45594000000E+02  0.51100000000E-03 0.  1.
         23    2    1    2    0    0  0.00000000000E+00  0.00000000000E+00  0.00000000000E+00  0.91188000000E+02  0.91188000000E+02 0.  0.
    9900012    2    3    3    0    0 -0.22454208677E+01  0.12448072171E+02  0.43233287118E+02  0.46142317291E+02  0.99999957147E+01 0.  0.
        -12    1    3    3    0    0  0.22454208677E+01 -0.12448072171E+02 -0.43233287118E+02  0.45045682709E+02  0.00000000000E+00 0.  1.
         11    1    4    4    0    0  0.35477698430E+01  0.61413176099E+01  0.23014068787E+02  0.24082147230E+02  0.51100000000E-03 0.  1.
        -11    1    4    4    0    0 -0.42415915704E+01  0.45428542731E+01  0.16790175228E+02  0.17903592055E+02  0.51100000000E-03 0. -1.
        -12    1    4    4    0    0 -0.15515991403E+01  0.17639002876E+01  0.34290431033E+01  0.41565780062E+01  0.00000000000E+00 0.  1.
</event>
<event>
 8    1  0.2962813E-009  0.9118800E+02  0.7816164E-02  0.1184000E+00
        -11   -1    0    0    0    0  0.00000000000E+00  0.00000000000E+00  0.45593999997E+02  0.45594000000E+02  0.51100000000E-03 0. -1.
         11   -1    0    0    0    0 -0.00000000000E+00 -0.00000000000E+00 -0.45593999997E+02  0.45594000000E+02  0.51100000000E-03 0.  1.
         23    2    1    2    0    0  0.00000000000E+00  0.00000000000E+00 -0.35527136788E-14  0.91188000000E+02  0.91188000000E+02 0.  0.
    9900012    2    3    3    0    0  0.98449900603E+01  0.36935254447E+02 -0.23832269942E+02  0.46142312738E+02  0.99999541973E+01 0.  0.
         12    1    3    3    0    0 -0.98449900603E+01 -0.36935254447E+02  0.23832269942E+02  0.45045687262E+02  0.00000000000E+00 0. -1.
         11    1    4    4    0    0 -0.53352469759E+00  0.29108461679E+00  0.51713346626E+00  0.79800134092E+00  0.51100000000E-03 0. -1.
        -11    1    4    4    0    0  0.71868380476E+01  0.27002897207E+02 -0.19607916212E+02  0.34136160843E+02  0.51100000000E-03 0.  1.
        -12    1    4    4    0    0  0.31916767102E+01  0.96412726230E+01 -0.47414871959E+01  0.11208150554E+02  0.00000000000E+00 0.  1.
</event>
<event>
 8    1  0.2962813E-009  0.9118800E+02  0.7816164E-02  0.1184000E+00
        -11   -1    0    0    0    0  0.00000000000E+00  0.00000000000E+00  0.45593999997E+02  0.45594000000E+02  0.51100000000E-03 0. -1.
         11   -1    0    0    0    0 -0.00000000000E+00 -0.00000000000E+00 -0.45593999997E+02  0.45594000000E+02  0.51100000000E-03 0.  1.
         23    2    1    2    0    0  0.88817841970E-15  0.00000000000E+00 -0.35527136788E-14  0.91188000000E+02  0.91188000000E+02 0.  0.
    9900012    2    3    3    0    0  0.29987414056E+01 -0.39775308434E+02 -0.20929546519E+02  0.46142317315E+02  0.99999959351E+01 0.  0.
         12    1    3    3    0    0 -0.29987414056E+01  0.39775308434E+02  0.20929546519E+02  0.45045682685E+02  0.00000000000E+00 0. -1.
         11    1    4    4    0    0  0.97179730510E-01 -0.15415181449E+02 -0.10777522043E+02  0.18809365876E+02  0.51100000000E-03 0. -1.
        -11    1    4    4    0    0 -0.11505327237E+01 -0.13986346449E+02 -0.39200422178E+01  0.14570804501E+02  0.51100000000E-03 0.  1.
         12    1    4    4    0    0  0.40520943988E+01 -0.10373780536E+02 -0.62319822585E+01  0.12762146939E+02  0.00000000000E+00 0. -1.
</event>
<event>
 8    1  0.2962813E-009  0.9118800E+02  0.7816164E-02  0.1184000E+00
        -11   -1    0    0    0    0  0.00000000000E+00  0.00000000000E+00  0.45593999997E+02  0.45594000000E+02  0.51100000000E-03 0. -1.
         11   -1    0    0    0    0 -0.00000000000E+00 -0.00000000000E+00 -0.45593999997E+02  0.45594000000E+02  0.51100000000E-03 0.  1.
         23    2    1    2    0    0  0.00000000000E+00  0.00000000000E+00  0.00000000000E+00  0.91188000000E+02  0.91188000000E+02 0.  0.
    9900012    2    3    3    0    0  0.35609908116E+02  0.15715662671E+02  0.22673022935E+02  0.46142316763E+02  0.99999909010E+01 0.  0.
        -12    1    3    3    0    0 -0.35609908116E+02 -0.15715662671E+02 -0.22673022935E+02  0.45045683237E+02  0.00000000000E+00 0.  1.
         11    1    4    4    0    0  0.17897032392E+02  0.64447418789E+01  0.71129439243E+01  0.20308432678E+02  0.51100000000E-03 0. -1.
        -11    1    4    4    0    0  0.90917433591E+01  0.55026860144E+01  0.11279189751E+02  0.15497079479E+02  0.51100000000E-03 0.  1.
        -12    1    4    4    0    0  0.86211323655E+01  0.37682347776E+01  0.42808892597E+01  0.10336804606E+02  0.00000000000E+00 0.  1.
</event>
<event>
 8    1  0.2962813E-009  0.9118800E+02  0.7816164E-02  0.1184000E+00
        -11   -1    0    0    0    0  0.00000000000E+00  0.00000000000E+00  0.45593999997E+02  0.45594000000E+02  0.51100000000E-03 0. -1.
         11   -1    0    0    0    0 -0.00000000000E+00 -0.00000000000E+00 -0.45593999997E+02  0.45594000000E+02  0.51100000000E-03 0.  1.
         23    2    1    2    0    0  0.00000000000E+00  0.00000000000E+00  0.00000000000E+00  0.91188000000E+02  0.91188000000E+02 0.  0.
    9900012    2    3    3    0    0  0.17379472835E+02  0.51441198703E+01 -0.41238397781E+02  0.46142317667E+02  0.99999991453E+01 0.  0.
         12    1    3    3    0    0 -0.17379472835E+02 -0.51441198703E+01  0.41238397781E+02  0.45045682333E+02  0.00000000000E+00 0. -1.
         11    1    4    4    0    0  0.12403625423E+01  0.34885866872E+01 -0.54395688059E+01  0.65800946320E+01  0.51100000000E-03 0. -1.
        -11    1    4    4    0    0  0.83066143844E+01  0.21421400989E+01 -0.23016405500E+02  0.24563052113E+02  0.51100000000E-03 0.  1.
         12    1    4    4    0    0  0.78324959080E+01 -0.48660691587E+00 -0.12782423475E+02  0.14999170922E+02  0.00000000000E+00 0. -1.
</event>
<event>
 8    1  0.3661993E-009  0.9118800E+02  0.7816164E-02  0.1184000E+00
        -11   -1    0    0    0    0  0.00000000000E+00  0.00000000000E+00  0.45593999997E+02  0.45594000000E+02  0.51100000000E-03 0. -1.
         11   -1    0    0    0    0 -0.00000000000E+00 -0.00000000000E+00 -0.45593999997E+02  0.45594000000E+02  0.51100000000E-03 0.  1.
         23    2    1    2    0    0  0.00000000000E+00 -0.22204460493E-15  0.00000000000E+00  0.91188000000E+02  0.91188000000E+02 0.  0.
    9900012    2    3    3    0    0  0.83569615657E+01 -0.11161624849E+01 -0.44249620835E+02  0.46142316863E+02  0.99999918078E+01 0.  0.
         12    1    3    3    0    0 -0.83569615657E+01  0.11161624849E+01  0.44249620835E+02  0.45045683137E+02  0.00000000000E+00 0. -1.
         11    1    4    4    0    0  0.32750704544E+01 -0.20933775690E+00 -0.58374614793E+01  0.66967055753E+01  0.51100000000E-03 0. -1.
        -11    1    4    4    0    0  0.37517820262E+01 -0.24088361434E+01 -0.36141934313E+02  0.36415900045E+02  0.51100000000E-03 0.  1.
        -12    1    4    4    0    0  0.13301090851E+01  0.15020114154E+01 -0.22702250419E+01  0.30297112422E+01  0.00000000000E+00 0.  1.
</event>
<event>
 8    1  0.2962813E-009  0.9118800E+02  0.7816164E-02  0.1184000E+00
        -11   -1    0    0    0    0  0.00000000000E+00  0.00000000000E+00  0.45593999997E+02  0.45594000000E+02  0.51100000000E-03 0.  1.
         11   -1    0    0    0    0 -0.00000000000E+00 -0.00000000000E+00 -0.45593999997E+02  0.45594000000E+02  0.51100000000E-03 0. -1.
         23    2    1    2    0    0  0.88817841970E-15  0.00000000000E+00  0.00000000000E+00  0.91188000000E+02  0.91188000000E+02 0.  0.
    9900012    2    3    3    0    0 -0.56433849344E+01  0.37132260649E+02 -0.24868860435E+02  0.46142325471E+02  0.10000070307E+02 0.  0.
         12    1    3    3    0    0  0.56433849344E+01 -0.37132260649E+02  0.24868860435E+02  0.45045674529E+02  0.00000000000E+00 0. -1.
         11    1    4    4    0    0 -0.41358108645E+01  0.73215537472E+01 -0.31294865751E+01  0.89723891615E+01  0.51100000000E-03 0. -1.
        -11    1    4    4    0    0  0.58336383642E+00  0.23109822727E+02 -0.17131665797E+02  0.28773220068E+02  0.51100000000E-03 0.  1.
         12    1    4    4    0    0 -0.20909379064E+01  0.67008841744E+01 -0.46077080628E+01  0.83967162414E+01  0.00000000000E+00 0. -1.
</event>
<event>
 8    1  0.2962813E-009  0.9118800E+02  0.7816164E-02  0.1184000E+00
        -11   -1    0    0    0    0  0.00000000000E+00  0.00000000000E+00  0.45593999997E+02  0.45594000000E+02  0.51100000000E-03 0. -1.
         11   -1    0    0    0    0 -0.00000000000E+00 -0.00000000000E+00 -0.45593999997E+02  0.45594000000E+02  0.51100000000E-03 0.  1.
         23    2    1    2    0    0  0.00000000000E+00  0.35527136788E-14  0.00000000000E+00  0.91188000000E+02  0.91188000000E+02 0.  0.
    9900012    2    3    3    0    0  0.33733890920E+02  0.18660750836E+02  0.23300525722E+02  0.46142317440E+02  0.99999970742E+01 0.  0.
        -12    1    3    3    0    0 -0.33733890920E+02 -0.18660750836E+02 -0.23300525722E+02  0.45045682560E+02  0.00000000000E+00 0.  1.
         11    1    4    4    0    0  0.16348021588E+02  0.13298779356E+02  0.11104458595E+02  0.23820670502E+02  0.51100000000E-03 0. -1.
        -11    1    4    4    0    0  0.16464398984E+02  0.39950235568E+01  0.10380707889E+02  0.19869467624E+02  0.51100000000E-03 0.  1.
        -12    1    4    4    0    0  0.92147034750E+00  0.13669479231E+01  0.18153592381E+01  0.24521793143E+01  0.00000000000E+00 0.  1.
</event>
<event>
 8    1  0.2962813E-009  0.9118800E+02  0.7816164E-02  0.1184000E+00
        -11   -1    0    0    0    0  0.00000000000E+00  0.00000000000E+00  0.45593999997E+02  0.45594000000E+02  0.51100000000E-03 0. -1.
         11   -1    0    0    0    0 -0.00000000000E+00 -0.00000000000E+00 -0.45593999997E+02  0.45594000000E+02  0.51100000000E-03 0.  1.
         23    2    1    2    0    0 -0.17763568394E-14  0.00000000000E+00 -0.71054273576E-14  0.91188000000E+02  0.91188000000E+02 0.  0.
    9900012    2    3    3    0    0 -0.98114730342E+01 -0.25613104838E+02 -0.35732580966E+02  0.46142317798E+02  0.10000000335E+02 0.  0.
         12    1    3    3    0    0  0.98114730342E+01  0.25613104838E+02  0.35732580966E+02  0.45045682202E+02  0.00000000000E+00 0. -1.
         11    1    4    4    0    0 -0.78756067644E+01 -0.16468850203E+02 -0.28113832274E+02  0.33520676817E+02  0.51100000000E-03 0.  1.
        -11    1    4    4    0    0 -0.37312592476E+00 -0.33005025586E+01 -0.63380764672E+00  0.33814571547E+01  0.51100000000E-03 0. -1.
         12    1    4    4    0    0 -0.15627403450E+01 -0.58437520771E+01 -0.69849410453E+01  0.92401838256E+01  0.00000000000E+00 0. -1.
</event>
<event>
 8    1  0.2962813E-009  0.9118800E+02  0.7816164E-02  0.1184000E+00
        -11   -1    0    0    0    0  0.00000000000E+00  0.00000000000E+00  0.45593999997E+02  0.45594000000E+02  0.51100000000E-03 0. -1.
         11   -1    0    0    0    0 -0.00000000000E+00 -0.00000000000E+00 -0.45593999997E+02  0.45594000000E+02  0.51100000000E-03 0.  1.
         23    2    1    2    0    0  0.00000000000E+00  0.00000000000E+00  0.00000000000E+00  0.91188000000E+02  0.91188000000E+02 0.  0.
    9900012    2    3    3    0    0 -0.83919451912E+01 -0.22310287950E+02 -0.38222241755E+02  0.46142318106E+02  0.10000003142E+02 0.  0.
         12    1    3    3    0    0  0.83919451912E+01  0.22310287950E+02  0.38222241755E+02  0.45045681894E+02  0.00000000000E+00 0. -1.
         11    1    4    4    0    0 -0.33050772404E+01 -0.12029557722E+02 -0.11252836011E+02  0.16800598594E+02  0.51100000000E-03 0. -1.
        -11    1    4    4    0    0 -0.25343489456E+01 -0.58365863291E+01 -0.16522508702E+02  0.17705421730E+02  0.51100000000E-03 0.  1.
         12    1    4    4    0    0 -0.25525190053E+01 -0.44441438991E+01 -0.10446897042E+02  0.11636297782E+02  0.00000000000E+00 0. -1.
</event>
<event>
 8    1  0.2962813E-009  0.9118800E+02  0.7816164E-02  0.1184000E+00
        -11   -1    0    0    0    0  0.00000000000E+00  0.00000000000E+00  0.45593999997E+02  0.45594000000E+02  0.51100000000E-03 0.  1.
         11   -1    0    0    0    0 -0.00000000000E+00 -0.00000000000E+00 -0.45593999997E+02  0.45594000000E+02  0.51100000000E-03 0. -1.
         23    2    1    2    0    0  0.00000000000E+00  0.00000000000E+00  0.00000000000E+00  0.91188000000E+02  0.91188000000E+02 0.  0.
    9900012    2    3    3    0    0  0.42929904879E+02  0.11294751227E+02 -0.76527953553E+01  0.46142318576E+02  0.10000007433E+02 0.  0.
         12    1    3    3    0    0 -0.42929904879E+02 -0.11294751227E+02  0.76527953553E+01  0.45045681424E+02  0.00000000000E+00 0. -1.
         11    1    4    4    0    0  0.75135386806E+00 -0.72982675919E-01 -0.76437873836E+00  0.10743063915E+01  0.51100000000E-03 0. -1.
        -11    1    4    4    0    0  0.26291662676E+02  0.39786515391E+01 -0.10937775266E+01  0.26613484249E+02  0.51100000000E-03 0.  1.
        -12    1    4    4    0    0  0.15886888335E+02  0.73890823639E+01 -0.57946390904E+01  0.18454527936E+02  0.00000000000E+00 0.  1.
</event>
<event>
 8    1  0.2962813E-009  0.9118800E+02  0.7816164E-02  0.1184000E+00
        -11   -1    0    0    0    0  0.00000000000E+00  0.00000000000E+00  0.45593999997E+02  0.45594000000E+02  0.51100000000E-03 0.  1.
         11   -1    0    0    0    0 -0.00000000000E+00 -0.00000000000E+00 -0.45593999997E+02  0.45594000000E+02  0.51100000000E-03 0. -1.
         23    2    1    2    0    0  0.71054273576E-14  0.14210854715E-13  0.88817841970E-15  0.91188000000E+02  0.91188000000E+02 0.  0.
    9900012    2    3    3    0    0 -0.22653264810E+02 -0.38379046441E+02 -0.65568155400E+01  0.46142318273E+02  0.10000004663E+02 0.  0.
        -12    1    3    3    0    0  0.22653264810E+02  0.38379046441E+02  0.65568155400E+01  0.45045681727E+02  0.00000000000E+00 0.  1.
         11    1    4    4    0    0 -0.87704674177E+01 -0.21218877224E+02 -0.30558328743E+01  0.23162468871E+02  0.51100000000E-03 0. -1.
        -11    1    4    4    0    0 -0.12491545101E+02 -0.14876863394E+02 -0.47959040944E+01  0.20009009465E+02  0.51100000000E-03 0.  1.
         12    1    4    4    0    0 -0.13912522916E+01 -0.22833058230E+01  0.12949214287E+01  0.29708399362E+01  0.00000000000E+00 0. -1.
</event>
<event>
 8    1  0.3480646E-009  0.9118800E+02  0.7816164E-02  0.1184000E+00
        -11   -1    0    0    0    0  0.00000000000E+00  0.00000000000E+00  0.45593999997E+02  0.45594000000E+02  0.51100000000E-03 0. -1.
         11   -1    0    0    0    0 -0.00000000000E+00 -0.00000000000E+00 -0.45593999997E+02  0.45594000000E+02  0.51100000000E-03 0.  1.
         23    2    1    2    0    0 -0.35527136788E-14  0.00000000000E+00 -0.71054273576E-14  0.91188000000E+02  0.91188000000E+02 0.  0.
    9900012    2    3    3    0    0 -0.16865487536E+02 -0.15629034209E+02 -0.38735025012E+02  0.46142317157E+02  0.99999944879E+01 0.  0.
         12    1    3    3    0    0  0.16865487536E+02  0.15629034209E+02  0.38735025012E+02  0.45045682843E+02  0.00000000000E+00 0. -1.
         11    1    4    4    0    0  0.42838414460E+00 -0.52585024548E+00  0.36153716360E+00  0.76859666783E+00  0.51100000000E-03 0. -1.
        -11    1    4    4    0    0 -0.77043183534E+01 -0.73995888813E+01 -0.16779602248E+02  0.19891342055E+02  0.51100000000E-03 0.  1.
         12    1    4    4    0    0 -0.95895533269E+01 -0.77035950824E+01 -0.22316959928E+02  0.25482378434E+02  0.00000000000E+00 0. -1.
</event>
<event>
 8    1  0.2962813E-009  0.9118800E+02  0.7816164E-02  0.1184000E+00
        -11   -1    0    0    0    0  0.00000000000E+00  0.00000000000E+00  0.45593999997E+02  0.45594000000E+02  0.51100000000E-03 0. -1.
         11   -1    0    0    0    0 -0.00000000000E+00 -0.00000000000E+00 -0.45593999997E+02  0.45594000000E+02  0.51100000000E-03 0.  1.
         23    2    1    2    0    0 -0.35527136788E-14  0.35527136788E-14  0.00000000000E+00  0.91188000000E+02  0.91188000000E+02 0.  0.
    9900012    2    3    3    0    0 -0.20233026408E+02  0.27525936807E+02  0.29360873364E+02  0.46142318304E+02  0.10000004954E+02 0.  0.
        -12    1    3    3    0    0  0.20233026408E+02 -0.27525936807E+02 -0.29360873364E+02  0.45045681696E+02  0.00000000000E+00 0.  1.
         11    1    4    4    0    0 -0.81491162003E+00  0.55672043166E+01  0.35876682887E+01  0.66730209697E+01  0.51100000000E-03 0. -1.
        -11    1    4    4    0    0 -0.18194998227E+02  0.18106294282E+02  0.20653508717E+02  0.32946369689E+02  0.51100000000E-03 0.  1.
         12    1    4    4    0    0 -0.12231165612E+01  0.38524382086E+01  0.51196963574E+01  0.65229276453E+01  0.00000000000E+00 0. -1.
</event>
<event>
 8    1  0.2962813E-009  0.9118800E+02  0.7816164E-02  0.1184000E+00
        -11   -1    0    0    0    0  0.00000000000E+00  0.00000000000E+00  0.45593999997E+02  0.45594000000E+02  0.51100000000E-03 0. -1.
         11   -1    0    0    0    0 -0.00000000000E+00 -0.00000000000E+00 -0.45593999997E+02  0.45594000000E+02  0.51100000000E-03 0.  1.
         23    2    1    2    0    0  0.35527136788E-14  0.00000000000E+00  0.00000000000E+00  0.91188000000E+02  0.91188000000E+02 0.  0.
    9900012    2    3    3    0    0  0.29146345168E+02 -0.17458556300E+02 -0.29577080452E+02  0.46142308610E+02  0.99999165510E+01 0.  0.
         12    1    3    3    0    0 -0.29146345168E+02  0.17458556300E+02  0.29577080452E+02  0.45045691390E+02  0.00000000000E+00 0. -1.
         11    1    4    4    0    0  0.37311389440E+00 -0.17785219144E+00  0.70339917451E+00  0.81585295245E+00  0.51100000000E-03 0. -1.
        -11    1    4    4    0    0  0.10549789887E+02 -0.64558139722E+01 -0.13348963535E+02  0.18198088593E+02  0.51100000000E-03 0.  1.
         12    1    4    4    0    0  0.18223441386E+02 -0.10824890136E+02 -0.16931516092E+02  0.27128367065E+02  0.00000000000E+00 0. -1.
</event>
<event>
 8    1  0.2962813E-009  0.9118800E+02  0.7816164E-02  0.1184000E+00
        -11   -1    0    0    0    0  0.00000000000E+00  0.00000000000E+00  0.45593999997E+02  0.45594000000E+02  0.51100000000E-03 0. -1.
         11   -1    0    0    0    0 -0.00000000000E+00 -0.00000000000E+00 -0.45593999997E+02  0.45594000000E+02  0.51100000000E-03 0.  1.
         23    2    1    2    0    0 -0.71054273576E-14  0.33306690739E-15  0.00000000000E+00  0.91188000000E+02  0.91188000000E+02 0.  0.
    9900012    2    3    3    0    0  0.32873146963E+02 -0.35852407774E+00 -0.30795151998E+02  0.46142315220E+02  0.99999768266E+01 0.  0.
         12    1    3    3    0    0 -0.32873146963E+02  0.35852407774E+00  0.30795151998E+02  0.45045684780E+02  0.00000000000E+00 0. -1.
         11    1    4    4    0    0  0.44509254281E+01  0.26377085201E+01 -0.56803869182E+01  0.76834262673E+01  0.51100000000E-03 0. -1.
        -11    1    4    4    0    0  0.98324868956E+01 -0.31354716172E+01 -0.11257628680E+02  0.15272301221E+02  0.51100000000E-03 0.  1.
        -12    1    4    4    0    0  0.18589734639E+02  0.13923901942E+00 -0.13857136399E+02  0.23186587732E+02  0.00000000000E+00 0.  1.
</event>
<event>
 8    1  0.2962813E-009  0.9118800E+02  0.7816164E-02  0.1184000E+00
        -11   -1    0    0    0    0  0.00000000000E+00  0.00000000000E+00  0.45593999997E+02  0.45594000000E+02  0.51100000000E-03 0. -1.
         11   -1    0    0    0    0 -0.00000000000E+00 -0.00000000000E+00 -0.45593999997E+02  0.45594000000E+02  0.51100000000E-03 0.  1.
         23    2    1    2    0    0  0.00000000000E+00  0.44408920985E-15 -0.35527136788E-14  0.91188000000E+02  0.91188000000E+02 0.  0.
    9900012    2    3    3    0    0  0.36463581024E+02 -0.31576705904E+01  0.26259282270E+02  0.46142317299E+02  0.99999957884E+01 0.  0.
        -12    1    3    3    0    0 -0.36463581024E+02  0.31576705904E+01 -0.26259282270E+02  0.45045682701E+02  0.00000000000E+00 0.  1.
         11    1    4    4    0    0  0.64438623768E+01 -0.74600299914E+00  0.41679096387E+01  0.77104704022E+01  0.51100000000E-03 0. -1.
        -11    1    4    4    0    0  0.28657826743E+02 -0.30075374673E+01  0.22838255404E+02  0.36768223039E+02  0.51100000000E-03 0.  1.
        -12    1    4    4    0    0  0.13618919034E+01  0.59586987599E+00 -0.74688277244E+00  0.16636238582E+01  0.00000000000E+00 0.  1.
</event>
<event>
 8    1  0.2962813E-009  0.9118800E+02  0.7816164E-02  0.1184000E+00
        -11   -1    0    0    0    0  0.00000000000E+00  0.00000000000E+00  0.45593999997E+02  0.45594000000E+02  0.51100000000E-03 0. -1.
         11   -1    0    0    0    0 -0.00000000000E+00 -0.00000000000E+00 -0.45593999997E+02  0.45594000000E+02  0.51100000000E-03 0.  1.
         23    2    1    2    0    0  0.71054273576E-14  0.00000000000E+00  0.71054273576E-14  0.91188000000E+02  0.91188000000E+02 0.  0.
    9900012    2    3    3    0    0  0.26328744222E+02 -0.10419038874E+02  0.35033618475E+02  0.46142316890E+02  0.99999920548E+01 0.  0.
        -12    1    3    3    0    0 -0.26328744222E+02  0.10419038874E+02 -0.35033618475E+02  0.45045683110E+02  0.00000000000E+00 0.  1.
         11    1    4    4    0    0  0.54640015151E+01 -0.12467654990E+01  0.11806295158E+02  0.13068983985E+02  0.51100000000E-03 0. -1.
        -11    1    4    4    0    0  0.15838342474E+02 -0.95634521732E+01  0.18123774746E+02  0.25899496542E+02  0.51100000000E-03 0.  1.
         12    1    4    4    0    0  0.50264002330E+01  0.39117879795E+00  0.51035485706E+01  0.71738363633E+01  0.00000000000E+00 0. -1.
</event>
<event>
 8    1  0.2962813E-009  0.9118800E+02  0.7816164E-02  0.1184000E+00
        -11   -1    0    0    0    0  0.00000000000E+00  0.00000000000E+00  0.45593999997E+02  0.45594000000E+02  0.51100000000E-03 0. -1.
         11   -1    0    0    0    0 -0.00000000000E+00 -0.00000000000E+00 -0.45593999997E+02  0.45594000000E+02  0.51100000000E-03 0.  1.
         23    2    1    2    0    0  0.00000000000E+00  0.00000000000E+00  0.88817841970E-15  0.91188000000E+02  0.91188000000E+02 0.  0.
    9900012    2    3    3    0    0 -0.19412121354E+02  0.39988461679E+02 -0.72942012817E+01  0.46142324345E+02  0.10000060032E+02 0.  0.
        -12    1    3    3    0    0  0.19412121354E+02 -0.39988461679E+02  0.72942012817E+01  0.45045675655E+02  0.00000000000E+00 0.  1.
         11    1    4    4    0    0 -0.47497541345E+01  0.11452303444E+02  0.22815370574E+01  0.12606380532E+02  0.51100000000E-03 0. -1.
        -11    1    4    4    0    0 -0.78810042313E+01  0.13830310794E+02 -0.40531522390E+01  0.16426069757E+02  0.51100000000E-03 0.  1.
         12    1    4    4    0    0 -0.67813629883E+01  0.14705847442E+02 -0.55225861001E+01  0.17109874055E+02  0.00000000000E+00 0. -1.
</event>
<event>
 8    1  0.2962813E-009  0.9118800E+02  0.7816164E-02  0.1184000E+00
        -11   -1    0    0    0    0  0.00000000000E+00  0.00000000000E+00  0.45593999997E+02  0.45594000000E+02  0.51100000000E-03 0. -1.
         11   -1    0    0    0    0 -0.00000000000E+00 -0.00000000000E+00 -0.45593999997E+02  0.45594000000E+02  0.51100000000E-03 0.  1.
         23    2    1    2    0    0  0.00000000000E+00  0.00000000000E+00  0.00000000000E+00  0.91188000000E+02  0.91188000000E+02 0.  0.
    9900012    2    3    3    0    0 -0.26779770296E+02  0.19859936973E+02  0.30290925916E+02  0.46142318892E+02  0.10000010309E+02 0.  0.
        -12    1    3    3    0    0  0.26779770296E+02 -0.19859936973E+02 -0.30290925916E+02  0.45045681108E+02  0.00000000000E+00 0.  1.
         11    1    4    4    0    0 -0.93486168645E+01  0.10680830554E+02  0.83875851496E+01  0.16487218186E+02  0.51100000000E-03 0. -1.
        -11    1    4    4    0    0 -0.34018203018E+01  0.33981483662E+01  0.56709329150E+01  0.74350033000E+01  0.51100000000E-03 0.  1.
         12    1    4    4    0    0 -0.14029333130E+02  0.57809580526E+01  0.16232407852E+02  0.22220097406E+02  0.00000000000E+00 0. -1.
</event>
<event>
 8    1  0.2962813E-009  0.9118800E+02  0.7816164E-02  0.1184000E+00
        -11   -1    0    0    0    0  0.00000000000E+00  0.00000000000E+00  0.45593999997E+02  0.45594000000E+02  0.51100000000E-03 0. -1.
         11   -1    0    0    0    0 -0.00000000000E+00 -0.00000000000E+00 -0.45593999997E+02  0.45594000000E+02  0.51100000000E-03 0.  1.
         23    2    1    2    0    0  0.00000000000E+00  0.00000000000E+00  0.00000000000E+00  0.91188000000E+02  0.91188000000E+02 0.  0.
    9900012    2    3    3    0    0  0.36695620641E+02  0.16769099679E+02  0.20033525564E+02  0.46142318467E+02  0.10000006433E+02 0.  0.
        -12    1    3    3    0    0 -0.36695620641E+02 -0.16769099679E+02 -0.20033525564E+02  0.45045681533E+02  0.00000000000E+00 0.  1.
         11    1    4    4    0    0  0.29015378257E+02  0.15846193979E+02  0.12635341235E+02  0.35392737777E+02  0.51100000000E-03 0. -1.
        -11    1    4    4    0    0  0.43191964392E+01  0.32963874198E+00  0.35049685315E+01  0.55721561579E+01  0.51100000000E-03 0.  1.
         12    1    4    4    0    0  0.33610459454E+01  0.59326695823E+00  0.38932157976E+01  0.51774245313E+01  0.00000000000E+00 0. -1.
</event>
<event>
 8    1  0.2962813E-009  0.9118800E+02  0.7816164E-02  0.1184000E+00
        -11   -1    0    0    0    0  0.00000000000E+00  0.00000000000E+00  0.45593999997E+02  0.45594000000E+02  0.51100000000E-03 0. -1.
         11   -1    0    0    0    0 -0.00000000000E+00 -0.00000000000E+00 -0.45593999997E+02  0.45594000000E+02  0.51100000000E-03 0.  1.
         23    2    1    2    0    0  0.88817841970E-15  0.00000000000E+00  0.00000000000E+00  0.91188000000E+02  0.91188000000E+02 0.  0.
    9900012    2    3    3    0    0 -0.56023961780E+01  0.35400542472E+02 -0.27286039188E+02  0.46142321130E+02  0.10000030724E+02 0.  0.
         12    1    3    3    0    0  0.56023961780E+01 -0.35400542472E+02  0.27286039188E+02  0.45045678870E+02  0.00000000000E+00 0. -1.
         11    1    4    4    0    0  0.63070959539E+00  0.30135471102E+01 -0.11261445424E+01  0.32783322849E+01  0.51100000000E-03 0. -1.
        -11    1    4    4    0    0  0.39663986890E+00  0.14438173686E+02 -0.14451107211E+02  0.20431658828E+02  0.51100000000E-03 0.  1.
        -12    1    4    4    0    0 -0.66297456423E+01  0.17948821675E+02 -0.11708787435E+02  0.22432330017E+02  0.00000000000E+00 0.  1.
</event>
<event>
 8    1  0.2962813E-009  0.9118800E+02  0.7816164E-02  0.1184000E+00
        -11   -1    0    0    0    0  0.00000000000E+00  0.00000000000E+00  0.45593999997E+02  0.45594000000E+02  0.51100000000E-03 0. -1.
         11   -1    0    0    0    0 -0.00000000000E+00 -0.00000000000E+00 -0.45593999997E+02  0.45594000000E+02  0.51100000000E-03 0.  1.
         23    2    1    2    0    0  0.00000000000E+00  0.00000000000E+00  0.00000000000E+00  0.91188000000E+02  0.91188000000E+02 0.  0.
    9900012    2    3    3    0    0  0.22932918404E+02 -0.95091742161E+01  0.37586838328E+02  0.46142317008E+02  0.99999931299E+01 0.  0.
        -12    1    3    3    0    0 -0.22932918404E+02  0.95091742161E+01 -0.37586838328E+02  0.45045682992E+02  0.00000000000E+00 0.  1.
         11    1    4    4    0    0  0.10105181721E+02 -0.26261879470E+01  0.23086107161E+02  0.25337322370E+02  0.51100000000E-03 0. -1.
        -11    1    4    4    0    0  0.16432683273E+01 -0.10778862849E+01  0.62721304067E+00  0.20629023482E+01  0.51100000000E-03 0.  1.
         12    1    4    4    0    0  0.11184468355E+02 -0.58050999842E+01  0.13873518126E+02  0.18742092290E+02  0.00000000000E+00 0. -1.
</event>
<event>
 8    1  0.2962813E-009  0.9118800E+02  0.7816164E-02  0.1184000E+00
        -11   -1    0    0    0    0  0.00000000000E+00  0.00000000000E+00  0.45593999997E+02  0.45594000000E+02  0.51100000000E-03 0. -1.
         11   -1    0    0    0    0 -0.00000000000E+00 -0.00000000000E+00 -0.45593999997E+02  0.45594000000E+02  0.51100000000E-03 0.  1.
         23    2    1    2    0    0 -0.35527136788E-14 -0.35527136788E-14  0.00000000000E+00  0.91188000000E+02  0.91188000000E+02 0.  0.
    9900012    2    3    3    0    0  0.24083294730E+02  0.26530611113E+02  0.27298994353E+02  0.46142317591E+02  0.99999984452E+01 0.  0.
        -12    1    3    3    0    0 -0.24083294730E+02 -0.26530611113E+02 -0.27298994353E+02  0.45045682409E+02  0.00000000000E+00 0.  1.
         11    1    4    4    0    0  0.12611299902E+02  0.14350901221E+02  0.17275582475E+02  0.25757309666E+02  0.51100000000E-03 0. -1.
        -11    1    4    4    0    0  0.59433334018E+01  0.22451778649E+01  0.30495905211E+01  0.70472716832E+01  0.51100000000E-03 0.  1.
         12    1    4    4    0    0  0.55286614258E+01  0.99345320261E+01  0.69738213563E+01  0.13337736241E+02  0.00000000000E+00 0. -1.
</event>
<event>
 8    1  0.2962813E-009  0.9118800E+02  0.7816164E-02  0.1184000E+00
        -11   -1    0    0    0    0  0.00000000000E+00  0.00000000000E+00  0.45593999997E+02  0.45594000000E+02  0.51100000000E-03 0. -1.
         11   -1    0    0    0    0 -0.00000000000E+00 -0.00000000000E+00 -0.45593999997E+02  0.45594000000E+02  0.51100000000E-03 0.  1.
         23    2    1    2    0    0 -0.35527136788E-14  0.00000000000E+00  0.35527136788E-14  0.91188000000E+02  0.91188000000E+02 0.  0.
    9900012    2    3    3    0    0  0.18841087888E+02  0.35842316593E+02  0.19734618635E+02  0.46142318473E+02  0.10000006489E+02 0.  0.
        -12    1    3    3    0    0 -0.18841087888E+02 -0.35842316593E+02 -0.19734618635E+02  0.45045681527E+02  0.00000000000E+00 0.  1.
         11    1    4    4    0    0  0.11857269683E+02  0.19695947302E+02  0.83385558097E+01  0.24455197765E+02  0.51100000000E-03 0. -1.
        -11    1    4    4    0    0  0.29367042368E+01  0.12708958235E+02  0.70611217060E+01  0.14832440500E+02  0.51100000000E-03 0.  1.
        -12    1    4    4    0    0  0.40471139679E+01  0.34374110570E+01  0.43349411195E+01  0.68546802080E+01  0.00000000000E+00 0.  1.
</event>
<event>
 8    1  0.2962813E-009  0.9118800E+02  0.7816164E-02  0.1184000E+00
        -11   -1    0    0    0    0  0.00000000000E+00  0.00000000000E+00  0.45593999997E+02  0.45594000000E+02  0.51100000000E-03 0.  1.
         11   -1    0    0    0    0 -0.00000000000E+00 -0.00000000000E+00 -0.45593999997E+02  0.45594000000E+02  0.51100000000E-03 0. -1.
         23    2    1    2    0    0  0.00000000000E+00  0.44408920985E-15 -0.35527136788E-14  0.91188000000E+02  0.91188000000E+02 0.  0.
    9900012    2    3    3    0    0 -0.40398803105E+02 -0.38310672974E+01  0.19554362248E+02  0.46142318166E+02  0.10000003692E+02 0.  0.
         12    1    3    3    0    0  0.40398803105E+02  0.38310672974E+01 -0.19554362248E+02  0.45045681834E+02  0.00000000000E+00 0. -1.
         11    1    4    4    0    0 -0.27650102001E+01  0.23743436291E+00  0.22226417744E+01  0.35555299467E+01  0.51100000000E-03 0.  1.
        -11    1    4    4    0    0 -0.17299428205E+02 -0.38981012824E+01  0.12469730378E+02  0.21678551285E+02  0.51100000000E-03 0. -1.
        -12    1    4    4    0    0 -0.20334364700E+02 -0.17040037790E+00  0.48619900956E+01  0.20908236935E+02  0.00000000000E+00 0.  1.
</event>
<event>
 8    1  0.2962813E-009  0.9118800E+02  0.7816164E-02  0.1184000E+00
        -11   -1    0    0    0    0  0.00000000000E+00  0.00000000000E+00  0.45593999997E+02  0.45594000000E+02  0.51100000000E-03 0. -1.
         11   -1    0    0    0    0 -0.00000000000E+00 -0.00000000000E+00 -0.45593999997E+02  0.45594000000E+02  0.51100000000E-03 0.  1.
         23    2    1    2    0    0  0.00000000000E+00  0.00000000000E+00  0.00000000000E+00  0.91188000000E+02  0.91188000000E+02 0.  0.
    9900012    2    3    3    0    0 -0.17516984960E+02 -0.50927166522E+01  0.41186561285E+02  0.46142319236E+02  0.10000013451E+02 0.  0.
        -12    1    3    3    0    0  0.17516984960E+02  0.50927166522E+01 -0.41186561285E+02  0.45045680764E+02  0.00000000000E+00 0.  1.
         11    1    4    4    0    0 -0.37913823107E+01 -0.20731653384E+01  0.17313288295E+02  0.17844398174E+02  0.51100000000E-03 0. -1.
        -11    1    4    4    0    0 -0.26290758369E+01  0.16955874218E+01  0.53021249095E+01  0.61562639058E+01  0.51100000000E-03 0.  1.
        -12    1    4    4    0    0 -0.11096526813E+02 -0.47151387356E+01  0.18571148081E+02  0.22141657157E+02  0.00000000000E+00 0.  1.
</event>
<event>
 8    1  0.2962813E-009  0.9118800E+02  0.7816164E-02  0.1184000E+00
        -11   -1    0    0    0    0  0.00000000000E+00  0.00000000000E+00  0.45593999997E+02  0.45594000000E+02  0.51100000000E-03 0. -1.
         11   -1    0    0    0    0 -0.00000000000E+00 -0.00000000000E+00 -0.45593999997E+02  0.45594000000E+02  0.51100000000E-03 0.  1.
         23    2    1    2    0    0  0.00000000000E+00  0.00000000000E+00  0.00000000000E+00  0.91188000000E+02  0.91188000000E+02 0.  0.
    9900012    2    3    3    0    0 -0.27089880570E+02  0.13427745675E+02  0.33390831419E+02  0.46142316455E+02  0.99999880885E+01 0.  0.
        -12    1    3    3    0    0  0.27089880570E+02 -0.13427745675E+02 -0.33390831419E+02  0.45045683545E+02  0.00000000000E+00 0.  1.
         11    1    4    4    0    0 -0.23240471665E+02  0.12073797105E+02  0.28770693816E+02  0.38905641270E+02  0.51100000000E-03 0. -1.
        -11    1    4    4    0    0 -0.17042392097E+01 -0.12566091033E+01  0.23648625020E+01  0.31742830114E+01  0.51100000000E-03 0.  1.
         12    1    4    4    0    0 -0.21451696955E+01  0.26105576736E+01  0.22552751015E+01  0.40623921737E+01  0.00000000000E+00 0. -1.
</event>
<event>
 8    1  0.2962813E-009  0.9118800E+02  0.7816164E-02  0.1184000E+00
        -11   -1    0    0    0    0  0.00000000000E+00  0.00000000000E+00  0.45593999997E+02  0.45594000000E+02  0.51100000000E-03 0.  1.
         11   -1    0    0    0    0 -0.00000000000E+00 -0.00000000000E+00 -0.45593999997E+02  0.45594000000E+02  0.51100000000E-03 0. -1.
         23    2    1    2    0    0 -0.71054273576E-14 -0.71054273576E-14  0.17763568394E-14  0.91188000000E+02  0.91188000000E+02 0.  0.
    9900012    2    3    3    0    0  0.26149359265E+02  0.35920862771E+02 -0.74172855591E+01  0.46142317662E+02  0.99999990976E+01 0.  0.
         12    1    3    3    0    0 -0.26149359265E+02 -0.35920862771E+02  0.74172855591E+01  0.45045682338E+02  0.00000000000E+00 0. -1.
         11    1    4    4    0    0  0.71199813054E+01  0.46482205342E+01  0.10039924600E+01  0.85620143100E+01  0.51100000000E-03 0. -1.
        -11    1    4    4    0    0  0.11755225733E+02  0.20312566154E+02 -0.55562879811E+01  0.24117587196E+02  0.51100000000E-03 0.  1.
         12    1    4    4    0    0  0.72741522268E+01  0.10960076083E+02 -0.28649900380E+01  0.13462716156E+02  0.00000000000E+00 0. -1.
</event>
<event>
 8    1  0.2962813E-009  0.9118800E+02  0.7816164E-02  0.1184000E+00
        -11   -1    0    0    0    0  0.00000000000E+00  0.00000000000E+00  0.45593999997E+02  0.45594000000E+02  0.51100000000E-03 0. -1.
         11   -1    0    0    0    0 -0.00000000000E+00 -0.00000000000E+00 -0.45593999997E+02  0.45594000000E+02  0.51100000000E-03 0.  1.
         23    2    1    2    0    0  0.00000000000E+00  0.17763568394E-14  0.71054273576E-14  0.91188000000E+02  0.91188000000E+02 0.  0.
    9900012    2    3    3    0    0 -0.25361898634E+02  0.13559315763E+02  0.34670340008E+02  0.46142318491E+02  0.10000006659E+02 0.  0.
        -12    1    3    3    0    0  0.25361898634E+02 -0.13559315763E+02 -0.34670340008E+02  0.45045681509E+02  0.00000000000E+00 0.  1.
         11    1    4    4    0    0 -0.19815111472E+02  0.11612543123E+02  0.25016170833E+02  0.33960250349E+02  0.51100000000E-03 0. -1.
        -11    1    4    4    0    0 -0.86689744119E+00  0.40575236255E+00  0.59276827124E+01  0.60044624034E+01  0.51100000000E-03 0.  1.
         12    1    4    4    0    0 -0.46798897213E+01  0.15410202780E+01  0.37264864631E+01  0.61776057385E+01  0.00000000000E+00 0. -1.
</event>
<event>
 8    1  0.2962813E-009  0.9118800E+02  0.7816164E-02  0.1184000E+00
        -11   -1    0    0    0    0  0.00000000000E+00  0.00000000000E+00  0.45593999997E+02  0.45594000000E+02  0.51100000000E-03 0. -1.
         11   -1    0    0    0    0 -0.00000000000E+00 -0.00000000000E+00 -0.45593999997E+02  0.45594000000E+02  0.51100000000E-03 0.  1.
         23    2    1    2    0    0  0.17763568394E-14  0.17763568394E-14  0.71054273576E-14  0.91188000000E+02  0.91188000000E+02 0.  0.
    9900012    2    3    3    0    0 -0.75279624297E+01 -0.98958117540E+01 -0.43295683538E+02  0.46142317392E+02  0.99999966304E+01 0.  0.
         12    1    3    3    0    0  0.75279624297E+01  0.98958117540E+01  0.43295683538E+02  0.45045682608E+02  0.00000000000E+00 0. -1.
         11    1    4    4    0    0 -0.16571160132E+01 -0.38277132975E+01 -0.36286466452E+01  0.55285169174E+01  0.51100000000E-03 0. -1.
        -11    1    4    4    0    0 -0.54323017911E+01 -0.44467350306E+01 -0.32998717264E+02  0.33737200484E+02  0.51100000000E-03 0.  1.
         12    1    4    4    0    0 -0.43854462537E+00 -0.16213634259E+01 -0.66683196291E+01  0.68765999901E+01  0.00000000000E+00 0. -1.
</event>
<event>
 8    1  0.2962813E-009  0.9118800E+02  0.7816164E-02  0.1184000E+00
        -11   -1    0    0    0    0  0.00000000000E+00  0.00000000000E+00  0.45593999997E+02  0.45594000000E+02  0.51100000000E-03 0. -1.
         11   -1    0    0    0    0 -0.00000000000E+00 -0.00000000000E+00 -0.45593999997E+02  0.45594000000E+02  0.51100000000E-03 0.  1.
         23    2    1    2    0    0  0.00000000000E+00 -0.17763568394E-14  0.00000000000E+00  0.91188000000E+02  0.91188000000E+02 0.  0.
    9900012    2    3    3    0    0  0.81854253318E+01  0.83536611592E+01  0.43500902791E+02  0.46142318895E+02  0.10000010339E+02 0.  0.
        -12    1    3    3    0    0 -0.81854253318E+01 -0.83536611592E+01 -0.43500902791E+02  0.45045681105E+02  0.00000000000E+00 0.  1.
         11    1    4    4    0    0 -0.30547329313E+00  0.36600707420E+01  0.23658770265E+02  0.23942156179E+02  0.51100000000E-03 0. -1.
        -11    1    4    4    0    0  0.75817829303E+00  0.26905488087E+00  0.34591838570E+01  0.35515036351E+01  0.51100000000E-03 0.  1.
         12    1    4    4    0    0  0.77327203319E+01  0.44245355363E+01  0.16382948668E+02  0.18648659081E+02  0.00000000000E+00 0. -1.
</event>
<event>
 8    1  0.3372919E-009  0.9118800E+02  0.7816164E-02  0.1184000E+00
        -11   -1    0    0    0    0  0.00000000000E+00  0.00000000000E+00  0.45593999997E+02  0.45594000000E+02  0.51100000000E-03 0. -1.
         11   -1    0    0    0    0 -0.00000000000E+00 -0.00000000000E+00 -0.45593999997E+02  0.45594000000E+02  0.51100000000E-03 0.  1.
         23    2    1    2    0    0  0.35527136788E-14  0.44408920985E-15  0.00000000000E+00  0.91188000000E+02  0.91188000000E+02 0.  0.
    9900012    2    3    3    0    0 -0.25332123310E+02 -0.37794388563E+01 -0.37055537634E+02  0.46142317646E+02  0.99999989471E+01 0.  0.
         12    1    3    3    0    0  0.25332123310E+02  0.37794388563E+01  0.37055537634E+02  0.45045682354E+02  0.00000000000E+00 0. -1.
         11    1    4    4    0    0  0.81445281848E-01 -0.10358552038E+01 -0.39970142384E+01  0.41298610655E+01  0.51100000000E-03 0. -1.
        -11    1    4    4    0    0 -0.24692642778E+02 -0.32255126038E+01 -0.30895084589E+02  0.39681693398E+02  0.51100000000E-03 0.  1.
        -12    1    4    4    0    0 -0.72092581408E+00  0.48192895136E+00 -0.21634388063E+01  0.23307631824E+01  0.00000000000E+00 0.  1.
</event>
<event>
 8    1  0.2962813E-009  0.9118800E+02  0.7816164E-02  0.1184000E+00
        -11   -1    0    0    0    0  0.00000000000E+00  0.00000000000E+00  0.45593999997E+02  0.45594000000E+02  0.51100000000E-03 0. -1.
         11   -1    0    0    0    0 -0.00000000000E+00 -0.00000000000E+00 -0.45593999997E+02  0.45594000000E+02  0.51100000000E-03 0.  1.
         23    2    1    2    0    0  0.00000000000E+00  0.35527136788E-14  0.00000000000E+00  0.91188000000E+02  0.91188000000E+02 0.  0.
    9900012    2    3    3    0    0 -0.60218673073E+01  0.27698898995E+02  0.35008878110E+02  0.46142318321E+02  0.10000005108E+02 0.  0.
        -12    1    3    3    0    0  0.60218673073E+01 -0.27698898995E+02 -0.35008878110E+02  0.45045681679E+02  0.00000000000E+00 0.  1.
         11    1    4    4    0    0 -0.45725824028E+01  0.13795587346E+02  0.23994190163E+02  0.28052591714E+02  0.51100000000E-03 0. -1.
        -11    1    4    4    0    0 -0.40130360670E+00  0.56254837626E+01  0.25024386764E+01  0.61700333661E+01  0.51100000000E-03 0.  1.
        -12    1    4    4    0    0 -0.10479812977E+01  0.82778278869E+01  0.85122492706E+01  0.11919693241E+02  0.00000000000E+00 0.  1.
</event>
<event>
 8    1  0.2962813E-009  0.9118800E+02  0.7816164E-02  0.1184000E+00
        -11   -1    0    0    0    0  0.00000000000E+00  0.00000000000E+00  0.45593999997E+02  0.45594000000E+02  0.51100000000E-03 0.  1.
         11   -1    0    0    0    0 -0.00000000000E+00 -0.00000000000E+00 -0.45593999997E+02  0.45594000000E+02  0.51100000000E-03 0. -1.
         23    2    1    2    0    0  0.00000000000E+00  0.00000000000E+00  0.00000000000E+00  0.91188000000E+02  0.91188000000E+02 0.  0.
    9900012    2    3    3    0    0 -0.24885695812E+02 -0.35826406341E+02  0.11237624795E+02  0.46142318093E+02  0.10000003030E+02 0.  0.
        -12    1    3    3    0    0  0.24885695812E+02  0.35826406341E+02 -0.11237624795E+02  0.45045681907E+02  0.00000000000E+00 0.  1.
         11    1    4    4    0    0 -0.42074504364E+01 -0.43264245758E+01  0.42450576027E+01  0.73784214502E+01  0.51100000000E-03 0. -1.
        -11    1    4    4    0    0 -0.10121593400E+02 -0.13859344381E+02  0.37129728624E+00  0.17165836465E+02  0.51100000000E-03 0.  1.
        -12    1    4    4    0    0 -0.10556651976E+02 -0.17640637385E+02  0.66212699057E+01  0.21598060178E+02  0.00000000000E+00 0.  1.
</event>
<event>
 8    1  0.2962813E-009  0.9118800E+02  0.7816164E-02  0.1184000E+00
        -11   -1    0    0    0    0  0.00000000000E+00  0.00000000000E+00  0.45593999997E+02  0.45594000000E+02  0.51100000000E-03 0. -1.
         11   -1    0    0    0    0 -0.00000000000E+00 -0.00000000000E+00 -0.45593999997E+02  0.45594000000E+02  0.51100000000E-03 0.  1.
         23    2    1    2    0    0 -0.35527136788E-14  0.35527136788E-14  0.14210854715E-13  0.91188000000E+02  0.91188000000E+02 0.  0.
    9900012    2    3    3    0    0  0.12872078651E+02 -0.17096740901E+02 -0.39637412285E+02  0.46142318621E+02  0.10000007844E+02 0.  0.
         12    1    3    3    0    0 -0.12872078651E+02  0.17096740901E+02  0.39637412285E+02  0.45045681379E+02  0.00000000000E+00 0. -1.
         11    1    4    4    0    0  0.12865439254E+02 -0.12342388191E+02 -0.28576931671E+02  0.33682266810E+02  0.51100000000E-03 0. -1.
        -11    1    4    4    0    0  0.64007339246E+00 -0.50047579405E+01 -0.99773402144E+01  0.11180546230E+02  0.51100000000E-03 0.  1.
         12    1    4    4    0    0 -0.63343399623E+00  0.25040523054E+00 -0.10831404001E+01  0.12795055816E+01  0.00000000000E+00 0. -1.
</event>
<event>
 8    1  0.2962813E-009  0.9118800E+02  0.7816164E-02  0.1184000E+00
        -11   -1    0    0    0    0  0.00000000000E+00  0.00000000000E+00  0.45593999997E+02  0.45594000000E+02  0.51100000000E-03 0. -1.
         11   -1    0    0    0    0 -0.00000000000E+00 -0.00000000000E+00 -0.45593999997E+02  0.45594000000E+02  0.51100000000E-03 0.  1.
         23    2    1    2    0    0  0.00000000000E+00  0.00000000000E+00  0.00000000000E+00  0.91188000000E+02  0.91188000000E+02 0.  0.
    9900012    2    3    3    0    0  0.37816579328E+02  0.18487489408E+02  0.16038472381E+02  0.46142317266E+02  0.99999954841E+01 0.  0.
        -12    1    3    3    0    0 -0.37816579328E+02 -0.18487489408E+02 -0.16038472381E+02  0.45045682734E+02  0.00000000000E+00 0.  1.
         11    1    4    4    0    0  0.11424527380E+02  0.48445492524E+01  0.56923375849E+01  0.13652552536E+02  0.51100000000E-03 0. -1.
        -11    1    4    4    0    0  0.10874173312E+02  0.13230665745E+01  0.43766427878E+01  0.11796319457E+02  0.51100000000E-03 0.  1.
        -12    1    4    4    0    0  0.15517878636E+02  0.12319873581E+02  0.59694920084E+01  0.20693445272E+02  0.00000000000E+00 0.  1.
</event>
<event>
 8    1  0.2962821E-009  0.9118800E+02  0.7816164E-02  0.1184000E+00
        -11   -1    0    0    0    0  0.00000000000E+00  0.00000000000E+00  0.45593999997E+02  0.45594000000E+02  0.51100000000E-03 0. -1.
         11   -1    0    0    0    0 -0.00000000000E+00 -0.00000000000E+00 -0.45593999997E+02  0.45594000000E+02  0.51100000000E-03 0.  1.
         23    2    1    2    0    0 -0.35527136788E-14  0.00000000000E+00 -0.35527136788E-14  0.91188000000E+02  0.91188000000E+02 0.  0.
    9900012    2    3    3    0    0 -0.23658927321E+02  0.22968609588E+02 -0.30688950154E+02  0.46142317300E+02  0.99999957917E+01 0.  0.
         12    1    3    3    0    0  0.23658927321E+02 -0.22968609588E+02  0.30688950154E+02  0.45045682700E+02  0.00000000000E+00 0. -1.
         11    1    4    4    0    0 -0.12894007998E+02  0.98600603268E+01 -0.10021757110E+02  0.19076473671E+02  0.51100000000E-03 0. -1.
        -11    1    4    4    0    0 -0.74577926479E+01  0.78136893830E+01 -0.10075076352E+02  0.14770903043E+02  0.51100000000E-03 0.  1.
         12    1    4    4    0    0 -0.33071266751E+01  0.52948598786E+01 -0.10592116692E+02  0.12294940585E+02  0.00000000000E+00 0. -1.
</event>
<event>
 8    1  0.2962813E-009  0.9118800E+02  0.7816164E-02  0.1184000E+00
        -11   -1    0    0    0    0  0.00000000000E+00  0.00000000000E+00  0.45593999997E+02  0.45594000000E+02  0.51100000000E-03 0. -1.
         11   -1    0    0    0    0 -0.00000000000E+00 -0.00000000000E+00 -0.45593999997E+02  0.45594000000E+02  0.51100000000E-03 0.  1.
         23    2    1    2    0    0  0.00000000000E+00  0.00000000000E+00  0.00000000000E+00  0.91188000000E+02  0.91188000000E+02 0.  0.
    9900012    2    3    3    0    0 -0.90300330476E+01 -0.12614793987E+02 -0.42289934518E+02  0.46142322231E+02  0.10000040756E+02 0.  0.
         12    1    3    3    0    0  0.90300330476E+01  0.12614793987E+02  0.42289934518E+02  0.45045677769E+02  0.00000000000E+00 0. -1.
         11    1    4    4    0    0 -0.21727920752E+01 -0.51304636783E+01 -0.74886784235E+01  0.93339695601E+01  0.51100000000E-03 0. -1.
        -11    1    4    4    0    0 -0.35782666032E+01 -0.27596821395E+01 -0.64236345998E+01  0.78538474092E+01  0.51100000000E-03 0.  1.
         12    1    4    4    0    0 -0.32789743691E+01 -0.47246481691E+01 -0.28377621495E+02  0.28954505261E+02  0.00000000000E+00 0. -1.
</event>
<event>
 8    1  0.2962813E-009  0.9118800E+02  0.7816164E-02  0.1184000E+00
        -11   -1    0    0    0    0  0.00000000000E+00  0.00000000000E+00  0.45593999997E+02  0.45594000000E+02  0.51100000000E-03 0. -1.
         11   -1    0    0    0    0 -0.00000000000E+00 -0.00000000000E+00 -0.45593999997E+02  0.45594000000E+02  0.51100000000E-03 0.  1.
         23    2    1    2    0    0  0.00000000000E+00  0.00000000000E+00  0.00000000000E+00  0.91188000000E+02  0.91188000000E+02 0.  0.
    9900012    2    3    3    0    0  0.94924417337E+01 -0.33520460071E+02 -0.28554959950E+02  0.46142318396E+02  0.10000005785E+02 0.  0.
         12    1    3    3    0    0 -0.94924417337E+01  0.33520460071E+02  0.28554959950E+02  0.45045681604E+02  0.00000000000E+00 0. -1.
         11    1    4    4    0    0  0.20647647415E+00 -0.94891605273E+01 -0.92151385163E+01  0.13228967389E+02  0.51100000000E-03 0. -1.
        -11    1    4    4    0    0  0.40906572029E+01 -0.17470218083E+02 -0.15478686492E+02  0.23696660777E+02  0.51100000000E-03 0.  1.
         12    1    4    4    0    0  0.51953080566E+01 -0.65610814606E+01 -0.38611349425E+01  0.92166902292E+01  0.00000000000E+00 0. -1.
</event>
<event>
 8    1  0.2962813E-009  0.9118800E+02  0.7816164E-02  0.1184000E+00
        -11   -1    0    0    0    0  0.00000000000E+00  0.00000000000E+00  0.45593999997E+02  0.45594000000E+02  0.51100000000E-03 0. -1.
         11   -1    0    0    0    0 -0.00000000000E+00 -0.00000000000E+00 -0.45593999997E+02  0.45594000000E+02  0.51100000000E-03 0.  1.
         23    2    1    2    0    0  0.00000000000E+00  0.00000000000E+00  0.00000000000E+00  0.91188000000E+02  0.91188000000E+02 0.  0.
    9900012    2    3    3    0    0 -0.90558043787E+01 -0.11371962558E+02  0.42635482525E+02  0.46142317682E+02  0.99999992771E+01 0.  0.
        -12    1    3    3    0    0  0.90558043787E+01  0.11371962558E+02 -0.42635482525E+02  0.45045682318E+02  0.00000000000E+00 0.  1.
         11    1    4    4    0    0 -0.67626928720E+01 -0.43565109831E+01  0.28572616486E+02  0.29683456940E+02  0.51100000000E-03 0. -1.
        -11    1    4    4    0    0 -0.13408595529E+00 -0.52024473441E+01  0.61369871984E+01  0.80464929967E+01  0.51100000000E-03 0.  1.
        -12    1    4    4    0    0 -0.21590255514E+01 -0.18130042306E+01  0.79258788409E+01  0.84123677447E+01  0.00000000000E+00 0.  1.
</event>
<event>
 8    1  0.2962813E-009  0.9118800E+02  0.7816164E-02  0.1184000E+00
        -11   -1    0    0    0    0  0.00000000000E+00  0.00000000000E+00  0.45593999997E+02  0.45594000000E+02  0.51100000000E-03 0. -1.
         11   -1    0    0    0    0 -0.00000000000E+00 -0.00000000000E+00 -0.45593999997E+02  0.45594000000E+02  0.51100000000E-03 0.  1.
         23    2    1    2    0    0  0.00000000000E+00 -0.71054273576E-14  0.00000000000E+00  0.91188000000E+02  0.91188000000E+02 0.  0.
    9900012    2    3    3    0    0  0.10393085991E+02 -0.37280637137E+02  0.23048890475E+02  0.46142317700E+02  0.99999994459E+01 0.  0.
        -12    1    3    3    0    0 -0.10393085991E+02  0.37280637137E+02 -0.23048890475E+02  0.45045682300E+02  0.00000000000E+00 0.  1.
         11    1    4    4    0    0  0.54269715809E+01 -0.19275555612E+02  0.13878994044E+02  0.24364431876E+02  0.51100000000E-03 0. -1.
        -11    1    4    4    0    0  0.51314261705E+01 -0.16837242789E+02  0.63345091351E+01  0.18706958211E+02  0.51100000000E-03 0.  1.
        -12    1    4    4    0    0 -0.16531176073E+00 -0.11678387362E+01  0.28353872958E+01  0.30709276138E+01  0.00000000000E+00 0.  1.
</event>
<event>
 8    1  0.2962813E-009  0.9118800E+02  0.7816164E-02  0.1184000E+00
        -11   -1    0    0    0    0  0.00000000000E+00  0.00000000000E+00  0.45593999997E+02  0.45594000000E+02  0.51100000000E-03 0. -1.
         11   -1    0    0    0    0 -0.00000000000E+00 -0.00000000000E+00 -0.45593999997E+02  0.45594000000E+02  0.51100000000E-03 0.  1.
         23    2    1    2    0    0  0.00000000000E+00  0.00000000000E+00  0.00000000000E+00  0.91188000000E+02  0.91188000000E+02 0.  0.
    9900012    2    3    3    0    0  0.93892031781E+01 -0.29367404959E+02 -0.32840701894E+02  0.46142319727E+02  0.10000017930E+02 0.  0.
         12    1    3    3    0    0 -0.93892031781E+01  0.29367404959E+02  0.32840701894E+02  0.45045680273E+02  0.00000000000E+00 0. -1.
         11    1    4    4    0    0  0.12682824476E+01 -0.62433294782E+01 -0.38625923312E+01  0.74503236922E+01  0.51100000000E-03 0. -1.
        -11    1    4    4    0    0  0.93241119271E+01 -0.21496314990E+02 -0.27770413030E+02  0.36334920689E+02  0.51100000000E-03 0.  1.
        -12    1    4    4    0    0 -0.12031911966E+01 -0.16277604909E+01 -0.12076965323E+01  0.23570753457E+01  0.00000000000E+00 0.  1.
</event>
<event>
 8    1  0.2962813E-009  0.9118800E+02  0.7816164E-02  0.1184000E+00
        -11   -1    0    0    0    0  0.00000000000E+00  0.00000000000E+00  0.45593999997E+02  0.45594000000E+02  0.51100000000E-03 0. -1.
         11   -1    0    0    0    0 -0.00000000000E+00 -0.00000000000E+00 -0.45593999997E+02  0.45594000000E+02  0.51100000000E-03 0.  1.
         23    2    1    2    0    0  0.17763568394E-14 -0.88817841970E-15  0.00000000000E+00  0.91188000000E+02  0.91188000000E+02 0.  0.
    9900012    2    3    3    0    0 -0.92967047000E+01 -0.71396817961E+01 -0.43493789625E+02  0.46142317517E+02  0.99999977717E+01 0.  0.
         12    1    3    3    0    0  0.92967047000E+01  0.71396817961E+01  0.43493789625E+02  0.45045682483E+02  0.00000000000E+00 0. -1.
         11    1    4    4    0    0 -0.35050443509E+01 -0.77551865201E+01 -0.25174249939E+02  0.26573880298E+02  0.51100000000E-03 0. -1.
        -11    1    4    4    0    0 -0.53550492078E+01 -0.69605434127E+00 -0.13109877185E+02  0.14178502169E+02  0.51100000000E-03 0.  1.
        -12    1    4    4    0    0 -0.43661114133E+00  0.13115590653E+01 -0.52096625007E+01  0.53899350498E+01  0.00000000000E+00 0.  1.
</event>
<event>
 8    1  0.2962813E-009  0.9118800E+02  0.7816164E-02  0.1184000E+00
        -11   -1    0    0    0    0  0.00000000000E+00  0.00000000000E+00  0.45593999997E+02  0.45594000000E+02  0.51100000000E-03 0. -1.
         11   -1    0    0    0    0 -0.00000000000E+00 -0.00000000000E+00 -0.45593999997E+02  0.45594000000E+02  0.51100000000E-03 0.  1.
         23    2    1    2    0    0 -0.17763568394E-14  0.00000000000E+00 -0.71054273576E-14  0.91188000000E+02  0.91188000000E+02 0.  0.
    9900012    2    3    3    0    0 -0.13503209335E+02 -0.43121636515E+01 -0.42757242506E+02  0.46142320913E+02  0.10000028740E+02 0.  0.
         12    1    3    3    0    0  0.13503209335E+02  0.43121636515E+01  0.42757242506E+02  0.45045679087E+02  0.00000000000E+00 0. -1.
         11    1    4    4    0    0 -0.69412510607E+01  0.15740396992E+01 -0.22980963495E+02  0.24057914512E+02  0.51100000000E-03 0. -1.
        -11    1    4    4    0    0 -0.19817326220E+01 -0.46443613906E+01 -0.11116071147E+02  0.12209193050E+02  0.51100000000E-03 0.  1.
        -12    1    4    4    0    0 -0.45802256527E+01 -0.12418419600E+01 -0.86602078639E+01  0.98752133511E+01  0.00000000000E+00 0.  1.
</event>
<event>
 8    1  0.2962813E-009  0.9118800E+02  0.7816164E-02  0.1184000E+00
        -11   -1    0    0    0    0  0.00000000000E+00  0.00000000000E+00  0.45593999997E+02  0.45594000000E+02  0.51100000000E-03 0. -1.
         11   -1    0    0    0    0 -0.00000000000E+00 -0.00000000000E+00 -0.45593999997E+02  0.45594000000E+02  0.51100000000E-03 0.  1.
         23    2    1    2    0    0 -0.35527136788E-14  0.71054273576E-14  0.00000000000E+00  0.91188000000E+02  0.91188000000E+02 0.  0.
    9900012    2    3    3    0    0 -0.23751225607E+02 -0.34652348288E+02  0.16254457827E+02  0.46142319198E+02  0.10000013101E+02 0.  0.
        -12    1    3    3    0    0  0.23751225607E+02  0.34652348288E+02 -0.16254457827E+02  0.45045680802E+02  0.00000000000E+00 0.  1.
         11    1    4    4    0    0 -0.18814475656E+02 -0.24702058216E+02  0.93420442767E+01  0.32426069232E+02  0.51100000000E-03 0. -1.
        -11    1    4    4    0    0 -0.39390436522E+01 -0.10056822671E+02  0.66322921907E+01  0.12674503821E+02  0.51100000000E-03 0.  1.
         12    1    4    4    0    0 -0.99770629880E+00  0.10653260028E+00  0.28012135987E+00  0.10417461446E+01  0.00000000000E+00 0. -1.
</event>
<event>
 8    1  0.2962813E-009  0.9118800E+02  0.7816164E-02  0.1184000E+00
        -11   -1    0    0    0    0  0.00000000000E+00  0.00000000000E+00  0.45593999997E+02  0.45594000000E+02  0.51100000000E-03 0. -1.
         11   -1    0    0    0    0 -0.00000000000E+00 -0.00000000000E+00 -0.45593999997E+02  0.45594000000E+02  0.51100000000E-03 0.  1.
         23    2    1    2    0    0  0.00000000000E+00  0.00000000000E+00  0.17763568394E-14  0.91188000000E+02  0.91188000000E+02 0.  0.
    9900012    2    3    3    0    0  0.23503181838E+02 -0.35949881561E+02  0.13576446274E+02  0.46142318362E+02  0.10000005483E+02 0.  0.
        -12    1    3    3    0    0 -0.23503181838E+02  0.35949881561E+02 -0.13576446274E+02  0.45045681638E+02  0.00000000000E+00 0.  1.
         11    1    4    4    0    0  0.20005328183E+02 -0.27498659845E+02  0.11626362501E+02  0.35938304832E+02  0.51100000000E-03 0. -1.
        -11    1    4    4    0    0 -0.46958996643E+00  0.15135622043E+00  0.32879216169E+00  0.59289795812E+00  0.51100000000E-03 0.  1.
         12    1    4    4    0    0  0.39674436219E+01 -0.86025779367E+01  0.16212916111E+01  0.96111155720E+01  0.00000000000E+00 0. -1.
</event>
<event>
 8    1  0.2962813E-009  0.9118800E+02  0.7816164E-02  0.1184000E+00
        -11   -1    0    0    0    0  0.00000000000E+00  0.00000000000E+00  0.45593999997E+02  0.45594000000E+02  0.51100000000E-03 0. -1.
         11   -1    0    0    0    0 -0.00000000000E+00 -0.00000000000E+00 -0.45593999997E+02  0.45594000000E+02  0.51100000000E-03 0.  1.
         23    2    1    2    0    0  0.00000000000E+00 -0.35527136788E-14  0.00000000000E+00  0.91188000000E+02  0.91188000000E+02 0.  0.
    9900012    2    3    3    0    0 -0.36852169662E+02  0.19319238373E+02 -0.17256828342E+02  0.46142317582E+02  0.99999983678E+01 0.  0.
         12    1    3    3    0    0  0.36852169662E+02 -0.19319238373E+02  0.17256828342E+02  0.45045682418E+02  0.00000000000E+00 0. -1.
         11    1    4    4    0    0 -0.31357451014E+02  0.13228831862E+02 -0.12400150852E+02  0.36222306221E+02  0.51100000000E-03 0.  1.
        -11    1    4    4    0    0 -0.39961476488E+01  0.49893506022E+01 -0.23759344977E+01  0.68196686475E+01  0.51100000000E-03 0. -1.
        -12    1    4    4    0    0 -0.14985709986E+01  0.11010559090E+01 -0.24807429917E+01  0.31003427139E+01  0.00000000000E+00 0.  1.
</event>
<event>
 8    1  0.2962813E-009  0.9118800E+02  0.7816164E-02  0.1184000E+00
        -11   -1    0    0    0    0  0.00000000000E+00  0.00000000000E+00  0.45593999997E+02  0.45594000000E+02  0.51100000000E-03 0. -1.
         11   -1    0    0    0    0 -0.00000000000E+00 -0.00000000000E+00 -0.45593999997E+02  0.45594000000E+02  0.51100000000E-03 0.  1.
         23    2    1    2    0    0  0.22204460493E-15 -0.35527136788E-14  0.00000000000E+00  0.91188000000E+02  0.91188000000E+02 0.  0.
    9900012    2    3    3    0    0  0.12044432420E+01  0.28213499729E+02  0.35095030378E+02  0.46142318656E+02  0.10000008164E+02 0.  0.
        -12    1    3    3    0    0 -0.12044432420E+01 -0.28213499729E+02 -0.35095030378E+02  0.45045681344E+02  0.00000000000E+00 0.  1.
         11    1    4    4    0    0  0.49909394686E+00  0.59240521784E+01  0.84741594989E+01  0.10351563575E+02  0.51100000000E-03 0. -1.
        -11    1    4    4    0    0 -0.26008117001E+01  0.15880847477E+02  0.14367308326E+02  0.21572785794E+02  0.51100000000E-03 0.  1.
        -12    1    4    4    0    0  0.33061609952E+01  0.64086000736E+01  0.12253562553E+02  0.14217969287E+02  0.00000000000E+00 0.  1.
</event>
<event>
 8    1  0.2962813E-009  0.9118800E+02  0.7816164E-02  0.1184000E+00
        -11   -1    0    0    0    0  0.00000000000E+00  0.00000000000E+00  0.45593999997E+02  0.45594000000E+02  0.51100000000E-03 0. -1.
         11   -1    0    0    0    0 -0.00000000000E+00 -0.00000000000E+00 -0.45593999997E+02  0.45594000000E+02  0.51100000000E-03 0.  1.
         23    2    1    2    0    0  0.00000000000E+00  0.00000000000E+00  0.00000000000E+00  0.91188000000E+02  0.91188000000E+02 0.  0.
    9900012    2    3    3    0    0 -0.40938996881E+02 -0.12911320805E+02 -0.13653198327E+02  0.46142317686E+02  0.99999993181E+01 0.  0.
         12    1    3    3    0    0  0.40938996881E+02  0.12911320805E+02  0.13653198327E+02  0.45045682314E+02  0.00000000000E+00 0. -1.
         11    1    4    4    0    0 -0.53171872741E+01  0.55045234103E+00 -0.36925484197E+01  0.64969525457E+01  0.51100000000E-03 0. -1.
        -11    1    4    4    0    0 -0.11983259839E+02 -0.48190925111E+01 -0.57022050776E+01  0.14118686625E+02  0.51100000000E-03 0.  1.
         12    1    4    4    0    0 -0.23638549768E+02 -0.86426806354E+01 -0.42584448294E+01  0.25526678516E+02  0.00000000000E+00 0. -1.
</event>
<event>
 8    1  0.2962813E-009  0.9118800E+02  0.7816164E-02  0.1184000E+00
        -11   -1    0    0    0    0  0.00000000000E+00  0.00000000000E+00  0.45593999997E+02  0.45594000000E+02  0.51100000000E-03 0.  1.
         11   -1    0    0    0    0 -0.00000000000E+00 -0.00000000000E+00 -0.45593999997E+02  0.45594000000E+02  0.51100000000E-03 0. -1.
         23    2    1    2    0    0  0.00000000000E+00  0.00000000000E+00  0.00000000000E+00  0.91188000000E+02  0.91188000000E+02 0.  0.
    9900012    2    3    3    0    0 -0.20422834956E+02 -0.38700706862E+02  0.10690020341E+02  0.46142318363E+02  0.10000005488E+02 0.  0.
        -12    1    3    3    0    0  0.20422834956E+02  0.38700706862E+02 -0.10690020341E+02  0.45045681637E+02  0.00000000000E+00 0.  1.
         11    1    4    4    0    0 -0.15934984729E+02 -0.31270722657E+02  0.46875116285E+01  0.35408397300E+02  0.51100000000E-03 0. -1.
        -11    1    4    4    0    0 -0.42719745407E+01 -0.75324846510E+01  0.58517513001E+01  0.10451367615E+02  0.51100000000E-03 0.  1.
        -12    1    4    4    0    0 -0.21587568645E+00  0.10250044612E+00  0.15075741220E+00  0.28255344767E+00  0.00000000000E+00 0.  1.
</event>
<event>
 8    1  0.2962813E-009  0.9118800E+02  0.7816164E-02  0.1184000E+00
        -11   -1    0    0    0    0  0.00000000000E+00  0.00000000000E+00  0.45593999997E+02  0.45594000000E+02  0.51100000000E-03 0.  1.
         11   -1    0    0    0    0 -0.00000000000E+00 -0.00000000000E+00 -0.45593999997E+02  0.45594000000E+02  0.51100000000E-03 0. -1.
         23    2    1    2    0    0  0.00000000000E+00  0.00000000000E+00  0.00000000000E+00  0.91188000000E+02  0.91188000000E+02 0.  0.
    9900012    2    3    3    0    0 -0.25036004596E+02 -0.36393893858E+02  0.88202326884E+01  0.46142317177E+02  0.99999946752E+01 0.  0.
        -12    1    3    3    0    0  0.25036004596E+02  0.36393893858E+02 -0.88202326884E+01  0.45045682823E+02  0.00000000000E+00 0.  1.
         11    1    4    4    0    0 -0.37953798778E+01 -0.49562818815E+01  0.85344285680E-02  0.62425725149E+01  0.51100000000E-03 0. -1.
        -11    1    4    4    0    0 -0.13727472483E+02 -0.13049531320E+02  0.27993940330E+01  0.19146027673E+02  0.51100000000E-03 0.  1.
        -12    1    4    4    0    0 -0.75131522347E+01 -0.18388080657E+02  0.60123042268E+01  0.20753716989E+02  0.00000000000E+00 0.  1.
</event>
<event>
 8    1  0.2962813E-009  0.9118800E+02  0.7816164E-02  0.1184000E+00
        -11   -1    0    0    0    0  0.00000000000E+00  0.00000000000E+00  0.45593999997E+02  0.45594000000E+02  0.51100000000E-03 0. -1.
         11   -1    0    0    0    0 -0.00000000000E+00 -0.00000000000E+00 -0.45593999997E+02  0.45594000000E+02  0.51100000000E-03 0.  1.
         23    2    1    2    0    0  0.00000000000E+00  0.00000000000E+00  0.71054273576E-14  0.91188000000E+02  0.91188000000E+02 0.  0.
    9900012    2    3    3    0    0  0.12265922774E+02 -0.98111687360E+01 -0.42218498711E+02  0.46142317333E+02  0.99999960998E+01 0.  0.
         12    1    3    3    0    0 -0.12265922774E+02  0.98111687360E+01  0.42218498711E+02  0.45045682667E+02  0.00000000000E+00 0. -1.
         11    1    4    4    0    0 -0.64544902444E+00 -0.20948232471E+01 -0.32658799417E+01  0.39333015311E+01  0.51100000000E-03 0. -1.
        -11    1    4    4    0    0  0.55510609445E+01  0.21078578086E-01 -0.14496815370E+02  0.15523285027E+02  0.51100000000E-03 0.  1.
        -12    1    4    4    0    0  0.73603108542E+01 -0.77374240669E+01 -0.24455803400E+02  0.26685730775E+02  0.00000000000E+00 0.  1.
</event>
<event>
 8    1  0.2962813E-009  0.9118800E+02  0.7816164E-02  0.1184000E+00
        -11   -1    0    0    0    0  0.00000000000E+00  0.00000000000E+00  0.45593999997E+02  0.45594000000E+02  0.51100000000E-03 0. -1.
         11   -1    0    0    0    0 -0.00000000000E+00 -0.00000000000E+00 -0.45593999997E+02  0.45594000000E+02  0.51100000000E-03 0.  1.
         23    2    1    2    0    0  0.00000000000E+00  0.00000000000E+00 -0.71054273576E-14  0.91188000000E+02  0.91188000000E+02 0.  0.
    9900012    2    3    3    0    0  0.19258854873E+02 -0.17207097329E+02  0.36906989238E+02  0.46142317142E+02  0.99999943551E+01 0.  0.
        -12    1    3    3    0    0 -0.19258854873E+02  0.17207097329E+02 -0.36906989238E+02  0.45045682858E+02  0.00000000000E+00 0.  1.
         11    1    4    4    0    0  0.40277568608E+01 -0.93573148765E+01  0.16407796287E+02  0.19313154747E+02  0.51100000000E-03 0. -1.
        -11    1    4    4    0    0  0.80561807863E+01 -0.42883834624E+01  0.90218576623E+01  0.12833012021E+02  0.51100000000E-03 0.  1.
         12    1    4    4    0    0  0.71749172262E+01 -0.35613989896E+01  0.11477335289E+02  0.13996150375E+02  0.00000000000E+00 0. -1.
</event>
<event>
 8    1  0.2962813E-009  0.9118800E+02  0.7816164E-02  0.1184000E+00
        -11   -1    0    0    0    0  0.00000000000E+00  0.00000000000E+00  0.45593999997E+02  0.45594000000E+02  0.51100000000E-03 0. -1.
         11   -1    0    0    0    0 -0.00000000000E+00 -0.00000000000E+00 -0.45593999997E+02  0.45594000000E+02  0.51100000000E-03 0.  1.
         23    2    1    2    0    0  0.00000000000E+00 -0.35527136788E-14  0.71054273576E-14  0.91188000000E+02  0.91188000000E+02 0.  0.
    9900012    2    3    3    0    0  0.14592291327E+02 -0.20553307256E+02  0.37332828486E+02  0.46142317764E+02  0.10000000030E+02 0.  0.
        -12    1    3    3    0    0 -0.14592291327E+02  0.20553307256E+02 -0.37332828486E+02  0.45045682236E+02  0.00000000000E+00 0.  1.
         11    1    4    4    0    0  0.11103178708E+02 -0.13904286363E+02  0.28512202023E+02  0.33608859266E+02  0.51100000000E-03 0. -1.
        -11    1    4    4    0    0  0.21737145250E+01 -0.44182890157E+00  0.39664634858E+01  0.45445660364E+01  0.51100000000E-03 0.  1.
         12    1    4    4    0    0  0.13153980933E+01 -0.62071919912E+01  0.48541629769E+01  0.79888924618E+01  0.00000000000E+00 0. -1.
</event>
<event>
 8    1  0.2962813E-009  0.9118800E+02  0.7816164E-02  0.1184000E+00
        -11   -1    0    0    0    0  0.00000000000E+00  0.00000000000E+00  0.45593999997E+02  0.45594000000E+02  0.51100000000E-03 0.  1.
         11   -1    0    0    0    0 -0.00000000000E+00 -0.00000000000E+00 -0.45593999997E+02  0.45594000000E+02  0.51100000000E-03 0. -1.
         23    2    1    2    0    0  0.00000000000E+00  0.71054273576E-14  0.00000000000E+00  0.91188000000E+02  0.91188000000E+02 0.  0.
    9900012    2    3    3    0    0 -0.29791617546E+02 -0.31463170165E+02  0.12314301906E+02  0.46142316697E+02  0.99999902935E+01 0.  0.
        -12    1    3    3    0    0  0.29791617546E+02  0.31463170165E+02 -0.12314301906E+02  0.45045683303E+02  0.00000000000E+00 0.  1.
         11    1    4    4    0    0 -0.62135012287E+01 -0.74633586924E+01 -0.13149780289E+01  0.97999228552E+01  0.51100000000E-03 0. -1.
        -11    1    4    4    0    0 -0.18385600798E+02 -0.19611694802E+02  0.11221440901E+02  0.29130218431E+02  0.51100000000E-03 0.  1.
        -12    1    4    4    0    0 -0.51925155192E+01 -0.43881166713E+01  0.24078390342E+01  0.72121754106E+01  0.00000000000E+00 0.  1.
</event>
<event>
 8    1  0.2962813E-009  0.9118800E+02  0.7816164E-02  0.1184000E+00
        -11   -1    0    0    0    0  0.00000000000E+00  0.00000000000E+00  0.45593999997E+02  0.45594000000E+02  0.51100000000E-03 0. -1.
         11   -1    0    0    0    0 -0.00000000000E+00 -0.00000000000E+00 -0.45593999997E+02  0.45594000000E+02  0.51100000000E-03 0.  1.
         23    2    1    2    0    0  0.00000000000E+00  0.35527136788E-14 -0.22204460493E-15  0.91188000000E+02  0.91188000000E+02 0.  0.
    9900012    2    3    3    0    0 -0.32815449358E+02  0.30825794371E+02 -0.14248336560E+01  0.46142318008E+02  0.10000002253E+02 0.  0.
        -12    1    3    3    0    0  0.32815449358E+02 -0.30825794371E+02  0.14248336560E+01  0.45045681992E+02  0.00000000000E+00 0.  1.
         11    1    4    4    0    0 -0.86318425650E+01  0.33071039495E+01  0.21503681369E+00  0.92461821144E+01  0.51100000000E-03 0. -1.
        -11    1    4    4    0    0 -0.14465869987E+02  0.16796382465E+02 -0.29665419621E+01  0.22364709474E+02  0.51100000000E-03 0.  1.
        -12    1    4    4    0    0 -0.97177368056E+01  0.10722307957E+02  0.13266714924E+01  0.14531426420E+02  0.00000000000E+00 0.  1.
</event>
<event>
 8    1  0.2962813E-009  0.9118800E+02  0.7816164E-02  0.1184000E+00
        -11   -1    0    0    0    0  0.00000000000E+00  0.00000000000E+00  0.45593999997E+02  0.45594000000E+02  0.51100000000E-03 0. -1.
         11   -1    0    0    0    0 -0.00000000000E+00 -0.00000000000E+00 -0.45593999997E+02  0.45594000000E+02  0.51100000000E-03 0.  1.
         23    2    1    2    0    0 -0.35527136788E-14  0.00000000000E+00 -0.35527136788E-14  0.91188000000E+02  0.91188000000E+02 0.  0.
    9900012    2    3    3    0    0 -0.24266202597E+02 -0.23348168557E+02  0.29918686186E+02  0.46142319335E+02  0.10000014353E+02 0.  0.
        -12    1    3    3    0    0  0.24266202597E+02  0.23348168557E+02 -0.29918686186E+02  0.45045680665E+02  0.00000000000E+00 0.  1.
         11    1    4    4    0    0 -0.57537593593E+01 -0.74518511572E+01  0.44994395731E+01  0.10434595784E+02  0.51100000000E-03 0. -1.
        -11    1    4    4    0    0 -0.17491419375E+02 -0.12534350977E+02  0.21069617578E+02  0.30116249622E+02  0.51100000000E-03 0.  1.
        -12    1    4    4    0    0 -0.10210238625E+01 -0.33619664228E+01  0.43496290355E+01  0.55914739293E+01  0.00000000000E+00 0.  1.
</event>
<event>
 8    1  0.3219632E-009  0.9118800E+02  0.7816164E-02  0.1184000E+00
        -11   -1    0    0    0    0  0.00000000000E+00  0.00000000000E+00  0.45593999997E+02  0.45594000000E+02  0.51100000000E-03 0. -1.
         11   -1    0    0    0    0 -0.00000000000E+00 -0.00000000000E+00 -0.45593999997E+02  0.45594000000E+02  0.51100000000E-03 0.  1.
         23    2    1    2    0    0  0.00000000000E+00  0.88817841970E-15  0.00000000000E+00  0.91188000000E+02  0.91188000000E+02 0.  0.
    9900012    2    3    3    0    0 -0.57351070682E+01 -0.55594617116E+01 -0.44331866243E+02  0.46142318384E+02  0.10000005684E+02 0.  0.
         12    1    3    3    0    0  0.57351070682E+01  0.55594617116E+01  0.44331866243E+02  0.45045681616E+02  0.00000000000E+00 0. -1.
         11    1    4    4    0    0 -0.35156546112E+01  0.15046018121E+01 -0.99090001840E+01  0.10621296478E+02  0.51100000000E-03 0. -1.
        -11    1    4    4    0    0 -0.21906497336E+01 -0.71581117704E+01 -0.24977452887E+02  0.26075096613E+02  0.51100000000E-03 0.  1.
        -12    1    4    4    0    0 -0.28802723392E-01  0.94048246695E-01 -0.94454131717E+01  0.94459252937E+01  0.00000000000E+00 0.  1.
</event>
<event>
 8    1  0.2962813E-009  0.9118800E+02  0.7816164E-02  0.1184000E+00
        -11   -1    0    0    0    0  0.00000000000E+00  0.00000000000E+00  0.45593999997E+02  0.45594000000E+02  0.51100000000E-03 0. -1.
         11   -1    0    0    0    0 -0.00000000000E+00 -0.00000000000E+00 -0.45593999997E+02  0.45594000000E+02  0.51100000000E-03 0.  1.
         23    2    1    2    0    0  0.00000000000E+00  0.00000000000E+00  0.00000000000E+00  0.91188000000E+02  0.91188000000E+02 0.  0.
    9900012    2    3    3    0    0 -0.10506786648E+02  0.22395820399E+02  0.37645028830E+02  0.46142317270E+02  0.99999955188E+01 0.  0.
        -12    1    3    3    0    0  0.10506786648E+02 -0.22395820399E+02 -0.37645028830E+02  0.45045682730E+02  0.00000000000E+00 0.  1.
         11    1    4    4    0    0 -0.49562941455E+01  0.34421505318E+01  0.75780632167E+01  0.96871200219E+01  0.51100000000E-03 0.  1.
        -11    1    4    4    0    0 -0.40286279433E+01  0.71987467759E+01  0.16446346132E+02  0.18399296172E+02  0.51100000000E-03 0. -1.
         12    1    4    4    0    0 -0.15218645596E+01  0.11754923092E+02  0.13620619481E+02  0.18055901076E+02  0.00000000000E+00 0. -1.
</event>
<event>
 8    1  0.2962813E-009  0.9118800E+02  0.7816164E-02  0.1184000E+00
        -11   -1    0    0    0    0  0.00000000000E+00  0.00000000000E+00  0.45593999997E+02  0.45594000000E+02  0.51100000000E-03 0.  1.
         11   -1    0    0    0    0 -0.00000000000E+00 -0.00000000000E+00 -0.45593999997E+02  0.45594000000E+02  0.51100000000E-03 0. -1.
         23    2    1    2    0    0  0.00000000000E+00  0.00000000000E+00  0.00000000000E+00  0.91188000000E+02  0.91188000000E+02 0.  0.
    9900012    2    3    3    0    0 -0.39904244211E+02  0.10163283167E+02  0.18261227731E+02  0.46142317976E+02  0.10000001958E+02 0.  0.
        -12    1    3    3    0    0  0.39904244211E+02 -0.10163283167E+02 -0.18261227731E+02  0.45045682024E+02  0.00000000000E+00 0.  1.
         11    1    4    4    0    0 -0.19104698354E+02  0.60123452354E+01  0.64845695207E+01  0.21052017399E+02  0.51100000000E-03 0. -1.
        -11    1    4    4    0    0 -0.18336410399E+02  0.15522651210E+01  0.10957431698E+02  0.21417254329E+02  0.51100000000E-03 0.  1.
        -12    1    4    4    0    0 -0.24631354577E+01  0.25986728102E+01  0.81922651222E+00  0.36730462475E+01  0.00000000000E+00 0.  1.
</event>
<event>
 8    1  0.2962813E-009  0.9118800E+02  0.7816164E-02  0.1184000E+00
        -11   -1    0    0    0    0  0.00000000000E+00  0.00000000000E+00  0.45593999997E+02  0.45594000000E+02  0.51100000000E-03 0.  1.
         11   -1    0    0    0    0 -0.00000000000E+00 -0.00000000000E+00 -0.45593999997E+02  0.45594000000E+02  0.51100000000E-03 0. -1.
         23    2    1    2    0    0  0.00000000000E+00  0.00000000000E+00  0.00000000000E+00  0.91188000000E+02  0.91188000000E+02 0.  0.
    9900012    2    3    3    0    0 -0.37369198124E+02 -0.23223321644E+02  0.96609485634E+01  0.46142316924E+02  0.99999923694E+01 0.  0.
        -12    1    3    3    0    0  0.37369198124E+02  0.23223321644E+02 -0.96609485634E+01  0.45045683076E+02  0.00000000000E+00 0.  1.
         11    1    4    4    0    0 -0.34725674007E+01 -0.25978800215E+01 -0.13516145520E+01  0.45425287140E+01  0.51100000000E-03 0. -1.
        -11    1    4    4    0    0 -0.27324970559E+02 -0.16454151721E+02  0.11222378804E+02  0.33813235739E+02  0.51100000000E-03 0.  1.
        -12    1    4    4    0    0 -0.65716601648E+01 -0.41712899014E+01 -0.20981568818E+00  0.77865524711E+01  0.00000000000E+00 0.  1.
</event>
<event>
 8    1  0.2962813E-009  0.9118800E+02  0.7816164E-02  0.1184000E+00
        -11   -1    0    0    0    0  0.00000000000E+00  0.00000000000E+00  0.45593999997E+02  0.45594000000E+02  0.51100000000E-03 0. -1.
         11   -1    0    0    0    0 -0.00000000000E+00 -0.00000000000E+00 -0.45593999997E+02  0.45594000000E+02  0.51100000000E-03 0.  1.
         23    2    1    2    0    0  0.00000000000E+00  0.00000000000E+00  0.00000000000E+00  0.91188000000E+02  0.91188000000E+02 0.  0.
    9900012    2    3    3    0    0 -0.24894182049E+02 -0.19521489913E+02  0.32067188924E+02  0.46142317922E+02  0.10000001470E+02 0.  0.
        -12    1    3    3    0    0  0.24894182049E+02  0.19521489913E+02 -0.32067188924E+02  0.45045682078E+02  0.00000000000E+00 0.  1.
         11    1    4    4    0    0 -0.36203218043E+01 -0.75520938323E+01  0.93920386192E+01  0.12583768947E+02  0.51100000000E-03 0. -1.
        -11    1    4    4    0    0 -0.27039676026E+01 -0.11607986162E+00  0.26146594835E+01  0.37631582223E+01  0.51100000000E-03 0.  1.
         12    1    4    4    0    0 -0.18569892642E+02 -0.11853316219E+02  0.20060490822E+02  0.29795390753E+02  0.00000000000E+00 0. -1.
</event>
<event>
 8    1  0.2962813E-009  0.9118800E+02  0.7816164E-02  0.1184000E+00
        -11   -1    0    0    0    0  0.00000000000E+00  0.00000000000E+00  0.45593999997E+02  0.45594000000E+02  0.51100000000E-03 0. -1.
         11   -1    0    0    0    0 -0.00000000000E+00 -0.00000000000E+00 -0.45593999997E+02  0.45594000000E+02  0.51100000000E-03 0.  1.
         23    2    1    2    0    0 -0.88817841970E-15  0.00000000000E+00 -0.71054273576E-14  0.91188000000E+02  0.91188000000E+02 0.  0.
    9900012    2    3    3    0    0 -0.42593991359E+01 -0.25818077729E+02 -0.36666031850E+02  0.46142317518E+02  0.99999977838E+01 0.  0.
         12    1    3    3    0    0  0.42593991359E+01  0.25818077729E+02  0.36666031850E+02  0.45045682482E+02  0.00000000000E+00 0. -1.
         11    1    4    4    0    0 -0.71237234624E+00 -0.18745652156E+02 -0.29673230460E+02  0.35105662725E+02  0.51100000000E-03 0.  1.
        -11    1    4    4    0    0 -0.27524281818E+01 -0.70464734488E+01 -0.68948796011E+01  0.10235624746E+02  0.51100000000E-03 0. -1.
        -12    1    4    4    0    0 -0.79459860791E+00 -0.25952124031E-01 -0.97921788573E-01  0.80103004757E+00  0.00000000000E+00 0.  1.
</event>
<event>
 8    1  0.2962813E-009  0.9118800E+02  0.7816164E-02  0.1184000E+00
        -11   -1    0    0    0    0  0.00000000000E+00  0.00000000000E+00  0.45593999997E+02  0.45594000000E+02  0.51100000000E-03 0. -1.
         11   -1    0    0    0    0 -0.00000000000E+00 -0.00000000000E+00 -0.45593999997E+02  0.45594000000E+02  0.51100000000E-03 0.  1.
         23    2    1    2    0    0 -0.88817841970E-15  0.35527136788E-14  0.00000000000E+00  0.91188000000E+02  0.91188000000E+02 0.  0.
    9900012    2    3    3    0    0 -0.49936629618E+01  0.28837256558E+02  0.34243094312E+02  0.46142317148E+02  0.99999944059E+01 0.  0.
        -12    1    3    3    0    0  0.49936629618E+01 -0.28837256558E+02 -0.34243094312E+02  0.45045682852E+02  0.00000000000E+00 0.  1.
         11    1    4    4    0    0 -0.78983014715E+01  0.21663777726E+02  0.24974798863E+02  0.33991807983E+02  0.51100000000E-03 0. -1.
        -11    1    4    4    0    0  0.17444959557E+00  0.16991362225E+01  0.24946566595E+01  0.30233770314E+01  0.51100000000E-03 0.  1.
         12    1    4    4    0    0  0.27301889141E+01  0.54743426105E+01  0.67736387892E+01  0.91271321328E+01  0.00000000000E+00 0. -1.
</event>
<event>
 8    1  0.2962813E-009  0.9118800E+02  0.7816164E-02  0.1184000E+00
        -11   -1    0    0    0    0  0.00000000000E+00  0.00000000000E+00  0.45593999997E+02  0.45594000000E+02  0.51100000000E-03 0. -1.
         11   -1    0    0    0    0 -0.00000000000E+00 -0.00000000000E+00 -0.45593999997E+02  0.45594000000E+02  0.51100000000E-03 0.  1.
         23    2    1    2    0    0 -0.88817841970E-15  0.35527136788E-14  0.71054273576E-14  0.91188000000E+02  0.91188000000E+02 0.  0.
    9900012    2    3    3    0    0 -0.74114731362E+01  0.22145132550E+02  0.38519821921E+02  0.46142317515E+02  0.99999977587E+01 0.  0.
        -12    1    3    3    0    0  0.74114731362E+01 -0.22145132550E+02 -0.38519821921E+02  0.45045682485E+02  0.00000000000E+00 0.  1.
         11    1    4    4    0    0 -0.27643193842E+01  0.17909113924E+02  0.30744606300E+02  0.35687653888E+02  0.51100000000E-03 0. -1.
        -11    1    4    4    0    0 -0.22512005133E+01  0.66631187213E+00  0.44062055017E+01  0.49926468378E+01  0.51100000000E-03 0.  1.
        -12    1    4    4    0    0 -0.23959532387E+01  0.35697067541E+01  0.33690101189E+01  0.54620167899E+01  0.00000000000E+00 0.  1.
</event>
<event>
 8    1  0.2962813E-009  0.9118800E+02  0.7816164E-02  0.1184000E+00
        -11   -1    0    0    0    0  0.00000000000E+00  0.00000000000E+00  0.45593999997E+02  0.45594000000E+02  0.51100000000E-03 0. -1.
         11   -1    0    0    0    0 -0.00000000000E+00 -0.00000000000E+00 -0.45593999997E+02  0.45594000000E+02  0.51100000000E-03 0.  1.
         23    2    1    2    0    0  0.00000000000E+00  0.00000000000E+00  0.00000000000E+00  0.91188000000E+02  0.91188000000E+02 0.  0.
    9900012    2    3    3    0    0  0.47157368317E+01  0.40594964492E+01 -0.44613853972E+02  0.46142315950E+02  0.99999834865E+01 0.  0.
         12    1    3    3    0    0 -0.47157368317E+01 -0.40594964492E+01  0.44613853972E+02  0.45045684050E+02  0.00000000000E+00 0. -1.
         11    1    4    4    0    0  0.29512706739E+01 -0.16457012293E+01 -0.20089895905E+02  0.20372094857E+02  0.51100000000E-03 0. -1.
        -11    1    4    4    0    0 -0.48903944449E+00  0.18682414074E+00 -0.10738421234E+02  0.10751174527E+02  0.51100000000E-03 0.  1.
         12    1    4    4    0    0  0.22535056023E+01  0.55183735378E+01 -0.13785536832E+02  0.15019046566E+02  0.00000000000E+00 0. -1.
</event>
<event>
 8    1  0.2962813E-009  0.9118800E+02  0.7816164E-02  0.1184000E+00
        -11   -1    0    0    0    0  0.00000000000E+00  0.00000000000E+00  0.45593999997E+02  0.45594000000E+02  0.51100000000E-03 0. -1.
         11   -1    0    0    0    0 -0.00000000000E+00 -0.00000000000E+00 -0.45593999997E+02  0.45594000000E+02  0.51100000000E-03 0.  1.
         23    2    1    2    0    0  0.17763568394E-14  0.00000000000E+00  0.00000000000E+00  0.91188000000E+02  0.91188000000E+02 0.  0.
    9900012    2    3    3    0    0 -0.11519030857E+02 -0.16782915640E+02 -0.40184066372E+02  0.46142317416E+02  0.99999968546E+01 0.  0.
         12    1    3    3    0    0  0.11519030857E+02  0.16782915640E+02  0.40184066372E+02  0.45045682584E+02  0.00000000000E+00 0. -1.
         11    1    4    4    0    0  0.15994842708E+01 -0.81524100922E+00 -0.28578356215E+01  0.33749359308E+01  0.51100000000E-03 0. -1.
        -11    1    4    4    0    0 -0.78608714688E+01 -0.11435894963E+02 -0.23349240681E+02  0.27161738429E+02  0.51100000000E-03 0.  1.
        -12    1    4    4    0    0 -0.52576436590E+01 -0.45317796678E+01 -0.13976990069E+02  0.15605643056E+02  0.00000000000E+00 0.  1.
</event>
<event>
 8    1  0.2962813E-009  0.9118800E+02  0.7816164E-02  0.1184000E+00
        -11   -1    0    0    0    0  0.00000000000E+00  0.00000000000E+00  0.45593999997E+02  0.45594000000E+02  0.51100000000E-03 0. -1.
         11   -1    0    0    0    0 -0.00000000000E+00 -0.00000000000E+00 -0.45593999997E+02  0.45594000000E+02  0.51100000000E-03 0.  1.
         23    2    1    2    0    0  0.00000000000E+00 -0.11102230246E-15  0.00000000000E+00  0.91188000000E+02  0.91188000000E+02 0.  0.
    9900012    2    3    3    0    0  0.10282432503E+02 -0.22719126846E+00  0.43855826592E+02  0.46142316965E+02  0.99999927386E+01 0.  0.
        -12    1    3    3    0    0 -0.10282432503E+02  0.22719126846E+00 -0.43855826592E+02  0.45045683035E+02  0.00000000000E+00 0.  1.
         11    1    4    4    0    0  0.85566919103E+01 -0.21636303111E+01  0.28820092088E+02  0.30141267073E+02  0.51100000000E-03 0. -1.
        -11    1    4    4    0    0  0.21386944243E+01  0.18227874786E+01  0.36459136822E+01  0.46031787790E+01  0.51100000000E-03 0.  1.
         12    1    4    4    0    0 -0.41295383128E+00  0.11365156403E+00  0.11389820822E+02  0.11397871112E+02  0.00000000000E+00 0. -1.
</event>
<event>
 8    1  0.2962813E-009  0.9118800E+02  0.7816164E-02  0.1184000E+00
        -11   -1    0    0    0    0  0.00000000000E+00  0.00000000000E+00  0.45593999997E+02  0.45594000000E+02  0.51100000000E-03 0. -1.
         11   -1    0    0    0    0 -0.00000000000E+00 -0.00000000000E+00 -0.45593999997E+02  0.45594000000E+02  0.51100000000E-03 0.  1.
         23    2    1    2    0    0  0.00000000000E+00  0.00000000000E+00  0.00000000000E+00  0.91188000000E+02  0.91188000000E+02 0.  0.
    9900012    2    3    3    0    0 -0.39985632968E+01  0.27034536937E+02 -0.35808640933E+02  0.46142318062E+02  0.10000002744E+02 0.  0.
         12    1    3    3    0    0  0.39985632968E+01 -0.27034536937E+02  0.35808640933E+02  0.45045681938E+02  0.00000000000E+00 0. -1.
         11    1    4    4    0    0  0.55810715103E+00  0.10421075353E+01 -0.15777160923E+01  0.19714613961E+01  0.51100000000E-03 0. -1.
        -11    1    4    4    0    0 -0.64582112923E+01  0.10741303767E+02 -0.14692806110E+02  0.19312240972E+02  0.51100000000E-03 0.  1.
        -12    1    4    4    0    0  0.19015408445E+01  0.15251125634E+02 -0.19538118731E+02  0.24858615694E+02  0.00000000000E+00 0.  1.
</event>
<event>
 8    1  0.2962813E-009  0.9118800E+02  0.7816164E-02  0.1184000E+00
        -11   -1    0    0    0    0  0.00000000000E+00  0.00000000000E+00  0.45593999997E+02  0.45594000000E+02  0.51100000000E-03 0. -1.
         11   -1    0    0    0    0 -0.00000000000E+00 -0.00000000000E+00 -0.45593999997E+02  0.45594000000E+02  0.51100000000E-03 0.  1.
         23    2    1    2    0    0  0.00000000000E+00  0.17763568394E-14  0.00000000000E+00  0.91188000000E+02  0.91188000000E+02 0.  0.
    9900012    2    3    3    0    0 -0.31746517286E+02  0.94600479016E+01 -0.30525065002E+02  0.46142318082E+02  0.10000002926E+02 0.  0.
         12    1    3    3    0    0  0.31746517286E+02 -0.94600479016E+01  0.30525065002E+02  0.45045681918E+02  0.00000000000E+00 0. -1.
         11    1    4    4    0    0 -0.27425504660E+01  0.23469650188E+01 -0.52245453098E+00  0.36472985696E+01  0.51100000000E-03 0. -1.
        -11    1    4    4    0    0 -0.14157430387E+02  0.50026285248E+01 -0.13431506889E+02  0.20146079144E+02  0.51100000000E-03 0.  1.
         12    1    4    4    0    0 -0.14846536433E+02  0.21104543580E+01 -0.16571103582E+02  0.22348940368E+02  0.00000000000E+00 0. -1.
</event>
<event>
 8    1  0.2962813E-009  0.9118800E+02  0.7816164E-02  0.1184000E+00
        -11   -1    0    0    0    0  0.00000000000E+00  0.00000000000E+00  0.45593999997E+02  0.45594000000E+02  0.51100000000E-03 0. -1.
         11   -1    0    0    0    0 -0.00000000000E+00 -0.00000000000E+00 -0.45593999997E+02  0.45594000000E+02  0.51100000000E-03 0.  1.
         23    2    1    2    0    0  0.00000000000E+00 -0.88817841970E-15  0.00000000000E+00  0.91188000000E+02  0.91188000000E+02 0.  0.
    9900012    2    3    3    0    0  0.26224815405E+01 -0.76068837039E+01  0.44321229684E+02  0.46142317745E+02  0.99999998542E+01 0.  0.
        -12    1    3    3    0    0 -0.26224815405E+01  0.76068837039E+01 -0.44321229684E+02  0.45045682255E+02  0.00000000000E+00 0.  1.
         11    1    4    4    0    0  0.55392648033E+00 -0.30104904226E+01  0.38006653417E+01  0.48800557815E+01  0.51100000000E-03 0. -1.
        -11    1    4    4    0    0  0.11280303796E+01  0.20255223635E+00  0.12797903678E+01  0.17179474941E+01  0.51100000000E-03 0.  1.
         12    1    4    4    0    0  0.94052468064E+00 -0.47989455176E+01  0.39240773974E+02  0.39544314470E+02  0.00000000000E+00 0. -1.
</event>
<event>
 8    1  0.2962813E-009  0.9118800E+02  0.7816164E-02  0.1184000E+00
        -11   -1    0    0    0    0  0.00000000000E+00  0.00000000000E+00  0.45593999997E+02  0.45594000000E+02  0.51100000000E-03 0. -1.
         11   -1    0    0    0    0 -0.00000000000E+00 -0.00000000000E+00 -0.45593999997E+02  0.45594000000E+02  0.51100000000E-03 0.  1.
         23    2    1    2    0    0 -0.35527136788E-14  0.00000000000E+00  0.00000000000E+00  0.91188000000E+02  0.91188000000E+02 0.  0.
    9900012    2    3    3    0    0  0.20592018705E+02  0.21649259227E+02  0.33710409805E+02  0.46142318869E+02  0.10000010099E+02 0.  0.
        -12    1    3    3    0    0 -0.20592018705E+02 -0.21649259227E+02 -0.33710409805E+02  0.45045681131E+02  0.00000000000E+00 0.  1.
         11    1    4    4    0    0  0.15422512265E+01  0.39084606635E+01  0.46860304989E+01  0.62939245071E+01  0.51100000000E-03 0. -1.
        -11    1    4    4    0    0  0.32831318533E+01  0.35229446914E+01  0.14132825800E+01  0.50187111868E+01  0.51100000000E-03 0.  1.
        -12    1    4    4    0    0  0.15766635625E+02  0.14217853872E+02  0.27611096726E+02  0.34829683175E+02  0.00000000000E+00 0.  1.
</event>
<event>
 8    1  0.2962813E-009  0.9118800E+02  0.7816164E-02  0.1184000E+00
        -11   -1    0    0    0    0  0.00000000000E+00  0.00000000000E+00  0.45593999997E+02  0.45594000000E+02  0.51100000000E-03 0. -1.
         11   -1    0    0    0    0 -0.00000000000E+00 -0.00000000000E+00 -0.45593999997E+02  0.45594000000E+02  0.51100000000E-03 0.  1.
         23    2    1    2    0    0  0.00000000000E+00  0.00000000000E+00  0.00000000000E+00  0.91188000000E+02  0.91188000000E+02 0.  0.
    9900012    2    3    3    0    0 -0.33969145953E+02  0.23162177446E+02  0.18404458329E+02  0.46142318440E+02  0.10000006188E+02 0.  0.
        -12    1    3    3    0    0  0.33969145953E+02 -0.23162177446E+02 -0.18404458329E+02  0.45045681560E+02  0.00000000000E+00 0.  1.
         11    1    4    4    0    0 -0.22266944527E+02  0.10861972428E+02  0.12676194674E+02  0.27829573753E+02  0.51100000000E-03 0. -1.
        -11    1    4    4    0    0 -0.11621590649E+02  0.12402805658E+02  0.59890892283E+01  0.18021102837E+02  0.51100000000E-03 0.  1.
        -12    1    4    4    0    0 -0.80610776924E-01 -0.10260063997E+00 -0.26082557349E+00  0.29164184964E+00  0.00000000000E+00 0.  1.
</event>
<event>
 8    1  0.2962813E-009  0.9118800E+02  0.7816164E-02  0.1184000E+00
        -11   -1    0    0    0    0  0.00000000000E+00  0.00000000000E+00  0.45593999997E+02  0.45594000000E+02  0.51100000000E-03 0.  1.
         11   -1    0    0    0    0 -0.00000000000E+00 -0.00000000000E+00 -0.45593999997E+02  0.45594000000E+02  0.51100000000E-03 0. -1.
         23    2    1    2    0    0  0.00000000000E+00  0.00000000000E+00  0.35527136788E-14  0.91188000000E+02  0.91188000000E+02 0.  0.
    9900012    2    3    3    0    0  0.33792095091E+02  0.24856704951E+02  0.16411947506E+02  0.46142317714E+02  0.99999995730E+01 0.  0.
        -12    1    3    3    0    0 -0.33792095091E+02 -0.24856704951E+02 -0.16411947506E+02  0.45045682286E+02  0.00000000000E+00 0.  1.
         11    1    4    4    0    0  0.12401790410E+02  0.58134752388E+01  0.62848192573E+01  0.15069832550E+02  0.51100000000E-03 0. -1.
        -11    1    4    4    0    0  0.44826842656E+01  0.28492610702E+01  0.45776383944E+01  0.70119555333E+01  0.51100000000E-03 0.  1.
         12    1    4    4    0    0  0.16907620416E+02  0.16193968642E+02  0.55494898544E+01  0.24060529631E+02  0.00000000000E+00 0. -1.
</event>
<event>
 8    1  0.2962813E-009  0.9118800E+02  0.7816164E-02  0.1184000E+00
        -11   -1    0    0    0    0  0.00000000000E+00  0.00000000000E+00  0.45593999997E+02  0.45594000000E+02  0.51100000000E-03 0. -1.
         11   -1    0    0    0    0 -0.00000000000E+00 -0.00000000000E+00 -0.45593999997E+02  0.45594000000E+02  0.51100000000E-03 0.  1.
         23    2    1    2    0    0  0.00000000000E+00  0.88817841970E-15 -0.71054273576E-14  0.91188000000E+02  0.91188000000E+02 0.  0.
    9900012    2    3    3    0    0  0.13797574286E+02  0.74482378860E+01 -0.42228715005E+02  0.46142315692E+02  0.99999811332E+01 0.  0.
         12    1    3    3    0    0 -0.13797574286E+02 -0.74482378860E+01  0.42228715005E+02  0.45045684308E+02  0.00000000000E+00 0. -1.
         11    1    4    4    0    0  0.23585137497E+01 -0.22727212779E+00 -0.11541110446E+02  0.11781827970E+02  0.51100000000E-03 0. -1.
        -11    1    4    4    0    0  0.29170782233E+00 -0.11545605252E+01 -0.31523949427E+01  0.33698215970E+01  0.51100000000E-03 0.  1.
        -12    1    4    4    0    0  0.11147352714E+02  0.88300705391E+01 -0.27535209616E+02  0.30990666125E+02  0.00000000000E+00 0.  1.
</event>
<event>
 8    1  0.2962813E-009  0.9118800E+02  0.7816164E-02  0.1184000E+00
        -11   -1    0    0    0    0  0.00000000000E+00  0.00000000000E+00  0.45593999997E+02  0.45594000000E+02  0.51100000000E-03 0. -1.
         11   -1    0    0    0    0 -0.00000000000E+00 -0.00000000000E+00 -0.45593999997E+02  0.45594000000E+02  0.51100000000E-03 0.  1.
         23    2    1    2    0    0  0.17763568394E-14  0.00000000000E+00  0.00000000000E+00  0.91188000000E+02  0.91188000000E+02 0.  0.
    9900012    2    3    3    0    0 -0.14947162786E+02  0.30890449199E+02 -0.29180059354E+02  0.46142318842E+02  0.10000009861E+02 0.  0.
         12    1    3    3    0    0  0.14947162786E+02 -0.30890449199E+02  0.29180059354E+02  0.45045681158E+02  0.00000000000E+00 0. -1.
         11    1    4    4    0    0 -0.81662913630E+01  0.92437775762E+01 -0.12839693651E+02  0.17804310484E+02  0.51100000000E-03 0. -1.
        -11    1    4    4    0    0 -0.55448997435E+01  0.11935084125E+02 -0.11198033895E+02  0.17279702243E+02  0.51100000000E-03 0.  1.
         12    1    4    4    0    0 -0.12359716793E+01  0.97115874975E+01 -0.51423318080E+01  0.11058306115E+02  0.00000000000E+00 0. -1.
</event>
<event>
 8    1  0.2962813E-009  0.9118800E+02  0.7816164E-02  0.1184000E+00
        -11   -1    0    0    0    0  0.00000000000E+00  0.00000000000E+00  0.45593999997E+02  0.45594000000E+02  0.51100000000E-03 0. -1.
         11   -1    0    0    0    0 -0.00000000000E+00 -0.00000000000E+00 -0.45593999997E+02  0.45594000000E+02  0.51100000000E-03 0.  1.
         23    2    1    2    0    0  0.00000000000E+00  0.35527136788E-14  0.35527136788E-14  0.91188000000E+02  0.91188000000E+02 0.  0.
    9900012    2    3    3    0    0  0.25868466955E+02  0.26683626504E+02  0.25454271955E+02  0.46142318001E+02  0.10000002188E+02 0.  0.
        -12    1    3    3    0    0 -0.25868466955E+02 -0.26683626504E+02 -0.25454271955E+02  0.45045681999E+02  0.00000000000E+00 0.  1.
         11    1    4    4    0    0  0.10655987707E+02  0.73805170774E+01  0.13821233169E+02  0.18948577597E+02  0.51100000000E-03 0. -1.
        -11    1    4    4    0    0  0.13263987667E+02  0.16642528798E+02  0.10011739876E+02  0.23518972538E+02  0.51100000000E-03 0.  1.
         12    1    4    4    0    0  0.19484915804E+01  0.26605806288E+01  0.16212989090E+01  0.36747678667E+01  0.00000000000E+00 0. -1.
</event>
<event>
 8    1  0.2962813E-009  0.9118800E+02  0.7816164E-02  0.1184000E+00
        -11   -1    0    0    0    0  0.00000000000E+00  0.00000000000E+00  0.45593999997E+02  0.45594000000E+02  0.51100000000E-03 0. -1.
         11   -1    0    0    0    0 -0.00000000000E+00 -0.00000000000E+00 -0.45593999997E+02  0.45594000000E+02  0.51100000000E-03 0.  1.
         23    2    1    2    0    0 -0.35527136788E-14  0.35527136788E-14  0.71054273576E-14  0.91188000000E+02  0.91188000000E+02 0.  0.
    9900012    2    3    3    0    0  0.23074653369E+02 -0.20638288047E+02 -0.32722086340E+02  0.46142317676E+02  0.99999992205E+01 0.  0.
         12    1    3    3    0    0 -0.23074653369E+02  0.20638288047E+02  0.32722086340E+02  0.45045682324E+02  0.00000000000E+00 0. -1.
         11    1    4    4    0    0  0.92957699964E+01 -0.87628721557E+01 -0.69663566601E+01  0.14550924150E+02  0.51100000000E-03 0. -1.
        -11    1    4    4    0    0  0.12300070365E+02 -0.11194960363E+02 -0.23970727220E+02  0.29175582809E+02  0.51100000000E-03 0.  1.
         12    1    4    4    0    0  0.14788130074E+01 -0.68045552868E+00 -0.17850024599E+01  0.24158107168E+01  0.00000000000E+00 0. -1.
</event>
<event>
 8    1  0.2962813E-009  0.9118800E+02  0.7816164E-02  0.1184000E+00
        -11   -1    0    0    0    0  0.00000000000E+00  0.00000000000E+00  0.45593999997E+02  0.45594000000E+02  0.51100000000E-03 0. -1.
         11   -1    0    0    0    0 -0.00000000000E+00 -0.00000000000E+00 -0.45593999997E+02  0.45594000000E+02  0.51100000000E-03 0.  1.
         23    2    1    2    0    0 -0.17763568394E-14  0.00000000000E+00  0.00000000000E+00  0.91188000000E+02  0.91188000000E+02 0.  0.
    9900012    2    3    3    0    0 -0.14544832295E+02  0.56660552758E+01  0.42254669920E+02  0.46142318088E+02  0.10000002978E+02 0.  0.
        -12    1    3    3    0    0  0.14544832295E+02 -0.56660552758E+01 -0.42254669920E+02  0.45045681912E+02  0.00000000000E+00 0.  1.
         11    1    4    4    0    0 -0.34123589207E+01 -0.48555900437E+00  0.85973200409E+01  0.92624982103E+01  0.51100000000E-03 0. -1.
        -11    1    4    4    0    0  0.23684811539E+00 -0.29563080002E+00 -0.30690244912E+00  0.48752843413E+00  0.51100000000E-03 0.  1.
        -12    1    4    4    0    0 -0.11369321490E+02  0.64472450802E+01  0.33964252329E+02  0.36392291443E+02  0.00000000000E+00 0.  1.
</event>
<event>
 8    1  0.2962813E-009  0.9118800E+02  0.7816164E-02  0.1184000E+00
        -11   -1    0    0    0    0  0.00000000000E+00  0.00000000000E+00  0.45593999997E+02  0.45594000000E+02  0.51100000000E-03 0. -1.
         11   -1    0    0    0    0 -0.00000000000E+00 -0.00000000000E+00 -0.45593999997E+02  0.45594000000E+02  0.51100000000E-03 0.  1.
         23    2    1    2    0    0  0.44408920985E-15  0.22204460493E-15 -0.71054273576E-14  0.91188000000E+02  0.91188000000E+02 0.  0.
    9900012    2    3    3    0    0  0.25666360884E+01 -0.17649524858E+01 -0.44937853863E+02  0.46142318877E+02  0.10000010171E+02 0.  0.
         12    1    3    3    0    0 -0.25666360884E+01  0.17649524858E+01  0.44937853863E+02  0.45045681123E+02  0.00000000000E+00 0. -1.
         11    1    4    4    0    0  0.18975217401E+01  0.21129471880E+00 -0.15452840801E+02  0.15570341142E+02  0.51100000000E-03 0.  1.
        -11    1    4    4    0    0  0.68170460612E+00  0.29952146472E+01 -0.12698688205E+02  0.13064942187E+02  0.51100000000E-03 0. -1.
         12    1    4    4    0    0 -0.12590257776E-01 -0.49714618517E+01 -0.16786324857E+02  0.17507035548E+02  0.00000000000E+00 0. -1.
</event>
<event>
 8    1  0.2962813E-009  0.9118800E+02  0.7816164E-02  0.1184000E+00
        -11   -1    0    0    0    0  0.00000000000E+00  0.00000000000E+00  0.45593999997E+02  0.45594000000E+02  0.51100000000E-03 0. -1.
         11   -1    0    0    0    0 -0.00000000000E+00 -0.00000000000E+00 -0.45593999997E+02  0.45594000000E+02  0.51100000000E-03 0.  1.
         23    2    1    2    0    0  0.17763568394E-14  0.35527136788E-14  0.00000000000E+00  0.91188000000E+02  0.91188000000E+02 0.  0.
    9900012    2    3    3    0    0 -0.12540914926E+02 -0.22741510494E+02  0.36805740404E+02  0.46142319037E+02  0.10000011637E+02 0.  0.
        -12    1    3    3    0    0  0.12540914926E+02  0.22741510494E+02 -0.36805740404E+02  0.45045680963E+02  0.00000000000E+00 0.  1.
         11    1    4    4    0    0 -0.54457423085E+01 -0.89253826079E+01  0.13059624835E+02  0.16729386274E+02  0.51100000000E-03 0. -1.
        -11    1    4    4    0    0 -0.47497344215E+01 -0.18502692067E+01  0.58731575403E+01  0.77767250797E+01  0.51100000000E-03 0.  1.
         12    1    4    4    0    0 -0.23454381956E+01 -0.11965858679E+02  0.17872958028E+02  0.21636207684E+02  0.00000000000E+00 0. -1.
</event>
<event>
 8    1  0.2962813E-009  0.9118800E+02  0.7816164E-02  0.1184000E+00
        -11   -1    0    0    0    0  0.00000000000E+00  0.00000000000E+00  0.45593999997E+02  0.45594000000E+02  0.51100000000E-03 0.  1.
         11   -1    0    0    0    0 -0.00000000000E+00 -0.00000000000E+00 -0.45593999997E+02  0.45594000000E+02  0.51100000000E-03 0. -1.
         23    2    1    2    0    0 -0.71054273576E-14 -0.17763568394E-14  0.22204460493E-15  0.91188000000E+02  0.91188000000E+02 0.  0.
    9900012    2    3    3    0    0 -0.43568658080E+02 -0.11337076387E+02 -0.15347968357E+01  0.46142324633E+02  0.10000062666E+02 0.  0.
         12    1    3    3    0    0  0.43568658080E+02  0.11337076387E+02  0.15347968357E+01  0.45045675367E+02  0.00000000000E+00 0. -1.
         11    1    4    4    0    0 -0.16971423009E+02 -0.17855993906E+01 -0.34002294210E+01  0.17400549546E+02  0.51100000000E-03 0. -1.
        -11    1    4    4    0    0 -0.15140383917E+02 -0.34744776203E+01 -0.57857974316E+00  0.15544708896E+02  0.51100000000E-03 0.  1.
         12    1    4    4    0    0 -0.11456851155E+02 -0.60769993758E+01  0.24440123284E+01  0.13197066192E+02  0.00000000000E+00 0. -1.
</event>
<event>
 8    1  0.2962813E-009  0.9118800E+02  0.7816164E-02  0.1184000E+00
        -11   -1    0    0    0    0  0.00000000000E+00  0.00000000000E+00  0.45593999997E+02  0.45594000000E+02  0.51100000000E-03 0.  1.
         11   -1    0    0    0    0 -0.00000000000E+00 -0.00000000000E+00 -0.45593999997E+02  0.45594000000E+02  0.51100000000E-03 0. -1.
         23    2    1    2    0    0  0.35527136788E-14  0.71054273576E-14 -0.17763568394E-14  0.91188000000E+02  0.91188000000E+02 0.  0.
    9900012    2    3    3    0    0  0.23495866366E+02  0.36084636086E+02 -0.13227123645E+02  0.46142317658E+02  0.99999990619E+01 0.  0.
         12    1    3    3    0    0 -0.23495866366E+02 -0.36084636086E+02  0.13227123645E+02  0.45045682342E+02  0.00000000000E+00 0. -1.
         11    1    4    4    0    0  0.19814985872E+01  0.28605912355E+00  0.24571856202E+00  0.20170632975E+01  0.51100000000E-03 0. -1.
        -11    1    4    4    0    0  0.19046472628E+02  0.28601848830E+02 -0.11823099315E+02  0.36340329577E+02  0.51100000000E-03 0.  1.
         12    1    4    4    0    0  0.24678951501E+01  0.71967281326E+01 -0.16497428920E+01  0.77849247842E+01  0.00000000000E+00 0. -1.
</event>
<event>
 8    1  0.2962813E-009  0.9118800E+02  0.7816164E-02  0.1184000E+00
        -11   -1    0    0    0    0  0.00000000000E+00  0.00000000000E+00  0.45593999997E+02  0.45594000000E+02  0.51100000000E-03 0. -1.
         11   -1    0    0    0    0 -0.00000000000E+00 -0.00000000000E+00 -0.45593999997E+02  0.45594000000E+02  0.51100000000E-03 0.  1.
         23    2    1    2    0    0  0.35527136788E-14  0.35527136788E-14  0.00000000000E+00  0.91188000000E+02  0.91188000000E+02 0.  0.
    9900012    2    3    3    0    0  0.86260158106E+01  0.11789260987E+02  0.42611254647E+02  0.46142313792E+02  0.99999638028E+01 0.  0.
        -12    1    3    3    0    0 -0.86260158106E+01 -0.11789260987E+02 -0.42611254647E+02  0.45045686208E+02  0.00000000000E+00 0.  1.
         11    1    4    4    0    0  0.22575009326E+01 -0.12829165817E+01  0.91974429809E+01  0.95569421398E+01  0.51100000000E-03 0. -1.
        -11    1    4    4    0    0  0.64449673629E+01  0.11162209971E+02  0.30358586810E+02  0.32981454320E+02  0.51100000000E-03 0.  1.
        -12    1    4    4    0    0 -0.76452484889E-01  0.19099675983E+01  0.30552248565E+01  0.36039173315E+01  0.00000000000E+00 0.  1.
</event>
<event>
 8    1  0.2962813E-009  0.9118800E+02  0.7816164E-02  0.1184000E+00
        -11   -1    0    0    0    0  0.00000000000E+00  0.00000000000E+00  0.45593999997E+02  0.45594000000E+02  0.51100000000E-03 0. -1.
         11   -1    0    0    0    0 -0.00000000000E+00 -0.00000000000E+00 -0.45593999997E+02  0.45594000000E+02  0.51100000000E-03 0.  1.
         23    2    1    2    0    0 -0.71054273576E-14  0.72164496601E-15  0.22204460493E-15  0.91188000000E+02  0.91188000000E+02 0.  0.
    9900012    2    3    3    0    0  0.45016638483E+02 -0.37570381510E+00  0.15730999610E+01  0.46142317219E+02  0.99999950593E+01 0.  0.
        -12    1    3    3    0    0 -0.45016638483E+02  0.37570381510E+00 -0.15730999610E+01  0.45045682781E+02  0.00000000000E+00 0.  1.
         11    1    4    4    0    0  0.15491818925E+02 -0.38668850027E+01 -0.72040471543E+00  0.15983373750E+02  0.51100000000E-03 0. -1.
        -11    1    4    4    0    0  0.10953348068E+01  0.19388261456E+00 -0.80291808962E+00  0.13718697194E+01  0.51100000000E-03 0.  1.
         12    1    4    4    0    0  0.28429484752E+02  0.32972985730E+01  0.30964227660E+01  0.28787073750E+02  0.00000000000E+00 0. -1.
</event>
<event>
 8    1  0.2962813E-009  0.9118800E+02  0.7816164E-02  0.1184000E+00
        -11   -1    0    0    0    0  0.00000000000E+00  0.00000000000E+00  0.45593999997E+02  0.45594000000E+02  0.51100000000E-03 0. -1.
         11   -1    0    0    0    0 -0.00000000000E+00 -0.00000000000E+00 -0.45593999997E+02  0.45594000000E+02  0.51100000000E-03 0.  1.
         23    2    1    2    0    0  0.00000000000E+00  0.00000000000E+00  0.00000000000E+00  0.91188000000E+02  0.91188000000E+02 0.  0.
    9900012    2    3    3    0    0  0.98013939998E+01 -0.23821266692E+02 -0.36953936623E+02  0.46142317597E+02  0.99999985061E+01 0.  0.
         12    1    3    3    0    0 -0.98013939998E+01  0.23821266692E+02  0.36953936623E+02  0.45045682403E+02  0.00000000000E+00 0. -1.
         11    1    4    4    0    0  0.35623915700E+01 -0.89048195901E+01 -0.69677556009E+01  0.11854790762E+02  0.51100000000E-03 0. -1.
        -11    1    4    4    0    0  0.86889185914E+00 -0.52753555537E+01 -0.71834850856E+01  0.89547086785E+01  0.51100000000E-03 0.  1.
         12    1    4    4    0    0  0.53701105707E+01 -0.96410915484E+01 -0.22802695937E+02  0.25332818157E+02  0.00000000000E+00 0. -1.
</event>
<event>
 8    1  0.2962813E-009  0.9118800E+02  0.7816164E-02  0.1184000E+00
        -11   -1    0    0    0    0  0.00000000000E+00  0.00000000000E+00  0.45593999997E+02  0.45594000000E+02  0.51100000000E-03 0.  1.
         11   -1    0    0    0    0 -0.00000000000E+00 -0.00000000000E+00 -0.45593999997E+02  0.45594000000E+02  0.51100000000E-03 0. -1.
         23    2    1    2    0    0  0.00000000000E+00 -0.17763568394E-14  0.00000000000E+00  0.91188000000E+02  0.91188000000E+02 0.  0.
    9900012    2    3    3    0    0  0.34159909711E+02  0.14384249745E+02 -0.25598972410E+02  0.46142318069E+02  0.10000002808E+02 0.  0.
         12    1    3    3    0    0 -0.34159909711E+02 -0.14384249745E+02  0.25598972410E+02  0.45045681931E+02  0.00000000000E+00 0. -1.
         11    1    4    4    0    0  0.12065288303E+02  0.42087002145E+01 -0.37176236578E+01  0.13308082704E+02  0.51100000000E-03 0. -1.
        -11    1    4    4    0    0  0.15095576269E+02  0.56664130369E+01 -0.13643184595E+02  0.21121580096E+02  0.51100000000E-03 0.  1.
        -12    1    4    4    0    0  0.69990451389E+01  0.45091364933E+01 -0.82381641569E+01  0.11712655269E+02  0.00000000000E+00 0.  1.
</event>
<event>
 8    1  0.2962813E-009  0.9118800E+02  0.7816164E-02  0.1184000E+00
        -11   -1    0    0    0    0  0.00000000000E+00  0.00000000000E+00  0.45593999997E+02  0.45594000000E+02  0.51100000000E-03 0.  1.
         11   -1    0    0    0    0 -0.00000000000E+00 -0.00000000000E+00 -0.45593999997E+02  0.45594000000E+02  0.51100000000E-03 0. -1.
         23    2    1    2    0    0  0.00000000000E+00  0.00000000000E+00 -0.17763568394E-14  0.91188000000E+02  0.91188000000E+02 0.  0.
    9900012    2    3    3    0    0 -0.27962662809E+02 -0.34377996195E+02  0.80843282252E+01  0.46142317669E+02  0.99999991644E+01 0.  0.
        -12    1    3    3    0    0  0.27962662809E+02  0.34377996195E+02 -0.80843282252E+01  0.45045682331E+02  0.00000000000E+00 0.  1.
         11    1    4    4    0    0 -0.23851195378E+02 -0.31386141308E+02  0.70100942399E+01  0.40038866226E+02  0.51100000000E-03 0. -1.
        -11    1    4    4    0    0 -0.28729249369E+01 -0.17720686537E+00  0.10909313537E+00  0.28804516207E+01  0.51100000000E-03 0.  1.
         12    1    4    4    0    0 -0.12385424946E+01 -0.28146480219E+01  0.96514084995E+00  0.32229998229E+01  0.00000000000E+00 0. -1.
</event>
<event>
 8    1  0.2962813E-009  0.9118800E+02  0.7816164E-02  0.1184000E+00
        -11   -1    0    0    0    0  0.00000000000E+00  0.00000000000E+00  0.45593999997E+02  0.45594000000E+02  0.51100000000E-03 0. -1.
         11   -1    0    0    0    0 -0.00000000000E+00 -0.00000000000E+00 -0.45593999997E+02  0.45594000000E+02  0.51100000000E-03 0.  1.
         23    2    1    2    0    0  0.00000000000E+00 -0.17763568394E-14 -0.71054273576E-14  0.91188000000E+02  0.91188000000E+02 0.  0.
    9900012    2    3    3    0    0 -0.14427977673E+02 -0.10435039219E+02  0.41377012548E+02  0.46142314850E+02  0.99999734578E+01 0.  0.
        -12    1    3    3    0    0  0.14427977673E+02  0.10435039219E+02 -0.41377012548E+02  0.45045685150E+02  0.00000000000E+00 0.  1.
         11    1    4    4    0    0 -0.70427696790E+01 -0.29015002200E+01  0.97650003842E+01  0.12384447547E+02  0.51100000000E-03 0. -1.
        -11    1    4    4    0    0 -0.80647453377E+01 -0.57336886796E+01  0.25616652968E+02  0.27461394954E+02  0.51100000000E-03 0.  1.
        -12    1    4    4    0    0  0.67953734396E+00 -0.17998503191E+01  0.59953591952E+01  0.62964723498E+01  0.00000000000E+00 0.  1.
</event>
<event>
 8    1  0.2962813E-009  0.9118800E+02  0.7816164E-02  0.1184000E+00
        -11   -1    0    0    0    0  0.00000000000E+00  0.00000000000E+00  0.45593999997E+02  0.45594000000E+02  0.51100000000E-03 0. -1.
         11   -1    0    0    0    0 -0.00000000000E+00 -0.00000000000E+00 -0.45593999997E+02  0.45594000000E+02  0.51100000000E-03 0.  1.
         23    2    1    2    0    0  0.35527136788E-14  0.00000000000E+00  0.00000000000E+00  0.91188000000E+02  0.91188000000E+02 0.  0.
    9900012    2    3    3    0    0  0.28098042862E+02  0.11831973774E+02  0.33160487282E+02  0.46142317267E+02  0.99999954965E+01 0.  0.
        -12    1    3    3    0    0 -0.28098042862E+02 -0.11831973774E+02 -0.33160487282E+02  0.45045682733E+02  0.00000000000E+00 0.  1.
         11    1    4    4    0    0  0.98753295774E+01  0.35364824337E+01  0.65293163703E+01  0.12355598520E+02  0.51100000000E-03 0. -1.
        -11    1    4    4    0    0  0.69815837885E+01  0.59094523384E+01  0.97859273445E+01  0.13395092885E+02  0.51100000000E-03 0.  1.
        -12    1    4    4    0    0  0.11241129496E+02  0.23860390017E+01  0.16845243567E+02  0.20391625862E+02  0.00000000000E+00 0.  1.
</event>
<event>
 8    1  0.2962813E-009  0.9118800E+02  0.7816164E-02  0.1184000E+00
        -11   -1    0    0    0    0  0.00000000000E+00  0.00000000000E+00  0.45593999997E+02  0.45594000000E+02  0.51100000000E-03 0. -1.
         11   -1    0    0    0    0 -0.00000000000E+00 -0.00000000000E+00 -0.45593999997E+02  0.45594000000E+02  0.51100000000E-03 0.  1.
         23    2    1    2    0    0  0.44408920985E-15  0.00000000000E+00 -0.35527136788E-14  0.91188000000E+02  0.91188000000E+02 0.  0.
    9900012    2    3    3    0    0 -0.26386447988E+01 -0.32136584958E+02  0.31454586335E+02  0.46142317181E+02  0.99999947110E+01 0.  0.
        -12    1    3    3    0    0  0.26386447988E+01  0.32136584958E+02 -0.31454586335E+02  0.45045682819E+02  0.00000000000E+00 0.  1.
         11    1    4    4    0    0 -0.12410831758E+01 -0.20206742348E+02  0.24356641357E+02  0.31671733489E+02  0.51100000000E-03 0. -1.
        -11    1    4    4    0    0 -0.22469837418E+01 -0.58511000052E+01  0.48831527665E+01  0.79454067491E+01  0.51100000000E-03 0.  1.
        -12    1    4    4    0    0  0.84942211873E+00 -0.60787426051E+01  0.22147922109E+01  0.65251769426E+01  0.00000000000E+00 0.  1.
</event>
<event>
 8    1  0.2962813E-009  0.9118800E+02  0.7816164E-02  0.1184000E+00
        -11   -1    0    0    0    0  0.00000000000E+00  0.00000000000E+00  0.45593999997E+02  0.45594000000E+02  0.51100000000E-03 0. -1.
         11   -1    0    0    0    0 -0.00000000000E+00 -0.00000000000E+00 -0.45593999997E+02  0.45594000000E+02  0.51100000000E-03 0.  1.
         23    2    1    2    0    0  0.00000000000E+00  0.00000000000E+00  0.71054273576E-14  0.91188000000E+02  0.91188000000E+02 0.  0.
    9900012    2    3    3    0    0 -0.14289916409E+02  0.18900484544E+02  0.38310364829E+02  0.46142311190E+02  0.99999400811E+01 0.  0.
        -12    1    3    3    0    0  0.14289916409E+02 -0.18900484544E+02 -0.38310364829E+02  0.45045688810E+02  0.00000000000E+00 0.  1.
         11    1    4    4    0    0 -0.56041454100E+01  0.46323899033E+01  0.10076469813E+02  0.12425808873E+02  0.51100000000E-03 0. -1.
        -11    1    4    4    0    0 -0.14792533136E+01 -0.61919346059E+00  0.11199963866E+01  0.19560120333E+01  0.51100000000E-03 0.  1.
        -12    1    4    4    0    0 -0.72065176851E+01  0.14887288102E+02  0.27113898630E+02  0.31760490284E+02  0.00000000000E+00 0.  1.
</event>
<event>
 8    1  0.2962813E-009  0.9118800E+02  0.7816164E-02  0.1184000E+00
        -11   -1    0    0    0    0  0.00000000000E+00  0.00000000000E+00  0.45593999997E+02  0.45594000000E+02  0.51100000000E-03 0.  1.
         11   -1    0    0    0    0 -0.00000000000E+00 -0.00000000000E+00 -0.45593999997E+02  0.45594000000E+02  0.51100000000E-03 0. -1.
         23    2    1    2    0    0  0.00000000000E+00 -0.71054273576E-14  0.00000000000E+00  0.91188000000E+02  0.91188000000E+02 0.  0.
    9900012    2    3    3    0    0  0.21371154968E+01  0.44979964268E+02  0.11615167153E+01  0.46142316863E+02  0.99999918123E+01 0.  0.
        -12    1    3    3    0    0 -0.21371154968E+01 -0.44979964268E+02 -0.11615167153E+01  0.45045683137E+02  0.00000000000E+00 0.  1.
         11    1    4    4    0    0 -0.17738032781E+00  0.10912469896E+02 -0.23742168462E+01  0.11169170466E+02  0.51100000000E-03 0.  1.
        -11    1    4    4    0    0  0.12288897725E+01  0.66700353621E+01  0.33247473489E+01  0.75533758678E+01  0.51100000000E-03 0. -1.
         12    1    4    4    0    0  0.10856060521E+01  0.27397459010E+02  0.21098621260E+00  0.27419770529E+02  0.00000000000E+00 0. -1.
</event>
<event>
 8    1  0.2962813E-009  0.9118800E+02  0.7816164E-02  0.1184000E+00
        -11   -1    0    0    0    0  0.00000000000E+00  0.00000000000E+00  0.45593999997E+02  0.45594000000E+02  0.51100000000E-03 0. -1.
         11   -1    0    0    0    0 -0.00000000000E+00 -0.00000000000E+00 -0.45593999997E+02  0.45594000000E+02  0.51100000000E-03 0.  1.
         23    2    1    2    0    0  0.00000000000E+00  0.88817841970E-15 -0.71054273576E-14  0.91188000000E+02  0.91188000000E+02 0.  0.
    9900012    2    3    3    0    0  0.20172517011E+02  0.40055971006E+01 -0.40076654777E+02  0.46142317535E+02  0.99999979356E+01 0.  0.
         12    1    3    3    0    0 -0.20172517011E+02 -0.40055971006E+01  0.40076654777E+02  0.45045682465E+02  0.00000000000E+00 0. -1.
         11    1    4    4    0    0  0.62606459138E+01  0.26457562052E+01 -0.76777932524E+01  0.10253985695E+02  0.51100000000E-03 0. -1.
        -11    1    4    4    0    0  0.10182659255E+02  0.39069844988E+01 -0.22204764357E+02  0.24738687066E+02  0.51100000000E-03 0.  1.
        -12    1    4    4    0    0  0.37292118422E+01 -0.25471436034E+01 -0.10194097168E+02  0.11149644773E+02  0.00000000000E+00 0.  1.
</event>
<event>
 8    1  0.2962813E-009  0.9118800E+02  0.7816164E-02  0.1184000E+00
        -11   -1    0    0    0    0  0.00000000000E+00  0.00000000000E+00  0.45593999997E+02  0.45594000000E+02  0.51100000000E-03 0. -1.
         11   -1    0    0    0    0 -0.00000000000E+00 -0.00000000000E+00 -0.45593999997E+02  0.45594000000E+02  0.51100000000E-03 0.  1.
         23    2    1    2    0    0 -0.35527136788E-14  0.00000000000E+00  0.35527136788E-14  0.91188000000E+02  0.91188000000E+02 0.  0.
    9900012    2    3    3    0    0  0.27341860936E+02 -0.25337438139E+02 -0.25289333762E+02  0.46142317265E+02  0.99999954782E+01 0.  0.
         12    1    3    3    0    0 -0.27341860936E+02  0.25337438139E+02  0.25289333762E+02  0.45045682735E+02  0.00000000000E+00 0. -1.
         11    1    4    4    0    0  0.42026628016E+01 -0.11627343012E+01 -0.38001312076E+01  0.57840576705E+01  0.51100000000E-03 0. -1.
        -11    1    4    4    0    0  0.16869762104E+02 -0.18333401052E+02 -0.12269103807E+02  0.27771088853E+02  0.51100000000E-03 0.  1.
         12    1    4    4    0    0  0.62694360312E+01 -0.58413027860E+01 -0.92200987470E+01  0.12587170742E+02  0.00000000000E+00 0. -1.
</event>
<event>
 8    1  0.2962813E-009  0.9118800E+02  0.7816164E-02  0.1184000E+00
        -11   -1    0    0    0    0  0.00000000000E+00  0.00000000000E+00  0.45593999997E+02  0.45594000000E+02  0.51100000000E-03 0. -1.
         11   -1    0    0    0    0 -0.00000000000E+00 -0.00000000000E+00 -0.45593999997E+02  0.45594000000E+02  0.51100000000E-03 0.  1.
         23    2    1    2    0    0  0.00000000000E+00 -0.35527136788E-14  0.00000000000E+00  0.91188000000E+02  0.91188000000E+02 0.  0.
    9900012    2    3    3    0    0  0.32839624246E+02 -0.30226446740E+02  0.60855965564E+01  0.46142317758E+02  0.99999999728E+01 0.  0.
        -12    1    3    3    0    0 -0.32839624246E+02  0.30226446740E+02 -0.60855965564E+01  0.45045682242E+02  0.00000000000E+00 0.  1.
         11    1    4    4    0    0  0.56304379306E+01 -0.80710456207E+01  0.15896195158E+01  0.99684752680E+01  0.51100000000E-03 0. -1.
        -11    1    4    4    0    0  0.25932076423E+02 -0.22553078557E+02  0.35813404059E+01  0.34553435999E+02  0.51100000000E-03 0.  1.
        -12    1    4    4    0    0  0.12771098932E+01  0.39767743703E+00  0.91463663473E+00  0.16204064912E+01  0.00000000000E+00 0.  1.
</event>
<event>
 8    1  0.2962813E-009  0.9118800E+02  0.7816164E-02  0.1184000E+00
        -11   -1    0    0    0    0  0.00000000000E+00  0.00000000000E+00  0.45593999997E+02  0.45594000000E+02  0.51100000000E-03 0. -1.
         11   -1    0    0    0    0 -0.00000000000E+00 -0.00000000000E+00 -0.45593999997E+02  0.45594000000E+02  0.51100000000E-03 0.  1.
         23    2    1    2    0    0  0.00000000000E+00  0.00000000000E+00  0.00000000000E+00  0.91188000000E+02  0.91188000000E+02 0.  0.
    9900012    2    3    3    0    0 -0.31048749798E+02  0.77858294754E+01  0.31693365014E+02  0.46142318846E+02  0.10000009896E+02 0.  0.
        -12    1    3    3    0    0  0.31048749798E+02 -0.77858294754E+01 -0.31693365014E+02  0.45045681154E+02  0.00000000000E+00 0.  1.
         11    1    4    4    0    0 -0.88667707074E+01  0.15594859935E+01  0.93218869145E+01  0.12959521413E+02  0.51100000000E-03 0. -1.
        -11    1    4    4    0    0 -0.57822396083E+01  0.30810157810E+01  0.11566610387E+02  0.13293360344E+02  0.51100000000E-03 0.  1.
        -12    1    4    4    0    0 -0.16399739483E+02  0.31453277009E+01  0.10804867713E+02  0.19889437090E+02  0.00000000000E+00 0.  1.
</event>
<event>
 8    1  0.2962813E-009  0.9118800E+02  0.7816164E-02  0.1184000E+00
        -11   -1    0    0    0    0  0.00000000000E+00  0.00000000000E+00  0.45593999997E+02  0.45594000000E+02  0.51100000000E-03 0. -1.
         11   -1    0    0    0    0 -0.00000000000E+00 -0.00000000000E+00 -0.45593999997E+02  0.45594000000E+02  0.51100000000E-03 0.  1.
         23    2    1    2    0    0  0.00000000000E+00  0.00000000000E+00  0.00000000000E+00  0.91188000000E+02  0.91188000000E+02 0.  0.
    9900012    2    3    3    0    0  0.44043610417E+02  0.78346251087E+01 -0.52813303966E+01  0.46142318521E+02  0.10000006930E+02 0.  0.
         12    1    3    3    0    0 -0.44043610417E+02 -0.78346251087E+01  0.52813303966E+01  0.45045681479E+02  0.00000000000E+00 0. -1.
         11    1    4    4    0    0  0.13281641842E+02 -0.10457738034E+01  0.43520147710E-01  0.13322820539E+02  0.51100000000E-03 0. -1.
        -11    1    4    4    0    0  0.12311833456E+02  0.60406711542E+01 -0.20216627285E+01  0.13862109201E+02  0.51100000000E-03 0.  1.
        -12    1    4    4    0    0  0.18450135119E+02  0.28397277578E+01 -0.33031878158E+01  0.18957388781E+02  0.00000000000E+00 0.  1.
</event>
<event>
 8    1  0.2962813E-009  0.9118800E+02  0.7816164E-02  0.1184000E+00
        -11   -1    0    0    0    0  0.00000000000E+00  0.00000000000E+00  0.45593999997E+02  0.45594000000E+02  0.51100000000E-03 0. -1.
         11   -1    0    0    0    0 -0.00000000000E+00 -0.00000000000E+00 -0.45593999997E+02  0.45594000000E+02  0.51100000000E-03 0.  1.
         23    2    1    2    0    0  0.88817841970E-15  0.00000000000E+00  0.00000000000E+00  0.91188000000E+02  0.91188000000E+02 0.  0.
    9900012    2    3    3    0    0 -0.67818857166E+01 -0.25188292792E+02  0.36724234589E+02  0.46142317923E+02  0.10000001478E+02 0.  0.
        -12    1    3    3    0    0  0.67818857166E+01  0.25188292792E+02 -0.36724234589E+02  0.45045682077E+02  0.00000000000E+00 0.  1.
         11    1    4    4    0    0 -0.11512425477E+01 -0.62657141426E+01  0.12885855752E+02  0.14374623885E+02  0.51100000000E-03 0. -1.
        -11    1    4    4    0    0 -0.27616094168E+01 -0.23523507316E+01  0.74493372907E+01  0.82856904883E+01  0.51100000000E-03 0.  1.
         12    1    4    4    0    0 -0.28690337521E+01 -0.16570227918E+02  0.16389041546E+02  0.23482003550E+02  0.00000000000E+00 0. -1.
</event>
<event>
 8    1  0.2962813E-009  0.9118800E+02  0.7816164E-02  0.1184000E+00
        -11   -1    0    0    0    0  0.00000000000E+00  0.00000000000E+00  0.45593999997E+02  0.45594000000E+02  0.51100000000E-03 0. -1.
         11   -1    0    0    0    0 -0.00000000000E+00 -0.00000000000E+00 -0.45593999997E+02  0.45594000000E+02  0.51100000000E-03 0.  1.
         23    2    1    2    0    0  0.00000000000E+00  0.71054273576E-14  0.00000000000E+00  0.91188000000E+02  0.91188000000E+02 0.  0.
    9900012    2    3    3    0    0 -0.12822637746E+02  0.24971365040E+02 -0.35229595427E+02  0.46142317581E+02  0.99999983537E+01 0.  0.
         12    1    3    3    0    0  0.12822637746E+02 -0.24971365040E+02  0.35229595427E+02  0.45045682419E+02  0.00000000000E+00 0. -1.
         11    1    4    4    0    0 -0.23633937698E+01  0.10512907520E+01 -0.59622402370E+00  0.26544916093E+01  0.51100000000E-03 0. -1.
        -11    1    4    4    0    0 -0.93010186044E+01  0.18363038076E+02 -0.26130838811E+02  0.33264558493E+02  0.51100000000E-03 0.  1.
         12    1    4    4    0    0 -0.11582253716E+01  0.55570362116E+01 -0.85025325914E+01  0.10223267478E+02  0.00000000000E+00 0. -1.
</event>
<event>
 8    1  0.2962813E-009  0.9118800E+02  0.7816164E-02  0.1184000E+00
        -11   -1    0    0    0    0  0.00000000000E+00  0.00000000000E+00  0.45593999997E+02  0.45594000000E+02  0.51100000000E-03 0. -1.
         11   -1    0    0    0    0 -0.00000000000E+00 -0.00000000000E+00 -0.45593999997E+02  0.45594000000E+02  0.51100000000E-03 0.  1.
         23    2    1    2    0    0  0.71054273576E-14 -0.49960036108E-15  0.35527136788E-14  0.91188000000E+02  0.91188000000E+02 0.  0.
    9900012    2    3    3    0    0  0.39306361499E+02 -0.38496303953E+00  0.21999437136E+02  0.46142317797E+02  0.10000000330E+02 0.  0.
        -12    1    3    3    0    0 -0.39306361499E+02  0.38496303953E+00 -0.21999437136E+02  0.45045682203E+02  0.00000000000E+00 0.  1.
         11    1    4    4    0    0  0.21181306740E+02 -0.33284718360E+01  0.13575171163E+02  0.25377386634E+02  0.51100000000E-03 0. -1.
        -11    1    4    4    0    0  0.12676971292E+02  0.24679234397E+00  0.41788551494E+01  0.13350256111E+02  0.51100000000E-03 0.  1.
         12    1    4    4    0    0  0.54480834664E+01  0.26967164525E+01  0.42454108228E+01  0.74146750526E+01  0.00000000000E+00 0. -1.
</event>
<event>
 8    1  0.2962813E-009  0.9118800E+02  0.7816164E-02  0.1184000E+00
        -11   -1    0    0    0    0  0.00000000000E+00  0.00000000000E+00  0.45593999997E+02  0.45594000000E+02  0.51100000000E-03 0. -1.
         11   -1    0    0    0    0 -0.00000000000E+00 -0.00000000000E+00 -0.45593999997E+02  0.45594000000E+02  0.51100000000E-03 0.  1.
         23    2    1    2    0    0  0.00000000000E+00  0.00000000000E+00  0.00000000000E+00  0.91188000000E+02  0.91188000000E+02 0.  0.
    9900012    2    3    3    0    0  0.27263061341E+02 -0.39887036018E+01 -0.35636066292E+02  0.46142317733E+02  0.99999997461E+01 0.  0.
         12    1    3    3    0    0 -0.27263061341E+02  0.39887036018E+01  0.35636066292E+02  0.45045682267E+02  0.00000000000E+00 0. -1.
         11    1    4    4    0    0 -0.26485991777E+00  0.45132117519E+00 -0.30843838501E+00  0.60743401097E+00  0.51100000000E-03 0. -1.
        -11    1    4    4    0    0  0.28460373961E+01  0.16109371681E+01 -0.48959859473E+01  0.58877607014E+01  0.51100000000E-03 0.  1.
        -12    1    4    4    0    0  0.24681883862E+02 -0.60509619451E+01 -0.30431641960E+02  0.39647123021E+02  0.00000000000E+00 0.  1.
</event>
<event>
 8    1  0.2962813E-009  0.9118800E+02  0.7816164E-02  0.1184000E+00
        -11   -1    0    0    0    0  0.00000000000E+00  0.00000000000E+00  0.45593999997E+02  0.45594000000E+02  0.51100000000E-03 0. -1.
         11   -1    0    0    0    0 -0.00000000000E+00 -0.00000000000E+00 -0.45593999997E+02  0.45594000000E+02  0.51100000000E-03 0.  1.
         23    2    1    2    0    0  0.00000000000E+00  0.00000000000E+00  0.00000000000E+00  0.91188000000E+02  0.91188000000E+02 0.  0.
    9900012    2    3    3    0    0  0.30233388648E+02 -0.21760696287E+02 -0.25328398430E+02  0.46142318086E+02  0.10000002966E+02 0.  0.
         12    1    3    3    0    0 -0.30233388648E+02  0.21760696287E+02  0.25328398430E+02  0.45045681914E+02  0.00000000000E+00 0. -1.
         11    1    4    4    0    0 -0.43424886973E+00  0.13397405939E+00 -0.14346215377E+00  0.47655301923E+00  0.51100000000E-03 0. -1.
        -11    1    4    4    0    0  0.11422976651E+02 -0.85032821873E+01 -0.12813148455E+02  0.19156382151E+02  0.51100000000E-03 0.  1.
        -12    1    4    4    0    0  0.19244660866E+02 -0.13391388159E+02 -0.12371787821E+02  0.26509382916E+02  0.00000000000E+00 0.  1.
</event>
<event>
 8    1  0.2962813E-009  0.9118800E+02  0.7816164E-02  0.1184000E+00
        -11   -1    0    0    0    0  0.00000000000E+00  0.00000000000E+00  0.45593999997E+02  0.45594000000E+02  0.51100000000E-03 0. -1.
         11   -1    0    0    0    0 -0.00000000000E+00 -0.00000000000E+00 -0.45593999997E+02  0.45594000000E+02  0.51100000000E-03 0.  1.
         23    2    1    2    0    0 -0.44408920985E-15  0.35527136788E-14 -0.71054273576E-14  0.91188000000E+02  0.91188000000E+02 0.  0.
    9900012    2    3    3    0    0 -0.32480444240E+01  0.18470844082E+02 -0.40955970514E+02  0.46142318804E+02  0.10000009506E+02 0.  0.
         12    1    3    3    0    0  0.32480444240E+01 -0.18470844082E+02  0.40955970514E+02  0.45045681196E+02  0.00000000000E+00 0. -1.
         11    1    4    4    0    0 -0.15355274007E+01  0.79750563115E+00 -0.11685793034E+02  0.11813196804E+02  0.51100000000E-03 0. -1.
        -11    1    4    4    0    0 -0.12132795224E+01  0.93626409997E+01 -0.17893874611E+02  0.20231703896E+02  0.51100000000E-03 0.  1.
         12    1    4    4    0    0 -0.49923750096E+00  0.83106974515E+01 -0.11376302869E+02  0.14097418103E+02  0.00000000000E+00 0. -1.
</event>
<event>
 8    1  0.2962813E-009  0.9118800E+02  0.7816164E-02  0.1184000E+00
        -11   -1    0    0    0    0  0.00000000000E+00  0.00000000000E+00  0.45593999997E+02  0.45594000000E+02  0.51100000000E-03 0. -1.
         11   -1    0    0    0    0 -0.00000000000E+00 -0.00000000000E+00 -0.45593999997E+02  0.45594000000E+02  0.51100000000E-03 0.  1.
         23    2    1    2    0    0  0.35527136788E-14  0.88817841970E-15  0.00000000000E+00  0.91188000000E+02  0.91188000000E+02 0.  0.
    9900012    2    3    3    0    0 -0.25565701489E+02 -0.27979673437E+01  0.36982155297E+02  0.46142317363E+02  0.99999963674E+01 0.  0.
        -12    1    3    3    0    0  0.25565701489E+02  0.27979673437E+01 -0.36982155297E+02  0.45045682637E+02  0.00000000000E+00 0.  1.
         11    1    4    4    0    0 -0.71392214598E+01  0.26632119969E+00  0.18499221482E+02  0.19830799422E+02  0.51100000000E-03 0. -1.
        -11    1    4    4    0    0 -0.31531111299E+01 -0.95352416434E+00  0.28788791036E+01  0.43748443725E+01  0.51100000000E-03 0.  1.
         12    1    4    4    0    0 -0.15273368899E+02 -0.21107643791E+01  0.15604054711E+02  0.21936673568E+02  0.00000000000E+00 0. -1.
</event>
<event>
 8    1  0.2962813E-009  0.9118800E+02  0.7816164E-02  0.1184000E+00
        -11   -1    0    0    0    0  0.00000000000E+00  0.00000000000E+00  0.45593999997E+02  0.45594000000E+02  0.51100000000E-03 0. -1.
         11   -1    0    0    0    0 -0.00000000000E+00 -0.00000000000E+00 -0.45593999997E+02  0.45594000000E+02  0.51100000000E-03 0.  1.
         23    2    1    2    0    0  0.35527136788E-14  0.00000000000E+00 -0.71054273576E-14  0.91188000000E+02  0.91188000000E+02 0.  0.
    9900012    2    3    3    0    0 -0.24666198466E+02  0.91746811114E+01  0.36558410982E+02  0.46142317256E+02  0.99999953978E+01 0.  0.
        -12    1    3    3    0    0  0.24666198466E+02 -0.91746811114E+01 -0.36558410982E+02  0.45045682744E+02  0.00000000000E+00 0.  1.
         11    1    4    4    0    0 -0.75129794089E+01  0.39802020919E+01  0.18578894320E+02  0.20431891315E+02  0.51100000000E-03 0.  1.
        -11    1    4    4    0    0 -0.14113990239E+02  0.25552579086E+01  0.13689102626E+02  0.19827395048E+02  0.51100000000E-03 0. -1.
         12    1    4    4    0    0 -0.30392288186E+01  0.26392211109E+01  0.42904140366E+01  0.58830308932E+01  0.00000000000E+00 0. -1.
</event>
<event>
 8    1  0.3255448E-009  0.9118800E+02  0.7816164E-02  0.1184000E+00
        -11   -1    0    0    0    0  0.00000000000E+00  0.00000000000E+00  0.45593999997E+02  0.45594000000E+02  0.51100000000E-03 0. -1.
         11   -1    0    0    0    0 -0.00000000000E+00 -0.00000000000E+00 -0.45593999997E+02  0.45594000000E+02  0.51100000000E-03 0.  1.
         23    2    1    2    0    0  0.35527136788E-14  0.00000000000E+00  0.00000000000E+00  0.91188000000E+02  0.91188000000E+02 0.  0.
    9900012    2    3    3    0    0  0.23029322159E+02 -0.26930656328E+02 -0.27811929866E+02  0.46142319051E+02  0.10000011758E+02 0.  0.
         12    1    3    3    0    0 -0.23029322159E+02  0.26930656328E+02  0.27811929866E+02  0.45045680949E+02  0.00000000000E+00 0. -1.
         11    1    4    4    0    0  0.26799866727E+01 -0.25435192283E+01 -0.42297768268E+00  0.37189688103E+01  0.51100000000E-03 0. -1.
        -11    1    4    4    0    0  0.19126793802E+02 -0.22584213921E+02 -0.27267330135E+02  0.40241623383E+02  0.51100000000E-03 0.  1.
        -12    1    4    4    0    0  0.12225416847E+01 -0.18029231778E+01 -0.12162204836E+00  0.21817268570E+01  0.00000000000E+00 0.  1.
</event>
<event>
 8    1  0.2962813E-009  0.9118800E+02  0.7816164E-02  0.1184000E+00
        -11   -1    0    0    0    0  0.00000000000E+00  0.00000000000E+00  0.45593999997E+02  0.45594000000E+02  0.51100000000E-03 0. -1.
         11   -1    0    0    0    0 -0.00000000000E+00 -0.00000000000E+00 -0.45593999997E+02  0.45594000000E+02  0.51100000000E-03 0.  1.
         23    2    1    2    0    0  0.00000000000E+00  0.17763568394E-14  0.00000000000E+00  0.91188000000E+02  0.91188000000E+02 0.  0.
    9900012    2    3    3    0    0 -0.38732041058E+01  0.88845907266E+01 -0.43990633043E+02  0.46142318099E+02  0.10000003082E+02 0.  0.
         12    1    3    3    0    0  0.38732041058E+01 -0.88845907266E+01  0.43990633043E+02  0.45045681901E+02  0.00000000000E+00 0. -1.
         11    1    4    4    0    0 -0.12854566119E+01  0.39711592015E+01 -0.53365057439E+01  0.67750127617E+01  0.51100000000E-03 0. -1.
        -11    1    4    4    0    0 -0.25547913972E+00  0.25853709859E+01 -0.58854205955E+01  0.64333186283E+01  0.51100000000E-03 0.  1.
         12    1    4    4    0    0 -0.23322683542E+01  0.23280605391E+01 -0.32768706703E+02  0.32933986709E+02  0.00000000000E+00 0. -1.
</event>
<event>
 8    1  0.2962813E-009  0.9118800E+02  0.7816164E-02  0.1184000E+00
        -11   -1    0    0    0    0  0.00000000000E+00  0.00000000000E+00  0.45593999997E+02  0.45594000000E+02  0.51100000000E-03 0. -1.
         11   -1    0    0    0    0 -0.00000000000E+00 -0.00000000000E+00 -0.45593999997E+02  0.45594000000E+02  0.51100000000E-03 0.  1.
         23    2    1    2    0    0  0.00000000000E+00  0.00000000000E+00  0.00000000000E+00  0.91188000000E+02  0.91188000000E+02 0.  0.
    9900012    2    3    3    0    0 -0.39064287851E+01  0.44870335342E+02 -0.71145545748E+00  0.46142319315E+02  0.10000014169E+02 0.  0.
         12    1    3    3    0    0  0.39064287851E+01 -0.44870335342E+02  0.71145545748E+00  0.45045680685E+02  0.00000000000E+00 0. -1.
         11    1    4    4    0    0 -0.28287427983E+01  0.25536628129E+02 -0.35996444191E+01  0.25943758444E+02  0.51100000000E-03 0. -1.
        -11    1    4    4    0    0 -0.45137610789E+00  0.59982313862E+01 -0.14011717949E+01  0.61762288504E+01  0.51100000000E-03 0.  1.
         12    1    4    4    0    0 -0.62630987895E+00  0.13335475826E+02  0.42893607566E+01  0.14022332020E+02  0.00000000000E+00 0. -1.
</event>
<event>
 8    1  0.2962813E-009  0.9118800E+02  0.7816164E-02  0.1184000E+00
        -11   -1    0    0    0    0  0.00000000000E+00  0.00000000000E+00  0.45593999997E+02  0.45594000000E+02  0.51100000000E-03 0. -1.
         11   -1    0    0    0    0 -0.00000000000E+00 -0.00000000000E+00 -0.45593999997E+02  0.45594000000E+02  0.51100000000E-03 0.  1.
         23    2    1    2    0    0  0.71054273576E-14  0.00000000000E+00  0.00000000000E+00  0.91188000000E+02  0.91188000000E+02 0.  0.
    9900012    2    3    3    0    0  0.38646409164E+02  0.13251378995E+02 -0.18972858600E+02  0.46142319297E+02  0.10000014006E+02 0.  0.
         12    1    3    3    0    0 -0.38646409164E+02 -0.13251378995E+02  0.18972858600E+02  0.45045680703E+02  0.00000000000E+00 0. -1.
         11    1    4    4    0    0  0.38647654987E+01  0.11028599127E+01 -0.47175056201E+01  0.61973842775E+01  0.51100000000E-03 0. -1.
        -11    1    4    4    0    0  0.28230088864E+02  0.72855460553E+01 -0.11055833742E+02  0.31180900542E+02  0.51100000000E-03 0.  1.
         12    1    4    4    0    0  0.65515548012E+01  0.48629730272E+01 -0.31995192379E+01  0.87640344779E+01  0.00000000000E+00 0. -1.
</event>
<event>
 8    1  0.2962813E-009  0.9118800E+02  0.7816164E-02  0.1184000E+00
        -11   -1    0    0    0    0  0.00000000000E+00  0.00000000000E+00  0.45593999997E+02  0.45594000000E+02  0.51100000000E-03 0. -1.
         11   -1    0    0    0    0 -0.00000000000E+00 -0.00000000000E+00 -0.45593999997E+02  0.45594000000E+02  0.51100000000E-03 0.  1.
         23    2    1    2    0    0  0.00000000000E+00  0.00000000000E+00  0.00000000000E+00  0.91188000000E+02  0.91188000000E+02 0.  0.
    9900012    2    3    3    0    0  0.44228051390E+01 -0.39803855731E+02  0.20620509154E+02  0.46142317253E+02  0.99999953665E+01 0.  0.
        -12    1    3    3    0    0 -0.44228051390E+01  0.39803855731E+02 -0.20620509154E+02  0.45045682747E+02  0.00000000000E+00 0.  1.
         11    1    4    4    0    0  0.45859431000E+01 -0.27809544040E+02  0.13631052619E+02  0.31308261044E+02  0.51100000000E-03 0. -1.
        -11    1    4    4    0    0  0.18709555268E+01 -0.16800624930E+01  0.82165241062E+00  0.26454106502E+01  0.51100000000E-03 0.  1.
        -12    1    4    4    0    0 -0.20340934878E+01 -0.10314249198E+02  0.61678041242E+01  0.12188645559E+02  0.00000000000E+00 0.  1.
</event>
<event>
 8    1  0.2962813E-009  0.9118800E+02  0.7816164E-02  0.1184000E+00
        -11   -1    0    0    0    0  0.00000000000E+00  0.00000000000E+00  0.45593999997E+02  0.45594000000E+02  0.51100000000E-03 0.  1.
         11   -1    0    0    0    0 -0.00000000000E+00 -0.00000000000E+00 -0.45593999997E+02  0.45594000000E+02  0.51100000000E-03 0. -1.
         23    2    1    2    0    0  0.00000000000E+00  0.00000000000E+00  0.22204460493E-15  0.91188000000E+02  0.91188000000E+02 0.  0.
    9900012    2    3    3    0    0  0.16734287745E+02 -0.41796769162E+02 -0.14516012803E+01  0.46142318242E+02  0.10000004385E+02 0.  0.
        -12    1    3    3    0    0 -0.16734287745E+02  0.41796769162E+02  0.14516012803E+01  0.45045681758E+02  0.00000000000E+00 0.  1.
         11    1    4    4    0    0  0.15633992476E+02 -0.34144558232E+02 -0.41759053302E+01  0.37785060053E+02  0.51100000000E-03 0. -1.
        -11    1    4    4    0    0  0.15196415766E+00 -0.34432311975E+01  0.43763290486E+00  0.34742563240E+01  0.51100000000E-03 0.  1.
         12    1    4    4    0    0  0.94833111162E+00 -0.42089797329E+01  0.22866711450E+01  0.48830018651E+01  0.00000000000E+00 0. -1.
</event>
<event>
 8    1  0.2962813E-009  0.9118800E+02  0.7816164E-02  0.1184000E+00
        -11   -1    0    0    0    0  0.00000000000E+00  0.00000000000E+00  0.45593999997E+02  0.45594000000E+02  0.51100000000E-03 0. -1.
         11   -1    0    0    0    0 -0.00000000000E+00 -0.00000000000E+00 -0.45593999997E+02  0.45594000000E+02  0.51100000000E-03 0.  1.
         23    2    1    2    0    0 -0.17763568394E-14 -0.88817841970E-15  0.71054273576E-14  0.91188000000E+02  0.91188000000E+02 0.  0.
    9900012    2    3    3    0    0  0.13218893022E+02  0.41272675884E+01 -0.42864205862E+02  0.46142316360E+02  0.99999872212E+01 0.  0.
         12    1    3    3    0    0 -0.13218893022E+02 -0.41272675884E+01  0.42864205862E+02  0.45045683640E+02  0.00000000000E+00 0. -1.
         11    1    4    4    0    0  0.42854646834E+01 -0.40438621573E+00 -0.40505319638E+01  0.59106298492E+01  0.51100000000E-03 0. -1.
        -11    1    4    4    0    0  0.64857202994E+01  0.45389269256E+01 -0.25701380927E+02  0.26892887671E+02  0.51100000000E-03 0.  1.
        -12    1    4    4    0    0  0.24477080388E+01 -0.72731214493E-02 -0.13112292970E+02  0.13338798840E+02  0.00000000000E+00 0.  1.
</event>
<event>
 8    1  0.2962813E-009  0.9118800E+02  0.7816164E-02  0.1184000E+00
        -11   -1    0    0    0    0  0.00000000000E+00  0.00000000000E+00  0.45593999997E+02  0.45594000000E+02  0.51100000000E-03 0. -1.
         11   -1    0    0    0    0 -0.00000000000E+00 -0.00000000000E+00 -0.45593999997E+02  0.45594000000E+02  0.51100000000E-03 0.  1.
         23    2    1    2    0    0  0.35527136788E-14  0.00000000000E+00 -0.22204460493E-15  0.91188000000E+02  0.91188000000E+02 0.  0.
    9900012    2    3    3    0    0 -0.19890067727E+02  0.40409630551E+02  0.74865555888E+00  0.46142317403E+02  0.99999967378E+01 0.  0.
        -12    1    3    3    0    0  0.19890067727E+02 -0.40409630551E+02 -0.74865555888E+00  0.45045682597E+02  0.00000000000E+00 0.  1.
         11    1    4    4    0    0 -0.29748710008E+01  0.14677166954E+02 -0.74015715554E+00  0.14993896096E+02  0.51100000000E-03 0. -1.
        -11    1    4    4    0    0 -0.42618713122E+01  0.95737394053E+01  0.17427329515E+01  0.10623424668E+02  0.51100000000E-03 0.  1.
         12    1    4    4    0    0 -0.12653325414E+02  0.16158724191E+02 -0.25392023711E+00  0.20524996639E+02  0.00000000000E+00 0. -1.
</event>
<event>
 8    1  0.2962813E-009  0.9118800E+02  0.7816164E-02  0.1184000E+00
        -11   -1    0    0    0    0  0.00000000000E+00  0.00000000000E+00  0.45593999997E+02  0.45594000000E+02  0.51100000000E-03 0. -1.
         11   -1    0    0    0    0 -0.00000000000E+00 -0.00000000000E+00 -0.45593999997E+02  0.45594000000E+02  0.51100000000E-03 0.  1.
         23    2    1    2    0    0  0.35527136788E-14  0.35527136788E-14  0.00000000000E+00  0.91188000000E+02  0.91188000000E+02 0.  0.
    9900012    2    3    3    0    0 -0.29267613061E+02 -0.19566103291E+02 -0.28101395437E+02  0.46142312106E+02  0.99999484350E+01 0.  0.
         12    1    3    3    0    0  0.29267613061E+02  0.19566103291E+02  0.28101395437E+02  0.45045687894E+02  0.00000000000E+00 0. -1.
         11    1    4    4    0    0 -0.42487857361E+01 -0.50326214921E+00 -0.39806362032E+01  0.58438786663E+01  0.51100000000E-03 0. -1.
        -11    1    4    4    0    0 -0.21099730383E+02 -0.18483459465E+02 -0.19252948905E+02  0.34022241811E+02  0.51100000000E-03 0.  1.
        -12    1    4    4    0    0 -0.39190969420E+01 -0.57938167665E+00 -0.48678103286E+01  0.62761916290E+01  0.00000000000E+00 0.  1.
</event>
<event>
 8    1  0.2962813E-009  0.9118800E+02  0.7816164E-02  0.1184000E+00
        -11   -1    0    0    0    0  0.00000000000E+00  0.00000000000E+00  0.45593999997E+02  0.45594000000E+02  0.51100000000E-03 0. -1.
         11   -1    0    0    0    0 -0.00000000000E+00 -0.00000000000E+00 -0.45593999997E+02  0.45594000000E+02  0.51100000000E-03 0.  1.
         23    2    1    2    0    0  0.35527136788E-14  0.00000000000E+00  0.35527136788E-14  0.91188000000E+02  0.91188000000E+02 0.  0.
    9900012    2    3    3    0    0 -0.19056161384E+02 -0.35222511775E+02 -0.20624042481E+02  0.46142314850E+02  0.99999734508E+01 0.  0.
         12    1    3    3    0    0  0.19056161384E+02  0.35222511775E+02  0.20624042481E+02  0.45045685150E+02  0.00000000000E+00 0. -1.
         11    1    4    4    0    0 -0.33388123951E+01 -0.12481262179E+01 -0.90371303171E+00  0.36772523397E+01  0.51100000000E-03 0. -1.
        -11    1    4    4    0    0 -0.11489414763E+02 -0.28200802218E+02 -0.16077411921E+02  0.34435084895E+02  0.51100000000E-03 0.  1.
         12    1    4    4    0    0 -0.42279342262E+01 -0.57735833382E+01 -0.36429175281E+01  0.80299776152E+01  0.00000000000E+00 0. -1.
</event>
<event>
 8    1  0.4471380E-009  0.9118800E+02  0.7816164E-02  0.1184000E+00
        -11   -1    0    0    0    0  0.00000000000E+00  0.00000000000E+00  0.45593999997E+02  0.45594000000E+02  0.51100000000E-03 0. -1.
         11   -1    0    0    0    0 -0.00000000000E+00 -0.00000000000E+00 -0.45593999997E+02  0.45594000000E+02  0.51100000000E-03 0.  1.
         23    2    1    2    0    0  0.00000000000E+00 -0.44408920985E-15  0.00000000000E+00  0.91188000000E+02  0.91188000000E+02 0.  0.
    9900012    2    3    3    0    0 -0.31168765044E+01 -0.14542766841E+01 -0.44914180559E+02  0.46142318130E+02  0.10000003365E+02 0.  0.
         12    1    3    3    0    0  0.31168765044E+01  0.14542766841E+01  0.44914180559E+02  0.45045681870E+02  0.00000000000E+00 0. -1.
         11    1    4    4    0    0 -0.77218422532E+00 -0.23578490720E+00 -0.59241969204E+00  0.10014111807E+01  0.51100000000E-03 0. -1.
        -11    1    4    4    0    0  0.19645597728E+01 -0.31727375874E+01 -0.22969200659E+02  0.23270366093E+02  0.51100000000E-03 0.  1.
        -12    1    4    4    0    0 -0.43092520519E+01  0.19542458105E+01 -0.21352560208E+02  0.21870540857E+02  0.00000000000E+00 0.  1.
</event>
<event>
 8    1  0.2962813E-009  0.9118800E+02  0.7816164E-02  0.1184000E+00
        -11   -1    0    0    0    0  0.00000000000E+00  0.00000000000E+00  0.45593999997E+02  0.45594000000E+02  0.51100000000E-03 0. -1.
         11   -1    0    0    0    0 -0.00000000000E+00 -0.00000000000E+00 -0.45593999997E+02  0.45594000000E+02  0.51100000000E-03 0.  1.
         23    2    1    2    0    0  0.00000000000E+00  0.35527136788E-14  0.35527136788E-14  0.91188000000E+02  0.91188000000E+02 0.  0.
    9900012    2    3    3    0    0  0.32631574241E+02  0.23431897798E+02 -0.20377440225E+02  0.46142317166E+02  0.99999945725E+01 0.  0.
         12    1    3    3    0    0 -0.32631574241E+02 -0.23431897798E+02  0.20377440225E+02  0.45045682834E+02  0.00000000000E+00 0. -1.
         11    1    4    4    0    0  0.21024140332E+01  0.93650227998E+00  0.77344056561E+00  0.24280428038E+01  0.51100000000E-03 0. -1.
        -11    1    4    4    0    0  0.18986983590E+02  0.12283726002E+02 -0.14913235190E+02  0.27088744054E+02  0.51100000000E-03 0.  1.
        -12    1    4    4    0    0  0.11542176618E+02  0.10211669516E+02 -0.62376456005E+01  0.16625530308E+02  0.00000000000E+00 0.  1.
</event>
<event>
 8    1  0.2962813E-009  0.9118800E+02  0.7816164E-02  0.1184000E+00
        -11   -1    0    0    0    0  0.00000000000E+00  0.00000000000E+00  0.45593999997E+02  0.45594000000E+02  0.51100000000E-03 0.  1.
         11   -1    0    0    0    0 -0.00000000000E+00 -0.00000000000E+00 -0.45593999997E+02  0.45594000000E+02  0.51100000000E-03 0. -1.
         23    2    1    2    0    0 -0.71054273576E-14  0.35527136788E-14 -0.35527136788E-14  0.91188000000E+02  0.91188000000E+02 0.  0.
    9900012    2    3    3    0    0  0.35649256611E+02 -0.24601764671E+02  0.12369208071E+02  0.46142316187E+02  0.99999856461E+01 0.  0.
        -12    1    3    3    0    0 -0.35649256611E+02  0.24601764671E+02 -0.12369208071E+02  0.45045683813E+02  0.00000000000E+00 0.  1.
         11    1    4    4    0    0  0.10176619954E+02 -0.89888037747E+01  0.37069686977E+00  0.13583063109E+02  0.51100000000E-03 0. -1.
        -11    1    4    4    0    0  0.22783294998E+02 -0.12028819113E+02  0.97618308407E+01  0.27551122696E+02  0.51100000000E-03 0.  1.
         12    1    4    4    0    0  0.26893416597E+01 -0.35841417836E+01  0.22366803604E+01  0.50081303819E+01  0.00000000000E+00 0. -1.
</event>
<event>
 8    1  0.2962813E-009  0.9118800E+02  0.7816164E-02  0.1184000E+00
        -11   -1    0    0    0    0  0.00000000000E+00  0.00000000000E+00  0.45593999997E+02  0.45594000000E+02  0.51100000000E-03 0. -1.
         11   -1    0    0    0    0 -0.00000000000E+00 -0.00000000000E+00 -0.45593999997E+02  0.45594000000E+02  0.51100000000E-03 0.  1.
         23    2    1    2    0    0 -0.44408920985E-15  0.00000000000E+00  0.71054273576E-14  0.91188000000E+02  0.91188000000E+02 0.  0.
    9900012    2    3    3    0    0 -0.25561276066E+01 -0.12072155934E+02  0.43322543032E+02  0.46142317943E+02  0.10000001657E+02 0.  0.
        -12    1    3    3    0    0  0.25561276066E+01  0.12072155934E+02 -0.43322543032E+02  0.45045682057E+02  0.00000000000E+00 0.  1.
         11    1    4    4    0    0 -0.11907219452E+01 -0.13184984336E+02  0.34292605147E+02  0.36759276363E+02  0.51100000000E-03 0. -1.
        -11    1    4    4    0    0 -0.14945919580E+01  0.13603454250E+01  0.87757939524E+01  0.90054930211E+01  0.51100000000E-03 0.  1.
        -12    1    4    4    0    0  0.12918629665E+00 -0.24751702305E+00  0.25414393278E+00  0.37754855914E+00  0.00000000000E+00 0.  1.
</event>
<event>
 8    1  0.2962813E-009  0.9118800E+02  0.7816164E-02  0.1184000E+00
        -11   -1    0    0    0    0  0.00000000000E+00  0.00000000000E+00  0.45593999997E+02  0.45594000000E+02  0.51100000000E-03 0. -1.
         11   -1    0    0    0    0 -0.00000000000E+00 -0.00000000000E+00 -0.45593999997E+02  0.45594000000E+02  0.51100000000E-03 0.  1.
         23    2    1    2    0    0  0.00000000000E+00  0.00000000000E+00  0.00000000000E+00  0.91188000000E+02  0.91188000000E+02 0.  0.
    9900012    2    3    3    0    0  0.10280046684E+02  0.35749733018E+02  0.25404540646E+02  0.46142318119E+02  0.10000003265E+02 0.  0.
        -12    1    3    3    0    0 -0.10280046684E+02 -0.35749733018E+02 -0.25404540646E+02  0.45045681881E+02  0.00000000000E+00 0.  1.
         11    1    4    4    0    0  0.19315378348E+01  0.22713387293E+02  0.14247886644E+02  0.26881798206E+02  0.51100000000E-03 0.  1.
        -11    1    4    4    0    0  0.55598564199E+01  0.62603103498E+01  0.59511996207E+01  0.10272305791E+02  0.51100000000E-03 0. -1.
        -12    1    4    4    0    0  0.27886524292E+01  0.67760353755E+01  0.52054543809E+01  0.89882141214E+01  0.00000000000E+00 0.  1.
</event>
<event>
 8    1  0.2962813E-009  0.9118800E+02  0.7816164E-02  0.1184000E+00
        -11   -1    0    0    0    0  0.00000000000E+00  0.00000000000E+00  0.45593999997E+02  0.45594000000E+02  0.51100000000E-03 0.  1.
         11   -1    0    0    0    0 -0.00000000000E+00 -0.00000000000E+00 -0.45593999997E+02  0.45594000000E+02  0.51100000000E-03 0. -1.
         23    2    1    2    0    0  0.00000000000E+00  0.00000000000E+00  0.00000000000E+00  0.91188000000E+02  0.91188000000E+02 0.  0.
    9900012    2    3    3    0    0  0.41899416162E+02 -0.16391492818E+02 -0.22071275112E+01  0.46142317373E+02  0.99999964617E+01 0.  0.
         12    1    3    3    0    0 -0.41899416162E+02  0.16391492818E+02  0.22071275112E+01  0.45045682627E+02  0.00000000000E+00 0. -1.
         11    1    4    4    0    0  0.13575811552E+02 -0.34398992301E+01 -0.46908194202E+01  0.14769541398E+02  0.51100000000E-03 0. -1.
        -11    1    4    4    0    0  0.21167403814E+02 -0.10356161165E+02  0.81157680748E+00  0.23578967651E+02  0.51100000000E-03 0.  1.
         12    1    4    4    0    0  0.71562007955E+01 -0.25954324227E+01  0.16721151015E+01  0.77938083245E+01  0.00000000000E+00 0. -1.
</event>
<event>
 8    1  0.2962813E-009  0.9118800E+02  0.7816164E-02  0.1184000E+00
        -11   -1    0    0    0    0  0.00000000000E+00  0.00000000000E+00  0.45593999997E+02  0.45594000000E+02  0.51100000000E-03 0. -1.
         11   -1    0    0    0    0 -0.00000000000E+00 -0.00000000000E+00 -0.45593999997E+02  0.45594000000E+02  0.51100000000E-03 0.  1.
         23    2    1    2    0    0  0.00000000000E+00 -0.35527136788E-14  0.71054273576E-14  0.91188000000E+02  0.91188000000E+02 0.  0.
    9900012    2    3    3    0    0 -0.13771617436E+02 -0.26584119231E+02  0.33656212184E+02  0.46142318068E+02  0.10000002802E+02 0.  0.
        -12    1    3    3    0    0  0.13771617436E+02  0.26584119231E+02 -0.33656212184E+02  0.45045681932E+02  0.00000000000E+00 0.  1.
         11    1    4    4    0    0 -0.13335174548E+01 -0.84177001601E+01  0.82847197527E+01  0.11885811980E+02  0.51100000000E-03 0. -1.
        -11    1    4    4    0    0  0.83566540062E+00 -0.10544758766E+01  0.12064050484E+01  0.18071163322E+01  0.51100000000E-03 0.  1.
         12    1    4    4    0    0 -0.13273765381E+02 -0.17111943195E+02  0.24165087383E+02  0.32449389756E+02  0.00000000000E+00 0. -1.
</event>
<event>
 8    1  0.2962813E-009  0.9118800E+02  0.7816164E-02  0.1184000E+00
        -11   -1    0    0    0    0  0.00000000000E+00  0.00000000000E+00  0.45593999997E+02  0.45594000000E+02  0.51100000000E-03 0. -1.
         11   -1    0    0    0    0 -0.00000000000E+00 -0.00000000000E+00 -0.45593999997E+02  0.45594000000E+02  0.51100000000E-03 0.  1.
         23    2    1    2    0    0 -0.17763568394E-14 -0.35527136788E-14  0.00000000000E+00  0.91188000000E+02  0.91188000000E+02 0.  0.
    9900012    2    3    3    0    0 -0.96852727189E+01 -0.30146711701E+02 -0.32038786238E+02  0.46142328092E+02  0.10000094207E+02 0.  0.
         12    1    3    3    0    0  0.96852727189E+01  0.30146711701E+02  0.32038786238E+02  0.45045671908E+02  0.00000000000E+00 0. -1.
         11    1    4    4    0    0  0.11576657996E+01 -0.27588659498E+01 -0.56488404423E+01  0.63922554734E+01  0.51100000000E-03 0. -1.
        -11    1    4    4    0    0 -0.68793634953E+01 -0.14140077247E+02 -0.11893151558E+02  0.19715843398E+02  0.51100000000E-03 0.  1.
         12    1    4    4    0    0 -0.39635750233E+01 -0.13247768505E+02 -0.14496794237E+02  0.20034229221E+02  0.00000000000E+00 0. -1.
</event>
<event>
 8    1  0.2962813E-009  0.9118800E+02  0.7816164E-02  0.1184000E+00
        -11   -1    0    0    0    0  0.00000000000E+00  0.00000000000E+00  0.45593999997E+02  0.45594000000E+02  0.51100000000E-03 0. -1.
         11   -1    0    0    0    0 -0.00000000000E+00 -0.00000000000E+00 -0.45593999997E+02  0.45594000000E+02  0.51100000000E-03 0.  1.
         23    2    1    2    0    0  0.00000000000E+00 -0.71054273576E-14  0.00000000000E+00  0.91188000000E+02  0.91188000000E+02 0.  0.
    9900012    2    3    3    0    0 -0.20474121063E+02 -0.38598256910E+02 -0.10958944700E+02  0.46142317202E+02  0.99999949006E+01 0.  0.
         12    1    3    3    0    0  0.20474121063E+02  0.38598256910E+02  0.10958944700E+02  0.45045682798E+02  0.00000000000E+00 0. -1.
         11    1    4    4    0    0 -0.71163845666E+01 -0.74092295822E+01 -0.97127317043E+00  0.10319059266E+02  0.51100000000E-03 0. -1.
        -11    1    4    4    0    0 -0.12924901464E+02 -0.24709439862E+02 -0.75827592044E+01  0.28898230630E+02  0.51100000000E-03 0.  1.
         12    1    4    4    0    0 -0.43283503281E+00 -0.64795874659E+01 -0.24049123250E+01  0.69250273057E+01  0.00000000000E+00 0. -1.
</event>
<event>
 8    1  0.2962813E-009  0.9118800E+02  0.7816164E-02  0.1184000E+00
        -11   -1    0    0    0    0  0.00000000000E+00  0.00000000000E+00  0.45593999997E+02  0.45594000000E+02  0.51100000000E-03 0. -1.
         11   -1    0    0    0    0 -0.00000000000E+00 -0.00000000000E+00 -0.45593999997E+02  0.45594000000E+02  0.51100000000E-03 0.  1.
         23    2    1    2    0    0 -0.17763568394E-14  0.00000000000E+00  0.00000000000E+00  0.91188000000E+02  0.91188000000E+02 0.  0.
    9900012    2    3    3    0    0 -0.13587140145E+02  0.88168894388E+01 -0.42032909701E+02  0.46142318580E+02  0.10000007465E+02 0.  0.
         12    1    3    3    0    0  0.13587140145E+02 -0.88168894388E+01  0.42032909701E+02  0.45045681420E+02  0.00000000000E+00 0. -1.
         11    1    4    4    0    0 -0.10279505990E+01 -0.14303203740E+01 -0.11504827708E+01  0.21038321400E+01  0.51100000000E-03 0. -1.
        -11    1    4    4    0    0 -0.46850259111E+01  0.32033200237E+01 -0.17035394933E+02  0.17955929599E+02  0.51100000000E-03 0.  1.
        -12    1    4    4    0    0 -0.78741636349E+01  0.70438897891E+01 -0.23847031997E+02  0.26082556841E+02  0.00000000000E+00 0.  1.
</event>
<event>
 8    1  0.2962813E-009  0.9118800E+02  0.7816164E-02  0.1184000E+00
        -11   -1    0    0    0    0  0.00000000000E+00  0.00000000000E+00  0.45593999997E+02  0.45594000000E+02  0.51100000000E-03 0. -1.
         11   -1    0    0    0    0 -0.00000000000E+00 -0.00000000000E+00 -0.45593999997E+02  0.45594000000E+02  0.51100000000E-03 0.  1.
         23    2    1    2    0    0  0.00000000000E+00  0.00000000000E+00 -0.71054273576E-14  0.91188000000E+02  0.91188000000E+02 0.  0.
    9900012    2    3    3    0    0  0.18328348518E+02 -0.76305277465E+01  0.40434642915E+02  0.46142315848E+02  0.99999825534E+01 0.  0.
        -12    1    3    3    0    0 -0.18328348518E+02  0.76305277465E+01 -0.40434642915E+02  0.45045684152E+02  0.00000000000E+00 0.  1.
         11    1    4    4    0    0  0.15081949467E+02 -0.62353498968E+01  0.31406862177E+02  0.35394007686E+02  0.51100000000E-03 0. -1.
        -11    1    4    4    0    0 -0.15513884279E+00  0.67080424340E+00  0.51359112883E+01  0.51818559818E+01  0.51100000000E-03 0.  1.
         12    1    4    4    0    0  0.34015378945E+01 -0.20659820931E+01  0.38918694497E+01  0.55664521799E+01  0.00000000000E+00 0. -1.
</event>
<event>
 8    1  0.2962813E-009  0.9118800E+02  0.7816164E-02  0.1184000E+00
        -11   -1    0    0    0    0  0.00000000000E+00  0.00000000000E+00  0.45593999997E+02  0.45594000000E+02  0.51100000000E-03 0. -1.
         11   -1    0    0    0    0 -0.00000000000E+00 -0.00000000000E+00 -0.45593999997E+02  0.45594000000E+02  0.51100000000E-03 0.  1.
         23    2    1    2    0    0 -0.35527136788E-14  0.00000000000E+00  0.00000000000E+00  0.91188000000E+02  0.91188000000E+02 0.  0.
    9900012    2    3    3    0    0  0.24767096850E+02  0.16687861995E+02  0.33722692231E+02  0.46142314350E+02  0.99999688982E+01 0.  0.
        -12    1    3    3    0    0 -0.24767096850E+02 -0.16687861995E+02 -0.33722692231E+02  0.45045685650E+02  0.00000000000E+00 0.  1.
         11    1    4    4    0    0  0.11779538438E+02  0.35070063077E+01  0.14240734082E+02  0.18811037359E+02  0.51100000000E-03 0. -1.
        -11    1    4    4    0    0  0.67315281865E+01  0.10124951176E+02  0.13305769414E+02  0.18024195072E+02  0.51100000000E-03 0.  1.
        -12    1    4    4    0    0  0.62560302256E+01  0.30559045111E+01  0.61761887349E+01  0.93070819193E+01  0.00000000000E+00 0.  1.
</event>
<event>
 8    1  0.2962813E-009  0.9118800E+02  0.7816164E-02  0.1184000E+00
        -11   -1    0    0    0    0  0.00000000000E+00  0.00000000000E+00  0.45593999997E+02  0.45594000000E+02  0.51100000000E-03 0. -1.
         11   -1    0    0    0    0 -0.00000000000E+00 -0.00000000000E+00 -0.45593999997E+02  0.45594000000E+02  0.51100000000E-03 0.  1.
         23    2    1    2    0    0  0.71054273576E-14  0.88817841970E-15  0.71054273576E-14  0.91188000000E+02  0.91188000000E+02 0.  0.
    9900012    2    3    3    0    0  0.33442506521E+02  0.45176871930E+01  0.29837940192E+02  0.46142318577E+02  0.10000007438E+02 0.  0.
        -12    1    3    3    0    0 -0.33442506521E+02 -0.45176871930E+01 -0.29837940192E+02  0.45045681423E+02  0.00000000000E+00 0.  1.
         11    1    4    4    0    0  0.68355733776E+01  0.41572364515E+01  0.92191945123E+01  0.12206605836E+02  0.51100000000E-03 0.  1.
        -11    1    4    4    0    0  0.26077870970E+02 -0.30215413902E+00  0.20213475588E+02  0.32995927735E+02  0.51100000000E-03 0. -1.
        -12    1    4    4    0    0  0.52906217363E+00  0.66260488054E+00  0.40527009146E+00  0.93978500643E+00  0.00000000000E+00 0.  1.
</event>
<event>
 8    1  0.2962813E-009  0.9118800E+02  0.7816164E-02  0.1184000E+00
        -11   -1    0    0    0    0  0.00000000000E+00  0.00000000000E+00  0.45593999997E+02  0.45594000000E+02  0.51100000000E-03 0. -1.
         11   -1    0    0    0    0 -0.00000000000E+00 -0.00000000000E+00 -0.45593999997E+02  0.45594000000E+02  0.51100000000E-03 0.  1.
         23    2    1    2    0    0  0.22204460493E-15  0.00000000000E+00  0.00000000000E+00  0.91188000000E+02  0.91188000000E+02 0.  0.
    9900012    2    3    3    0    0  0.28957656591E+00  0.38951982333E+02 -0.22622401187E+02  0.46142314106E+02  0.99999666658E+01 0.  0.
         12    1    3    3    0    0 -0.28957656591E+00 -0.38951982333E+02  0.22622401187E+02  0.45045685894E+02  0.00000000000E+00 0. -1.
         11    1    4    4    0    0  0.11311458646E+01  0.88598478436E+01 -0.90929878178E+01  0.12745933567E+02  0.51100000000E-03 0. -1.
        -11    1    4    4    0    0 -0.26003452201E+01  0.23994678605E+02 -0.99079950285E+01  0.26089744391E+02  0.51100000000E-03 0.  1.
        -12    1    4    4    0    0  0.17587759214E+01  0.60974558843E+01 -0.36214183404E+01  0.73066361479E+01  0.00000000000E+00 0.  1.
</event>
<event>
 8    1  0.2962813E-009  0.9118800E+02  0.7816164E-02  0.1184000E+00
        -11   -1    0    0    0    0  0.00000000000E+00  0.00000000000E+00  0.45593999997E+02  0.45594000000E+02  0.51100000000E-03 0. -1.
         11   -1    0    0    0    0 -0.00000000000E+00 -0.00000000000E+00 -0.45593999997E+02  0.45594000000E+02  0.51100000000E-03 0.  1.
         23    2    1    2    0    0  0.00000000000E+00  0.00000000000E+00  0.00000000000E+00  0.91188000000E+02  0.91188000000E+02 0.  0.
    9900012    2    3    3    0    0 -0.35465243386E+01  0.18352918633E+02 -0.40984217092E+02  0.46142317544E+02  0.99999980246E+01 0.  0.
         12    1    3    3    0    0  0.35465243386E+01 -0.18352918633E+02  0.40984217092E+02  0.45045682456E+02  0.00000000000E+00 0. -1.
         11    1    4    4    0    0  0.15350499187E+01  0.12359132218E+02 -0.19475161001E+02  0.23116799599E+02  0.51100000000E-03 0. -1.
        -11    1    4    4    0    0 -0.24335973560E+01  0.12079004340E+01 -0.62171796244E+01  0.67848907355E+01  0.51100000000E-03 0.  1.
         12    1    4    4    0    0 -0.26479769013E+01  0.47858859810E+01 -0.15291876467E+02  0.16240627210E+02  0.00000000000E+00 0. -1.
</event>
<event>
 8    1  0.2962813E-009  0.9118800E+02  0.7816164E-02  0.1184000E+00
        -11   -1    0    0    0    0  0.00000000000E+00  0.00000000000E+00  0.45593999997E+02  0.45594000000E+02  0.51100000000E-03 0. -1.
         11   -1    0    0    0    0 -0.00000000000E+00 -0.00000000000E+00 -0.45593999997E+02  0.45594000000E+02  0.51100000000E-03 0.  1.
         23    2    1    2    0    0  0.00000000000E+00 -0.35527136788E-14  0.00000000000E+00  0.91188000000E+02  0.91188000000E+02 0.  0.
    9900012    2    3    3    0    0  0.24814368931E+02  0.30386779029E+02 -0.22136039925E+02  0.46142317535E+02  0.99999979349E+01 0.  0.
         12    1    3    3    0    0 -0.24814368931E+02 -0.30386779029E+02  0.22136039925E+02  0.45045682465E+02  0.00000000000E+00 0. -1.
         11    1    4    4    0    0  0.11604272074E+02  0.18762025430E+02 -0.12684315709E+02  0.25447290502E+02  0.51100000000E-03 0. -1.
        -11    1    4    4    0    0  0.64075745804E+01  0.80502267259E+01 -0.75973403330E+01  0.12789946940E+02  0.51100000000E-03 0.  1.
         12    1    4    4    0    0  0.68025222758E+01  0.35745268731E+01 -0.18543838834E+01  0.79050800923E+01  0.00000000000E+00 0. -1.
</event>
<event>
 8    1  0.2962813E-009  0.9118800E+02  0.7816164E-02  0.1184000E+00
        -11   -1    0    0    0    0  0.00000000000E+00  0.00000000000E+00  0.45593999997E+02  0.45594000000E+02  0.51100000000E-03 0. -1.
         11   -1    0    0    0    0 -0.00000000000E+00 -0.00000000000E+00 -0.45593999997E+02  0.45594000000E+02  0.51100000000E-03 0.  1.
         23    2    1    2    0    0  0.00000000000E+00  0.00000000000E+00  0.35527136788E-14  0.91188000000E+02  0.91188000000E+02 0.  0.
    9900012    2    3    3    0    0 -0.63048174028E+01 -0.36907454245E+02 -0.25044011420E+02  0.46142318638E+02  0.10000007996E+02 0.  0.
         12    1    3    3    0    0  0.63048174028E+01  0.36907454245E+02  0.25044011420E+02  0.45045681362E+02  0.00000000000E+00 0. -1.
         11    1    4    4    0    0 -0.40919010966E+00 -0.53847496976E+00 -0.20070203762E+01  0.21179053073E+01  0.51100000000E-03 0. -1.
        -11    1    4    4    0    0 -0.17859595364E+01 -0.78571571400E+01 -0.86625662922E+01  0.11830664597E+02  0.51100000000E-03 0.  1.
        -12    1    4    4    0    0 -0.41096677567E+01 -0.28511822136E+02 -0.14374424752E+02  0.32193748733E+02  0.00000000000E+00 0.  1.
</event>
<event>
 8    1  0.2962813E-009  0.9118800E+02  0.7816164E-02  0.1184000E+00
        -11   -1    0    0    0    0  0.00000000000E+00  0.00000000000E+00  0.45593999997E+02  0.45594000000E+02  0.51100000000E-03 0.  1.
         11   -1    0    0    0    0 -0.00000000000E+00 -0.00000000000E+00 -0.45593999997E+02  0.45594000000E+02  0.51100000000E-03 0. -1.
         23    2    1    2    0    0  0.00000000000E+00  0.00000000000E+00 -0.22204460493E-15  0.91188000000E+02  0.91188000000E+02 0.  0.
    9900012    2    3    3    0    0 -0.38523570241E+02  0.23343475754E+02  0.36077757676E+00  0.46142317800E+02  0.10000000353E+02 0.  0.
        -12    1    3    3    0    0  0.38523570241E+02 -0.23343475754E+02 -0.36077757676E+00  0.45045682200E+02  0.00000000000E+00 0.  1.
         11    1    4    4    0    0 -0.91929829991E+01  0.22640678374E+01  0.21019998789E+01  0.96982134100E+01  0.51100000000E-03 0. -1.
        -11    1    4    4    0    0 -0.26739573472E+01  0.37587377593E+01 -0.23137815262E+00  0.46186246382E+01  0.51100000000E-03 0.  1.
         12    1    4    4    0    0 -0.26656629895E+02  0.17320670158E+02 -0.15098441495E+01  0.31825479752E+02  0.00000000000E+00 0. -1.
</event>
<event>
 8    1  0.2962813E-009  0.9118800E+02  0.7816164E-02  0.1184000E+00
        -11   -1    0    0    0    0  0.00000000000E+00  0.00000000000E+00  0.45593999997E+02  0.45594000000E+02  0.51100000000E-03 0. -1.
         11   -1    0    0    0    0 -0.00000000000E+00 -0.00000000000E+00 -0.45593999997E+02  0.45594000000E+02  0.51100000000E-03 0.  1.
         23    2    1    2    0    0  0.00000000000E+00  0.00000000000E+00 -0.71054273576E-14  0.91188000000E+02  0.91188000000E+02 0.  0.
    9900012    2    3    3    0    0 -0.21421619192E+02 -0.20302480996E+02 -0.34029942193E+02  0.46142317976E+02  0.10000001956E+02 0.  0.
         12    1    3    3    0    0  0.21421619192E+02  0.20302480996E+02  0.34029942193E+02  0.45045682024E+02  0.00000000000E+00 0. -1.
         11    1    4    4    0    0 -0.24031292450E+01 -0.46319481193E+01 -0.64010573118E+01  0.82585415490E+01  0.51100000000E-03 0. -1.
        -11    1    4    4    0    0 -0.12509371167E+02 -0.60890932993E+01 -0.11638646205E+02  0.18138894949E+02  0.51100000000E-03 0.  1.
        -12    1    4    4    0    0 -0.65091187794E+01 -0.95814395771E+01 -0.15990238676E+02  0.19744881478E+02  0.00000000000E+00 0.  1.
</event>
<event>
 8    1  0.2962813E-009  0.9118800E+02  0.7816164E-02  0.1184000E+00
        -11   -1    0    0    0    0  0.00000000000E+00  0.00000000000E+00  0.45593999997E+02  0.45594000000E+02  0.51100000000E-03 0. -1.
         11   -1    0    0    0    0 -0.00000000000E+00 -0.00000000000E+00 -0.45593999997E+02  0.45594000000E+02  0.51100000000E-03 0.  1.
         23    2    1    2    0    0  0.00000000000E+00  0.00000000000E+00  0.00000000000E+00  0.91188000000E+02  0.91188000000E+02 0.  0.
    9900012    2    3    3    0    0  0.10640926809E+02  0.16999486617E+02 -0.40334869078E+02  0.46142317276E+02  0.99999955725E+01 0.  0.
         12    1    3    3    0    0 -0.10640926809E+02 -0.16999486617E+02  0.40334869078E+02  0.45045682724E+02  0.00000000000E+00 0. -1.
         11    1    4    4    0    0  0.91645629587E+01  0.80198600722E+01 -0.18426716068E+02  0.22087354643E+02  0.51100000000E-03 0. -1.
        -11    1    4    4    0    0  0.14047170265E+01  0.88099296041E+01 -0.22073058375E+02  0.23807729750E+02  0.51100000000E-03 0.  1.
         12    1    4    4    0    0  0.71646824163E-01  0.16969694049E+00  0.16490536519E+00  0.24723288311E+00  0.00000000000E+00 0. -1.
</event>
<event>
 8    1  0.2962813E-009  0.9118800E+02  0.7816164E-02  0.1184000E+00
        -11   -1    0    0    0    0  0.00000000000E+00  0.00000000000E+00  0.45593999997E+02  0.45594000000E+02  0.51100000000E-03 0. -1.
         11   -1    0    0    0    0 -0.00000000000E+00 -0.00000000000E+00 -0.45593999997E+02  0.45594000000E+02  0.51100000000E-03 0.  1.
         23    2    1    2    0    0 -0.71054273576E-14  0.44408920985E-15 -0.88817841970E-15  0.91188000000E+02  0.91188000000E+02 0.  0.
    9900012    2    3    3    0    0 -0.44608701138E+02  0.38395892346E+01 -0.49431690931E+01  0.46142316706E+02  0.99999903788E+01 0.  0.
         12    1    3    3    0    0  0.44608701138E+02 -0.38395892346E+01  0.49431690931E+01  0.45045683294E+02  0.00000000000E+00 0. -1.
         11    1    4    4    0    0 -0.55164251445E+01  0.22366716191E+01  0.14180655498E+01  0.61191957373E+01  0.51100000000E-03 0. -1.
        -11    1    4    4    0    0 -0.31281527217E+02  0.11634546210E+01 -0.73023529277E+01  0.32143614144E+02  0.51100000000E-03 0.  1.
        -12    1    4    4    0    0 -0.78107487764E+01  0.43946299448E+00  0.94111828478E+00  0.78795068245E+01  0.00000000000E+00 0.  1.
</event>
<event>
 8    1  0.2962813E-009  0.9118800E+02  0.7816164E-02  0.1184000E+00
        -11   -1    0    0    0    0  0.00000000000E+00  0.00000000000E+00  0.45593999997E+02  0.45594000000E+02  0.51100000000E-03 0. -1.
         11   -1    0    0    0    0 -0.00000000000E+00 -0.00000000000E+00 -0.45593999997E+02  0.45594000000E+02  0.51100000000E-03 0.  1.
         23    2    1    2    0    0  0.17763568394E-14 -0.35527136788E-14  0.00000000000E+00  0.91188000000E+02  0.91188000000E+02 0.  0.
    9900012    2    3    3    0    0 -0.13742283858E+02  0.29184759472E+02  0.31440625639E+02  0.46142317725E+02  0.99999996700E+01 0.  0.
        -12    1    3    3    0    0  0.13742283858E+02 -0.29184759472E+02 -0.31440625639E+02  0.45045682275E+02  0.00000000000E+00 0.  1.
         11    1    4    4    0    0 -0.77096656466E+01  0.75531339847E+01  0.13848303238E+02  0.17557456541E+02  0.51100000000E-03 0. -1.
        -11    1    4    4    0    0 -0.79912413906E+00  0.13175005094E+01  0.14448875869E+01  0.21123700863E+01  0.51100000000E-03 0.  1.
         12    1    4    4    0    0 -0.52334940719E+01  0.20314124978E+02  0.16147434815E+02  0.26472491097E+02  0.00000000000E+00 0. -1.
</event>
<event>
 8    1  0.2962813E-009  0.9118800E+02  0.7816164E-02  0.1184000E+00
        -11   -1    0    0    0    0  0.00000000000E+00  0.00000000000E+00  0.45593999997E+02  0.45594000000E+02  0.51100000000E-03 0. -1.
         11   -1    0    0    0    0 -0.00000000000E+00 -0.00000000000E+00 -0.45593999997E+02  0.45594000000E+02  0.51100000000E-03 0.  1.
         23    2    1    2    0    0  0.00000000000E+00 -0.17763568394E-14 -0.88817841970E-15  0.91188000000E+02  0.91188000000E+02 0.  0.
    9900012    2    3    3    0    0  0.42405240291E+02 -0.14459505885E+02 -0.46724267014E+01  0.46142320009E+02  0.10000020499E+02 0.  0.
         12    1    3    3    0    0 -0.42405240291E+02  0.14459505885E+02  0.46724267014E+01  0.45045679991E+02  0.00000000000E+00 0. -1.
         11    1    4    4    0    0  0.15567492213E+02 -0.18467695446E+01 -0.43832845350E+01  0.16277916179E+02  0.51100000000E-03 0. -1.
        -11    1    4    4    0    0  0.19161824711E+02 -0.72496803166E+01 -0.58680904182E+00  0.20495798010E+02  0.51100000000E-03 0.  1.
         12    1    4    4    0    0  0.76759233669E+01 -0.53630560240E+01  0.29766687541E+00  0.93686058204E+01  0.00000000000E+00 0. -1.
</event>
<event>
 8    1  0.2962813E-009  0.9118800E+02  0.7816164E-02  0.1184000E+00
        -11   -1    0    0    0    0  0.00000000000E+00  0.00000000000E+00  0.45593999997E+02  0.45594000000E+02  0.51100000000E-03 0.  1.
         11   -1    0    0    0    0 -0.00000000000E+00 -0.00000000000E+00 -0.45593999997E+02  0.45594000000E+02  0.51100000000E-03 0. -1.
         23    2    1    2    0    0  0.00000000000E+00  0.00000000000E+00  0.00000000000E+00  0.91188000000E+02  0.91188000000E+02 0.  0.
    9900012    2    3    3    0    0 -0.41731729572E+02  0.10990586747E+02  0.12914458814E+02  0.46142317670E+02  0.99999991663E+01 0.  0.
         12    1    3    3    0    0  0.41731729572E+02 -0.10990586747E+02 -0.12914458814E+02  0.45045682330E+02  0.00000000000E+00 0. -1.
         11    1    4    4    0    0 -0.25977802298E+02  0.62600221631E+01  0.11634408416E+02  0.29144357072E+02  0.51100000000E-03 0.  1.
        -11    1    4    4    0    0 -0.91635272541E+01  0.48299286429E+01  0.80221802808E+00  0.10389513774E+02  0.51100000000E-03 0. -1.
         12    1    4    4    0    0 -0.65904000203E+01 -0.99364058992E-01  0.47783236997E+00  0.66084468234E+01  0.00000000000E+00 0. -1.
</event>
<event>
 8    1  0.2962813E-009  0.9118800E+02  0.7816164E-02  0.1184000E+00
        -11   -1    0    0    0    0  0.00000000000E+00  0.00000000000E+00  0.45593999997E+02  0.45594000000E+02  0.51100000000E-03 0. -1.
         11   -1    0    0    0    0 -0.00000000000E+00 -0.00000000000E+00 -0.45593999997E+02  0.45594000000E+02  0.51100000000E-03 0.  1.
         23    2    1    2    0    0 -0.11770098785E-14  0.00000000000E+00  0.71054273576E-14  0.91188000000E+02  0.91188000000E+02 0.  0.
    9900012    2    3    3    0    0 -0.64939346232E-02 -0.18785879416E+01 -0.45006492384E+02  0.46142317726E+02  0.99999996810E+01 0.  0.
         12    1    3    3    0    0  0.64939346232E-02  0.18785879416E+01  0.45006492384E+02  0.45045682274E+02  0.00000000000E+00 0. -1.
         11    1    4    4    0    0  0.56115350876E+00 -0.11713659223E+01 -0.24929607970E+01  0.28110220883E+01  0.51100000000E-03 0. -1.
        -11    1    4    4    0    0  0.36833286071E+01 -0.51421121661E+00 -0.26596145086E+02  0.26854911217E+02  0.51100000000E-03 0.  1.
        -12    1    4    4    0    0 -0.42509760505E+01 -0.19301080272E+00 -0.15917386501E+02  0.16476384421E+02  0.00000000000E+00 0.  1.
</event>
<event>
 8    1  0.2962813E-009  0.9118800E+02  0.7816164E-02  0.1184000E+00
        -11   -1    0    0    0    0  0.00000000000E+00  0.00000000000E+00  0.45593999997E+02  0.45594000000E+02  0.51100000000E-03 0. -1.
         11   -1    0    0    0    0 -0.00000000000E+00 -0.00000000000E+00 -0.45593999997E+02  0.45594000000E+02  0.51100000000E-03 0.  1.
         23    2    1    2    0    0  0.44408920985E-15  0.17763568394E-14  0.00000000000E+00  0.91188000000E+02  0.91188000000E+02 0.  0.
    9900012    2    3    3    0    0 -0.17656626259E+01 -0.14455833037E+02  0.42626573900E+02  0.46142317902E+02  0.10000001281E+02 0.  0.
        -12    1    3    3    0    0  0.17656626259E+01  0.14455833037E+02 -0.42626573900E+02  0.45045682098E+02  0.00000000000E+00 0.  1.
         11    1    4    4    0    0 -0.32901831042E+01 -0.73029815648E+01  0.24937089716E+02  0.26191931742E+02  0.51100000000E-03 0. -1.
        -11    1    4    4    0    0  0.31234433935E+01 -0.62773262650E+01  0.15983299602E+02  0.17453555228E+02  0.51100000000E-03 0.  1.
        -12    1    4    4    0    0 -0.15989229151E+01 -0.87552520688E+00  0.17061845816E+01  0.24968309320E+01  0.00000000000E+00 0.  1.
</event>
<event>
 8    1  0.2962813E-009  0.9118800E+02  0.7816164E-02  0.1184000E+00
        -11   -1    0    0    0    0  0.00000000000E+00  0.00000000000E+00  0.45593999997E+02  0.45594000000E+02  0.51100000000E-03 0.  1.
         11   -1    0    0    0    0 -0.00000000000E+00 -0.00000000000E+00 -0.45593999997E+02  0.45594000000E+02  0.51100000000E-03 0. -1.
         23    2    1    2    0    0  0.00000000000E+00 -0.35527136788E-14  0.00000000000E+00  0.91188000000E+02  0.91188000000E+02 0.  0.
    9900012    2    3    3    0    0  0.32765902685E+02  0.21209248274E+02  0.22487261880E+02  0.46142317211E+02  0.99999949850E+01 0.  0.
        -12    1    3    3    0    0 -0.32765902685E+02 -0.21209248274E+02 -0.22487261880E+02  0.45045682789E+02  0.00000000000E+00 0.  1.
         11    1    4    4    0    0  0.51282769247E+01  0.25640325219E+01  0.74070418872E+01  0.93668434795E+01  0.51100000000E-03 0. -1.
        -11    1    4    4    0    0  0.84540848266E+01  0.78089945326E+01  0.52066331020E+01  0.12631744709E+02  0.51100000000E-03 0.  1.
         12    1    4    4    0    0  0.19183540933E+02  0.10836221219E+02  0.98735868903E+01  0.24143729023E+02  0.00000000000E+00 0. -1.
</event>
<event>
 8    1  0.2962813E-009  0.9118800E+02  0.7816164E-02  0.1184000E+00
        -11   -1    0    0    0    0  0.00000000000E+00  0.00000000000E+00  0.45593999997E+02  0.45594000000E+02  0.51100000000E-03 0. -1.
         11   -1    0    0    0    0 -0.00000000000E+00 -0.00000000000E+00 -0.45593999997E+02  0.45594000000E+02  0.51100000000E-03 0.  1.
         23    2    1    2    0    0  0.00000000000E+00  0.00000000000E+00 -0.35527136788E-14  0.91188000000E+02  0.91188000000E+02 0.  0.
    9900012    2    3    3    0    0  0.34496007358E+02 -0.70279867183E+01 -0.28102426463E+02  0.46142317698E+02  0.99999994287E+01 0.  0.
         12    1    3    3    0    0 -0.34496007358E+02  0.70279867183E+01  0.28102426463E+02  0.45045682302E+02  0.00000000000E+00 0. -1.
         11    1    4    4    0    0  0.13503325668E+02 -0.43043440439E+01 -0.14361287265E+02  0.20177060091E+02  0.51100000000E-03 0. -1.
        -11    1    4    4    0    0  0.57065784281E+01 -0.29009576332E+01 -0.62292810359E+01  0.89322189310E+01  0.51100000000E-03 0.  1.
         12    1    4    4    0    0  0.15286103262E+02  0.17731495873E+00 -0.75118581619E+01  0.17033038677E+02  0.00000000000E+00 0. -1.
</event>
<event>
 8    1  0.2962813E-009  0.9118800E+02  0.7816164E-02  0.1184000E+00
        -11   -1    0    0    0    0  0.00000000000E+00  0.00000000000E+00  0.45593999997E+02  0.45594000000E+02  0.51100000000E-03 0.  1.
         11   -1    0    0    0    0 -0.00000000000E+00 -0.00000000000E+00 -0.45593999997E+02  0.45594000000E+02  0.51100000000E-03 0. -1.
         23    2    1    2    0    0  0.35527136788E-14  0.71054273576E-14  0.14210854715E-13  0.91188000000E+02  0.91188000000E+02 0.  0.
    9900012    2    3    3    0    0  0.14688279602E+02  0.24371724839E+02  0.34919721465E+02  0.46142317893E+02  0.10000001207E+02 0.  0.
        -12    1    3    3    0    0 -0.14688279602E+02 -0.24371724839E+02 -0.34919721465E+02  0.45045682107E+02  0.00000000000E+00 0.  1.
         11    1    4    4    0    0  0.80975727536E+01  0.93744661172E+01  0.87370599495E+01  0.15158743889E+02  0.51100000000E-03 0. -1.
        -11    1    4    4    0    0  0.54300400977E+01  0.11309219689E+02  0.18085220182E+02  0.22010428772E+02  0.51100000000E-03 0.  1.
         12    1    4    4    0    0  0.11606667503E+01  0.36880390332E+01  0.80974413330E+01  0.89731452322E+01  0.00000000000E+00 0. -1.
</event>
<event>
 8    1  0.2962813E-009  0.9118800E+02  0.7816164E-02  0.1184000E+00
        -11   -1    0    0    0    0  0.00000000000E+00  0.00000000000E+00  0.45593999997E+02  0.45594000000E+02  0.51100000000E-03 0. -1.
         11   -1    0    0    0    0 -0.00000000000E+00 -0.00000000000E+00 -0.45593999997E+02  0.45594000000E+02  0.51100000000E-03 0.  1.
         23    2    1    2    0    0  0.35527136788E-14  0.00000000000E+00  0.71054273576E-14  0.91188000000E+02  0.91188000000E+02 0.  0.
    9900012    2    3    3    0    0  0.20826325937E+02 -0.99491332011E+01  0.38683230728E+02  0.46142318264E+02  0.10000004589E+02 0.  0.
        -12    1    3    3    0    0 -0.20826325937E+02  0.99491332011E+01 -0.38683230728E+02  0.45045681736E+02  0.00000000000E+00 0.  1.
         11    1    4    4    0    0  0.40269825257E+01 -0.17213238759E+00  0.95237023029E+01  0.10341524241E+02  0.51100000000E-03 0. -1.
        -11    1    4    4    0    0  0.27621052257E+00 -0.19786735026E+01  0.58633639039E+01  0.61943908186E+01  0.51100000000E-03 0.  1.
        -12    1    4    4    0    0  0.16523132889E+02 -0.77983273108E+01  0.23296164521E+02  0.29606403204E+02  0.00000000000E+00 0.  1.
</event>
<event>
 8    1  0.2962813E-009  0.9118800E+02  0.7816164E-02  0.1184000E+00
        -11   -1    0    0    0    0  0.00000000000E+00  0.00000000000E+00  0.45593999997E+02  0.45594000000E+02  0.51100000000E-03 0. -1.
         11   -1    0    0    0    0 -0.00000000000E+00 -0.00000000000E+00 -0.45593999997E+02  0.45594000000E+02  0.51100000000E-03 0.  1.
         23    2    1    2    0    0 -0.35527136788E-14 -0.35527136788E-14 -0.71054273576E-14  0.91188000000E+02  0.91188000000E+02 0.  0.
    9900012    2    3    3    0    0 -0.26998128773E+02 -0.21799199985E+02 -0.28722977953E+02  0.46142317191E+02  0.99999948022E+01 0.  0.
         12    1    3    3    0    0  0.26998128773E+02  0.21799199985E+02  0.28722977953E+02  0.45045682809E+02  0.00000000000E+00 0. -1.
         11    1    4    4    0    0 -0.16510588415E+02 -0.14958292415E+02 -0.22106568883E+02  0.31385513057E+02  0.51100000000E-03 0. -1.
        -11    1    4    4    0    0 -0.92066815063E+01 -0.48910420352E+01 -0.37918943136E+01  0.11093409724E+02  0.51100000000E-03 0.  1.
        -12    1    4    4    0    0 -0.12808588518E+01 -0.19498655349E+01 -0.28245147556E+01  0.36633944105E+01  0.00000000000E+00 0.  1.
</event>
<event>
 8    1  0.2962813E-009  0.9118800E+02  0.7816164E-02  0.1184000E+00
        -11   -1    0    0    0    0  0.00000000000E+00  0.00000000000E+00  0.45593999997E+02  0.45594000000E+02  0.51100000000E-03 0. -1.
         11   -1    0    0    0    0 -0.00000000000E+00 -0.00000000000E+00 -0.45593999997E+02  0.45594000000E+02  0.51100000000E-03 0.  1.
         23    2    1    2    0    0  0.00000000000E+00  0.00000000000E+00  0.00000000000E+00  0.91188000000E+02  0.91188000000E+02 0.  0.
    9900012    2    3    3    0    0  0.16513310686E+02  0.11416359769E+02  0.40324821521E+02  0.46142312850E+02  0.99999552122E+01 0.  0.
        -12    1    3    3    0    0 -0.16513310686E+02 -0.11416359769E+02 -0.40324821521E+02  0.45045687150E+02  0.00000000000E+00 0.  1.
         11    1    4    4    0    0  0.81100558730E+01  0.64139740422E+00  0.19055084394E+02  0.20719088745E+02  0.51100000000E-03 0. -1.
        -11    1    4    4    0    0  0.11185462536E+01  0.20347432279E+01  0.20977389243E+01  0.31291907229E+01  0.51100000000E-03 0.  1.
         12    1    4    4    0    0  0.72847085595E+01  0.87402191366E+01  0.19171998202E+02  0.22294033381E+02  0.00000000000E+00 0. -1.
</event>
<event>
 8    1  0.3058713E-009  0.9118800E+02  0.7816164E-02  0.1184000E+00
        -11   -1    0    0    0    0  0.00000000000E+00  0.00000000000E+00  0.45593999997E+02  0.45594000000E+02  0.51100000000E-03 0. -1.
         11   -1    0    0    0    0 -0.00000000000E+00 -0.00000000000E+00 -0.45593999997E+02  0.45594000000E+02  0.51100000000E-03 0.  1.
         23    2    1    2    0    0  0.00000000000E+00  0.00000000000E+00 -0.71054273576E-14  0.91188000000E+02  0.91188000000E+02 0.  0.
    9900012    2    3    3    0    0 -0.93181572152E+01 -0.10097042130E+02 -0.42899127292E+02  0.46142318342E+02  0.10000005294E+02 0.  0.
         12    1    3    3    0    0  0.93181572152E+01  0.10097042130E+02  0.42899127292E+02  0.45045681658E+02  0.00000000000E+00 0. -1.
         11    1    4    4    0    0 -0.21424919359E+00  0.41708476534E+00 -0.28173998226E+01  0.28561520338E+01  0.51100000000E-03 0. -1.
        -11    1    4    4    0    0 -0.61626495729E+00 -0.58125095366E+01 -0.90550655583E+01  0.10777720637E+02  0.51100000000E-03 0.  1.
        -12    1    4    4    0    0 -0.84876430643E+01 -0.47016173592E+01 -0.31026661911E+02  0.32508445671E+02  0.00000000000E+00 0.  1.
</event>
<event>
 8    1  0.2962813E-009  0.9118800E+02  0.7816164E-02  0.1184000E+00
        -11   -1    0    0    0    0  0.00000000000E+00  0.00000000000E+00  0.45593999997E+02  0.45594000000E+02  0.51100000000E-03 0. -1.
         11   -1    0    0    0    0 -0.00000000000E+00 -0.00000000000E+00 -0.45593999997E+02  0.45594000000E+02  0.51100000000E-03 0.  1.
         23    2    1    2    0    0  0.00000000000E+00  0.00000000000E+00  0.00000000000E+00  0.91188000000E+02  0.91188000000E+02 0.  0.
    9900012    2    3    3    0    0 -0.16893887674E+02 -0.19099144818E+02  0.37133982170E+02  0.46142318683E+02  0.10000008408E+02 0.  0.
        -12    1    3    3    0    0  0.16893887674E+02  0.19099144818E+02 -0.37133982170E+02  0.45045681317E+02  0.00000000000E+00 0.  1.
         11    1    4    4    0    0 -0.48045815787E+01 -0.18974749261E+01  0.36405885408E+01  0.63196756583E+01  0.51100000000E-03 0.  1.
        -11    1    4    4    0    0 -0.12656460855E+01 -0.12218588161E+00  0.14069050510E+01  0.18963574260E+01  0.51100000000E-03 0. -1.
         12    1    4    4    0    0 -0.10823660010E+02 -0.17079484010E+02  0.32086488578E+02  0.37926285599E+02  0.00000000000E+00 0. -1.
</event>
<event>
 8    1  0.2962813E-009  0.9118800E+02  0.7816164E-02  0.1184000E+00
        -11   -1    0    0    0    0  0.00000000000E+00  0.00000000000E+00  0.45593999997E+02  0.45594000000E+02  0.51100000000E-03 0. -1.
         11   -1    0    0    0    0 -0.00000000000E+00 -0.00000000000E+00 -0.45593999997E+02  0.45594000000E+02  0.51100000000E-03 0.  1.
         23    2    1    2    0    0 -0.35527136788E-14  0.00000000000E+00  0.71054273576E-14  0.91188000000E+02  0.91188000000E+02 0.  0.
    9900012    2    3    3    0    0 -0.22906338417E+02  0.67879088619E+01 -0.38188166139E+02  0.46142333400E+02  0.10000142606E+02 0.  0.
         12    1    3    3    0    0  0.22906338417E+02 -0.67879088619E+01  0.38188166139E+02  0.45045666600E+02  0.00000000000E+00 0. -1.
         11    1    4    4    0    0 -0.19020664210E+01  0.20348430050E+01 -0.71738037870E+00  0.28762958113E+01  0.51100000000E-03 0. -1.
        -11    1    4    4    0    0 -0.20679080878E+02  0.43940199795E+01 -0.36768085910E+02  0.42412544598E+02  0.51100000000E-03 0.  1.
        -12    1    4    4    0    0 -0.32519111830E+00  0.35904587743E+00 -0.70269985002E+00  0.85349299045E+00  0.00000000000E+00 0.  1.
</event>
<event>
 8    1  0.2962813E-009  0.9118800E+02  0.7816164E-02  0.1184000E+00
        -11   -1    0    0    0    0  0.00000000000E+00  0.00000000000E+00  0.45593999997E+02  0.45594000000E+02  0.51100000000E-03 0. -1.
         11   -1    0    0    0    0 -0.00000000000E+00 -0.00000000000E+00 -0.45593999997E+02  0.45594000000E+02  0.51100000000E-03 0.  1.
         23    2    1    2    0    0  0.00000000000E+00 -0.35527136788E-14  0.35527136788E-14  0.91188000000E+02  0.91188000000E+02 0.  0.
    9900012    2    3    3    0    0  0.33044652491E+02  0.15717112963E+02 -0.26270462090E+02  0.46142313452E+02  0.99999607080E+01 0.  0.
         12    1    3    3    0    0 -0.33044652491E+02 -0.15717112963E+02  0.26270462090E+02  0.45045686548E+02  0.00000000000E+00 0. -1.
         11    1    4    4    0    0  0.42634977301E+01  0.33996220051E+01 -0.75598594166E+01  0.93212830304E+01  0.51100000000E-03 0.  1.
        -11    1    4    4    0    0  0.27826243293E+02  0.11297809318E+02 -0.16671762900E+02  0.34349497662E+02  0.51100000000E-03 0. -1.
         12    1    4    4    0    0  0.95491146701E+00  0.10196816404E+01 -0.20388397740E+01  0.24715327596E+01  0.00000000000E+00 0. -1.
</event>
<event>
 8    1  0.2962813E-009  0.9118800E+02  0.7816164E-02  0.1184000E+00
        -11   -1    0    0    0    0  0.00000000000E+00  0.00000000000E+00  0.45593999997E+02  0.45594000000E+02  0.51100000000E-03 0. -1.
         11   -1    0    0    0    0 -0.00000000000E+00 -0.00000000000E+00 -0.45593999997E+02  0.45594000000E+02  0.51100000000E-03 0.  1.
         23    2    1    2    0    0  0.00000000000E+00 -0.35527136788E-14 -0.35527136788E-14  0.91188000000E+02  0.91188000000E+02 0.  0.
    9900012    2    3    3    0    0 -0.25596350822E+02 -0.27888137154E+02  0.24417048244E+02  0.46142316364E+02  0.99999872575E+01 0.  0.
        -12    1    3    3    0    0  0.25596350822E+02  0.27888137154E+02 -0.24417048244E+02  0.45045683636E+02  0.00000000000E+00 0.  1.
         11    1    4    4    0    0 -0.88259583636E+01 -0.55599144366E+01  0.62475863151E+01  0.12159051139E+02  0.51100000000E-03 0.  1.
        -11    1    4    4    0    0 -0.18305953524E-01  0.32804379877E+00  0.84456227529E+00  0.90621936627E+00  0.51100000000E-03 0. -1.
        -12    1    4    4    0    0 -0.16752086505E+02 -0.22656266516E+02  0.17324899654E+02  0.33077045858E+02  0.00000000000E+00 0.  1.
</event>
<event>
 8    1  0.2962813E-009  0.9118800E+02  0.7816164E-02  0.1184000E+00
        -11   -1    0    0    0    0  0.00000000000E+00  0.00000000000E+00  0.45593999997E+02  0.45594000000E+02  0.51100000000E-03 0.  1.
         11   -1    0    0    0    0 -0.00000000000E+00 -0.00000000000E+00 -0.45593999997E+02  0.45594000000E+02  0.51100000000E-03 0. -1.
         23    2    1    2    0    0 -0.17763568394E-14  0.00000000000E+00  0.00000000000E+00  0.91188000000E+02  0.91188000000E+02 0.  0.
    9900012    2    3    3    0    0 -0.81915498182E+01  0.42148356800E+02 -0.13620892041E+02  0.46142310202E+02  0.99999310706E+01 0.  0.
        -12    1    3    3    0    0  0.81915498182E+01 -0.42148356800E+02  0.13620892041E+02  0.45045689798E+02  0.00000000000E+00 0.  1.
         11    1    4    4    0    0 -0.68875512261E+01  0.21881675424E+02 -0.51670803729E+01  0.23514778355E+02  0.51100000000E-03 0.  1.
        -11    1    4    4    0    0 -0.26686885130E+01  0.70797609195E+01 -0.44551343374E+01  0.87802696589E+01  0.51100000000E-03 0. -1.
         12    1    4    4    0    0  0.13646899208E+01  0.13186920457E+02 -0.39986773309E+01  0.13847262188E+02  0.00000000000E+00 0. -1.
</event>
<event>
 8    1  0.2962813E-009  0.9118800E+02  0.7816164E-02  0.1184000E+00
        -11   -1    0    0    0    0  0.00000000000E+00  0.00000000000E+00  0.45593999997E+02  0.45594000000E+02  0.51100000000E-03 0. -1.
         11   -1    0    0    0    0 -0.00000000000E+00 -0.00000000000E+00 -0.45593999997E+02  0.45594000000E+02  0.51100000000E-03 0.  1.
         23    2    1    2    0    0  0.88817841970E-15  0.00000000000E+00  0.35527136788E-14  0.91188000000E+02  0.91188000000E+02 0.  0.
    9900012    2    3    3    0    0  0.79355741990E+01  0.37460484726E+02  0.23724506491E+02  0.46142318054E+02  0.10000002668E+02 0.  0.
        -12    1    3    3    0    0 -0.79355741990E+01 -0.37460484726E+02 -0.23724506491E+02  0.45045681946E+02  0.00000000000E+00 0.  1.
         11    1    4    4    0    0  0.86520123649E+01  0.21298097665E+02  0.14139430511E+02  0.26988697218E+02  0.51100000000E-03 0. -1.
        -11    1    4    4    0    0  0.11298783743E+01  0.68432694859E+01  0.28027581063E+01  0.74808031428E+01  0.51100000000E-03 0.  1.
         12    1    4    4    0    0 -0.18463165402E+01  0.93191175746E+01  0.67823178741E+01  0.11672817692E+02  0.00000000000E+00 0. -1.
</event>
<event>
 8    1  0.2962813E-009  0.9118800E+02  0.7816164E-02  0.1184000E+00
        -11   -1    0    0    0    0  0.00000000000E+00  0.00000000000E+00  0.45593999997E+02  0.45594000000E+02  0.51100000000E-03 0.  1.
         11   -1    0    0    0    0 -0.00000000000E+00 -0.00000000000E+00 -0.45593999997E+02  0.45594000000E+02  0.51100000000E-03 0. -1.
         23    2    1    2    0    0  0.00000000000E+00  0.00000000000E+00  0.00000000000E+00  0.91188000000E+02  0.91188000000E+02 0.  0.
    9900012    2    3    3    0    0 -0.19896268917E+02  0.36181096630E+02  0.18005004466E+02  0.46142318120E+02  0.10000003275E+02 0.  0.
         12    1    3    3    0    0  0.19896268917E+02 -0.36181096630E+02 -0.18005004466E+02  0.45045681880E+02  0.00000000000E+00 0. -1.
         11    1    4    4    0    0 -0.16706575378E+01  0.43279105101E+01  0.23642411422E+01  0.52068745358E+01  0.51100000000E-03 0. -1.
        -11    1    4    4    0    0 -0.69325836921E+01  0.69327073448E+01  0.76406948457E+01  0.12429938285E+02  0.51100000000E-03 0.  1.
        -12    1    4    4    0    0 -0.11293027687E+02  0.24920478775E+02  0.80000684781E+01  0.28505505300E+02  0.00000000000E+00 0.  1.
</event>
<event>
 8    1  0.2962813E-009  0.9118800E+02  0.7816164E-02  0.1184000E+00
        -11   -1    0    0    0    0  0.00000000000E+00  0.00000000000E+00  0.45593999997E+02  0.45594000000E+02  0.51100000000E-03 0. -1.
         11   -1    0    0    0    0 -0.00000000000E+00 -0.00000000000E+00 -0.45593999997E+02  0.45594000000E+02  0.51100000000E-03 0.  1.
         23    2    1    2    0    0  0.00000000000E+00 -0.88817841970E-15  0.71054273576E-14  0.91188000000E+02  0.91188000000E+02 0.  0.
    9900012    2    3    3    0    0 -0.95798715952E+01  0.76094386520E+01 -0.43352462622E+02  0.46142317501E+02  0.99999976293E+01 0.  0.
         12    1    3    3    0    0  0.95798715952E+01 -0.76094386520E+01  0.43352462622E+02  0.45045682499E+02  0.00000000000E+00 0. -1.
         11    1    4    4    0    0 -0.29336053482E+00  0.36999187744E+00  0.19898901036E+00  0.51239758013E+00  0.51100000000E-03 0. -1.
        -11    1    4    4    0    0 -0.11571592726E+01 -0.13033089608E+01 -0.41371576522E+01  0.44892878645E+01  0.51100000000E-03 0.  1.
        -12    1    4    4    0    0 -0.81293517879E+01  0.85427557354E+01 -0.39414293980E+02  0.41140632057E+02  0.00000000000E+00 0.  1.
</event>
<event>
 8    1  0.2962813E-009  0.9118800E+02  0.7816164E-02  0.1184000E+00
        -11   -1    0    0    0    0  0.00000000000E+00  0.00000000000E+00  0.45593999997E+02  0.45594000000E+02  0.51100000000E-03 0.  1.
         11   -1    0    0    0    0 -0.00000000000E+00 -0.00000000000E+00 -0.45593999997E+02  0.45594000000E+02  0.51100000000E-03 0. -1.
         23    2    1    2    0    0  0.00000000000E+00  0.00000000000E+00  0.00000000000E+00  0.91188000000E+02  0.91188000000E+02 0.  0.
    9900012    2    3    3    0    0  0.21024022050E+02  0.36049124840E+02 -0.16957729334E+02  0.46142317753E+02  0.99999999294E+01 0.  0.
         12    1    3    3    0    0 -0.21024022050E+02 -0.36049124840E+02  0.16957729334E+02  0.45045682247E+02  0.00000000000E+00 0. -1.
         11    1    4    4    0    0  0.83663252356E+01  0.10363332467E+02 -0.67523591275E+01  0.14932796517E+02  0.51100000000E-03 0.  1.
        -11    1    4    4    0    0  0.50700983627E+01  0.15652394425E+02 -0.30368885246E+01  0.16730990431E+02  0.51100000000E-03 0. -1.
         12    1    4    4    0    0  0.75875984520E+01  0.10033397949E+02 -0.71684816815E+01  0.14478530805E+02  0.00000000000E+00 0. -1.
</event>
<event>
 8    1  0.2962813E-009  0.9118800E+02  0.7816164E-02  0.1184000E+00
        -11   -1    0    0    0    0  0.00000000000E+00  0.00000000000E+00  0.45593999997E+02  0.45594000000E+02  0.51100000000E-03 0.  1.
         11   -1    0    0    0    0 -0.00000000000E+00 -0.00000000000E+00 -0.45593999997E+02  0.45594000000E+02  0.51100000000E-03 0. -1.
         23    2    1    2    0    0  0.35527136788E-14  0.00000000000E+00 -0.44408920985E-15  0.91188000000E+02  0.91188000000E+02 0.  0.
    9900012    2    3    3    0    0 -0.17922958876E+02  0.41226448734E+02 -0.28741997296E+01  0.46142317030E+02  0.99999933370E+01 0.  0.
        -12    1    3    3    0    0  0.17922958876E+02 -0.41226448734E+02  0.28741997296E+01  0.45045682970E+02  0.00000000000E+00 0.  1.
         11    1    4    4    0    0 -0.25890635553E+01  0.95017997781E+01 -0.25964323770E+01  0.10184739097E+02  0.51100000000E-03 0. -1.
        -11    1    4    4    0    0 -0.98098582573E+01  0.26644421634E+02 -0.10550215613E+01  0.28412525301E+02  0.51100000000E-03 0.  1.
        -12    1    4    4    0    0 -0.55240370636E+01  0.50802273224E+01  0.77725420869E+00  0.75450526329E+01  0.00000000000E+00 0.  1.
</event>
<event>
 8    1  0.2962813E-009  0.9118800E+02  0.7816164E-02  0.1184000E+00
        -11   -1    0    0    0    0  0.00000000000E+00  0.00000000000E+00  0.45593999997E+02  0.45594000000E+02  0.51100000000E-03 0. -1.
         11   -1    0    0    0    0 -0.00000000000E+00 -0.00000000000E+00 -0.45593999997E+02  0.45594000000E+02  0.51100000000E-03 0.  1.
         23    2    1    2    0    0  0.00000000000E+00  0.00000000000E+00  0.00000000000E+00  0.91188000000E+02  0.91188000000E+02 0.  0.
    9900012    2    3    3    0    0  0.38120035029E+02 -0.50651051215E+01 -0.23458923623E+02  0.46142318098E+02  0.10000003071E+02 0.  0.
         12    1    3    3    0    0 -0.38120035029E+02  0.50651051215E+01  0.23458923623E+02  0.45045681902E+02  0.00000000000E+00 0. -1.
         11    1    4    4    0    0  0.19646383086E+02 -0.74485086246E+01 -0.12763070239E+02  0.24583665538E+02  0.51100000000E-03 0. -1.
        -11    1    4    4    0    0  0.53788342994E+01  0.15317570449E+01 -0.30168875395E+01  0.63545061769E+01  0.51100000000E-03 0.  1.
         12    1    4    4    0    0  0.13094817643E+02  0.85164645820E+00 -0.76789658448E+01  0.15204146383E+02  0.00000000000E+00 0. -1.
</event>
<event>
 8    1  0.2962813E-009  0.9118800E+02  0.7816164E-02  0.1184000E+00
        -11   -1    0    0    0    0  0.00000000000E+00  0.00000000000E+00  0.45593999997E+02  0.45594000000E+02  0.51100000000E-03 0. -1.
         11   -1    0    0    0    0 -0.00000000000E+00 -0.00000000000E+00 -0.45593999997E+02  0.45594000000E+02  0.51100000000E-03 0.  1.
         23    2    1    2    0    0  0.00000000000E+00  0.00000000000E+00  0.00000000000E+00  0.91188000000E+02  0.91188000000E+02 0.  0.
    9900012    2    3    3    0    0 -0.22236521768E+02  0.18360680216E+02  0.34605431784E+02  0.46142318884E+02  0.10000010235E+02 0.  0.
        -12    1    3    3    0    0  0.22236521768E+02 -0.18360680216E+02 -0.34605431784E+02  0.45045681116E+02  0.00000000000E+00 0.  1.
         11    1    4    4    0    0 -0.13695675444E+02  0.13729518425E+02  0.22445426240E+02  0.29662575097E+02  0.51100000000E-03 0. -1.
        -11    1    4    4    0    0 -0.18367888746E+01 -0.21807605602E+00  0.97507642365E-01  0.18522576866E+01  0.51100000000E-03 0.  1.
        -12    1    4    4    0    0 -0.67040574496E+01  0.48492378466E+01  0.12062497902E+02  0.14627486100E+02  0.00000000000E+00 0.  1.
</event>
<event>
 8    1  0.2962813E-009  0.9118800E+02  0.7816164E-02  0.1184000E+00
        -11   -1    0    0    0    0  0.00000000000E+00  0.00000000000E+00  0.45593999997E+02  0.45594000000E+02  0.51100000000E-03 0. -1.
         11   -1    0    0    0    0 -0.00000000000E+00 -0.00000000000E+00 -0.45593999997E+02  0.45594000000E+02  0.51100000000E-03 0.  1.
         23    2    1    2    0    0 -0.35527136788E-14  0.00000000000E+00  0.00000000000E+00  0.91188000000E+02  0.91188000000E+02 0.  0.
    9900012    2    3    3    0    0  0.30863778200E+02  0.30754259273E+02 -0.11433127619E+02  0.46142315685E+02  0.99999810713E+01 0.  0.
         12    1    3    3    0    0 -0.30863778200E+02 -0.30754259273E+02  0.11433127619E+02  0.45045684315E+02  0.00000000000E+00 0. -1.
         11    1    4    4    0    0  0.32757279280E+00  0.24192281392E+01 -0.10167767256E+01  0.26445800980E+01  0.51100000000E-03 0.  1.
        -11    1    4    4    0    0  0.88275609052E+01  0.51888439574E+01 -0.46442231451E+01  0.11243608942E+02  0.51100000000E-03 0. -1.
        -12    1    4    4    0    0  0.21708644502E+02  0.23146187177E+02 -0.57721277480E+01  0.32254126646E+02  0.00000000000E+00 0.  1.
</event>
<event>
 8    1  0.2962813E-009  0.9118800E+02  0.7816164E-02  0.1184000E+00
        -11   -1    0    0    0    0  0.00000000000E+00  0.00000000000E+00  0.45593999997E+02  0.45594000000E+02  0.51100000000E-03 0. -1.
         11   -1    0    0    0    0 -0.00000000000E+00 -0.00000000000E+00 -0.45593999997E+02  0.45594000000E+02  0.51100000000E-03 0.  1.
         23    2    1    2    0    0  0.00000000000E+00  0.35527136788E-14  0.00000000000E+00  0.91188000000E+02  0.91188000000E+02 0.  0.
    9900012    2    3    3    0    0  0.25300122179E+02  0.24703159146E+02 -0.27906473402E+02  0.46142317501E+02  0.99999976279E+01 0.  0.
         12    1    3    3    0    0 -0.25300122179E+02 -0.24703159146E+02  0.27906473402E+02  0.45045682499E+02  0.00000000000E+00 0. -1.
         11    1    4    4    0    0  0.12537075869E+01  0.31250468303E+01 -0.37369325065E+01  0.50301456464E+01  0.51100000000E-03 0. -1.
        -11    1    4    4    0    0  0.15983510900E+02  0.14486526302E+02 -0.11302378584E+02  0.24353148193E+02  0.51100000000E-03 0.  1.
        -12    1    4    4    0    0  0.80629036921E+01  0.70915860136E+01 -0.12867162311E+02  0.16759023661E+02  0.00000000000E+00 0.  1.
</event>
<event>
 8    1  0.2962813E-009  0.9118800E+02  0.7816164E-02  0.1184000E+00
        -11   -1    0    0    0    0  0.00000000000E+00  0.00000000000E+00  0.45593999997E+02  0.45594000000E+02  0.51100000000E-03 0.  1.
         11   -1    0    0    0    0 -0.00000000000E+00 -0.00000000000E+00 -0.45593999997E+02  0.45594000000E+02  0.51100000000E-03 0. -1.
         23    2    1    2    0    0  0.00000000000E+00  0.00000000000E+00  0.00000000000E+00  0.91188000000E+02  0.91188000000E+02 0.  0.
    9900012    2    3    3    0    0  0.21574471431E+02 -0.28510228999E+02  0.27401143533E+02  0.46142316056E+02  0.99999844533E+01 0.  0.
        -12    1    3    3    0    0 -0.21574471431E+02  0.28510228999E+02 -0.27401143533E+02  0.45045683944E+02  0.00000000000E+00 0.  1.
         11    1    4    4    0    0  0.57302832780E+01 -0.58512454419E+01  0.27729125673E+01  0.86465174512E+01  0.51100000000E-03 0. -1.
        -11    1    4    4    0    0  0.81242214214E+01 -0.66974551471E+01  0.97498634120E+01  0.14349868152E+02  0.51100000000E-03 0.  1.
         12    1    4    4    0    0  0.77199667312E+01 -0.15961528410E+02  0.14878367553E+02  0.23145930453E+02  0.00000000000E+00 0. -1.
</event>
<event>
 8    1  0.2962813E-009  0.9118800E+02  0.7816164E-02  0.1184000E+00
        -11   -1    0    0    0    0  0.00000000000E+00  0.00000000000E+00  0.45593999997E+02  0.45594000000E+02  0.51100000000E-03 0. -1.
         11   -1    0    0    0    0 -0.00000000000E+00 -0.00000000000E+00 -0.45593999997E+02  0.45594000000E+02  0.51100000000E-03 0.  1.
         23    2    1    2    0    0  0.00000000000E+00  0.00000000000E+00  0.00000000000E+00  0.91188000000E+02  0.91188000000E+02 0.  0.
    9900012    2    3    3    0    0 -0.25016815721E+02 -0.92863627512E+01  0.36290989435E+02  0.46142317452E+02  0.99999971855E+01 0.  0.
        -12    1    3    3    0    0  0.25016815721E+02  0.92863627512E+01 -0.36290989435E+02  0.45045682548E+02  0.00000000000E+00 0.  1.
         11    1    4    4    0    0 -0.10123475722E+02 -0.10757786234E+01  0.88046949048E+01  0.13459744164E+02  0.51100000000E-03 0. -1.
        -11    1    4    4    0    0 -0.72355960321E+00  0.60435434283E+00  0.97448447694E+00  0.13558771803E+01  0.51100000000E-03 0.  1.
         12    1    4    4    0    0 -0.14169780396E+02 -0.88149384706E+01  0.26511810054E+02  0.31326696108E+02  0.00000000000E+00 0. -1.
</event>
<event>
 8    1  0.2962813E-009  0.9118800E+02  0.7816164E-02  0.1184000E+00
        -11   -1    0    0    0    0  0.00000000000E+00  0.00000000000E+00  0.45593999997E+02  0.45594000000E+02  0.51100000000E-03 0. -1.
         11   -1    0    0    0    0 -0.00000000000E+00 -0.00000000000E+00 -0.45593999997E+02  0.45594000000E+02  0.51100000000E-03 0.  1.
         23    2    1    2    0    0  0.44408920985E-15  0.00000000000E+00  0.71054273576E-14  0.91188000000E+02  0.91188000000E+02 0.  0.
    9900012    2    3    3    0    0  0.22370974219E+01  0.20583449454E+01  0.44942986789E+02  0.46142318184E+02  0.10000003852E+02 0.  0.
        -12    1    3    3    0    0 -0.22370974219E+01 -0.20583449454E+01 -0.44942986789E+02  0.45045681816E+02  0.00000000000E+00 0.  1.
         11    1    4    4    0    0  0.90954069660E+00  0.36030102450E+01  0.12922660387E+02  0.13446341467E+02  0.51100000000E-03 0. -1.
        -11    1    4    4    0    0 -0.42155144825E+00 -0.37559369430E+01  0.17293196967E+02  0.17701396260E+02  0.51100000000E-03 0.  1.
        -12    1    4    4    0    0  0.17491081735E+01  0.22112716434E+01  0.14727129435E+02  0.14994580457E+02  0.00000000000E+00 0.  1.
</event>
<event>
 8    1  0.2962813E-009  0.9118800E+02  0.7816164E-02  0.1184000E+00
        -11   -1    0    0    0    0  0.00000000000E+00  0.00000000000E+00  0.45593999997E+02  0.45594000000E+02  0.51100000000E-03 0. -1.
         11   -1    0    0    0    0 -0.00000000000E+00 -0.00000000000E+00 -0.45593999997E+02  0.45594000000E+02  0.51100000000E-03 0.  1.
         23    2    1    2    0    0  0.00000000000E+00 -0.17763568394E-14  0.00000000000E+00  0.91188000000E+02  0.91188000000E+02 0.  0.
    9900012    2    3    3    0    0 -0.38238379209E+02 -0.99684384371E+01  0.21623368489E+02  0.46142317918E+02  0.10000001427E+02 0.  0.
        -12    1    3    3    0    0  0.38238379209E+02  0.99684384371E+01 -0.21623368489E+02  0.45045682082E+02  0.00000000000E+00 0.  1.
         11    1    4    4    0    0 -0.10236490494E+02 -0.56727199535E+01  0.54768224419E+01  0.12921341789E+02  0.51100000000E-03 0. -1.
        -11    1    4    4    0    0 -0.15689072583E+00  0.65614564563E+00  0.78999176274E+00  0.10388594970E+01  0.51100000000E-03 0.  1.
         12    1    4    4    0    0 -0.27844997989E+02 -0.49518641292E+01  0.15356554285E+02  0.32182116631E+02  0.00000000000E+00 0. -1.
</event>
<event>
 8    1  0.2962813E-009  0.9118800E+02  0.7816164E-02  0.1184000E+00
        -11   -1    0    0    0    0  0.00000000000E+00  0.00000000000E+00  0.45593999997E+02  0.45594000000E+02  0.51100000000E-03 0. -1.
         11   -1    0    0    0    0 -0.00000000000E+00 -0.00000000000E+00 -0.45593999997E+02  0.45594000000E+02  0.51100000000E-03 0.  1.
         23    2    1    2    0    0  0.00000000000E+00  0.00000000000E+00  0.00000000000E+00  0.91188000000E+02  0.91188000000E+02 0.  0.
    9900012    2    3    3    0    0  0.21751142843E+02  0.88726195526E+01 -0.38435372846E+02  0.46142317870E+02  0.10000000995E+02 0.  0.
         12    1    3    3    0    0 -0.21751142843E+02 -0.88726195526E+01  0.38435372846E+02  0.45045682130E+02  0.00000000000E+00 0. -1.
         11    1    4    4    0    0  0.28399528857E+00  0.87689469763E+00 -0.22155443742E+01  0.23996322155E+01  0.51100000000E-03 0. -1.
        -11    1    4    4    0    0  0.14070991006E+01  0.19208458673E+01 -0.94406883655E+01  0.97363326669E+01  0.51100000000E-03 0.  1.
        -12    1    4    4    0    0  0.20060048454E+02  0.60748789877E+01 -0.26779140107E+02  0.34006352988E+02  0.00000000000E+00 0.  1.
</event>
<event>
 8    1  0.2962813E-009  0.9118800E+02  0.7816164E-02  0.1184000E+00
        -11   -1    0    0    0    0  0.00000000000E+00  0.00000000000E+00  0.45593999997E+02  0.45594000000E+02  0.51100000000E-03 0.  1.
         11   -1    0    0    0    0 -0.00000000000E+00 -0.00000000000E+00 -0.45593999997E+02  0.45594000000E+02  0.51100000000E-03 0. -1.
         23    2    1    2    0    0  0.00000000000E+00  0.35527136788E-14  0.00000000000E+00  0.91188000000E+02  0.91188000000E+02 0.  0.
    9900012    2    3    3    0    0 -0.37402899968E+02  0.17040723048E+02 -0.18432327020E+02  0.46142313776E+02  0.99999636614E+01 0.  0.
        -12    1    3    3    0    0  0.37402899968E+02 -0.17040723048E+02  0.18432327020E+02  0.45045686224E+02  0.00000000000E+00 0.  1.
         11    1    4    4    0    0 -0.25242379830E+02  0.12662977123E+02 -0.15741290333E+02  0.32331361720E+02  0.51100000000E-03 0. -1.
        -11    1    4    4    0    0 -0.11537093814E+02  0.44248762482E+01 -0.34485662276E+01  0.12828744006E+02  0.51100000000E-03 0.  1.
        -12    1    4    4    0    0 -0.62342632425E+00 -0.47130323219E-01  0.75752954015E+00  0.98220804992E+00  0.00000000000E+00 0.  1.
</event>
<event>
 8    1  0.3012609E-009  0.9118800E+02  0.7816164E-02  0.1184000E+00
        -11   -1    0    0    0    0  0.00000000000E+00  0.00000000000E+00  0.45593999997E+02  0.45594000000E+02  0.51100000000E-03 0. -1.
         11   -1    0    0    0    0 -0.00000000000E+00 -0.00000000000E+00 -0.45593999997E+02  0.45594000000E+02  0.51100000000E-03 0.  1.
         23    2    1    2    0    0  0.00000000000E+00  0.35527136788E-14 -0.71054273576E-14  0.91188000000E+02  0.91188000000E+02 0.  0.
    9900012    2    3    3    0    0  0.16405386897E+02  0.13947327662E+02 -0.39565754363E+02  0.46142316672E+02  0.99999900697E+01 0.  0.
         12    1    3    3    0    0 -0.16405386897E+02 -0.13947327662E+02  0.39565754363E+02  0.45045683328E+02  0.00000000000E+00 0. -1.
         11    1    4    4    0    0 -0.70293055051E+00  0.18484302041E+01 -0.20088690686E+01  0.28189290119E+01  0.51100000000E-03 0. -1.
        -11    1    4    4    0    0  0.12608396364E+02  0.10371057933E+02 -0.24850667203E+02  0.29733586434E+02  0.51100000000E-03 0.  1.
         12    1    4    4    0    0  0.44999210829E+01  0.17278395247E+01 -0.12706218091E+02  0.13589801226E+02  0.00000000000E+00 0. -1.
</event>
<event>
 8    1  0.2962813E-009  0.9118800E+02  0.7816164E-02  0.1184000E+00
        -11   -1    0    0    0    0  0.00000000000E+00  0.00000000000E+00  0.45593999997E+02  0.45594000000E+02  0.51100000000E-03 0.  1.
         11   -1    0    0    0    0 -0.00000000000E+00 -0.00000000000E+00 -0.45593999997E+02  0.45594000000E+02  0.51100000000E-03 0. -1.
         23    2    1    2    0    0  0.00000000000E+00 -0.71054273576E-14  0.00000000000E+00  0.91188000000E+02  0.91188000000E+02 0.  0.
    9900012    2    3    3    0    0 -0.13919685902E+02  0.42801064562E+02 -0.18506228401E+01  0.46142316654E+02  0.99999899020E+01 0.  0.
         12    1    3    3    0    0  0.13919685902E+02 -0.42801064562E+02  0.18506228401E+01  0.45045683346E+02  0.00000000000E+00 0. -1.
         11    1    4    4    0    0 -0.25553562324E+01  0.71345836551E+01 -0.26769732075E+01  0.80373077097E+01  0.51100000000E-03 0. -1.
        -11    1    4    4    0    0 -0.96774126395E+01  0.34927389774E+02  0.98330386840E+00  0.36256609860E+02  0.51100000000E-03 0.  1.
        -12    1    4    4    0    0 -0.16869170306E+01  0.73909113263E+00 -0.15695350101E+00  0.18483990835E+01  0.00000000000E+00 0.  1.
</event>
<event>
 8    1  0.2962813E-009  0.9118800E+02  0.7816164E-02  0.1184000E+00
        -11   -1    0    0    0    0  0.00000000000E+00  0.00000000000E+00  0.45593999997E+02  0.45594000000E+02  0.51100000000E-03 0. -1.
         11   -1    0    0    0    0 -0.00000000000E+00 -0.00000000000E+00 -0.45593999997E+02  0.45594000000E+02  0.51100000000E-03 0.  1.
         23    2    1    2    0    0  0.00000000000E+00  0.22204460493E-15  0.00000000000E+00  0.91188000000E+02  0.91188000000E+02 0.  0.
    9900012    2    3    3    0    0 -0.36802290130E+02  0.13765904775E+01  0.25938580448E+02  0.46142317456E+02  0.99999972215E+01 0.  0.
        -12    1    3    3    0    0  0.36802290130E+02 -0.13765904775E+01 -0.25938580448E+02  0.45045682544E+02  0.00000000000E+00 0.  1.
         11    1    4    4    0    0 -0.23300927232E+02 -0.91049593569E+00  0.16095028434E+02  0.28333939953E+02  0.51100000000E-03 0. -1.
        -11    1    4    4    0    0 -0.37672599856E+01 -0.17213392490E+01  0.40473281447E+01  0.57910380746E+01  0.51100000000E-03 0.  1.
        -12    1    4    4    0    0 -0.97341029122E+01  0.40084256622E+01  0.57962238698E+01  0.12017339429E+02  0.00000000000E+00 0.  1.
</event>
<event>
 8    1  0.3415351E-009  0.9118800E+02  0.7816164E-02  0.1184000E+00
        -11   -1    0    0    0    0  0.00000000000E+00  0.00000000000E+00  0.45593999997E+02  0.45594000000E+02  0.51100000000E-03 0. -1.
         11   -1    0    0    0    0 -0.00000000000E+00 -0.00000000000E+00 -0.45593999997E+02  0.45594000000E+02  0.51100000000E-03 0.  1.
         23    2    1    2    0    0 -0.17763568394E-14  0.22204460493E-15  0.71054273576E-14  0.91188000000E+02  0.91188000000E+02 0.  0.
    9900012    2    3    3    0    0 -0.12545141702E+02 -0.88034534589E+00 -0.43254570963E+02  0.46142317660E+02  0.99999990779E+01 0.  0.
         12    1    3    3    0    0  0.12545141702E+02  0.88034534589E+00  0.43254570963E+02  0.45045682340E+02  0.00000000000E+00 0. -1.
         11    1    4    4    0    0 -0.90907249410E+00 -0.28638749495E+01 -0.52303881222E+01  0.60320106678E+01  0.51100000000E-03 0. -1.
        -11    1    4    4    0    0 -0.79256599545E+01  0.33519620326E+01 -0.22475336447E+02  0.24066418177E+02  0.51100000000E-03 0.  1.
        -12    1    4    4    0    0 -0.37104092536E+01 -0.13684324290E+01 -0.15548846394E+02  0.16043888815E+02  0.00000000000E+00 0.  1.
</event>
<event>
 8    1  0.2962813E-009  0.9118800E+02  0.7816164E-02  0.1184000E+00
        -11   -1    0    0    0    0  0.00000000000E+00  0.00000000000E+00  0.45593999997E+02  0.45594000000E+02  0.51100000000E-03 0. -1.
         11   -1    0    0    0    0 -0.00000000000E+00 -0.00000000000E+00 -0.45593999997E+02  0.45594000000E+02  0.51100000000E-03 0.  1.
         23    2    1    2    0    0  0.00000000000E+00  0.35527136788E-14  0.00000000000E+00  0.91188000000E+02  0.91188000000E+02 0.  0.
    9900012    2    3    3    0    0 -0.10867338087E+02  0.26755369598E+02  0.34571155492E+02  0.46142316173E+02  0.99999855148E+01 0.  0.
        -12    1    3    3    0    0  0.10867338087E+02 -0.26755369598E+02 -0.34571155492E+02  0.45045683827E+02  0.00000000000E+00 0.  1.
         11    1    4    4    0    0  0.12413880638E+01  0.32372059124E+01  0.23736713183E+01  0.42017689409E+01  0.51100000000E-03 0. -1.
        -11    1    4    4    0    0 -0.15133029053E+01  0.11898636356E+01  0.10966327000E+01  0.22155055166E+01  0.51100000000E-03 0.  1.
         12    1    4    4    0    0 -0.10595423246E+02  0.22328300050E+02  0.31100851473E+02  0.39725041715E+02  0.00000000000E+00 0. -1.
</event>
<event>
 8    1  0.2962813E-009  0.9118800E+02  0.7816164E-02  0.1184000E+00
        -11   -1    0    0    0    0  0.00000000000E+00  0.00000000000E+00  0.45593999997E+02  0.45594000000E+02  0.51100000000E-03 0. -1.
         11   -1    0    0    0    0 -0.00000000000E+00 -0.00000000000E+00 -0.45593999997E+02  0.45594000000E+02  0.51100000000E-03 0.  1.
         23    2    1    2    0    0  0.00000000000E+00  0.00000000000E+00 -0.44408920985E-15  0.91188000000E+02  0.91188000000E+02 0.  0.
    9900012    2    3    3    0    0 -0.24094714043E+02  0.37915451318E+02  0.33131188476E+01  0.46142318187E+02  0.10000003885E+02 0.  0.
         12    1    3    3    0    0  0.24094714043E+02 -0.37915451318E+02 -0.33131188476E+01  0.45045681813E+02  0.00000000000E+00 0. -1.
         11    1    4    4    0    0 -0.79850777920E+01  0.15633077018E+02 -0.63457267902E+00  0.17565797651E+02  0.51100000000E-03 0. -1.
        -11    1    4    4    0    0 -0.75153524295E+01  0.55996858860E+01  0.27717747572E+01  0.97734200630E+01  0.51100000000E-03 0.  1.
        -12    1    4    4    0    0 -0.85942838219E+01  0.16682688414E+02  0.11759167694E+01  0.18803100473E+02  0.00000000000E+00 0.  1.
</event>
<event>
 8    1  0.2962813E-009  0.9118800E+02  0.7816164E-02  0.1184000E+00
        -11   -1    0    0    0    0  0.00000000000E+00  0.00000000000E+00  0.45593999997E+02  0.45594000000E+02  0.51100000000E-03 0. -1.
         11   -1    0    0    0    0 -0.00000000000E+00 -0.00000000000E+00 -0.45593999997E+02  0.45594000000E+02  0.51100000000E-03 0.  1.
         23    2    1    2    0    0  0.88817841970E-15  0.00000000000E+00  0.00000000000E+00  0.91188000000E+02  0.91188000000E+02 0.  0.
    9900012    2    3    3    0    0 -0.48410625115E+01 -0.33725268916E+02 -0.29466656887E+02  0.46142317435E+02  0.99999970218E+01 0.  0.
         12    1    3    3    0    0  0.48410625115E+01  0.33725268916E+02  0.29466656887E+02  0.45045682565E+02  0.00000000000E+00 0. -1.
         11    1    4    4    0    0  0.57313196122E-04 -0.34629742837E+00 -0.32651914119E+01  0.32835037886E+01  0.51100000000E-03 0. -1.
        -11    1    4    4    0    0 -0.14831962537E+00 -0.10867298613E+02 -0.73048016962E+01  0.13095048909E+02  0.51100000000E-03 0.  1.
         12    1    4    4    0    0 -0.46928001993E+01 -0.22511672874E+02 -0.18896663779E+02  0.29763764737E+02  0.00000000000E+00 0. -1.
</event>
<event>
 8    1  0.2962813E-009  0.9118800E+02  0.7816164E-02  0.1184000E+00
        -11   -1    0    0    0    0  0.00000000000E+00  0.00000000000E+00  0.45593999997E+02  0.45594000000E+02  0.51100000000E-03 0. -1.
         11   -1    0    0    0    0 -0.00000000000E+00 -0.00000000000E+00 -0.45593999997E+02  0.45594000000E+02  0.51100000000E-03 0.  1.
         23    2    1    2    0    0 -0.17763568394E-14  0.35527136788E-14 -0.71054273576E-14  0.91188000000E+02  0.91188000000E+02 0.  0.
    9900012    2    3    3    0    0 -0.12203600989E+02  0.24050972852E+02 -0.36079581874E+02  0.46142318737E+02  0.10000008903E+02 0.  0.
         12    1    3    3    0    0  0.12203600989E+02 -0.24050972852E+02  0.36079581874E+02  0.45045681263E+02  0.00000000000E+00 0. -1.
         11    1    4    4    0    0 -0.46614488573E+01  0.69316388363E+01 -0.16822162277E+02  0.18781955871E+02  0.51100000000E-03 0. -1.
        -11    1    4    4    0    0 -0.58813178692E+01  0.16503117761E+02 -0.16397578541E+02  0.23996320092E+02  0.51100000000E-03 0.  1.
        -12    1    4    4    0    0 -0.16608342627E+01  0.61621625465E+00 -0.28598410568E+01  0.33640427748E+01  0.00000000000E+00 0.  1.
</event>
<event>
 8    1  0.2962813E-009  0.9118800E+02  0.7816164E-02  0.1184000E+00
        -11   -1    0    0    0    0  0.00000000000E+00  0.00000000000E+00  0.45593999997E+02  0.45594000000E+02  0.51100000000E-03 0. -1.
         11   -1    0    0    0    0 -0.00000000000E+00 -0.00000000000E+00 -0.45593999997E+02  0.45594000000E+02  0.51100000000E-03 0.  1.
         23    2    1    2    0    0 -0.17763568394E-14 -0.71054273576E-14  0.35527136788E-14  0.91188000000E+02  0.91188000000E+02 0.  0.
    9900012    2    3    3    0    0 -0.69551076791E+01 -0.42530015352E+02  0.13112508680E+02  0.46142316382E+02  0.99999874273E+01 0.  0.
        -12    1    3    3    0    0  0.69551076791E+01  0.42530015352E+02 -0.13112508680E+02  0.45045683618E+02  0.00000000000E+00 0.  1.
         11    1    4    4    0    0 -0.80444941652E+01 -0.35086561526E+02  0.95929098613E+01  0.37253249603E+02  0.51100000000E-03 0. -1.
        -11    1    4    4    0    0  0.21173843789E+01 -0.40503364590E+01  0.15081590132E+01  0.48128043706E+01  0.51100000000E-03 0.  1.
        -12    1    4    4    0    0 -0.10279978928E+01 -0.33931173671E+01  0.20114398055E+01  0.40762624089E+01  0.00000000000E+00 0.  1.
</event>
<event>
 8    1  0.2962813E-009  0.9118800E+02  0.7816164E-02  0.1184000E+00
        -11   -1    0    0    0    0  0.00000000000E+00  0.00000000000E+00  0.45593999997E+02  0.45594000000E+02  0.51100000000E-03 0. -1.
         11   -1    0    0    0    0 -0.00000000000E+00 -0.00000000000E+00 -0.45593999997E+02  0.45594000000E+02  0.51100000000E-03 0.  1.
         23    2    1    2    0    0 -0.17763568394E-14  0.35527136788E-14  0.00000000000E+00  0.91188000000E+02  0.91188000000E+02 0.  0.
    9900012    2    3    3    0    0 -0.15368315403E+02  0.24047035839E+02  0.34852093972E+02  0.46142317574E+02  0.99999982973E+01 0.  0.
        -12    1    3    3    0    0  0.15368315403E+02 -0.24047035839E+02 -0.34852093972E+02  0.45045682426E+02  0.00000000000E+00 0.  1.
         11    1    4    4    0    0 -0.55535968236E+01  0.89274323772E+01  0.13793930781E+02  0.17343990694E+02  0.51100000000E-03 0. -1.
        -11    1    4    4    0    0 -0.10071926053E+02  0.10682745882E+02  0.13068701040E+02  0.19655932975E+02  0.51100000000E-03 0.  1.
        -12    1    4    4    0    0  0.25720747324E+00  0.44368575801E+01  0.79894621501E+01  0.91423939052E+01  0.00000000000E+00 0.  1.
</event>
<event>
 8    1  0.2962813E-009  0.9118800E+02  0.7816164E-02  0.1184000E+00
        -11   -1    0    0    0    0  0.00000000000E+00  0.00000000000E+00  0.45593999997E+02  0.45594000000E+02  0.51100000000E-03 0. -1.
         11   -1    0    0    0    0 -0.00000000000E+00 -0.00000000000E+00 -0.45593999997E+02  0.45594000000E+02  0.51100000000E-03 0.  1.
         23    2    1    2    0    0  0.00000000000E+00  0.00000000000E+00  0.00000000000E+00  0.91188000000E+02  0.91188000000E+02 0.  0.
    9900012    2    3    3    0    0 -0.14949185624E+02 -0.25126856082E+02 -0.34267715097E+02  0.46142319349E+02  0.10000014476E+02 0.  0.
         12    1    3    3    0    0  0.14949185624E+02  0.25126856082E+02  0.34267715097E+02  0.45045680651E+02  0.00000000000E+00 0. -1.
         11    1    4    4    0    0 -0.57003356747E+01 -0.42759899136E+01 -0.11292324797E+02  0.13352696960E+02  0.51100000000E-03 0. -1.
        -11    1    4    4    0    0 -0.26899488666E+01 -0.54596893680E+01 -0.31662760107E+01  0.68607096526E+01  0.51100000000E-03 0.  1.
        -12    1    4    4    0    0 -0.65589010826E+01 -0.15391176800E+02 -0.19809114290E+02  0.25928912736E+02  0.00000000000E+00 0.  1.
</event>
<event>
 8    1  0.2962813E-009  0.9118800E+02  0.7816164E-02  0.1184000E+00
        -11   -1    0    0    0    0  0.00000000000E+00  0.00000000000E+00  0.45593999997E+02  0.45594000000E+02  0.51100000000E-03 0. -1.
         11   -1    0    0    0    0 -0.00000000000E+00 -0.00000000000E+00 -0.45593999997E+02  0.45594000000E+02  0.51100000000E-03 0.  1.
         23    2    1    2    0    0 -0.35527136788E-14 -0.44408920985E-15  0.00000000000E+00  0.91188000000E+02  0.91188000000E+02 0.  0.
    9900012    2    3    3    0    0  0.28128787878E+02  0.36178603758E+01 -0.34997082552E+02  0.46142318650E+02  0.10000008103E+02 0.  0.
         12    1    3    3    0    0 -0.28128787878E+02 -0.36178603758E+01  0.34997082552E+02  0.45045681350E+02  0.00000000000E+00 0. -1.
         11    1    4    4    0    0  0.17397091715E+02  0.24010725023E+01 -0.26599007733E+02  0.31873675062E+02  0.51100000000E-03 0.  1.
        -11    1    4    4    0    0  0.51333764034E+01 -0.11539018715E+01 -0.26053055332E+01  0.58711719453E+01  0.51100000000E-03 0. -1.
         12    1    4    4    0    0  0.55983197589E+01  0.23706897450E+01 -0.57927692860E+01  0.83974716427E+01  0.00000000000E+00 0. -1.
</event>
<event>
 8    1  0.2962813E-009  0.9118800E+02  0.7816164E-02  0.1184000E+00
        -11   -1    0    0    0    0  0.00000000000E+00  0.00000000000E+00  0.45593999997E+02  0.45594000000E+02  0.51100000000E-03 0. -1.
         11   -1    0    0    0    0 -0.00000000000E+00 -0.00000000000E+00 -0.45593999997E+02  0.45594000000E+02  0.51100000000E-03 0.  1.
         23    2    1    2    0    0  0.00000000000E+00  0.00000000000E+00  0.71054273576E-14  0.91188000000E+02  0.91188000000E+02 0.  0.
    9900012    2    3    3    0    0  0.15255074009E+02 -0.12389930845E+02 -0.40532527864E+02  0.46142317806E+02  0.10000000406E+02 0.  0.
         12    1    3    3    0    0 -0.15255074009E+02  0.12389930845E+02  0.40532527864E+02  0.45045682194E+02  0.00000000000E+00 0. -1.
         11    1    4    4    0    0  0.66729539587E+01 -0.82834503543E+01 -0.20929367691E+02  0.23477271913E+02  0.51100000000E-03 0. -1.
        -11    1    4    4    0    0  0.45557384030E+01 -0.30023205066E+01 -0.47427036588E+01  0.72292405602E+01  0.51100000000E-03 0.  1.
         12    1    4    4    0    0  0.40263816471E+01 -0.11041599839E+01 -0.14860456514E+02  0.15435805332E+02  0.00000000000E+00 0. -1.
</event>
<event>
 8    1  0.2962813E-009  0.9118800E+02  0.7816164E-02  0.1184000E+00
        -11   -1    0    0    0    0  0.00000000000E+00  0.00000000000E+00  0.45593999997E+02  0.45594000000E+02  0.51100000000E-03 0. -1.
         11   -1    0    0    0    0 -0.00000000000E+00 -0.00000000000E+00 -0.45593999997E+02  0.45594000000E+02  0.51100000000E-03 0.  1.
         23    2    1    2    0    0 -0.35527136788E-14  0.71054273576E-14 -0.35527136788E-14  0.91188000000E+02  0.91188000000E+02 0.  0.
    9900012    2    3    3    0    0  0.24481952559E+02 -0.26714772706E+02  0.26759462402E+02  0.46142313082E+02  0.99999573360E+01 0.  0.
        -12    1    3    3    0    0 -0.24481952559E+02  0.26714772706E+02 -0.26759462402E+02  0.45045686918E+02  0.00000000000E+00 0.  1.
         11    1    4    4    0    0  0.11914735804E+02 -0.14428391021E+02  0.13767603710E+02  0.23231149539E+02  0.51100000000E-03 0. -1.
        -11    1    4    4    0    0 -0.37439350063E+00 -0.37051933098E+00  0.22238425938E+01  0.22853733198E+01  0.51100000000E-03 0.  1.
        -12    1    4    4    0    0  0.12941610256E+02 -0.11915862354E+02  0.10768016097E+02  0.20625790223E+02  0.00000000000E+00 0.  1.
</event>
<event>
 8    1  0.2962813E-009  0.9118800E+02  0.7816164E-02  0.1184000E+00
        -11   -1    0    0    0    0  0.00000000000E+00  0.00000000000E+00  0.45593999997E+02  0.45594000000E+02  0.51100000000E-03 0. -1.
         11   -1    0    0    0    0 -0.00000000000E+00 -0.00000000000E+00 -0.45593999997E+02  0.45594000000E+02  0.51100000000E-03 0.  1.
         23    2    1    2    0    0  0.00000000000E+00  0.35527136788E-14 -0.71054273576E-14  0.91188000000E+02  0.91188000000E+02 0.  0.
    9900012    2    3    3    0    0  0.21634797927E+02 -0.22187864721E+02  0.32691707020E+02  0.46142317297E+02  0.99999957693E+01 0.  0.
        -12    1    3    3    0    0 -0.21634797927E+02  0.22187864721E+02 -0.32691707020E+02  0.45045682703E+02  0.00000000000E+00 0.  1.
         11    1    4    4    0    0  0.63005447785E+01 -0.88262818765E+01  0.13464734210E+02  0.17288701047E+02  0.51100000000E-03 0. -1.
        -11    1    4    4    0    0  0.12892898171E+02 -0.82803695431E+01  0.10925811138E+02  0.18819263862E+02  0.51100000000E-03 0.  1.
        -12    1    4    4    0    0  0.24413549778E+01 -0.50812133018E+01  0.83011616728E+01  0.10034352389E+02  0.00000000000E+00 0.  1.
</event>
<event>
 8    1  0.2962813E-009  0.9118800E+02  0.7816164E-02  0.1184000E+00
        -11   -1    0    0    0    0  0.00000000000E+00  0.00000000000E+00  0.45593999997E+02  0.45594000000E+02  0.51100000000E-03 0. -1.
         11   -1    0    0    0    0 -0.00000000000E+00 -0.00000000000E+00 -0.45593999997E+02  0.45594000000E+02  0.51100000000E-03 0.  1.
         23    2    1    2    0    0  0.00000000000E+00  0.00000000000E+00  0.00000000000E+00  0.91188000000E+02  0.91188000000E+02 0.  0.
    9900012    2    3    3    0    0 -0.10538679346E+02  0.12341703968E+02  0.42020614913E+02  0.46142317667E+02  0.99999991375E+01 0.  0.
        -12    1    3    3    0    0  0.10538679346E+02 -0.12341703968E+02 -0.42020614913E+02  0.45045682333E+02  0.00000000000E+00 0.  1.
         11    1    4    4    0    0 -0.19842430695E+01  0.29364272994E+01  0.45542689830E+01  0.57707185059E+01  0.51100000000E-03 0. -1.
        -11    1    4    4    0    0 -0.32210743858E+01 -0.84446067954E+00  0.61826515862E+01  0.70223653377E+01  0.51100000000E-03 0.  1.
        -12    1    4    4    0    0 -0.53333618908E+01  0.10249737348E+02  0.31283694344E+02  0.33349233823E+02  0.00000000000E+00 0.  1.
</event>
<event>
 8    1  0.2962813E-009  0.9118800E+02  0.7816164E-02  0.1184000E+00
        -11   -1    0    0    0    0  0.00000000000E+00  0.00000000000E+00  0.45593999997E+02  0.45594000000E+02  0.51100000000E-03 0.  1.
         11   -1    0    0    0    0 -0.00000000000E+00 -0.00000000000E+00 -0.45593999997E+02  0.45594000000E+02  0.51100000000E-03 0. -1.
         23    2    1    2    0    0  0.00000000000E+00  0.71054273576E-14  0.00000000000E+00  0.91188000000E+02  0.91188000000E+02 0.  0.
    9900012    2    3    3    0    0 -0.52149080186E+01 -0.42649255645E+02  0.13526244573E+02  0.46142316911E+02  0.99999922486E+01 0.  0.
        -12    1    3    3    0    0  0.52149080186E+01  0.42649255645E+02 -0.13526244573E+02  0.45045683089E+02  0.00000000000E+00 0.  1.
         11    1    4    4    0    0  0.21162099114E+01 -0.86542251534E+01  0.31218098997E+01  0.94403206888E+01  0.51100000000E-03 0. -1.
        -11    1    4    4    0    0 -0.64700885236E+01 -0.17397527800E+02  0.49566511261E+01  0.19212090196E+02  0.51100000000E-03 0.  1.
        -12    1    4    4    0    0 -0.86102940642E+00 -0.16597502691E+02  0.54477835472E+01  0.17489906026E+02  0.00000000000E+00 0.  1.
</event>
<event>
 8    1  0.2962813E-009  0.9118800E+02  0.7816164E-02  0.1184000E+00
        -11   -1    0    0    0    0  0.00000000000E+00  0.00000000000E+00  0.45593999997E+02  0.45594000000E+02  0.51100000000E-03 0. -1.
         11   -1    0    0    0    0 -0.00000000000E+00 -0.00000000000E+00 -0.45593999997E+02  0.45594000000E+02  0.51100000000E-03 0.  1.
         23    2    1    2    0    0  0.35527136788E-14  0.00000000000E+00  0.71054273576E-14  0.91188000000E+02  0.91188000000E+02 0.  0.
    9900012    2    3    3    0    0  0.30022905253E+02 -0.99151558741E+01  0.32084704889E+02  0.46142318257E+02  0.10000004522E+02 0.  0.
        -12    1    3    3    0    0 -0.30022905253E+02  0.99151558741E+01 -0.32084704889E+02  0.45045681743E+02  0.00000000000E+00 0.  1.
         11    1    4    4    0    0  0.16746899798E+02 -0.36353707179E+01  0.11756207268E+02  0.20781794501E+02  0.51100000000E-03 0. -1.
        -11    1    4    4    0    0  0.72751523303E+01 -0.51363836361E+01  0.10282064632E+02  0.13602614883E+02  0.51100000000E-03 0.  1.
        -12    1    4    4    0    0  0.60008531248E+01 -0.11434015201E+01  0.10046432989E+02  0.11757908873E+02  0.00000000000E+00 0.  1.
</event>
<event>
 8    1  0.2962813E-009  0.9118800E+02  0.7816164E-02  0.1184000E+00
        -11   -1    0    0    0    0  0.00000000000E+00  0.00000000000E+00  0.45593999997E+02  0.45594000000E+02  0.51100000000E-03 0. -1.
         11   -1    0    0    0    0 -0.00000000000E+00 -0.00000000000E+00 -0.45593999997E+02  0.45594000000E+02  0.51100000000E-03 0.  1.
         23    2    1    2    0    0  0.00000000000E+00  0.00000000000E+00  0.71054273576E-14  0.91188000000E+02  0.91188000000E+02 0.  0.
    9900012    2    3    3    0    0 -0.50226964469E+01  0.30584262309E+02  0.32687749619E+02  0.46142317014E+02  0.99999931862E+01 0.  0.
        -12    1    3    3    0    0  0.50226964469E+01 -0.30584262309E+02 -0.32687749619E+02  0.45045682986E+02  0.00000000000E+00 0.  1.
         11    1    4    4    0    0  0.87064817820E+00  0.10537045302E+02  0.94630434416E+01  0.14189310885E+02  0.51100000000E-03 0. -1.
        -11    1    4    4    0    0 -0.36420400146E+01  0.31445144000E+01  0.63041696767E+01  0.79306356525E+01  0.51100000000E-03 0.  1.
        -12    1    4    4    0    0 -0.22513046106E+01  0.16902702607E+02  0.16920536500E+02  0.24022370477E+02  0.00000000000E+00 0.  1.
</event>
<event>
 8    1  0.2962813E-009  0.9118800E+02  0.7816164E-02  0.1184000E+00
        -11   -1    0    0    0    0  0.00000000000E+00  0.00000000000E+00  0.45593999997E+02  0.45594000000E+02  0.51100000000E-03 0.  1.
         11   -1    0    0    0    0 -0.00000000000E+00 -0.00000000000E+00 -0.45593999997E+02  0.45594000000E+02  0.51100000000E-03 0. -1.
         23    2    1    2    0    0  0.00000000000E+00  0.00000000000E+00 -0.88817841970E-15  0.91188000000E+02  0.91188000000E+02 0.  0.
    9900012    2    3    3    0    0  0.44290986775E+02 -0.28660453862E+01 -0.76946620850E+01  0.46142317074E+02  0.99999937325E+01 0.  0.
         12    1    3    3    0    0 -0.44290986775E+02  0.28660453862E+01  0.76946620850E+01  0.45045682926E+02  0.00000000000E+00 0. -1.
         11    1    4    4    0    0  0.58958221065E+01 -0.78231766591E+00 -0.28790477578E+01  0.66076966860E+01  0.51100000000E-03 0.  1.
        -11    1    4    4    0    0  0.37274568031E+02 -0.33641564810E+01 -0.52127550365E+01  0.37787349550E+02  0.51100000000E-03 0. -1.
         12    1    4    4    0    0  0.11205966382E+01  0.12804287608E+01  0.39714070923E+00  0.17472708376E+01  0.00000000000E+00 0. -1.
</event>
<event>
 8    1  0.2962813E-009  0.9118800E+02  0.7816164E-02  0.1184000E+00
        -11   -1    0    0    0    0  0.00000000000E+00  0.00000000000E+00  0.45593999997E+02  0.45594000000E+02  0.51100000000E-03 0. -1.
         11   -1    0    0    0    0 -0.00000000000E+00 -0.00000000000E+00 -0.45593999997E+02  0.45594000000E+02  0.51100000000E-03 0.  1.
         23    2    1    2    0    0  0.00000000000E+00  0.00000000000E+00  0.35527136788E-14  0.91188000000E+02  0.91188000000E+02 0.  0.
    9900012    2    3    3    0    0  0.30105790027E+02 -0.11367693277E+02  0.31520319087E+02  0.46142316978E+02  0.99999928556E+01 0.  0.
        -12    1    3    3    0    0 -0.30105790027E+02  0.11367693277E+02 -0.31520319087E+02  0.45045683022E+02  0.00000000000E+00 0.  1.
         11    1    4    4    0    0  0.26891691464E+02 -0.83409581305E+01  0.25809261854E+02  0.38194929638E+02  0.51100000000E-03 0. -1.
        -11    1    4    4    0    0  0.15018169411E+01 -0.17559555549E+01  0.52917851150E+01  0.57742379583E+01  0.51100000000E-03 0.  1.
         12    1    4    4    0    0  0.17122816224E+01 -0.12707795917E+01  0.41927211764E+00  0.21731493814E+01  0.00000000000E+00 0. -1.
</event>
<event>
 8    1  0.2962813E-009  0.9118800E+02  0.7816164E-02  0.1184000E+00
        -11   -1    0    0    0    0  0.00000000000E+00  0.00000000000E+00  0.45593999997E+02  0.45594000000E+02  0.51100000000E-03 0. -1.
         11   -1    0    0    0    0 -0.00000000000E+00 -0.00000000000E+00 -0.45593999997E+02  0.45594000000E+02  0.51100000000E-03 0.  1.
         23    2    1    2    0    0  0.44408920985E-15  0.00000000000E+00  0.00000000000E+00  0.91188000000E+02  0.91188000000E+02 0.  0.
    9900012    2    3    3    0    0 -0.35478086733E+01  0.15684655396E+02 -0.42077522908E+02  0.46142319903E+02  0.10000019534E+02 0.  0.
         12    1    3    3    0    0  0.35478086733E+01 -0.15684655396E+02  0.42077522908E+02  0.45045680097E+02  0.00000000000E+00 0. -1.
         11    1    4    4    0    0  0.66833729076E+00  0.93292834556E+01 -0.15055113401E+02  0.17723956791E+02  0.51100000000E-03 0. -1.
        -11    1    4    4    0    0 -0.20635974822E+01  0.63157417511E+01 -0.20460786111E+02  0.21512572997E+02  0.51100000000E-03 0.  1.
        -12    1    4    4    0    0 -0.21525484819E+01  0.39630188976E-01 -0.65616233965E+01  0.69057901153E+01  0.00000000000E+00 0.  1.
</event>
<event>
 8    1  0.2962813E-009  0.9118800E+02  0.7816164E-02  0.1184000E+00
        -11   -1    0    0    0    0  0.00000000000E+00  0.00000000000E+00  0.45593999997E+02  0.45594000000E+02  0.51100000000E-03 0. -1.
         11   -1    0    0    0    0 -0.00000000000E+00 -0.00000000000E+00 -0.45593999997E+02  0.45594000000E+02  0.51100000000E-03 0.  1.
         23    2    1    2    0    0  0.00000000000E+00  0.35527136788E-14  0.00000000000E+00  0.91188000000E+02  0.91188000000E+02 0.  0.
    9900012    2    3    3    0    0  0.29264348486E+02 -0.18738024816E+02 -0.28663529081E+02  0.46142316903E+02  0.99999921726E+01 0.  0.
         12    1    3    3    0    0 -0.29264348486E+02  0.18738024816E+02  0.28663529081E+02  0.45045683097E+02  0.00000000000E+00 0. -1.
         11    1    4    4    0    0  0.18462117687E+02 -0.15687387043E+02 -0.17453996472E+02  0.29859435608E+02  0.51100000000E-03 0.  1.
        -11    1    4    4    0    0  0.62787564152E+01 -0.81530838819E+00 -0.40212991887E+01  0.75005571337E+01  0.51100000000E-03 0. -1.
         12    1    4    4    0    0  0.45234743836E+01 -0.22353293844E+01 -0.71882334205E+01  0.87823241607E+01  0.00000000000E+00 0. -1.
</event>
<event>
 8    1  0.2962813E-009  0.9118800E+02  0.7816164E-02  0.1184000E+00
        -11   -1    0    0    0    0  0.00000000000E+00  0.00000000000E+00  0.45593999997E+02  0.45594000000E+02  0.51100000000E-03 0.  1.
         11   -1    0    0    0    0 -0.00000000000E+00 -0.00000000000E+00 -0.45593999997E+02  0.45594000000E+02  0.51100000000E-03 0. -1.
         23    2    1    2    0    0 -0.35527136788E-14  0.00000000000E+00  0.00000000000E+00  0.91188000000E+02  0.91188000000E+02 0.  0.
    9900012    2    3    3    0    0 -0.30295245528E+02 -0.32777167878E+02  0.60802028037E+01  0.46142317612E+02  0.99999986374E+01 0.  0.
         12    1    3    3    0    0  0.30295245528E+02  0.32777167878E+02 -0.60802028037E+01  0.45045682388E+02  0.00000000000E+00 0. -1.
         11    1    4    4    0    0 -0.90417688566E+00 -0.19958546479E+01  0.24742432012E+01  0.33049737209E+01  0.51100000000E-03 0.  1.
        -11    1    4    4    0    0 -0.12282173652E+02 -0.10613437609E+02  0.10390151278E+01  0.16265804628E+02  0.51100000000E-03 0. -1.
        -12    1    4    4    0    0 -0.17108894990E+02 -0.20167875622E+02  0.25669444747E+01  0.26571539263E+02  0.00000000000E+00 0.  1.
</event>
<event>
 8    1  0.2962813E-009  0.9118800E+02  0.7816164E-02  0.1184000E+00
        -11   -1    0    0    0    0  0.00000000000E+00  0.00000000000E+00  0.45593999997E+02  0.45594000000E+02  0.51100000000E-03 0. -1.
         11   -1    0    0    0    0 -0.00000000000E+00 -0.00000000000E+00 -0.45593999997E+02  0.45594000000E+02  0.51100000000E-03 0.  1.
         23    2    1    2    0    0  0.35527136788E-14  0.00000000000E+00  0.00000000000E+00  0.91188000000E+02  0.91188000000E+02 0.  0.
    9900012    2    3    3    0    0  0.23661527775E+02 -0.75942025222E+01 -0.37570915105E+02  0.46142317960E+02  0.10000001817E+02 0.  0.
         12    1    3    3    0    0 -0.23661527775E+02  0.75942025222E+01  0.37570915105E+02  0.45045682040E+02  0.00000000000E+00 0. -1.
         11    1    4    4    0    0  0.26636376959E+01 -0.48507599978E+01 -0.88662339691E+01  0.10451552200E+02  0.51100000000E-03 0. -1.
        -11    1    4    4    0    0  0.15415501098E+02 -0.19531424221E+01 -0.20156058202E+02  0.25450326559E+02  0.51100000000E-03 0.  1.
         12    1    4    4    0    0  0.55823889811E+01 -0.79030010226E+00 -0.85486229333E+01  0.10240439202E+02  0.00000000000E+00 0. -1.
</event>
<event>
 8    1  0.2962813E-009  0.9118800E+02  0.7816164E-02  0.1184000E+00
        -11   -1    0    0    0    0  0.00000000000E+00  0.00000000000E+00  0.45593999997E+02  0.45594000000E+02  0.51100000000E-03 0. -1.
         11   -1    0    0    0    0 -0.00000000000E+00 -0.00000000000E+00 -0.45593999997E+02  0.45594000000E+02  0.51100000000E-03 0.  1.
         23    2    1    2    0    0 -0.35527136788E-14  0.00000000000E+00 -0.17763568394E-14  0.91188000000E+02  0.91188000000E+02 0.  0.
    9900012    2    3    3    0    0 -0.19484541872E+02 -0.39831284382E+02 -0.79331626278E+01  0.46142315892E+02  0.99999829522E+01 0.  0.
         12    1    3    3    0    0  0.19484541872E+02  0.39831284382E+02  0.79331626278E+01  0.45045684108E+02  0.00000000000E+00 0. -1.
         11    1    4    4    0    0 -0.16219920615E+02 -0.28965138034E+02 -0.81089706680E+01  0.34173388062E+02  0.51100000000E-03 0. -1.
        -11    1    4    4    0    0 -0.22092369744E+01 -0.45283609784E+01 -0.16287847469E+01  0.52952545900E+01  0.51100000000E-03 0.  1.
         12    1    4    4    0    0 -0.10553842826E+01 -0.63377853701E+01  0.18045927871E+01  0.66736732396E+01  0.00000000000E+00 0. -1.
</event>
<event>
 8    1  0.2962813E-009  0.9118800E+02  0.7816164E-02  0.1184000E+00
        -11   -1    0    0    0    0  0.00000000000E+00  0.00000000000E+00  0.45593999997E+02  0.45594000000E+02  0.51100000000E-03 0. -1.
         11   -1    0    0    0    0 -0.00000000000E+00 -0.00000000000E+00 -0.45593999997E+02  0.45594000000E+02  0.51100000000E-03 0.  1.
         23    2    1    2    0    0 -0.35527136788E-14 -0.88817841970E-15  0.00000000000E+00  0.91188000000E+02  0.91188000000E+02 0.  0.
    9900012    2    3    3    0    0  0.18448826183E+02  0.42824862440E+01  0.40870705591E+02  0.46142318171E+02  0.10000003733E+02 0.  0.
        -12    1    3    3    0    0 -0.18448826183E+02 -0.42824862440E+01 -0.40870705591E+02  0.45045681829E+02  0.00000000000E+00 0.  1.
         11    1    4    4    0    0  0.11161045799E+02  0.39346380204E+01  0.20103971096E+02  0.23328522752E+02  0.51100000000E-03 0. -1.
        -11    1    4    4    0    0 -0.35528809788E+00  0.44733470552E+00 -0.10998423808E+00  0.58175146325E+00  0.51100000000E-03 0.  1.
         12    1    4    4    0    0  0.76430684812E+01 -0.99486481900E-01  0.20876718733E+02  0.22232043955E+02  0.00000000000E+00 0. -1.
</event>
<event>
 8    1  0.2962813E-009  0.9118800E+02  0.7816164E-02  0.1184000E+00
        -11   -1    0    0    0    0  0.00000000000E+00  0.00000000000E+00  0.45593999997E+02  0.45594000000E+02  0.51100000000E-03 0. -1.
         11   -1    0    0    0    0 -0.00000000000E+00 -0.00000000000E+00 -0.45593999997E+02  0.45594000000E+02  0.51100000000E-03 0.  1.
         23    2    1    2    0    0  0.44408920985E-15  0.00000000000E+00  0.00000000000E+00  0.91188000000E+02  0.91188000000E+02 0.  0.
    9900012    2    3    3    0    0 -0.39891318181E+01 -0.36710232810E+02 -0.25798432623E+02  0.46142317727E+02  0.99999996913E+01 0.  0.
         12    1    3    3    0    0  0.39891318181E+01  0.36710232810E+02  0.25798432623E+02  0.45045682273E+02  0.00000000000E+00 0. -1.
         11    1    4    4    0    0 -0.36792959909E+01 -0.85886351993E+01 -0.35435557836E+01  0.99929305726E+01  0.51100000000E-03 0. -1.
        -11    1    4    4    0    0 -0.14202619822E+01 -0.21073753945E+02 -0.18545620273E+02  0.28108010975E+02  0.51100000000E-03 0.  1.
         12    1    4    4    0    0  0.11104261550E+01 -0.70478436653E+01 -0.37092565668E+01  0.80413761791E+01  0.00000000000E+00 0. -1.
</event>
<event>
 8    1  0.2962813E-009  0.9118800E+02  0.7816164E-02  0.1184000E+00
        -11   -1    0    0    0    0  0.00000000000E+00  0.00000000000E+00  0.45593999997E+02  0.45594000000E+02  0.51100000000E-03 0. -1.
         11   -1    0    0    0    0 -0.00000000000E+00 -0.00000000000E+00 -0.45593999997E+02  0.45594000000E+02  0.51100000000E-03 0.  1.
         23    2    1    2    0    0  0.17763568394E-14 -0.71054273576E-14  0.35527136788E-14  0.91188000000E+02  0.91188000000E+02 0.  0.
    9900012    2    3    3    0    0  0.12749333820E+02 -0.34597701950E+02  0.25875993126E+02  0.46142317484E+02  0.99999974713E+01 0.  0.
        -12    1    3    3    0    0 -0.12749333820E+02  0.34597701950E+02 -0.25875993126E+02  0.45045682516E+02  0.00000000000E+00 0.  1.
         11    1    4    4    0    0  0.10269802635E+02 -0.14406825142E+02  0.10888975806E+02  0.20774870666E+02  0.51100000000E-03 0. -1.
        -11    1    4    4    0    0  0.69114016772E+00 -0.12414633213E+02  0.10017743915E+02  0.15967341230E+02  0.51100000000E-03 0.  1.
         12    1    4    4    0    0  0.17883910170E+01 -0.77762435953E+01  0.49692734053E+01  0.94001055877E+01  0.00000000000E+00 0. -1.
</event>
<event>
 8    1  0.2962813E-009  0.9118800E+02  0.7816164E-02  0.1184000E+00
        -11   -1    0    0    0    0  0.00000000000E+00  0.00000000000E+00  0.45593999997E+02  0.45594000000E+02  0.51100000000E-03 0. -1.
         11   -1    0    0    0    0 -0.00000000000E+00 -0.00000000000E+00 -0.45593999997E+02  0.45594000000E+02  0.51100000000E-03 0.  1.
         23    2    1    2    0    0  0.00000000000E+00  0.88817841970E-15  0.71054273576E-14  0.91188000000E+02  0.91188000000E+02 0.  0.
    9900012    2    3    3    0    0 -0.10427682107E+02  0.70672806101E+01  0.43248474465E+02  0.46142317045E+02  0.99999934719E+01 0.  0.
        -12    1    3    3    0    0  0.10427682107E+02 -0.70672806101E+01 -0.43248474465E+02  0.45045682955E+02  0.00000000000E+00 0.  1.
         11    1    4    4    0    0 -0.32946129552E+01 -0.81845526671E-02  0.16605952686E+02  0.16929625110E+02  0.51100000000E-03 0. -1.
        -11    1    4    4    0    0 -0.42810285232E+01  0.63841712615E+01  0.11799632333E+02  0.14082477459E+02  0.51100000000E-03 0.  1.
        -12    1    4    4    0    0 -0.28520406283E+01  0.69129390135E+00  0.14842889446E+02  0.15130214476E+02  0.00000000000E+00 0.  1.
</event>
<event>
 8    1  0.2962813E-009  0.9118800E+02  0.7816164E-02  0.1184000E+00
        -11   -1    0    0    0    0  0.00000000000E+00  0.00000000000E+00  0.45593999997E+02  0.45594000000E+02  0.51100000000E-03 0. -1.
         11   -1    0    0    0    0 -0.00000000000E+00 -0.00000000000E+00 -0.45593999997E+02  0.45594000000E+02  0.51100000000E-03 0.  1.
         23    2    1    2    0    0  0.35527136788E-14  0.00000000000E+00  0.35527136788E-14  0.91188000000E+02  0.91188000000E+02 0.  0.
    9900012    2    3    3    0    0 -0.25067305542E+02  0.23116970079E+02 -0.29433814911E+02  0.46142316821E+02  0.99999914289E+01 0.  0.
         12    1    3    3    0    0  0.25067305542E+02 -0.23116970079E+02  0.29433814911E+02  0.45045683179E+02  0.00000000000E+00 0. -1.
         11    1    4    4    0    0 -0.12313015799E+01 -0.38825046913E+00 -0.44384138221E+00  0.13652243189E+01  0.51100000000E-03 0. -1.
        -11    1    4    4    0    0 -0.19660517129E+02  0.15753131303E+02 -0.19733843426E+02  0.32001900822E+02  0.51100000000E-03 0.  1.
         12    1    4    4    0    0 -0.41754868338E+01  0.77520892457E+01 -0.92561301033E+01  0.12775191680E+02  0.00000000000E+00 0. -1.
</event>
<event>
 8    1  0.2962813E-009  0.9118800E+02  0.7816164E-02  0.1184000E+00
        -11   -1    0    0    0    0  0.00000000000E+00  0.00000000000E+00  0.45593999997E+02  0.45594000000E+02  0.51100000000E-03 0.  1.
         11   -1    0    0    0    0 -0.00000000000E+00 -0.00000000000E+00 -0.45593999997E+02  0.45594000000E+02  0.51100000000E-03 0. -1.
         23    2    1    2    0    0  0.00000000000E+00  0.00000000000E+00  0.00000000000E+00  0.91188000000E+02  0.91188000000E+02 0.  0.
    9900012    2    3    3    0    0 -0.51307612085E+01 -0.44228376494E+02 -0.68293096433E+01  0.46142317986E+02  0.10000002054E+02 0.  0.
         12    1    3    3    0    0  0.51307612085E+01  0.44228376494E+02  0.68293096433E+01  0.45045682014E+02  0.00000000000E+00 0. -1.
         11    1    4    4    0    0 -0.14369242462E+01 -0.30422012610E+01  0.12174224962E+01  0.35779683617E+01  0.51100000000E-03 0. -1.
        -11    1    4    4    0    0  0.47928595089E+00 -0.10403061021E+02  0.22755927741E+00  0.10416581835E+02  0.51100000000E-03 0.  1.
        -12    1    4    4    0    0 -0.41731229131E+01 -0.30783114212E+02 -0.82742914168E+01  0.32147767790E+02  0.00000000000E+00 0.  1.
</event>
<event>
 8    1  0.2962813E-009  0.9118800E+02  0.7816164E-02  0.1184000E+00
        -11   -1    0    0    0    0  0.00000000000E+00  0.00000000000E+00  0.45593999997E+02  0.45594000000E+02  0.51100000000E-03 0. -1.
         11   -1    0    0    0    0 -0.00000000000E+00 -0.00000000000E+00 -0.45593999997E+02  0.45594000000E+02  0.51100000000E-03 0.  1.
         23    2    1    2    0    0 -0.17763568394E-14 -0.17763568394E-14  0.00000000000E+00  0.91188000000E+02  0.91188000000E+02 0.  0.
    9900012    2    3    3    0    0  0.14834561350E+02  0.14991927362E+02  0.39803158550E+02  0.46142317332E+02  0.99999960882E+01 0.  0.
        -12    1    3    3    0    0 -0.14834561350E+02 -0.14991927362E+02 -0.39803158550E+02  0.45045682668E+02  0.00000000000E+00 0.  1.
         11    1    4    4    0    0  0.11335610398E+01  0.23002356727E+01  0.10686933634E+02  0.10990295516E+02  0.51100000000E-03 0. -1.
        -11    1    4    4    0    0  0.11913015855E+02  0.10022355648E+02  0.19144409554E+02  0.24675412397E+02  0.51100000000E-03 0.  1.
        -12    1    4    4    0    0  0.17879844549E+01  0.26693360408E+01  0.99718153617E+01  0.10476609419E+02  0.00000000000E+00 0.  1.
</event>
<event>
 8    1  0.2962813E-009  0.9118800E+02  0.7816164E-02  0.1184000E+00
        -11   -1    0    0    0    0  0.00000000000E+00  0.00000000000E+00  0.45593999997E+02  0.45594000000E+02  0.51100000000E-03 0. -1.
         11   -1    0    0    0    0 -0.00000000000E+00 -0.00000000000E+00 -0.45593999997E+02  0.45594000000E+02  0.51100000000E-03 0.  1.
         23    2    1    2    0    0  0.00000000000E+00  0.35527136788E-14  0.35527136788E-14  0.91188000000E+02  0.91188000000E+02 0.  0.
    9900012    2    3    3    0    0  0.18912807871E+02 -0.27921770440E+02 -0.29862918577E+02  0.46142317942E+02  0.10000001653E+02 0.  0.
         12    1    3    3    0    0 -0.18912807871E+02  0.27921770440E+02  0.29862918577E+02  0.45045682058E+02  0.00000000000E+00 0. -1.
         11    1    4    4    0    0  0.81990436713E+01 -0.19046461811E+02 -0.16293890998E+02  0.26372009949E+02  0.51100000000E-03 0. -1.
        -11    1    4    4    0    0  0.55507878050E+01 -0.23104301147E+01 -0.52458165566E+01  0.79792182685E+01  0.51100000000E-03 0.  1.
        -12    1    4    4    0    0  0.51629763952E+01 -0.65648785141E+01 -0.83232110232E+01  0.11791089725E+02  0.00000000000E+00 0.  1.
</event>
<event>
 8    1  0.2962813E-009  0.9118800E+02  0.7816164E-02  0.1184000E+00
        -11   -1    0    0    0    0  0.00000000000E+00  0.00000000000E+00  0.45593999997E+02  0.45594000000E+02  0.51100000000E-03 0. -1.
         11   -1    0    0    0    0 -0.00000000000E+00 -0.00000000000E+00 -0.45593999997E+02  0.45594000000E+02  0.51100000000E-03 0.  1.
         23    2    1    2    0    0  0.35527136788E-14 -0.35527136788E-14  0.35527136788E-14  0.91188000000E+02  0.91188000000E+02 0.  0.
    9900012    2    3    3    0    0 -0.23648074099E+02  0.27906598505E+02 -0.26288853031E+02  0.46142318272E+02  0.10000004655E+02 0.  0.
         12    1    3    3    0    0  0.23648074099E+02 -0.27906598505E+02  0.26288853031E+02  0.45045681728E+02  0.00000000000E+00 0. -1.
         11    1    4    4    0    0 -0.18217056379E+02  0.19157171368E+02 -0.21448559800E+02  0.34042606770E+02  0.51100000000E-03 0.  1.
        -11    1    4    4    0    0 -0.43959393281E+01  0.88870915189E+01 -0.37783651541E+01  0.10610406295E+02  0.51100000000E-03 0. -1.
         12    1    4    4    0    0 -0.10350783919E+01 -0.13766438176E+00 -0.10619280767E+01  0.14893052069E+01  0.00000000000E+00 0. -1.
</event>
<event>
 8    1  0.2962813E-009  0.9118800E+02  0.7816164E-02  0.1184000E+00
        -11   -1    0    0    0    0  0.00000000000E+00  0.00000000000E+00  0.45593999997E+02  0.45594000000E+02  0.51100000000E-03 0. -1.
         11   -1    0    0    0    0 -0.00000000000E+00 -0.00000000000E+00 -0.45593999997E+02  0.45594000000E+02  0.51100000000E-03 0.  1.
         23    2    1    2    0    0  0.00000000000E+00  0.00000000000E+00  0.00000000000E+00  0.91188000000E+02  0.91188000000E+02 0.  0.
    9900012    2    3    3    0    0  0.11486513203E+02  0.16727736048E+02 -0.40216369119E+02  0.46142317810E+02  0.10000000447E+02 0.  0.
         12    1    3    3    0    0 -0.11486513203E+02 -0.16727736048E+02  0.40216369119E+02  0.45045682190E+02  0.00000000000E+00 0. -1.
         11    1    4    4    0    0 -0.22701442029E+00 -0.87310398125E+00 -0.14903509406E+01  0.17421229280E+01  0.51100000000E-03 0. -1.
        -11    1    4    4    0    0  0.81290297436E+01  0.83903692306E+01 -0.18341117773E+02  0.21745712723E+02  0.51100000000E-03 0.  1.
        -12    1    4    4    0    0  0.35844978794E+01  0.92104707985E+01 -0.20384900405E+02  0.22654482159E+02  0.00000000000E+00 0.  1.
</event>
<event>
 8    1  0.2962813E-009  0.9118800E+02  0.7816164E-02  0.1184000E+00
        -11   -1    0    0    0    0  0.00000000000E+00  0.00000000000E+00  0.45593999997E+02  0.45594000000E+02  0.51100000000E-03 0. -1.
         11   -1    0    0    0    0 -0.00000000000E+00 -0.00000000000E+00 -0.45593999997E+02  0.45594000000E+02  0.51100000000E-03 0.  1.
         23    2    1    2    0    0 -0.88817841970E-15 -0.44408920985E-15  0.00000000000E+00  0.91188000000E+02  0.91188000000E+02 0.  0.
    9900012    2    3    3    0    0 -0.62319351676E+01 -0.20046564553E+01  0.44567451997E+02  0.46142318287E+02  0.10000004798E+02 0.  0.
        -12    1    3    3    0    0  0.62319351676E+01  0.20046564553E+01 -0.44567451997E+02  0.45045681713E+02  0.00000000000E+00 0.  1.
         11    1    4    4    0    0 -0.97935013445E+00  0.28167442258E+01  0.23629777508E+02  0.23817211425E+02  0.51100000000E-03 0. -1.
        -11    1    4    4    0    0 -0.33199288675E+01 -0.21919613435E+01  0.74210080454E+01  0.84200939952E+01  0.51100000000E-03 0.  1.
         12    1    4    4    0    0 -0.19326561657E+01 -0.26294393376E+01  0.13516666444E+02  0.13905012867E+02  0.00000000000E+00 0. -1.
</event>
<event>
 8    1  0.2962813E-009  0.9118800E+02  0.7816164E-02  0.1184000E+00
        -11   -1    0    0    0    0  0.00000000000E+00  0.00000000000E+00  0.45593999997E+02  0.45594000000E+02  0.51100000000E-03 0.  1.
         11   -1    0    0    0    0 -0.00000000000E+00 -0.00000000000E+00 -0.45593999997E+02  0.45594000000E+02  0.51100000000E-03 0. -1.
         23    2    1    2    0    0  0.00000000000E+00  0.00000000000E+00  0.17763568394E-14  0.91188000000E+02  0.91188000000E+02 0.  0.
    9900012    2    3    3    0    0  0.11878342970E+02 -0.41361184197E+02 -0.13314312887E+02  0.46142317437E+02  0.99999970470E+01 0.  0.
         12    1    3    3    0    0 -0.11878342970E+02  0.41361184197E+02  0.13314312887E+02  0.45045682563E+02  0.00000000000E+00 0. -1.
         11    1    4    4    0    0  0.50595316399E+00  0.18504225184E+00 -0.50201853861E+00  0.73637769748E+00  0.51100000000E-03 0. -1.
        -11    1    4    4    0    0  0.91069531741E+01 -0.39163933630E+02 -0.11172465646E+02  0.41732173228E+02  0.51100000000E-03 0.  1.
        -12    1    4    4    0    0  0.22654366320E+01 -0.23822928189E+01 -0.16398287020E+01  0.36737665114E+01  0.00000000000E+00 0.  1.
</event>
<event>
 8    1  0.2962813E-009  0.9118800E+02  0.7816164E-02  0.1184000E+00
        -11   -1    0    0    0    0  0.00000000000E+00  0.00000000000E+00  0.45593999997E+02  0.45594000000E+02  0.51100000000E-03 0. -1.
         11   -1    0    0    0    0 -0.00000000000E+00 -0.00000000000E+00 -0.45593999997E+02  0.45594000000E+02  0.51100000000E-03 0.  1.
         23    2    1    2    0    0  0.00000000000E+00  0.00000000000E+00 -0.88817841970E-15  0.91188000000E+02  0.91188000000E+02 0.  0.
    9900012    2    3    3    0    0  0.13426552712E+02 -0.42657478498E+02  0.54019123324E+01  0.46142318227E+02  0.10000004252E+02 0.  0.
        -12    1    3    3    0    0 -0.13426552712E+02  0.42657478498E+02 -0.54019123324E+01  0.45045681773E+02  0.00000000000E+00 0.  1.
         11    1    4    4    0    0  0.10102039188E+02 -0.17406024394E+02  0.25646373217E+01  0.20287884212E+02  0.51100000000E-03 0. -1.
        -11    1    4    4    0    0  0.36536441725E+01 -0.21570988282E+02  0.15179593721E+01  0.21930819686E+02  0.51100000000E-03 0.  1.
        -12    1    4    4    0    0 -0.32913064770E+00 -0.36804658219E+01  0.13193156385E+01  0.39236143291E+01  0.00000000000E+00 0.  1.
</event>
<event>
 8    1  0.2962813E-009  0.9118800E+02  0.7816164E-02  0.1184000E+00
        -11   -1    0    0    0    0  0.00000000000E+00  0.00000000000E+00  0.45593999997E+02  0.45594000000E+02  0.51100000000E-03 0.  1.
         11   -1    0    0    0    0 -0.00000000000E+00 -0.00000000000E+00 -0.45593999997E+02  0.45594000000E+02  0.51100000000E-03 0. -1.
         23    2    1    2    0    0  0.00000000000E+00  0.00000000000E+00  0.88817841970E-15  0.91188000000E+02  0.91188000000E+02 0.  0.
    9900012    2    3    3    0    0  0.37661413430E+02 -0.23939160319E+02 -0.61358027899E+01  0.46142317252E+02  0.99999953560E+01 0.  0.
        -12    1    3    3    0    0 -0.37661413430E+02  0.23939160319E+02  0.61358027899E+01  0.45045682748E+02  0.00000000000E+00 0.  1.
         11    1    4    4    0    0  0.37577662027E+01 -0.47050671920E+01  0.19556287095E+01  0.63311095415E+01  0.51100000000E-03 0. -1.
        -11    1    4    4    0    0  0.26603083732E+02 -0.15187245157E+02 -0.63111502776E+01  0.31276302492E+02  0.51100000000E-03 0.  1.
         12    1    4    4    0    0  0.73005634961E+01 -0.40468479698E+01 -0.17802812218E+01  0.85349052180E+01  0.00000000000E+00 0. -1.
</event>
<event>
 8    1  0.2962813E-009  0.9118800E+02  0.7816164E-02  0.1184000E+00
        -11   -1    0    0    0    0  0.00000000000E+00  0.00000000000E+00  0.45593999997E+02  0.45594000000E+02  0.51100000000E-03 0. -1.
         11   -1    0    0    0    0 -0.00000000000E+00 -0.00000000000E+00 -0.45593999997E+02  0.45594000000E+02  0.51100000000E-03 0.  1.
         23    2    1    2    0    0  0.17763568394E-14  0.88817841970E-15  0.00000000000E+00  0.91188000000E+02  0.91188000000E+02 0.  0.
    9900012    2    3    3    0    0  0.14570850892E+02  0.55398406810E+01  0.42262441514E+02  0.46142317708E+02  0.99999995136E+01 0.  0.
        -12    1    3    3    0    0 -0.14570850892E+02 -0.55398406810E+01 -0.42262441514E+02  0.45045682292E+02  0.00000000000E+00 0.  1.
         11    1    4    4    0    0  0.25871914934E+01  0.32090137823E+01  0.10837164561E+02  0.11594630881E+02  0.51100000000E-03 0. -1.
        -11    1    4    4    0    0  0.66604729948E+01 -0.30976240361E+00  0.81710839188E+01  0.10546301054E+02  0.51100000000E-03 0.  1.
        -12    1    4    4    0    0  0.53231864036E+01  0.26405893024E+01  0.23254193034E+02  0.24001385773E+02  0.00000000000E+00 0.  1.
</event>
<event>
 8    1  0.2962813E-009  0.9118800E+02  0.7816164E-02  0.1184000E+00
        -11   -1    0    0    0    0  0.00000000000E+00  0.00000000000E+00  0.45593999997E+02  0.45594000000E+02  0.51100000000E-03 0. -1.
         11   -1    0    0    0    0 -0.00000000000E+00 -0.00000000000E+00 -0.45593999997E+02  0.45594000000E+02  0.51100000000E-03 0.  1.
         23    2    1    2    0    0  0.00000000000E+00  0.00000000000E+00  0.00000000000E+00  0.91188000000E+02  0.91188000000E+02 0.  0.
    9900012    2    3    3    0    0 -0.11828193224E+02  0.14275273772E+02  0.41053914362E+02  0.46142317847E+02  0.10000000780E+02 0.  0.
        -12    1    3    3    0    0  0.11828193224E+02 -0.14275273772E+02 -0.41053914362E+02  0.45045682153E+02  0.00000000000E+00 0.  1.
         11    1    4    4    0    0 -0.31178158763E+01  0.17061098106E+01  0.11750322225E+02  0.12276060410E+02  0.51100000000E-03 0. -1.
        -11    1    4    4    0    0 -0.83638233507E+01  0.57825736640E+01  0.16897965236E+02  0.19721382523E+02  0.51100000000E-03 0.  1.
        -12    1    4    4    0    0 -0.34655399694E+00  0.67865902977E+01  0.12405626900E+02  0.14144874914E+02  0.00000000000E+00 0.  1.
</event>
<event>
 8    1  0.2962813E-009  0.9118800E+02  0.7816164E-02  0.1184000E+00
        -11   -1    0    0    0    0  0.00000000000E+00  0.00000000000E+00  0.45593999997E+02  0.45594000000E+02  0.51100000000E-03 0. -1.
         11   -1    0    0    0    0 -0.00000000000E+00 -0.00000000000E+00 -0.45593999997E+02  0.45594000000E+02  0.51100000000E-03 0.  1.
         23    2    1    2    0    0  0.00000000000E+00  0.00000000000E+00  0.71054273576E-14  0.91188000000E+02  0.91188000000E+02 0.  0.
    9900012    2    3    3    0    0  0.11385229062E+02 -0.16587024815E+02 -0.40303357757E+02  0.46142317859E+02  0.10000000895E+02 0.  0.
         12    1    3    3    0    0 -0.11385229062E+02  0.16587024815E+02  0.40303357757E+02  0.45045682141E+02  0.00000000000E+00 0. -1.
         11    1    4    4    0    0  0.84336876353E+01 -0.88008180701E+01 -0.18221754693E+02  0.21922906518E+02  0.51100000000E-03 0. -1.
        -11    1    4    4    0    0  0.41699099225E+01 -0.33527158158E+01 -0.12003833982E+02  0.13142331705E+02  0.51100000000E-03 0.  1.
        -12    1    4    4    0    0 -0.12183684956E+01 -0.44334909293E+01 -0.10077769082E+02  0.11077079637E+02  0.00000000000E+00 0.  1.
</event>
<event>
 8    1  0.2962813E-009  0.9118800E+02  0.7816164E-02  0.1184000E+00
        -11   -1    0    0    0    0  0.00000000000E+00  0.00000000000E+00  0.45593999997E+02  0.45594000000E+02  0.51100000000E-03 0. -1.
         11   -1    0    0    0    0 -0.00000000000E+00 -0.00000000000E+00 -0.45593999997E+02  0.45594000000E+02  0.51100000000E-03 0.  1.
         23    2    1    2    0    0  0.00000000000E+00  0.35527136788E-14  0.71054273576E-14  0.91188000000E+02  0.91188000000E+02 0.  0.
    9900012    2    3    3    0    0 -0.23362773767E+01  0.24660310002E+02  0.37623454081E+02  0.46142318982E+02  0.10000011133E+02 0.  0.
        -12    1    3    3    0    0  0.23362773767E+01 -0.24660310002E+02 -0.37623454081E+02  0.45045681018E+02  0.00000000000E+00 0.  1.
         11    1    4    4    0    0 -0.17394696364E+01  0.81578615534E+01  0.96715607014E+01  0.12771669679E+02  0.51100000000E-03 0. -1.
        -11    1    4    4    0    0  0.27033105430E+01  0.20192455953E+01  0.52418451114E+01  0.62339538896E+01  0.51100000000E-03 0.  1.
        -12    1    4    4    0    0 -0.33001182833E+01  0.14483202853E+02  0.22710048269E+02  0.27136695413E+02  0.00000000000E+00 0.  1.
</event>
<event>
 8    1  0.2962813E-009  0.9118800E+02  0.7816164E-02  0.1184000E+00
        -11   -1    0    0    0    0  0.00000000000E+00  0.00000000000E+00  0.45593999997E+02  0.45594000000E+02  0.51100000000E-03 0.  1.
         11   -1    0    0    0    0 -0.00000000000E+00 -0.00000000000E+00 -0.45593999997E+02  0.45594000000E+02  0.51100000000E-03 0. -1.
         23    2    1    2    0    0  0.00000000000E+00  0.00000000000E+00  0.00000000000E+00  0.91188000000E+02  0.91188000000E+02 0.  0.
    9900012    2    3    3    0    0 -0.10956707488E+02 -0.41625070387E+02 -0.13282241991E+02  0.46142313458E+02  0.99999607625E+01 0.  0.
         12    1    3    3    0    0  0.10956707488E+02  0.41625070387E+02  0.13282241991E+02  0.45045686542E+02  0.00000000000E+00 0. -1.
         11    1    4    4    0    0  0.56545400927E+00 -0.16081936651E+01  0.10642405373E+01  0.20096351120E+01  0.51100000000E-03 0. -1.
        -11    1    4    4    0    0 -0.16494413691E+01 -0.90214738124E+01 -0.24136570833E+01  0.94833215360E+01  0.51100000000E-03 0.  1.
         12    1    4    4    0    0 -0.98727201282E+01 -0.30995402910E+02 -0.11932825445E+02  0.34649356810E+02  0.00000000000E+00 0. -1.
</event>
<event>
 8    1  0.2962813E-009  0.9118800E+02  0.7816164E-02  0.1184000E+00
        -11   -1    0    0    0    0  0.00000000000E+00  0.00000000000E+00  0.45593999997E+02  0.45594000000E+02  0.51100000000E-03 0.  1.
         11   -1    0    0    0    0 -0.00000000000E+00 -0.00000000000E+00 -0.45593999997E+02  0.45594000000E+02  0.51100000000E-03 0. -1.
         23    2    1    2    0    0  0.71054273576E-14 -0.71054273576E-14 -0.88817841970E-15  0.91188000000E+02  0.91188000000E+02 0.  0.
    9900012    2    3    3    0    0 -0.33662226143E+02  0.29385337835E+02  0.56982451324E+01  0.46142317119E+02  0.99999941464E+01 0.  0.
        -12    1    3    3    0    0  0.33662226143E+02 -0.29385337835E+02 -0.56982451324E+01  0.45045682881E+02  0.00000000000E+00 0.  1.
         11    1    4    4    0    0 -0.12014519663E+02  0.58373979025E+01  0.42450913905E+01  0.14015873080E+02  0.51100000000E-03 0.  1.
        -11    1    4    4    0    0 -0.18850006347E+02  0.19212404293E+02  0.81998322586E+00  0.26927896144E+02  0.51100000000E-03 0. -1.
        -12    1    4    4    0    0 -0.27977001331E+01  0.43355356399E+01  0.63317051597E+00  0.51985478955E+01  0.00000000000E+00 0.  1.
</event>
<event>
 8    1  0.2962813E-009  0.9118800E+02  0.7816164E-02  0.1184000E+00
        -11   -1    0    0    0    0  0.00000000000E+00  0.00000000000E+00  0.45593999997E+02  0.45594000000E+02  0.51100000000E-03 0. -1.
         11   -1    0    0    0    0 -0.00000000000E+00 -0.00000000000E+00 -0.45593999997E+02  0.45594000000E+02  0.51100000000E-03 0.  1.
         23    2    1    2    0    0  0.00000000000E+00  0.00000000000E+00  0.00000000000E+00  0.91188000000E+02  0.91188000000E+02 0.  0.
    9900012    2    3    3    0    0 -0.14759999690E+02 -0.72530501200E+01  0.41936255017E+02  0.46142314172E+02  0.99999672712E+01 0.  0.
        -12    1    3    3    0    0  0.14759999690E+02  0.72530501200E+01 -0.41936255017E+02  0.45045685828E+02  0.00000000000E+00 0.  1.
         11    1    4    4    0    0 -0.26441692864E+01 -0.26427182965E+01  0.12628624646E+02  0.13170336060E+02  0.51100000000E-03 0. -1.
        -11    1    4    4    0    0 -0.73492413041E+01 -0.55448501560E+01  0.24345995232E+02  0.26028526564E+02  0.51100000000E-03 0.  1.
        -12    1    4    4    0    0 -0.47665890992E+01  0.93451833246E+00  0.49616351390E+01  0.69434515485E+01  0.00000000000E+00 0.  1.
</event>
<event>
 8    1  0.2962813E-009  0.9118800E+02  0.7816164E-02  0.1184000E+00
        -11   -1    0    0    0    0  0.00000000000E+00  0.00000000000E+00  0.45593999997E+02  0.45594000000E+02  0.51100000000E-03 0. -1.
         11   -1    0    0    0    0 -0.00000000000E+00 -0.00000000000E+00 -0.45593999997E+02  0.45594000000E+02  0.51100000000E-03 0.  1.
         23    2    1    2    0    0  0.00000000000E+00  0.00000000000E+00  0.35527136788E-14  0.91188000000E+02  0.91188000000E+02 0.  0.
    9900012    2    3    3    0    0 -0.12171831802E+02 -0.36049502379E+02 -0.24112099539E+02  0.46142318127E+02  0.10000003339E+02 0.  0.
         12    1    3    3    0    0  0.12171831802E+02  0.36049502379E+02  0.24112099539E+02  0.45045681873E+02  0.00000000000E+00 0. -1.
         11    1    4    4    0    0 -0.17073497851E+00 -0.65561021920E+01 -0.36932763896E+01  0.75267467831E+01  0.51100000000E-03 0. -1.
        -11    1    4    4    0    0 -0.41388720155E+01 -0.14047550852E+02 -0.13616267369E+02  0.19996666818E+02  0.51100000000E-03 0.  1.
         12    1    4    4    0    0 -0.78622248075E+01 -0.15445849335E+02 -0.68025557801E+01  0.18618904526E+02  0.00000000000E+00 0. -1.
</event>
<event>
 8    1  0.2962813E-009  0.9118800E+02  0.7816164E-02  0.1184000E+00
        -11   -1    0    0    0    0  0.00000000000E+00  0.00000000000E+00  0.45593999997E+02  0.45594000000E+02  0.51100000000E-03 0. -1.
         11   -1    0    0    0    0 -0.00000000000E+00 -0.00000000000E+00 -0.45593999997E+02  0.45594000000E+02  0.51100000000E-03 0.  1.
         23    2    1    2    0    0  0.00000000000E+00  0.00000000000E+00  0.00000000000E+00  0.91188000000E+02  0.91188000000E+02 0.  0.
    9900012    2    3    3    0    0 -0.25178498890E+02 -0.26605910431E+02 -0.26216068583E+02  0.46142317320E+02  0.99999959743E+01 0.  0.
         12    1    3    3    0    0  0.25178498890E+02  0.26605910431E+02  0.26216068583E+02  0.45045682680E+02  0.00000000000E+00 0. -1.
         11    1    4    4    0    0 -0.65615985403E+01 -0.28399127060E+01 -0.52034835770E+01  0.88428457625E+01  0.51100000000E-03 0. -1.
        -11    1    4    4    0    0 -0.26404805288E+01 -0.25964601465E+01 -0.53233777971E+01  0.64847586036E+01  0.51100000000E-03 0.  1.
        -12    1    4    4    0    0 -0.15976419821E+02 -0.21169537578E+02 -0.15689207209E+02  0.30814712954E+02  0.00000000000E+00 0.  1.
</event>
<event>
 8    1  0.2962813E-009  0.9118800E+02  0.7816164E-02  0.1184000E+00
        -11   -1    0    0    0    0  0.00000000000E+00  0.00000000000E+00  0.45593999997E+02  0.45594000000E+02  0.51100000000E-03 0. -1.
         11   -1    0    0    0    0 -0.00000000000E+00 -0.00000000000E+00 -0.45593999997E+02  0.45594000000E+02  0.51100000000E-03 0.  1.
         23    2    1    2    0    0  0.00000000000E+00  0.00000000000E+00  0.00000000000E+00  0.91188000000E+02  0.91188000000E+02 0.  0.
    9900012    2    3    3    0    0  0.41856781003E+01 -0.16204937339E+01  0.44821508276E+02  0.46142317574E+02  0.99999982943E+01 0.  0.
        -12    1    3    3    0    0 -0.41856781003E+01  0.16204937339E+01 -0.44821508276E+02  0.45045682426E+02  0.00000000000E+00 0.  1.
         11    1    4    4    0    0  0.25646509357E+01 -0.21717942697E+01  0.37544044386E+02  0.37694155965E+02  0.51100000000E-03 0. -1.
        -11    1    4    4    0    0 -0.31644991537E-01  0.18583690465E+01  0.18341202104E+01  0.26112323003E+01  0.51100000000E-03 0.  1.
         12    1    4    4    0    0  0.16526721561E+01 -0.13070685107E+01  0.54433436793E+01  0.58369293090E+01  0.00000000000E+00 0. -1.
</event>
<event>
 8    1  0.2962813E-009  0.9118800E+02  0.7816164E-02  0.1184000E+00
        -11   -1    0    0    0    0  0.00000000000E+00  0.00000000000E+00  0.45593999997E+02  0.45594000000E+02  0.51100000000E-03 0. -1.
         11   -1    0    0    0    0 -0.00000000000E+00 -0.00000000000E+00 -0.45593999997E+02  0.45594000000E+02  0.51100000000E-03 0.  1.
         23    2    1    2    0    0  0.17763568394E-14 -0.35527136788E-14 -0.71054273576E-14  0.91188000000E+02  0.91188000000E+02 0.  0.
    9900012    2    3    3    0    0 -0.13000698137E+02  0.27125948999E+02  0.33530270566E+02  0.46142308692E+02  0.99999173044E+01 0.  0.
        -12    1    3    3    0    0  0.13000698137E+02 -0.27125948999E+02 -0.33530270566E+02  0.45045691308E+02  0.00000000000E+00 0.  1.
         11    1    4    4    0    0  0.71925510273E-01  0.53632215847E+00  0.41758277817E+01  0.42107425307E+01  0.51100000000E-03 0.  1.
        -11    1    4    4    0    0 -0.10477490128E+02  0.16715370451E+02  0.18958831481E+02  0.27360897282E+02  0.51100000000E-03 0. -1.
         12    1    4    4    0    0 -0.25951335194E+01  0.98742563898E+01  0.10395611303E+02  0.14570668880E+02  0.00000000000E+00 0. -1.
</event>
<event>
 8    1  0.2962813E-009  0.9118800E+02  0.7816164E-02  0.1184000E+00
        -11   -1    0    0    0    0  0.00000000000E+00  0.00000000000E+00  0.45593999997E+02  0.45594000000E+02  0.51100000000E-03 0. -1.
         11   -1    0    0    0    0 -0.00000000000E+00 -0.00000000000E+00 -0.45593999997E+02  0.45594000000E+02  0.51100000000E-03 0.  1.
         23    2    1    2    0    0  0.00000000000E+00  0.00000000000E+00  0.00000000000E+00  0.91188000000E+02  0.91188000000E+02 0.  0.
    9900012    2    3    3    0    0 -0.29616334054E+02  0.10297333023E+02 -0.32341168398E+02  0.46142317815E+02  0.10000000493E+02 0.  0.
         12    1    3    3    0    0  0.29616334054E+02 -0.10297333023E+02  0.32341168398E+02  0.45045682185E+02  0.00000000000E+00 0. -1.
         11    1    4    4    0    0 -0.20105219545E+01 -0.61221181276E+00 -0.31247088202E+01  0.37657412690E+01  0.51100000000E-03 0. -1.
        -11    1    4    4    0    0 -0.46911754419E+01  0.23298343570E+01 -0.99088958787E+01  0.11208098543E+02  0.51100000000E-03 0.  1.
        -12    1    4    4    0    0 -0.22914636657E+02  0.85797104790E+01 -0.19307563699E+02  0.31168478003E+02  0.00000000000E+00 0.  1.
</event>
<event>
 8    1  0.2962813E-009  0.9118800E+02  0.7816164E-02  0.1184000E+00
        -11   -1    0    0    0    0  0.00000000000E+00  0.00000000000E+00  0.45593999997E+02  0.45594000000E+02  0.51100000000E-03 0. -1.
         11   -1    0    0    0    0 -0.00000000000E+00 -0.00000000000E+00 -0.45593999997E+02  0.45594000000E+02  0.51100000000E-03 0.  1.
         23    2    1    2    0    0  0.00000000000E+00  0.00000000000E+00  0.00000000000E+00  0.91188000000E+02  0.91188000000E+02 0.  0.
    9900012    2    3    3    0    0 -0.24191273712E+02 -0.57377352796E+01  0.37562936498E+02  0.46142317318E+02  0.99999959580E+01 0.  0.
        -12    1    3    3    0    0  0.24191273712E+02  0.57377352796E+01 -0.37562936498E+02  0.45045682682E+02  0.00000000000E+00 0.  1.
         11    1    4    4    0    0 -0.70302510032E+01  0.26951987333E+00  0.86578848382E+01  0.11155986745E+02  0.51100000000E-03 0. -1.
        -11    1    4    4    0    0 -0.91560817685E+01 -0.18282901052E+01  0.21011273369E+02  0.22992391935E+02  0.51100000000E-03 0.  1.
        -12    1    4    4    0    0 -0.80049409407E+01 -0.41789650477E+01  0.78937782910E+01  0.11993938638E+02  0.00000000000E+00 0.  1.
</event>
<event>
 8    1  0.2962813E-009  0.9118800E+02  0.7816164E-02  0.1184000E+00
        -11   -1    0    0    0    0  0.00000000000E+00  0.00000000000E+00  0.45593999997E+02  0.45594000000E+02  0.51100000000E-03 0. -1.
         11   -1    0    0    0    0 -0.00000000000E+00 -0.00000000000E+00 -0.45593999997E+02  0.45594000000E+02  0.51100000000E-03 0.  1.
         23    2    1    2    0    0  0.00000000000E+00  0.00000000000E+00  0.00000000000E+00  0.91188000000E+02  0.91188000000E+02 0.  0.
    9900012    2    3    3    0    0 -0.66787486932E+01 -0.29354526159E+02  0.33508507819E+02  0.46142312234E+02  0.99999495969E+01 0.  0.
        -12    1    3    3    0    0  0.66787486932E+01  0.29354526159E+02 -0.33508507819E+02  0.45045687766E+02  0.00000000000E+00 0.  1.
         11    1    4    4    0    0 -0.31655265649E+01 -0.27331724438E+01  0.69395658223E+01  0.81023678084E+01  0.51100000000E-03 0. -1.
        -11    1    4    4    0    0 -0.28527346430E+00 -0.56881369219E+01  0.33321484557E+01  0.65984464977E+01  0.51100000000E-03 0.  1.
         12    1    4    4    0    0 -0.32279486640E+01 -0.20933216793E+02  0.23236793541E+02  0.31441497928E+02  0.00000000000E+00 0. -1.
</event>
<event>
 8    1  0.2962813E-009  0.9118800E+02  0.7816164E-02  0.1184000E+00
        -11   -1    0    0    0    0  0.00000000000E+00  0.00000000000E+00  0.45593999997E+02  0.45594000000E+02  0.51100000000E-03 0. -1.
         11   -1    0    0    0    0 -0.00000000000E+00 -0.00000000000E+00 -0.45593999997E+02  0.45594000000E+02  0.51100000000E-03 0.  1.
         23    2    1    2    0    0  0.35527136788E-14  0.17763568394E-14  0.71054273576E-14  0.91188000000E+02  0.91188000000E+02 0.  0.
    9900012    2    3    3    0    0  0.28657711819E+02  0.81300345736E+01  0.33789814127E+02  0.46142318213E+02  0.10000004122E+02 0.  0.
        -12    1    3    3    0    0 -0.28657711819E+02 -0.81300345736E+01 -0.33789814127E+02  0.45045681787E+02  0.00000000000E+00 0.  1.
         11    1    4    4    0    0  0.18058065415E+02  0.85143013541E+01  0.24622806106E+02  0.31699678782E+02  0.51100000000E-03 0. -1.
        -11    1    4    4    0    0  0.21807832712E+01 -0.15076379563E+01  0.18603414421E+01  0.32387742165E+01  0.51100000000E-03 0.  1.
        -12    1    4    4    0    0  0.84188631327E+01  0.11233711757E+01  0.73066665792E+01  0.11203865215E+02  0.00000000000E+00 0.  1.
</event>
<event>
 8    1  0.2962813E-009  0.9118800E+02  0.7816164E-02  0.1184000E+00
        -11   -1    0    0    0    0  0.00000000000E+00  0.00000000000E+00  0.45593999997E+02  0.45594000000E+02  0.51100000000E-03 0. -1.
         11   -1    0    0    0    0 -0.00000000000E+00 -0.00000000000E+00 -0.45593999997E+02  0.45594000000E+02  0.51100000000E-03 0.  1.
         23    2    1    2    0    0  0.00000000000E+00  0.00000000000E+00  0.71054273576E-14  0.91188000000E+02  0.91188000000E+02 0.  0.
    9900012    2    3    3    0    0  0.47676667851E+01  0.83414745860E+01 -0.44009121711E+02  0.46142316094E+02  0.99999847952E+01 0.  0.
         12    1    3    3    0    0 -0.47676667851E+01 -0.83414745860E+01  0.44009121711E+02  0.45045683906E+02  0.00000000000E+00 0. -1.
         11    1    4    4    0    0 -0.61420644329E+00  0.25325026254E+00  0.25075712532E+00  0.71011593946E+00  0.51100000000E-03 0. -1.
        -11    1    4    4    0    0  0.11861402281E+01  0.50490848432E-01 -0.50987816549E+01  0.52351745522E+01  0.51100000000E-03 0.  1.
         12    1    4    4    0    0  0.41957330004E+01  0.80377334751E+01 -0.39161097181E+02  0.40197025602E+02  0.00000000000E+00 0. -1.
</event>
<event>
 8    1  0.2962813E-009  0.9118800E+02  0.7816164E-02  0.1184000E+00
        -11   -1    0    0    0    0  0.00000000000E+00  0.00000000000E+00  0.45593999997E+02  0.45594000000E+02  0.51100000000E-03 0.  1.
         11   -1    0    0    0    0 -0.00000000000E+00 -0.00000000000E+00 -0.45593999997E+02  0.45594000000E+02  0.51100000000E-03 0. -1.
         23    2    1    2    0    0 -0.71054273576E-14 -0.17763568394E-14 -0.35527136788E-14  0.91188000000E+02  0.91188000000E+02 0.  0.
    9900012    2    3    3    0    0 -0.39020493694E+02 -0.11946214376E+02 -0.19073608363E+02  0.46142317610E+02  0.99999986232E+01 0.  0.
         12    1    3    3    0    0  0.39020493694E+02  0.11946214376E+02  0.19073608363E+02  0.45045682390E+02  0.00000000000E+00 0. -1.
         11    1    4    4    0    0 -0.87299567181E+01 -0.51835828812E+01 -0.86277919880E+01  0.13323680822E+02  0.51100000000E-03 0. -1.
        -11    1    4    4    0    0 -0.74031192912E+01 -0.26050926762E+01 -0.24823622277E+01  0.82313307297E+01  0.51100000000E-03 0.  1.
         12    1    4    4    0    0 -0.22887417684E+02 -0.41575388183E+01 -0.79634541469E+01  0.24587306059E+02  0.00000000000E+00 0. -1.
</event>
<event>
 8    1  0.2962813E-009  0.9118800E+02  0.7816164E-02  0.1184000E+00
        -11   -1    0    0    0    0  0.00000000000E+00  0.00000000000E+00  0.45593999997E+02  0.45594000000E+02  0.51100000000E-03 0. -1.
         11   -1    0    0    0    0 -0.00000000000E+00 -0.00000000000E+00 -0.45593999997E+02  0.45594000000E+02  0.51100000000E-03 0.  1.
         23    2    1    2    0    0  0.00000000000E+00 -0.13877787808E-15  0.71054273576E-14  0.91188000000E+02  0.91188000000E+02 0.  0.
    9900012    2    3    3    0    0 -0.26076003125E+02  0.23816222604E+00  0.36730081090E+02  0.46142317442E+02  0.99999970879E+01 0.  0.
        -12    1    3    3    0    0  0.26076003125E+02 -0.23816222604E+00 -0.36730081090E+02  0.45045682558E+02  0.00000000000E+00 0.  1.
         11    1    4    4    0    0 -0.12353479354E+02  0.22729589177E+01  0.20144613845E+02  0.23739845442E+02  0.51100000000E-03 0. -1.
        -11    1    4    4    0    0 -0.61744675981E+01  0.79968145321E-02  0.33371849379E+01  0.70186122303E+01  0.51100000000E-03 0.  1.
        -12    1    4    4    0    0 -0.75480561733E+01 -0.20427935062E+01  0.13248282307E+02  0.15383859769E+02  0.00000000000E+00 0.  1.
</event>
<event>
 8    1  0.2962813E-009  0.9118800E+02  0.7816164E-02  0.1184000E+00
        -11   -1    0    0    0    0  0.00000000000E+00  0.00000000000E+00  0.45593999997E+02  0.45594000000E+02  0.51100000000E-03 0. -1.
         11   -1    0    0    0    0 -0.00000000000E+00 -0.00000000000E+00 -0.45593999997E+02  0.45594000000E+02  0.51100000000E-03 0.  1.
         23    2    1    2    0    0  0.00000000000E+00  0.00000000000E+00  0.00000000000E+00  0.91188000000E+02  0.91188000000E+02 0.  0.
    9900012    2    3    3    0    0 -0.29473805457E+01  0.16191702128E+02  0.41931554057E+02  0.46142317682E+02  0.99999992771E+01 0.  0.
        -12    1    3    3    0    0  0.29473805457E+01 -0.16191702128E+02 -0.41931554057E+02  0.45045682318E+02  0.00000000000E+00 0.  1.
         11    1    4    4    0    0 -0.14579098936E+01  0.11575028687E+02  0.21416548340E+02  0.24388016184E+02  0.51100000000E-03 0. -1.
        -11    1    4    4    0    0 -0.22129793484E+01  0.14855413989E+01  0.33001811522E+01  0.42420875454E+01  0.51100000000E-03 0.  1.
        -12    1    4    4    0    0  0.72350869621E+00  0.31311320419E+01  0.17214824565E+02  0.17512213952E+02  0.00000000000E+00 0.  1.
</event>
<event>
 8    1  0.2962813E-009  0.9118800E+02  0.7816164E-02  0.1184000E+00
        -11   -1    0    0    0    0  0.00000000000E+00  0.00000000000E+00  0.45593999997E+02  0.45594000000E+02  0.51100000000E-03 0. -1.
         11   -1    0    0    0    0 -0.00000000000E+00 -0.00000000000E+00 -0.45593999997E+02  0.45594000000E+02  0.51100000000E-03 0.  1.
         23    2    1    2    0    0  0.00000000000E+00  0.80491169285E-15  0.00000000000E+00  0.91188000000E+02  0.91188000000E+02 0.  0.
    9900012    2    3    3    0    0  0.11226440689E+02  0.19557061527E+00  0.43623871713E+02  0.46142318724E+02  0.10000008778E+02 0.  0.
        -12    1    3    3    0    0 -0.11226440689E+02 -0.19557061527E+00 -0.43623871713E+02  0.45045681276E+02  0.00000000000E+00 0.  1.
         11    1    4    4    0    0  0.21842376919E+01  0.75365914557E-01  0.56026602385E+01  0.60138487115E+01  0.51100000000E-03 0. -1.
        -11    1    4    4    0    0  0.20807486123E+01  0.30133621551E+01  0.23332908161E+02  0.23618519635E+02  0.51100000000E-03 0.  1.
        -12    1    4    4    0    0  0.69614543853E+01 -0.28931574544E+01  0.14688303314E+02  0.16509950377E+02  0.00000000000E+00 0.  1.
</event>
<event>
 8    1  0.2962813E-009  0.9118800E+02  0.7816164E-02  0.1184000E+00
        -11   -1    0    0    0    0  0.00000000000E+00  0.00000000000E+00  0.45593999997E+02  0.45594000000E+02  0.51100000000E-03 0. -1.
         11   -1    0    0    0    0 -0.00000000000E+00 -0.00000000000E+00 -0.45593999997E+02  0.45594000000E+02  0.51100000000E-03 0.  1.
         23    2    1    2    0    0  0.35527136788E-14  0.44408920985E-15  0.00000000000E+00  0.91188000000E+02  0.91188000000E+02 0.  0.
    9900012    2    3    3    0    0 -0.23195324311E+02 -0.34165578685E+01 -0.38463197658E+02  0.46142317503E+02  0.99999976493E+01 0.  0.
         12    1    3    3    0    0  0.23195324311E+02  0.34165578685E+01  0.38463197658E+02  0.45045682497E+02  0.00000000000E+00 0. -1.
         11    1    4    4    0    0  0.24619437582E+00  0.12628837120E+01 -0.15503452097E+01  0.20147102698E+01  0.51100000000E-03 0. -1.
        -11    1    4    4    0    0 -0.94803798107E+01 -0.37178852155E+01 -0.15218963369E+02  0.18311666176E+02  0.51100000000E-03 0.  1.
         12    1    4    4    0    0 -0.13961138876E+02 -0.96155636512E+00 -0.21693889079E+02  0.25815941058E+02  0.00000000000E+00 0. -1.
</event>
<event>
 8    1  0.2962813E-009  0.9118800E+02  0.7816164E-02  0.1184000E+00
        -11   -1    0    0    0    0  0.00000000000E+00  0.00000000000E+00  0.45593999997E+02  0.45594000000E+02  0.51100000000E-03 0. -1.
         11   -1    0    0    0    0 -0.00000000000E+00 -0.00000000000E+00 -0.45593999997E+02  0.45594000000E+02  0.51100000000E-03 0.  1.
         23    2    1    2    0    0  0.35527136788E-14  0.00000000000E+00  0.00000000000E+00  0.91188000000E+02  0.91188000000E+02 0.  0.
    9900012    2    3    3    0    0  0.18983348049E+02  0.32843624490E+02  0.24290786599E+02  0.46142317783E+02  0.10000000203E+02 0.  0.
        -12    1    3    3    0    0 -0.18983348049E+02 -0.32843624490E+02 -0.24290786599E+02  0.45045682217E+02  0.00000000000E+00 0.  1.
         11    1    4    4    0    0  0.12242458083E+02  0.18927464940E+02  0.96361531099E+01  0.24514937405E+02  0.51100000000E-03 0. -1.
        -11    1    4    4    0    0  0.81299733348E+00  0.73719841391E-01  0.47931636883E+00  0.94664867919E+00  0.51100000000E-03 0.  1.
         12    1    4    4    0    0  0.59278926319E+01  0.13842439709E+02  0.14175317120E+02  0.20680731699E+02  0.00000000000E+00 0. -1.
</event>
<event>
 8    1  0.2962813E-009  0.9118800E+02  0.7816164E-02  0.1184000E+00
        -11   -1    0    0    0    0  0.00000000000E+00  0.00000000000E+00  0.45593999997E+02  0.45594000000E+02  0.51100000000E-03 0. -1.
         11   -1    0    0    0    0 -0.00000000000E+00 -0.00000000000E+00 -0.45593999997E+02  0.45594000000E+02  0.51100000000E-03 0.  1.
         23    2    1    2    0    0 -0.44408920985E-15  0.00000000000E+00  0.00000000000E+00  0.91188000000E+02  0.91188000000E+02 0.  0.
    9900012    2    3    3    0    0 -0.29379599827E+01  0.38516442507E+02  0.23172519233E+02  0.46142316524E+02  0.99999887146E+01 0.  0.
        -12    1    3    3    0    0  0.29379599827E+01 -0.38516442507E+02 -0.23172519233E+02  0.45045683476E+02  0.00000000000E+00 0.  1.
         11    1    4    4    0    0  0.22165855199E+01  0.96716797140E+01  0.46897832521E+01  0.10974912622E+02  0.51100000000E-03 0. -1.
        -11    1    4    4    0    0  0.11377925964E+01  0.16414116639E+01  0.12304086680E+01  0.23457855815E+01  0.51100000000E-03 0.  1.
         12    1    4    4    0    0 -0.62923380990E+01  0.27203351129E+02  0.17252327312E+02  0.32821618320E+02  0.00000000000E+00 0. -1.
</event>
<event>
 8    1  0.2962813E-009  0.9118800E+02  0.7816164E-02  0.1184000E+00
        -11   -1    0    0    0    0  0.00000000000E+00  0.00000000000E+00  0.45593999997E+02  0.45594000000E+02  0.51100000000E-03 0. -1.
         11   -1    0    0    0    0 -0.00000000000E+00 -0.00000000000E+00 -0.45593999997E+02  0.45594000000E+02  0.51100000000E-03 0.  1.
         23    2    1    2    0    0  0.00000000000E+00  0.00000000000E+00  0.00000000000E+00  0.91188000000E+02  0.91188000000E+02 0.  0.
    9900012    2    3    3    0    0  0.80030338285E+01  0.19885136156E+02 -0.39618764744E+02  0.46142315298E+02  0.99999775434E+01 0.  0.
         12    1    3    3    0    0 -0.80030338285E+01 -0.19885136156E+02  0.39618764744E+02  0.45045684702E+02  0.00000000000E+00 0. -1.
         11    1    4    4    0    0  0.16404518119E+01 -0.18353635374E+00 -0.71629480987E+01  0.73506865983E+01  0.51100000000E-03 0. -1.
        -11    1    4    4    0    0  0.44331912711E+01  0.11435215971E+02 -0.16663178249E+02  0.20690066669E+02  0.51100000000E-03 0.  1.
         12    1    4    4    0    0  0.19293907455E+01  0.86334565388E+01 -0.15792638396E+02  0.18101562031E+02  0.00000000000E+00 0. -1.
</event>
<event>
 8    1  0.2962813E-009  0.9118800E+02  0.7816164E-02  0.1184000E+00
        -11   -1    0    0    0    0  0.00000000000E+00  0.00000000000E+00  0.45593999997E+02  0.45594000000E+02  0.51100000000E-03 0. -1.
         11   -1    0    0    0    0 -0.00000000000E+00 -0.00000000000E+00 -0.45593999997E+02  0.45594000000E+02  0.51100000000E-03 0.  1.
         23    2    1    2    0    0  0.00000000000E+00 -0.44408920985E-15  0.00000000000E+00  0.91188000000E+02  0.91188000000E+02 0.  0.
    9900012    2    3    3    0    0 -0.26474364555E+02  0.37202629650E+01  0.36254396263E+02  0.46142316704E+02  0.99999903645E+01 0.  0.
        -12    1    3    3    0    0  0.26474364555E+02 -0.37202629650E+01 -0.36254396263E+02  0.45045683296E+02  0.00000000000E+00 0.  1.
         11    1    4    4    0    0 -0.92119634283E+01  0.42738472202E+01  0.13041057846E+02  0.16528618522E+02  0.51100000000E-03 0. -1.
        -11    1    4    4    0    0 -0.44466422545E+01 -0.15160418499E+01  0.27335766086E+01  0.54353888147E+01  0.51100000000E-03 0.  1.
         12    1    4    4    0    0 -0.12815758872E+02  0.96245759463E+00  0.20479761809E+02  0.24178309367E+02  0.00000000000E+00 0. -1.
</event>
<event>
 8    1  0.2962813E-009  0.9118800E+02  0.7816164E-02  0.1184000E+00
        -11   -1    0    0    0    0  0.00000000000E+00  0.00000000000E+00  0.45593999997E+02  0.45594000000E+02  0.51100000000E-03 0. -1.
         11   -1    0    0    0    0 -0.00000000000E+00 -0.00000000000E+00 -0.45593999997E+02  0.45594000000E+02  0.51100000000E-03 0.  1.
         23    2    1    2    0    0  0.17763568394E-14  0.71054273576E-14  0.00000000000E+00  0.91188000000E+02  0.91188000000E+02 0.  0.
    9900012    2    3    3    0    0  0.15012946835E+02  0.34770071134E+02  0.24387845597E+02  0.46142318385E+02  0.10000005689E+02 0.  0.
        -12    1    3    3    0    0 -0.15012946835E+02 -0.34770071134E+02 -0.24387845597E+02  0.45045681615E+02  0.00000000000E+00 0.  1.
         11    1    4    4    0    0  0.25174402698E+01  0.14448538786E+02  0.10359755150E+02  0.17956121674E+02  0.51100000000E-03 0. -1.
        -11    1    4    4    0    0  0.87271093086E+01  0.91174516555E+01  0.69444907920E+01  0.14405426554E+02  0.51100000000E-03 0.  1.
        -12    1    4    4    0    0  0.37683972563E+01  0.11204080692E+02  0.70835996551E+01  0.13780770157E+02  0.00000000000E+00 0.  1.
</event>
<event>
 8    1  0.2962813E-009  0.9118800E+02  0.7816164E-02  0.1184000E+00
        -11   -1    0    0    0    0  0.00000000000E+00  0.00000000000E+00  0.45593999997E+02  0.45594000000E+02  0.51100000000E-03 0. -1.
         11   -1    0    0    0    0 -0.00000000000E+00 -0.00000000000E+00 -0.45593999997E+02  0.45594000000E+02  0.51100000000E-03 0.  1.
         23    2    1    2    0    0  0.00000000000E+00 -0.35527136788E-14  0.00000000000E+00  0.91188000000E+02  0.91188000000E+02 0.  0.
    9900012    2    3    3    0    0  0.39766697425E+02 -0.21063547597E+02  0.20125217711E+01  0.46142317573E+02  0.99999982823E+01 0.  0.
         12    1    3    3    0    0 -0.39766697425E+02  0.21063547597E+02 -0.20125217711E+01  0.45045682427E+02  0.00000000000E+00 0. -1.
         11    1    4    4    0    0  0.16899050784E+02 -0.61635692450E+01 -0.91419034440E+00  0.18011197836E+02  0.51100000000E-03 0. -1.
        -11    1    4    4    0    0  0.19971627208E+02 -0.12436162124E+02  0.33483508885E+00  0.23529473783E+02  0.51100000000E-03 0.  1.
        -12    1    4    4    0    0  0.28960194327E+01 -0.24638162287E+01  0.25918770267E+01  0.46016459539E+01  0.00000000000E+00 0.  1.
</event>
<event>
 8    1  0.2962813E-009  0.9118800E+02  0.7816164E-02  0.1184000E+00
        -11   -1    0    0    0    0  0.00000000000E+00  0.00000000000E+00  0.45593999997E+02  0.45594000000E+02  0.51100000000E-03 0. -1.
         11   -1    0    0    0    0 -0.00000000000E+00 -0.00000000000E+00 -0.45593999997E+02  0.45594000000E+02  0.51100000000E-03 0.  1.
         23    2    1    2    0    0  0.00000000000E+00 -0.11102230246E-15  0.00000000000E+00  0.91188000000E+02  0.91188000000E+02 0.  0.
    9900012    2    3    3    0    0  0.78494410145E+01 -0.59514231708E+00  0.44352512925E+02  0.46142319615E+02  0.10000016901E+02 0.  0.
        -12    1    3    3    0    0 -0.78494410145E+01  0.59514231708E+00 -0.44352512925E+02  0.45045680385E+02  0.00000000000E+00 0.  1.
         11    1    4    4    0    0  0.68256723568E+01 -0.25525154004E+01  0.25343277081E+02  0.26370188309E+02  0.51100000000E-03 0. -1.
        -11    1    4    4    0    0  0.98519362903E+00  0.34229922564E+01  0.94102258012E+01  0.10061800652E+02  0.51100000000E-03 0.  1.
         12    1    4    4    0    0  0.38575028676E-01 -0.14656191731E+01  0.95990100428E+01  0.97103306532E+01  0.00000000000E+00 0. -1.
</event>
<event>
 8    1  0.2962813E-009  0.9118800E+02  0.7816164E-02  0.1184000E+00
        -11   -1    0    0    0    0  0.00000000000E+00  0.00000000000E+00  0.45593999997E+02  0.45594000000E+02  0.51100000000E-03 0.  1.
         11   -1    0    0    0    0 -0.00000000000E+00 -0.00000000000E+00 -0.45593999997E+02  0.45594000000E+02  0.51100000000E-03 0. -1.
         23    2    1    2    0    0 -0.29143354396E-15  0.00000000000E+00 -0.17763568394E-14  0.91188000000E+02  0.91188000000E+02 0.  0.
    9900012    2    3    3    0    0 -0.43733271709E-01 -0.43242046997E+02  0.12618897024E+02  0.46142322037E+02  0.10000038987E+02 0.  0.
        -12    1    3    3    0    0  0.43733271709E-01  0.43242046997E+02 -0.12618897024E+02  0.45045677963E+02  0.00000000000E+00 0.  1.
         11    1    4    4    0    0 -0.17560101640E+01 -0.18390951297E+02  0.86698684371E+01  0.20407774996E+02  0.51100000000E-03 0. -1.
        -11    1    4    4    0    0  0.21385973704E+01 -0.23838339347E+02  0.47163206070E+01  0.24394337496E+02  0.51100000000E-03 0.  1.
        -12    1    4    4    0    0 -0.42632047812E+00 -0.10127563522E+01 -0.76729201960E+00  0.13402095442E+01  0.00000000000E+00 0.  1.
</event>
<event>
 8    1  0.2962813E-009  0.9118800E+02  0.7816164E-02  0.1184000E+00
        -11   -1    0    0    0    0  0.00000000000E+00  0.00000000000E+00  0.45593999997E+02  0.45594000000E+02  0.51100000000E-03 0. -1.
         11   -1    0    0    0    0 -0.00000000000E+00 -0.00000000000E+00 -0.45593999997E+02  0.45594000000E+02  0.51100000000E-03 0.  1.
         23    2    1    2    0    0  0.17763568394E-14  0.44408920985E-15  0.00000000000E+00  0.91188000000E+02  0.91188000000E+02 0.  0.
    9900012    2    3    3    0    0  0.15251118371E+02  0.28954090705E+01  0.42286327520E+02  0.46142317628E+02  0.99999987861E+01 0.  0.
        -12    1    3    3    0    0 -0.15251118371E+02 -0.28954090705E+01 -0.42286327520E+02  0.45045682372E+02  0.00000000000E+00 0.  1.
         11    1    4    4    0    0  0.89097877000E+01 -0.64811671980E+00  0.12223119361E+02  0.15139650568E+02  0.51100000000E-03 0. -1.
        -11    1    4    4    0    0  0.53966348432E+01  0.37165144273E+01  0.24712969971E+02  0.25566912840E+02  0.51100000000E-03 0.  1.
         12    1    4    4    0    0  0.94469582735E+00 -0.17298863695E+00  0.53502381875E+01  0.54357542198E+01  0.00000000000E+00 0. -1.
</event>
<event>
 8    1  0.2962813E-009  0.9118800E+02  0.7816164E-02  0.1184000E+00
        -11   -1    0    0    0    0  0.00000000000E+00  0.00000000000E+00  0.45593999997E+02  0.45594000000E+02  0.51100000000E-03 0. -1.
         11   -1    0    0    0    0 -0.00000000000E+00 -0.00000000000E+00 -0.45593999997E+02  0.45594000000E+02  0.51100000000E-03 0.  1.
         23    2    1    2    0    0  0.35527136788E-14  0.17763568394E-14  0.71054273576E-14  0.91188000000E+02  0.91188000000E+02 0.  0.
    9900012    2    3    3    0    0 -0.22092309494E+02 -0.12813075616E+02 -0.37106186668E+02  0.46142310589E+02  0.99999345979E+01 0.  0.
         12    1    3    3    0    0  0.22092309494E+02  0.12813075616E+02  0.37106186668E+02  0.45045689411E+02  0.00000000000E+00 0. -1.
         11    1    4    4    0    0 -0.15082631723E+02 -0.94144948152E+01 -0.17810053007E+02  0.25165779955E+02  0.51100000000E-03 0. -1.
        -11    1    4    4    0    0 -0.33091688163E+01 -0.28408775047E+01 -0.12163551390E+02  0.12921809700E+02  0.51100000000E-03 0.  1.
        -12    1    4    4    0    0 -0.37005089539E+01 -0.55770329588E+00 -0.71325822706E+01  0.80547209344E+01  0.00000000000E+00 0.  1.
</event>
<event>
 8    1  0.2962813E-009  0.9118800E+02  0.7816164E-02  0.1184000E+00
        -11   -1    0    0    0    0  0.00000000000E+00  0.00000000000E+00  0.45593999997E+02  0.45594000000E+02  0.51100000000E-03 0. -1.
         11   -1    0    0    0    0 -0.00000000000E+00 -0.00000000000E+00 -0.45593999997E+02  0.45594000000E+02  0.51100000000E-03 0.  1.
         23    2    1    2    0    0  0.00000000000E+00  0.00000000000E+00  0.00000000000E+00  0.91188000000E+02  0.91188000000E+02 0.  0.
    9900012    2    3    3    0    0  0.36728258394E+02 -0.23655291487E+02  0.10980697901E+02  0.46142317561E+02  0.99999981752E+01 0.  0.
        -12    1    3    3    0    0 -0.36728258394E+02  0.23655291487E+02 -0.10980697901E+02  0.45045682439E+02  0.00000000000E+00 0.  1.
         11    1    4    4    0    0  0.62012824268E+01 -0.22454717478E+01  0.49860143601E+00  0.66141250941E+01  0.51100000000E-03 0. -1.
        -11    1    4    4    0    0  0.12549418011E+02 -0.87105845572E+01  0.83638533728E+01  0.17415975977E+02  0.51100000000E-03 0.  1.
        -12    1    4    4    0    0  0.17977557956E+02 -0.12699235182E+02  0.21182430923E+01  0.22112216490E+02  0.00000000000E+00 0.  1.
</event>
<event>
 8    1  0.2962813E-009  0.9118800E+02  0.7816164E-02  0.1184000E+00
        -11   -1    0    0    0    0  0.00000000000E+00  0.00000000000E+00  0.45593999997E+02  0.45594000000E+02  0.51100000000E-03 0. -1.
         11   -1    0    0    0    0 -0.00000000000E+00 -0.00000000000E+00 -0.45593999997E+02  0.45594000000E+02  0.51100000000E-03 0.  1.
         23    2    1    2    0    0  0.00000000000E+00  0.00000000000E+00  0.00000000000E+00  0.91188000000E+02  0.91188000000E+02 0.  0.
    9900012    2    3    3    0    0  0.13709051797E+02 -0.36563400086E+02 -0.22456472421E+02  0.46142317847E+02  0.10000000786E+02 0.  0.
         12    1    3    3    0    0 -0.13709051797E+02  0.36563400086E+02  0.22456472421E+02  0.45045682153E+02  0.00000000000E+00 0. -1.
         11    1    4    4    0    0  0.19336945682E+01 -0.11215606474E+01 -0.35616812455E+01  0.42050739024E+01  0.51100000000E-03 0. -1.
        -11    1    4    4    0    0  0.40783951007E+01 -0.90344800096E+01 -0.56294655755E+01  0.11399386763E+02  0.51100000000E-03 0.  1.
         12    1    4    4    0    0  0.76969621281E+01 -0.26407359429E+02 -0.13265325600E+02  0.30537857182E+02  0.00000000000E+00 0. -1.
</event>
<event>
 8    1  0.2962813E-009  0.9118800E+02  0.7816164E-02  0.1184000E+00
        -11   -1    0    0    0    0  0.00000000000E+00  0.00000000000E+00  0.45593999997E+02  0.45594000000E+02  0.51100000000E-03 0.  1.
         11   -1    0    0    0    0 -0.00000000000E+00 -0.00000000000E+00 -0.45593999997E+02  0.45594000000E+02  0.51100000000E-03 0. -1.
         23    2    1    2    0    0 -0.17763568394E-14  0.00000000000E+00  0.35527136788E-14  0.91188000000E+02  0.91188000000E+02 0.  0.
    9900012    2    3    3    0    0 -0.11423257806E+02 -0.36980204672E+02 -0.23045328328E+02  0.46142317474E+02  0.99999973846E+01 0.  0.
        -12    1    3    3    0    0  0.11423257806E+02  0.36980204672E+02  0.23045328328E+02  0.45045682526E+02  0.00000000000E+00 0.  1.
         11    1    4    4    0    0 -0.23215045865E+01 -0.22645579365E+02 -0.13696792373E+02  0.26567155849E+02  0.51100000000E-03 0. -1.
        -11    1    4    4    0    0 -0.71968698447E+01 -0.11231450305E+02 -0.85594929311E+01  0.15849458382E+02  0.51100000000E-03 0.  1.
        -12    1    4    4    0    0 -0.19048833743E+01 -0.31031750018E+01 -0.78904302343E+00  0.37257032430E+01  0.00000000000E+00 0.  1.
</event>
<event>
 8    1  0.2962813E-009  0.9118800E+02  0.7816164E-02  0.1184000E+00
        -11   -1    0    0    0    0  0.00000000000E+00  0.00000000000E+00  0.45593999997E+02  0.45594000000E+02  0.51100000000E-03 0. -1.
         11   -1    0    0    0    0 -0.00000000000E+00 -0.00000000000E+00 -0.45593999997E+02  0.45594000000E+02  0.51100000000E-03 0.  1.
         23    2    1    2    0    0 -0.26645352591E-14  0.71054273576E-14 -0.71054273576E-14  0.91188000000E+02  0.91188000000E+02 0.  0.
    9900012    2    3    3    0    0  0.76207727852E+01 -0.28068429737E+02  0.34397682895E+02  0.46142317473E+02  0.99999973769E+01 0.  0.
        -12    1    3    3    0    0 -0.76207727852E+01  0.28068429737E+02 -0.34397682895E+02  0.45045682527E+02  0.00000000000E+00 0.  1.
         11    1    4    4    0    0  0.62161466988E+01 -0.92733232195E+01  0.13000650396E+02  0.17136274808E+02  0.51100000000E-03 0. -1.
        -11    1    4    4    0    0 -0.11576085426E+00 -0.16607113124E+02  0.20004203129E+02  0.25999572111E+02  0.51100000000E-03 0.  1.
        -12    1    4    4    0    0  0.15203869406E+01 -0.21879933930E+01  0.13928293700E+01  0.30064705538E+01  0.00000000000E+00 0.  1.
</event>
<event>
 8    1  0.2962813E-009  0.9118800E+02  0.7816164E-02  0.1184000E+00
        -11   -1    0    0    0    0  0.00000000000E+00  0.00000000000E+00  0.45593999997E+02  0.45594000000E+02  0.51100000000E-03 0. -1.
         11   -1    0    0    0    0 -0.00000000000E+00 -0.00000000000E+00 -0.45593999997E+02  0.45594000000E+02  0.51100000000E-03 0.  1.
         23    2    1    2    0    0  0.88817841970E-15  0.00000000000E+00 -0.17763568394E-14  0.91188000000E+02  0.91188000000E+02 0.  0.
    9900012    2    3    3    0    0 -0.66938555486E+01  0.43509943708E+02  0.95494088124E+01  0.46142310836E+02  0.99999368552E+01 0.  0.
        -12    1    3    3    0    0  0.66938555486E+01 -0.43509943708E+02 -0.95494088124E+01  0.45045689164E+02  0.00000000000E+00 0.  1.
         11    1    4    4    0    0 -0.20632219091E+01  0.70671447760E+01 -0.71161665985E+00  0.73964733802E+01  0.51100000000E-03 0. -1.
        -11    1    4    4    0    0 -0.30278719505E+01  0.24799742227E+02  0.10218695194E+02  0.26992905638E+02  0.51100000000E-03 0.  1.
        -12    1    4    4    0    0 -0.16027616889E+01  0.11643056705E+02  0.42330277900E-01  0.11752931818E+02  0.00000000000E+00 0.  1.
</event>
<event>
 8    1  0.2962813E-009  0.9118800E+02  0.7816164E-02  0.1184000E+00
        -11   -1    0    0    0    0  0.00000000000E+00  0.00000000000E+00  0.45593999997E+02  0.45594000000E+02  0.51100000000E-03 0. -1.
         11   -1    0    0    0    0 -0.00000000000E+00 -0.00000000000E+00 -0.45593999997E+02  0.45594000000E+02  0.51100000000E-03 0.  1.
         23    2    1    2    0    0  0.00000000000E+00  0.35527136788E-14  0.00000000000E+00  0.91188000000E+02  0.91188000000E+02 0.  0.
    9900012    2    3    3    0    0  0.35719359814E+02 -0.25420371439E+02 -0.10346280514E+02  0.46142317964E+02  0.10000001849E+02 0.  0.
         12    1    3    3    0    0 -0.35719359814E+02  0.25420371439E+02  0.10346280514E+02  0.45045682036E+02  0.00000000000E+00 0. -1.
         11    1    4    4    0    0  0.59932890503E+01 -0.52688487414E+01 -0.23858233505E+00  0.79835582601E+01  0.51100000000E-03 0. -1.
        -11    1    4    4    0    0  0.13909667991E+02 -0.93386727315E+01 -0.58628869977E+00  0.16764051023E+02  0.51100000000E-03 0.  1.
        -12    1    4    4    0    0  0.15816402772E+02 -0.10812849966E+02 -0.95214094793E+01  0.21394708680E+02  0.00000000000E+00 0.  1.
</event>
<event>
 8    1  0.2962813E-009  0.9118800E+02  0.7816164E-02  0.1184000E+00
        -11   -1    0    0    0    0  0.00000000000E+00  0.00000000000E+00  0.45593999997E+02  0.45594000000E+02  0.51100000000E-03 0. -1.
         11   -1    0    0    0    0 -0.00000000000E+00 -0.00000000000E+00 -0.45593999997E+02  0.45594000000E+02  0.51100000000E-03 0.  1.
         23    2    1    2    0    0  0.00000000000E+00 -0.24980018054E-15  0.71054273576E-14  0.91188000000E+02  0.91188000000E+02 0.  0.
    9900012    2    3    3    0    0  0.16033123383E+02 -0.20502211262E+00 -0.42095254092E+02  0.46142317670E+02  0.99999991690E+01 0.  0.
         12    1    3    3    0    0 -0.16033123383E+02  0.20502211262E+00  0.42095254092E+02  0.45045682330E+02  0.00000000000E+00 0. -1.
         11    1    4    4    0    0  0.18608166341E+01  0.13554557102E+01 -0.10029061227E+02  0.10289896408E+02  0.51100000000E-03 0. -1.
        -11    1    4    4    0    0  0.62847686221E+01  0.29516985923E+01 -0.14364071486E+02  0.15954228002E+02  0.51100000000E-03 0.  1.
        -12    1    4    4    0    0  0.78875381267E+01 -0.45121764151E+01 -0.17702121379E+02  0.19898193260E+02  0.00000000000E+00 0.  1.
</event>
<event>
 8    1  0.2962813E-009  0.9118800E+02  0.7816164E-02  0.1184000E+00
        -11   -1    0    0    0    0  0.00000000000E+00  0.00000000000E+00  0.45593999997E+02  0.45594000000E+02  0.51100000000E-03 0. -1.
         11   -1    0    0    0    0 -0.00000000000E+00 -0.00000000000E+00 -0.45593999997E+02  0.45594000000E+02  0.51100000000E-03 0.  1.
         23    2    1    2    0    0  0.00000000000E+00 -0.88817841970E-15  0.35527136788E-14  0.91188000000E+02  0.91188000000E+02 0.  0.
    9900012    2    3    3    0    0  0.41764594285E+02 -0.48713430130E+01  0.16158652243E+02  0.46142319177E+02  0.10000012907E+02 0.  0.
        -12    1    3    3    0    0 -0.41764594285E+02  0.48713430130E+01 -0.16158652243E+02  0.45045680823E+02  0.00000000000E+00 0.  1.
         11    1    4    4    0    0  0.98798843578E+01  0.39223564575E+00  0.65824749317E+01  0.11878339118E+02  0.51100000000E-03 0. -1.
        -11    1    4    4    0    0  0.19137735267E+02 -0.43918890869E+00  0.70667335917E+01  0.20405502247E+02  0.51100000000E-03 0.  1.
         12    1    4    4    0    0  0.12746974661E+02 -0.48243897501E+01  0.25094437193E+01  0.13858477811E+02  0.00000000000E+00 0. -1.
</event>
<event>
 8    1  0.2962813E-009  0.9118800E+02  0.7816164E-02  0.1184000E+00
        -11   -1    0    0    0    0  0.00000000000E+00  0.00000000000E+00  0.45593999997E+02  0.45594000000E+02  0.51100000000E-03 0. -1.
         11   -1    0    0    0    0 -0.00000000000E+00 -0.00000000000E+00 -0.45593999997E+02  0.45594000000E+02  0.51100000000E-03 0.  1.
         23    2    1    2    0    0  0.00000000000E+00  0.00000000000E+00  0.00000000000E+00  0.91188000000E+02  0.91188000000E+02 0.  0.
    9900012    2    3    3    0    0  0.19892623498E+02  0.11444741031E+02 -0.38760997017E+02  0.46142318114E+02  0.10000003214E+02 0.  0.
         12    1    3    3    0    0 -0.19892623498E+02 -0.11444741031E+02  0.38760997017E+02  0.45045681886E+02  0.00000000000E+00 0. -1.
         11    1    4    4    0    0  0.21104732921E+01  0.40971908990E+01 -0.67019505471E+01  0.81337083902E+01  0.51100000000E-03 0. -1.
        -11    1    4    4    0    0  0.41077084410E+01  0.42159017817E+01 -0.13638375935E+02  0.14854372921E+02  0.51100000000E-03 0.  1.
        -12    1    4    4    0    0  0.13674441765E+02  0.31316483500E+01 -0.18420670535E+02  0.23154236803E+02  0.00000000000E+00 0.  1.
</event>
<event>
 8    1  0.2962813E-009  0.9118800E+02  0.7816164E-02  0.1184000E+00
        -11   -1    0    0    0    0  0.00000000000E+00  0.00000000000E+00  0.45593999997E+02  0.45594000000E+02  0.51100000000E-03 0. -1.
         11   -1    0    0    0    0 -0.00000000000E+00 -0.00000000000E+00 -0.45593999997E+02  0.45594000000E+02  0.51100000000E-03 0.  1.
         23    2    1    2    0    0  0.00000000000E+00  0.00000000000E+00  0.00000000000E+00  0.91188000000E+02  0.91188000000E+02 0.  0.
    9900012    2    3    3    0    0 -0.42899507450E+02 -0.38762855929E+01 -0.13180295021E+02  0.46142317562E+02  0.99999981854E+01 0.  0.
         12    1    3    3    0    0  0.42899507450E+02  0.38762855929E+01  0.13180295021E+02  0.45045682438E+02  0.00000000000E+00 0. -1.
         11    1    4    4    0    0 -0.12193651993E+02 -0.75375864829E+00 -0.67704195810E+01  0.13967529581E+02  0.51100000000E-03 0. -1.
        -11    1    4    4    0    0 -0.80302690571E+01  0.93567677535E+00  0.57005019857E+00  0.81046696198E+01  0.51100000000E-03 0.  1.
        -12    1    4    4    0    0 -0.22675586400E+02 -0.40582037199E+01 -0.69799256381E+01  0.24070118361E+02  0.00000000000E+00 0.  1.
</event>
<event>
 8    1  0.2962813E-009  0.9118800E+02  0.7816164E-02  0.1184000E+00
        -11   -1    0    0    0    0  0.00000000000E+00  0.00000000000E+00  0.45593999997E+02  0.45594000000E+02  0.51100000000E-03 0. -1.
         11   -1    0    0    0    0 -0.00000000000E+00 -0.00000000000E+00 -0.45593999997E+02  0.45594000000E+02  0.51100000000E-03 0.  1.
         23    2    1    2    0    0  0.00000000000E+00  0.00000000000E+00  0.00000000000E+00  0.91188000000E+02  0.91188000000E+02 0.  0.
    9900012    2    3    3    0    0  0.17236614431E+02 -0.41616915802E+02 -0.21220391545E+00  0.46142316650E+02  0.99999898697E+01 0.  0.
         12    1    3    3    0    0 -0.17236614431E+02  0.41616915802E+02  0.21220391545E+00  0.45045683350E+02  0.00000000000E+00 0. -1.
         11    1    4    4    0    0  0.14815513669E+01 -0.19584271825E+01  0.17316850679E+01  0.30048568880E+01  0.51100000000E-03 0.  1.
        -11    1    4    4    0    0  0.68127088198E+01 -0.13714385712E+02 -0.32890123076E+01  0.15662534250E+02  0.51100000000E-03 0. -1.
        -12    1    4    4    0    0  0.89423542445E+01 -0.25944102908E+02  0.13451233243E+01  0.27474925512E+02  0.00000000000E+00 0.  1.
</event>
<event>
 8    1  0.2962813E-009  0.9118800E+02  0.7816164E-02  0.1184000E+00
        -11   -1    0    0    0    0  0.00000000000E+00  0.00000000000E+00  0.45593999997E+02  0.45594000000E+02  0.51100000000E-03 0. -1.
         11   -1    0    0    0    0 -0.00000000000E+00 -0.00000000000E+00 -0.45593999997E+02  0.45594000000E+02  0.51100000000E-03 0.  1.
         23    2    1    2    0    0  0.00000000000E+00  0.88817841970E-15  0.00000000000E+00  0.91188000000E+02  0.91188000000E+02 0.  0.
    9900012    2    3    3    0    0 -0.40408272472E+02  0.48834839265E+01 -0.19298617377E+02  0.46142317276E+02  0.99999955720E+01 0.  0.
         12    1    3    3    0    0  0.40408272472E+02 -0.48834839265E+01  0.19298617377E+02  0.45045682724E+02  0.00000000000E+00 0. -1.
         11    1    4    4    0    0 -0.18566478860E+02  0.51682983720E+01 -0.94140211526E+01  0.21448758469E+02  0.51100000000E-03 0. -1.
        -11    1    4    4    0    0 -0.10887564796E+02 -0.57402152944E+00 -0.17409650807E+01  0.11040811907E+02  0.51100000000E-03 0.  1.
        -12    1    4    4    0    0 -0.10954228816E+02  0.28920708392E+00 -0.81436311437E+01  0.13652746900E+02  0.00000000000E+00 0.  1.
</event>
<event>
 8    1  0.2962813E-009  0.9118800E+02  0.7816164E-02  0.1184000E+00
        -11   -1    0    0    0    0  0.00000000000E+00  0.00000000000E+00  0.45593999997E+02  0.45594000000E+02  0.51100000000E-03 0. -1.
         11   -1    0    0    0    0 -0.00000000000E+00 -0.00000000000E+00 -0.45593999997E+02  0.45594000000E+02  0.51100000000E-03 0.  1.
         23    2    1    2    0    0  0.71054273576E-14 -0.88817841970E-15  0.00000000000E+00  0.91188000000E+02  0.91188000000E+02 0.  0.
    9900012    2    3    3    0    0  0.39953051712E+02 -0.76064444150E+01 -0.19365157288E+02  0.46142315917E+02  0.99999831817E+01 0.  0.
         12    1    3    3    0    0 -0.39953051712E+02  0.76064444150E+01  0.19365157288E+02  0.45045684083E+02  0.00000000000E+00 0. -1.
         11    1    4    4    0    0  0.18741820145E+02 -0.77018468251E+01 -0.12168114175E+02  0.23635508662E+02  0.51100000000E-03 0. -1.
        -11    1    4    4    0    0  0.12322006224E+02 -0.77646909020E+00 -0.49085934585E+01  0.13286422830E+02  0.51100000000E-03 0.  1.
         12    1    4    4    0    0  0.88892253434E+01  0.87187150035E+00 -0.22884496546E+01  0.92203844248E+01  0.00000000000E+00 0. -1.
</event>
<event>
 8    1  0.2962813E-009  0.9118800E+02  0.7816164E-02  0.1184000E+00
        -11   -1    0    0    0    0  0.00000000000E+00  0.00000000000E+00  0.45593999997E+02  0.45594000000E+02  0.51100000000E-03 0. -1.
         11   -1    0    0    0    0 -0.00000000000E+00 -0.00000000000E+00 -0.45593999997E+02  0.45594000000E+02  0.51100000000E-03 0.  1.
         23    2    1    2    0    0  0.00000000000E+00  0.00000000000E+00 -0.35527136788E-14  0.91188000000E+02  0.91188000000E+02 0.  0.
    9900012    2    3    3    0    0  0.32647116564E+02 -0.17740002793E+02 -0.25467069400E+02  0.46142317156E+02  0.99999944866E+01 0.  0.
         12    1    3    3    0    0 -0.32647116564E+02  0.17740002793E+02  0.25467069400E+02  0.45045682844E+02  0.00000000000E+00 0. -1.
         11    1    4    4    0    0  0.41750190447E+01 -0.35445031410E+01 -0.61287293249E+00  0.55108892234E+01  0.51100000000E-03 0. -1.
        -11    1    4    4    0    0  0.17695567229E+02 -0.69577354416E+01 -0.16657467861E+02  0.25278734498E+02  0.51100000000E-03 0.  1.
         12    1    4    4    0    0  0.10776530290E+02 -0.72377642108E+01 -0.81967286062E+01  0.15352693435E+02  0.00000000000E+00 0. -1.
</event>
<event>
 8    1  0.2962813E-009  0.9118800E+02  0.7816164E-02  0.1184000E+00
        -11   -1    0    0    0    0  0.00000000000E+00  0.00000000000E+00  0.45593999997E+02  0.45594000000E+02  0.51100000000E-03 0. -1.
         11   -1    0    0    0    0 -0.00000000000E+00 -0.00000000000E+00 -0.45593999997E+02  0.45594000000E+02  0.51100000000E-03 0.  1.
         23    2    1    2    0    0  0.00000000000E+00  0.00000000000E+00 -0.71054273576E-14  0.91188000000E+02  0.91188000000E+02 0.  0.
    9900012    2    3    3    0    0 -0.27544558939E+02  0.69661745095E+01 -0.34955445043E+02  0.46142318158E+02  0.10000003618E+02 0.  0.
         12    1    3    3    0    0  0.27544558939E+02 -0.69661745095E+01  0.34955445043E+02  0.45045681842E+02  0.00000000000E+00 0. -1.
         11    1    4    4    0    0 -0.13303313550E+02 -0.87878265554E+00 -0.17003793342E+02  0.21607392222E+02  0.51100000000E-03 0. -1.
        -11    1    4    4    0    0 -0.10830251620E+02  0.40464585394E+01 -0.11491171304E+02  0.16300772836E+02  0.51100000000E-03 0.  1.
         12    1    4    4    0    0 -0.34109937693E+01  0.37984986256E+01 -0.64604803973E+01  0.82341530996E+01  0.00000000000E+00 0. -1.
</event>
<event>
 8    1  0.2962813E-009  0.9118800E+02  0.7816164E-02  0.1184000E+00
        -11   -1    0    0    0    0  0.00000000000E+00  0.00000000000E+00  0.45593999997E+02  0.45594000000E+02  0.51100000000E-03 0. -1.
         11   -1    0    0    0    0 -0.00000000000E+00 -0.00000000000E+00 -0.45593999997E+02  0.45594000000E+02  0.51100000000E-03 0.  1.
         23    2    1    2    0    0  0.00000000000E+00  0.35527136788E-14  0.17763568394E-14  0.91188000000E+02  0.91188000000E+02 0.  0.
    9900012    2    3    3    0    0  0.35277637014E+02  0.24906101788E+02  0.12817459161E+02  0.46142324970E+02  0.10000065733E+02 0.  0.
        -12    1    3    3    0    0 -0.35277637014E+02 -0.24906101788E+02 -0.12817459161E+02  0.45045675030E+02  0.00000000000E+00 0.  1.
         11    1    4    4    0    0  0.12428464997E+02  0.68878797931E+01  0.73193243024E+01  0.15983808643E+02  0.51100000000E-03 0. -1.
        -11    1    4    4    0    0  0.16886622120E+02  0.15138980725E+02  0.61690670105E+01  0.23503279176E+02  0.51100000000E-03 0.  1.
         12    1    4    4    0    0  0.59625498983E+01  0.28792412701E+01 -0.67093215225E+00  0.66552371509E+01  0.00000000000E+00 0. -1.
</event>
<event>
 8    1  0.2962813E-009  0.9118800E+02  0.7816164E-02  0.1184000E+00
        -11   -1    0    0    0    0  0.00000000000E+00  0.00000000000E+00  0.45593999997E+02  0.45594000000E+02  0.51100000000E-03 0.  1.
         11   -1    0    0    0    0 -0.00000000000E+00 -0.00000000000E+00 -0.45593999997E+02  0.45594000000E+02  0.51100000000E-03 0. -1.
         23    2    1    2    0    0  0.00000000000E+00  0.00000000000E+00  0.17347234760E-15  0.91188000000E+02  0.91188000000E+02 0.  0.
    9900012    2    3    3    0    0 -0.39312573810E+02 -0.21991656945E+02 -0.45423307617E-01  0.46142317654E+02  0.99999990278E+01 0.  0.
        -12    1    3    3    0    0  0.39312573810E+02  0.21991656945E+02  0.45423307617E-01  0.45045682346E+02  0.00000000000E+00 0.  1.
         11    1    4    4    0    0 -0.22642910538E+02 -0.94403101927E+01 -0.41130439329E+01  0.24874444412E+02  0.51100000000E-03 0. -1.
        -11    1    4    4    0    0 -0.10453873467E+02 -0.75887349357E+01  0.27070848434E+01  0.13198510408E+02  0.51100000000E-03 0.  1.
         12    1    4    4    0    0 -0.62157898048E+01 -0.49626118161E+01  0.13605357818E+01  0.80693628341E+01  0.00000000000E+00 0. -1.
</event>
<event>
 8    1  0.2962813E-009  0.9118800E+02  0.7816164E-02  0.1184000E+00
        -11   -1    0    0    0    0  0.00000000000E+00  0.00000000000E+00  0.45593999997E+02  0.45594000000E+02  0.51100000000E-03 0. -1.
         11   -1    0    0    0    0 -0.00000000000E+00 -0.00000000000E+00 -0.45593999997E+02  0.45594000000E+02  0.51100000000E-03 0.  1.
         23    2    1    2    0    0 -0.17763568394E-14  0.35527136788E-14  0.00000000000E+00  0.91188000000E+02  0.91188000000E+02 0.  0.
    9900012    2    3    3    0    0  0.10368704496E+02 -0.16115461993E+02 -0.40766352683E+02  0.46142315864E+02  0.99999827018E+01 0.  0.
         12    1    3    3    0    0 -0.10368704496E+02  0.16115461993E+02  0.40766352683E+02  0.45045684136E+02  0.00000000000E+00 0. -1.
         11    1    4    4    0    0  0.27935687557E+01 -0.77794223330E+01 -0.10122938061E+02  0.13068944620E+02  0.51100000000E-03 0. -1.
        -11    1    4    4    0    0 -0.76950535497E+00 -0.82694845354E+00 -0.41221102264E+01  0.42740817980E+01  0.51100000000E-03 0.  1.
        -12    1    4    4    0    0  0.83446410951E+01 -0.75090912064E+01 -0.26521304396E+02  0.28799289446E+02  0.00000000000E+00 0.  1.
</event>
<event>
 8    1  0.2962813E-009  0.9118800E+02  0.7816164E-02  0.1184000E+00
        -11   -1    0    0    0    0  0.00000000000E+00  0.00000000000E+00  0.45593999997E+02  0.45594000000E+02  0.51100000000E-03 0. -1.
         11   -1    0    0    0    0 -0.00000000000E+00 -0.00000000000E+00 -0.45593999997E+02  0.45594000000E+02  0.51100000000E-03 0.  1.
         23    2    1    2    0    0  0.00000000000E+00  0.00000000000E+00 -0.71054273576E-14  0.91188000000E+02  0.91188000000E+02 0.  0.
    9900012    2    3    3    0    0  0.95615440742E+01 -0.26096792295E+02 -0.35449227226E+02  0.46142318696E+02  0.10000008529E+02 0.  0.
         12    1    3    3    0    0 -0.95615440742E+01  0.26096792295E+02  0.35449227226E+02  0.45045681304E+02  0.00000000000E+00 0. -1.
         11    1    4    4    0    0  0.28807164913E+01 -0.18129929598E+02 -0.23734141681E+02  0.30005038849E+02  0.51100000000E-03 0.  1.
        -11    1    4    4    0    0  0.63519515255E+01 -0.75426958709E+01 -0.11998169452E+02  0.15530473903E+02  0.51100000000E-03 0. -1.
         12    1    4    4    0    0  0.32887605742E+00 -0.42416682557E+00  0.28308390608E+00  0.60680594505E+00  0.00000000000E+00 0. -1.
</event>
<event>
 8    1  0.2962813E-009  0.9118800E+02  0.7816164E-02  0.1184000E+00
        -11   -1    0    0    0    0  0.00000000000E+00  0.00000000000E+00  0.45593999997E+02  0.45594000000E+02  0.51100000000E-03 0. -1.
         11   -1    0    0    0    0 -0.00000000000E+00 -0.00000000000E+00 -0.45593999997E+02  0.45594000000E+02  0.51100000000E-03 0.  1.
         23    2    1    2    0    0  0.00000000000E+00 -0.71054273576E-14 -0.35527136788E-14  0.91188000000E+02  0.91188000000E+02 0.  0.
    9900012    2    3    3    0    0  0.51805905383E+01 -0.43697909832E+02 -0.96315983447E+01  0.46142317314E+02  0.99999959226E+01 0.  0.
         12    1    3    3    0    0 -0.51805905383E+01  0.43697909832E+02  0.96315983447E+01  0.45045682686E+02  0.00000000000E+00 0. -1.
         11    1    4    4    0    0  0.25205453106E+01 -0.53057430373E+01  0.77605161918E+00  0.59250581615E+01  0.51100000000E-03 0. -1.
        -11    1    4    4    0    0  0.34543127404E+01 -0.28934780479E+02 -0.59932649557E+01  0.29750176856E+02  0.51100000000E-03 0.  1.
        -12    1    4    4    0    0 -0.79426751282E+00 -0.94573863158E+01 -0.44143850082E+01  0.10467082297E+02  0.00000000000E+00 0.  1.
</event>
<event>
 8    1  0.2962813E-009  0.9118800E+02  0.7816164E-02  0.1184000E+00
        -11   -1    0    0    0    0  0.00000000000E+00  0.00000000000E+00  0.45593999997E+02  0.45594000000E+02  0.51100000000E-03 0. -1.
         11   -1    0    0    0    0 -0.00000000000E+00 -0.00000000000E+00 -0.45593999997E+02  0.45594000000E+02  0.51100000000E-03 0.  1.
         23    2    1    2    0    0  0.00000000000E+00 -0.55511151231E-16  0.00000000000E+00  0.91188000000E+02  0.91188000000E+02 0.  0.
    9900012    2    3    3    0    0  0.43876216121E+01 -0.29722969508E+00 -0.44830503645E+02  0.46142316233E+02  0.99999860691E+01 0.  0.
         12    1    3    3    0    0 -0.43876216121E+01  0.29722969508E+00  0.44830503645E+02  0.45045683767E+02  0.00000000000E+00 0. -1.
         11    1    4    4    0    0 -0.22921583241E+01  0.23643258440E-01 -0.17367024766E+02  0.17517651049E+02  0.51100000000E-03 0. -1.
        -11    1    4    4    0    0  0.56652176727E+01 -0.19231327531E+01 -0.23189593792E+02  0.23948912113E+02  0.51100000000E-03 0.  1.
         12    1    4    4    0    0  0.10145622636E+01  0.16022597995E+01 -0.42738850870E+01  0.46757530718E+01  0.00000000000E+00 0. -1.
</event>
<event>
 8    1  0.2962813E-009  0.9118800E+02  0.7816164E-02  0.1184000E+00
        -11   -1    0    0    0    0  0.00000000000E+00  0.00000000000E+00  0.45593999997E+02  0.45594000000E+02  0.51100000000E-03 0. -1.
         11   -1    0    0    0    0 -0.00000000000E+00 -0.00000000000E+00 -0.45593999997E+02  0.45594000000E+02  0.51100000000E-03 0.  1.
         23    2    1    2    0    0  0.00000000000E+00  0.00000000000E+00  0.00000000000E+00  0.91188000000E+02  0.91188000000E+02 0.  0.
    9900012    2    3    3    0    0 -0.36140898136E+02  0.10161601209E+02 -0.24893595032E+02  0.46142315070E+02  0.99999754623E+01 0.  0.
         12    1    3    3    0    0  0.36140898136E+02 -0.10161601209E+02  0.24893595032E+02  0.45045684930E+02  0.00000000000E+00 0. -1.
         11    1    4    4    0    0 -0.22322898783E+02  0.79444785457E+01 -0.12224066410E+02  0.26661851948E+02  0.51100000000E-03 0. -1.
        -11    1    4    4    0    0 -0.11223305680E+02  0.29685179811E+01 -0.80434564613E+01  0.14123451472E+02  0.51100000000E-03 0.  1.
         12    1    4    4    0    0 -0.25946936722E+01 -0.75139531754E+00 -0.46260721608E+01  0.53570116495E+01  0.00000000000E+00 0. -1.
</event>
<event>
 8    1  0.2962813E-009  0.9118800E+02  0.7816164E-02  0.1184000E+00
        -11   -1    0    0    0    0  0.00000000000E+00  0.00000000000E+00  0.45593999997E+02  0.45594000000E+02  0.51100000000E-03 0. -1.
         11   -1    0    0    0    0 -0.00000000000E+00 -0.00000000000E+00 -0.45593999997E+02  0.45594000000E+02  0.51100000000E-03 0.  1.
         23    2    1    2    0    0  0.00000000000E+00  0.00000000000E+00  0.00000000000E+00  0.91188000000E+02  0.91188000000E+02 0.  0.
    9900012    2    3    3    0    0 -0.13598395052E+02  0.24751217918E+02 -0.35093793438E+02  0.46142317918E+02  0.10000001427E+02 0.  0.
         12    1    3    3    0    0  0.13598395052E+02 -0.24751217918E+02  0.35093793438E+02  0.45045682082E+02  0.00000000000E+00 0. -1.
         11    1    4    4    0    0 -0.28859045950E+01  0.30509088759E+01 -0.28318159166E+01  0.50651428358E+01  0.51100000000E-03 0. -1.
        -11    1    4    4    0    0 -0.11535188824E+02  0.21240384767E+02 -0.29378363201E+02  0.38043432427E+02  0.51100000000E-03 0.  1.
         12    1    4    4    0    0  0.82269836728E+00  0.45992427530E+00 -0.28836143205E+01  0.30337426542E+01  0.00000000000E+00 0. -1.
</event>
<event>
 8    1  0.2962813E-009  0.9118800E+02  0.7816164E-02  0.1184000E+00
        -11   -1    0    0    0    0  0.00000000000E+00  0.00000000000E+00  0.45593999997E+02  0.45594000000E+02  0.51100000000E-03 0. -1.
         11   -1    0    0    0    0 -0.00000000000E+00 -0.00000000000E+00 -0.45593999997E+02  0.45594000000E+02  0.51100000000E-03 0.  1.
         23    2    1    2    0    0  0.00000000000E+00 -0.71054273576E-14 -0.35527136788E-14  0.91188000000E+02  0.91188000000E+02 0.  0.
    9900012    2    3    3    0    0 -0.63682767730E+00  0.34495277642E+02  0.28961762915E+02  0.46142318295E+02  0.10000004867E+02 0.  0.
        -12    1    3    3    0    0  0.63682767730E+00 -0.34495277642E+02 -0.28961762915E+02  0.45045681705E+02  0.00000000000E+00 0.  1.
         11    1    4    4    0    0 -0.10388368387E+00  0.22835527702E+02  0.22712328046E+02  0.32207483025E+02  0.51100000000E-03 0. -1.
        -11    1    4    4    0    0 -0.64637015030E+00  0.11883556133E+02  0.54364713806E+01  0.13084033096E+02  0.51100000000E-03 0.  1.
        -12    1    4    4    0    0  0.11342615687E+00 -0.22380619257E+00  0.81296348877E+00  0.85080217381E+00  0.00000000000E+00 0.  1.
</event>
<event>
 8    1  0.2962813E-009  0.9118800E+02  0.7816164E-02  0.1184000E+00
        -11   -1    0    0    0    0  0.00000000000E+00  0.00000000000E+00  0.45593999997E+02  0.45594000000E+02  0.51100000000E-03 0. -1.
         11   -1    0    0    0    0 -0.00000000000E+00 -0.00000000000E+00 -0.45593999997E+02  0.45594000000E+02  0.51100000000E-03 0.  1.
         23    2    1    2    0    0  0.00000000000E+00 -0.11102230246E-15  0.00000000000E+00  0.91188000000E+02  0.91188000000E+02 0.  0.
    9900012    2    3    3    0    0  0.42308475702E+01  0.50851464003E+00  0.44843670551E+02  0.46142318223E+02  0.10000004210E+02 0.  0.
        -12    1    3    3    0    0 -0.42308475702E+01 -0.50851464003E+00 -0.44843670551E+02  0.45045681777E+02  0.00000000000E+00 0.  1.
         11    1    4    4    0    0  0.27447593340E+00  0.12056892198E+01  0.34940502992E+02  0.34962376537E+02  0.51100000000E-03 0. -1.
        -11    1    4    4    0    0  0.39775863883E+01 -0.33045827171E+00  0.10027097693E+02  0.10792269666E+02  0.51100000000E-03 0.  1.
         12    1    4    4    0    0 -0.21214751493E-01 -0.36671630805E+00 -0.12393013421E+00  0.38767201916E+00  0.00000000000E+00 0. -1.
</event>
<event>
 8    1  0.2962813E-009  0.9118800E+02  0.7816164E-02  0.1184000E+00
        -11   -1    0    0    0    0  0.00000000000E+00  0.00000000000E+00  0.45593999997E+02  0.45594000000E+02  0.51100000000E-03 0. -1.
         11   -1    0    0    0    0 -0.00000000000E+00 -0.00000000000E+00 -0.45593999997E+02  0.45594000000E+02  0.51100000000E-03 0.  1.
         23    2    1    2    0    0  0.35527136788E-14  0.35527136788E-14  0.35527136788E-14  0.91188000000E+02  0.91188000000E+02 0.  0.
    9900012    2    3    3    0    0 -0.30970294850E+02 -0.15544984761E+02 -0.28780337844E+02  0.46142316958E+02  0.99999926776E+01 0.  0.
         12    1    3    3    0    0  0.30970294850E+02  0.15544984761E+02  0.28780337844E+02  0.45045683042E+02  0.00000000000E+00 0. -1.
         11    1    4    4    0    0 -0.25180930778E+02 -0.12088779528E+02 -0.19368300865E+02  0.33990424298E+02  0.51100000000E-03 0. -1.
        -11    1    4    4    0    0 -0.41731318637E+01 -0.50363722307E+00 -0.41607381934E+01  0.59144249576E+01  0.51100000000E-03 0.  1.
         12    1    4    4    0    0 -0.16162322086E+01 -0.29525680091E+01 -0.52512987860E+01  0.62374677026E+01  0.00000000000E+00 0. -1.
</event>
<event>
 8    1  0.2962813E-009  0.9118800E+02  0.7816164E-02  0.1184000E+00
        -11   -1    0    0    0    0  0.00000000000E+00  0.00000000000E+00  0.45593999997E+02  0.45594000000E+02  0.51100000000E-03 0. -1.
         11   -1    0    0    0    0 -0.00000000000E+00 -0.00000000000E+00 -0.45593999997E+02  0.45594000000E+02  0.51100000000E-03 0.  1.
         23    2    1    2    0    0 -0.13322676296E-14  0.00000000000E+00  0.71054273576E-14  0.91188000000E+02  0.91188000000E+02 0.  0.
    9900012    2    3    3    0    0 -0.28777972507E+01  0.31170234499E+01 -0.44845469784E+02  0.46142315275E+02  0.99999773253E+01 0.  0.
         12    1    3    3    0    0  0.28777972507E+01 -0.31170234499E+01  0.44845469784E+02  0.45045684725E+02  0.00000000000E+00 0. -1.
         11    1    4    4    0    0 -0.33051111535E+01  0.11360167735E+00 -0.68282410691E+01  0.75869322810E+01  0.51100000000E-03 0. -1.
        -11    1    4    4    0    0 -0.23300325287E+01  0.26220635902E+01 -0.17304160142E+02  0.17656110204E+02  0.51100000000E-03 0.  1.
        -12    1    4    4    0    0  0.27573464315E+01  0.38135818237E+00 -0.20713068573E+02  0.20899272790E+02  0.00000000000E+00 0.  1.
</event>
<event>
 8    1  0.3834264E-009  0.9118800E+02  0.7816164E-02  0.1184000E+00
        -11   -1    0    0    0    0  0.00000000000E+00  0.00000000000E+00  0.45593999997E+02  0.45594000000E+02  0.51100000000E-03 0. -1.
         11   -1    0    0    0    0 -0.00000000000E+00 -0.00000000000E+00 -0.45593999997E+02  0.45594000000E+02  0.51100000000E-03 0.  1.
         23    2    1    2    0    0 -0.35527136788E-14 -0.44408920985E-15  0.00000000000E+00  0.91188000000E+02  0.91188000000E+02 0.  0.
    9900012    2    3    3    0    0  0.24991096215E+02  0.26239042530E+01 -0.37385474922E+02  0.46142317646E+02  0.99999989515E+01 0.  0.
         12    1    3    3    0    0 -0.24991096215E+02 -0.26239042530E+01  0.37385474922E+02  0.45045682354E+02  0.00000000000E+00 0. -1.
         11    1    4    4    0    0  0.16738979428E+01  0.20920872994E+01 -0.33711647598E+01  0.43062182585E+01  0.51100000000E-03 0. -1.
        -11    1    4    4    0    0  0.41549336408E+01 -0.25043111409E+01 -0.53366000341E+01  0.72120973396E+01  0.51100000000E-03 0.  1.
        -12    1    4    4    0    0  0.19162264632E+02  0.30361280945E+01 -0.28677710128E+02  0.34624002048E+02  0.00000000000E+00 0.  1.
</event>
<event>
 8    1  0.3570828E-009  0.9118800E+02  0.7816164E-02  0.1184000E+00
        -11   -1    0    0    0    0  0.00000000000E+00  0.00000000000E+00  0.45593999997E+02  0.45594000000E+02  0.51100000000E-03 0. -1.
         11   -1    0    0    0    0 -0.00000000000E+00 -0.00000000000E+00 -0.45593999997E+02  0.45594000000E+02  0.51100000000E-03 0.  1.
         23    2    1    2    0    0  0.00000000000E+00  0.00000000000E+00  0.00000000000E+00  0.91188000000E+02  0.91188000000E+02 0.  0.
    9900012    2    3    3    0    0  0.32083004960E+01 -0.20314876405E+02 -0.40076502308E+02  0.46142318380E+02  0.10000005642E+02 0.  0.
         12    1    3    3    0    0 -0.32083004960E+01  0.20314876405E+02  0.40076502308E+02  0.45045681620E+02  0.00000000000E+00 0. -1.
         11    1    4    4    0    0  0.49334495922E+00  0.22129808247E+00 -0.17347158925E+01  0.18170309791E+01  0.51100000000E-03 0. -1.
        -11    1    4    4    0    0 -0.15403303098E+01 -0.12621217209E+02 -0.27089168233E+02  0.29924751914E+02  0.51100000000E-03 0.  1.
        -12    1    4    4    0    0  0.42552858466E+01 -0.79149572779E+01 -0.11252618182E+02  0.14400535486E+02  0.00000000000E+00 0.  1.
</event>
<event>
 8    1  0.2962813E-009  0.9118800E+02  0.7816164E-02  0.1184000E+00
        -11   -1    0    0    0    0  0.00000000000E+00  0.00000000000E+00  0.45593999997E+02  0.45594000000E+02  0.51100000000E-03 0. -1.
         11   -1    0    0    0    0 -0.00000000000E+00 -0.00000000000E+00 -0.45593999997E+02  0.45594000000E+02  0.51100000000E-03 0.  1.
         23    2    1    2    0    0  0.00000000000E+00  0.00000000000E+00  0.00000000000E+00  0.91188000000E+02  0.91188000000E+02 0.  0.
    9900012    2    3    3    0    0 -0.18898911102E+02 -0.48305243931E+01  0.40603086760E+02  0.46142318063E+02  0.10000002754E+02 0.  0.
        -12    1    3    3    0    0  0.18898911102E+02  0.48305243931E+01 -0.40603086760E+02  0.45045681937E+02  0.00000000000E+00 0.  1.
         11    1    4    4    0    0 -0.70468631575E+01 -0.22774416045E+00  0.22442193673E+02  0.23523652031E+02  0.51100000000E-03 0. -1.
        -11    1    4    4    0    0 -0.11774331470E+02 -0.45869975925E+01  0.18425622359E+02  0.22342313848E+02  0.51100000000E-03 0.  1.
        -12    1    4    4    0    0 -0.77716475086E-01 -0.15782640190E-01 -0.26472927261E+00  0.27635218473E+00  0.00000000000E+00 0.  1.
</event>
<event>
 8    1  0.2962813E-009  0.9118800E+02  0.7816164E-02  0.1184000E+00
        -11   -1    0    0    0    0  0.00000000000E+00  0.00000000000E+00  0.45593999997E+02  0.45594000000E+02  0.51100000000E-03 0. -1.
         11   -1    0    0    0    0 -0.00000000000E+00 -0.00000000000E+00 -0.45593999997E+02  0.45594000000E+02  0.51100000000E-03 0.  1.
         23    2    1    2    0    0 -0.35527136788E-14 -0.35527136788E-14  0.35527136788E-14  0.91188000000E+02  0.91188000000E+02 0.  0.
    9900012    2    3    3    0    0  0.26642851090E+02  0.28308154449E+02  0.22757862055E+02  0.46142318655E+02  0.10000008153E+02 0.  0.
        -12    1    3    3    0    0 -0.26642851090E+02 -0.28308154449E+02 -0.22757862055E+02  0.45045681345E+02  0.00000000000E+00 0.  1.
         11    1    4    4    0    0  0.96315197511E+01  0.15138564099E+02  0.13191685274E+02  0.22270223535E+02  0.51100000000E-03 0. -1.
        -11    1    4    4    0    0  0.14207227306E+02  0.12135427540E+02  0.93011535225E+01  0.20871640242E+02  0.51100000000E-03 0.  1.
         12    1    4    4    0    0  0.28041040329E+01  0.10341628111E+01  0.26502325876E+00  0.30004548780E+01  0.00000000000E+00 0. -1.
</event>
<event>
 8    1  0.2962813E-009  0.9118800E+02  0.7816164E-02  0.1184000E+00
        -11   -1    0    0    0    0  0.00000000000E+00  0.00000000000E+00  0.45593999997E+02  0.45594000000E+02  0.51100000000E-03 0. -1.
         11   -1    0    0    0    0 -0.00000000000E+00 -0.00000000000E+00 -0.45593999997E+02  0.45594000000E+02  0.51100000000E-03 0.  1.
         23    2    1    2    0    0  0.00000000000E+00  0.00000000000E+00  0.00000000000E+00  0.91188000000E+02  0.91188000000E+02 0.  0.
    9900012    2    3    3    0    0  0.11341444594E+02 -0.67686053546E+01  0.43065892213E+02  0.46142318121E+02  0.10000003278E+02 0.  0.
        -12    1    3    3    0    0 -0.11341444594E+02  0.67686053546E+01 -0.43065892213E+02  0.45045681879E+02  0.00000000000E+00 0.  1.
         11    1    4    4    0    0  0.72108147593E+01 -0.31767427530E+01  0.27273204309E+02  0.28388645926E+02  0.51100000000E-03 0. -1.
        -11    1    4    4    0    0 -0.95740012253E+00 -0.24389838241E+01  0.32877677836E+01  0.42041258722E+01  0.51100000000E-03 0.  1.
        -12    1    4    4    0    0  0.50880299568E+01 -0.11528787775E+01  0.12504920120E+02  0.13549546322E+02  0.00000000000E+00 0.  1.
</event>
<event>
 8    1  0.2962813E-009  0.9118800E+02  0.7816164E-02  0.1184000E+00
        -11   -1    0    0    0    0  0.00000000000E+00  0.00000000000E+00  0.45593999997E+02  0.45594000000E+02  0.51100000000E-03 0. -1.
         11   -1    0    0    0    0 -0.00000000000E+00 -0.00000000000E+00 -0.45593999997E+02  0.45594000000E+02  0.51100000000E-03 0.  1.
         23    2    1    2    0    0 -0.35527136788E-14 -0.35527136788E-14  0.35527136788E-14  0.91188000000E+02  0.91188000000E+02 0.  0.
    9900012    2    3    3    0    0 -0.20256416036E+02 -0.27250049251E+02  0.29601124473E+02  0.46142310474E+02  0.99999335465E+01 0.  0.
        -12    1    3    3    0    0  0.20256416036E+02  0.27250049251E+02 -0.29601124473E+02  0.45045689526E+02  0.00000000000E+00 0.  1.
         11    1    4    4    0    0 -0.12863491635E+02 -0.12813486876E+02  0.16254723784E+02  0.24369466726E+02  0.51100000000E-03 0. -1.
        -11    1    4    4    0    0 -0.81679768484E+01 -0.12709941305E+02  0.10675285228E+02  0.18499193732E+02  0.51100000000E-03 0.  1.
        -12    1    4    4    0    0  0.77505244721E+00 -0.17266210700E+01  0.26711154614E+01  0.32736500154E+01  0.00000000000E+00 0.  1.
</event>
<event>
 8    1  0.2962813E-009  0.9118800E+02  0.7816164E-02  0.1184000E+00
        -11   -1    0    0    0    0  0.00000000000E+00  0.00000000000E+00  0.45593999997E+02  0.45594000000E+02  0.51100000000E-03 0. -1.
         11   -1    0    0    0    0 -0.00000000000E+00 -0.00000000000E+00 -0.45593999997E+02  0.45594000000E+02  0.51100000000E-03 0.  1.
         23    2    1    2    0    0  0.35527136788E-14  0.00000000000E+00  0.00000000000E+00  0.91188000000E+02  0.91188000000E+02 0.  0.
    9900012    2    3    3    0    0  0.19300661552E+02 -0.17821508667E+02 -0.36592236691E+02  0.46142317703E+02  0.99999994699E+01 0.  0.
         12    1    3    3    0    0 -0.19300661552E+02  0.17821508667E+02  0.36592236691E+02  0.45045682297E+02  0.00000000000E+00 0. -1.
         11    1    4    4    0    0  0.15615470131E+02 -0.90187121672E+01 -0.25940679118E+02  0.31592703429E+02  0.51100000000E-03 0. -1.
        -11    1    4    4    0    0  0.33978664699E+01 -0.54127284652E+01 -0.79810035725E+01  0.10224458141E+02  0.51100000000E-03 0.  1.
         12    1    4    4    0    0  0.28732495130E+00 -0.33900680350E+01 -0.26705540009E+01  0.43251561338E+01  0.00000000000E+00 0. -1.
</event>
<event>
 8    1  0.2962813E-009  0.9118800E+02  0.7816164E-02  0.1184000E+00
        -11   -1    0    0    0    0  0.00000000000E+00  0.00000000000E+00  0.45593999997E+02  0.45594000000E+02  0.51100000000E-03 0.  1.
         11   -1    0    0    0    0 -0.00000000000E+00 -0.00000000000E+00 -0.45593999997E+02  0.45594000000E+02  0.51100000000E-03 0. -1.
         23    2    1    2    0    0  0.00000000000E+00  0.00000000000E+00 -0.35527136788E-14  0.91188000000E+02  0.91188000000E+02 0.  0.
    9900012    2    3    3    0    0  0.19679369818E+02 -0.30350412719E+02 -0.26845639316E+02  0.46142317644E+02  0.99999989343E+01 0.  0.
         12    1    3    3    0    0 -0.19679369818E+02  0.30350412719E+02  0.26845639316E+02  0.45045682356E+02  0.00000000000E+00 0. -1.
         11    1    4    4    0    0  0.79611612160E+01 -0.80022648630E+01 -0.12926050907E+02  0.17160976754E+02  0.51100000000E-03 0. -1.
        -11    1    4    4    0    0  0.38622169140E+01 -0.58616261932E+01 -0.52481787260E+01  0.87646312713E+01  0.51100000000E-03 0.  1.
         12    1    4    4    0    0  0.78559916883E+01 -0.16486521662E+02 -0.86714096826E+01  0.20216709619E+02  0.00000000000E+00 0. -1.
</event>
<event>
 8    1  0.2962813E-009  0.9118800E+02  0.7816164E-02  0.1184000E+00
        -11   -1    0    0    0    0  0.00000000000E+00  0.00000000000E+00  0.45593999997E+02  0.45594000000E+02  0.51100000000E-03 0. -1.
         11   -1    0    0    0    0 -0.00000000000E+00 -0.00000000000E+00 -0.45593999997E+02  0.45594000000E+02  0.51100000000E-03 0.  1.
         23    2    1    2    0    0  0.00000000000E+00  0.35527136788E-14  0.00000000000E+00  0.91188000000E+02  0.91188000000E+02 0.  0.
    9900012    2    3    3    0    0 -0.36105655590E+02 -0.21736900951E+02 -0.15906045786E+02  0.46142317398E+02  0.99999966893E+01 0.  0.
         12    1    3    3    0    0  0.36105655590E+02  0.21736900951E+02  0.15906045786E+02  0.45045682602E+02  0.00000000000E+00 0. -1.
         11    1    4    4    0    0 -0.11156219240E+02 -0.54318708606E+01 -0.60355461366E+01  0.13798342879E+02  0.51100000000E-03 0. -1.
        -11    1    4    4    0    0 -0.37922670588E-01 -0.38451309594E+00  0.81978919395E+00  0.90627977663E+00  0.51100000000E-03 0.  1.
        -12    1    4    4    0    0 -0.24911513680E+02 -0.15920516995E+02 -0.10690288843E+02  0.31437694743E+02  0.00000000000E+00 0.  1.
</event>
<event>
 8    1  0.2962813E-009  0.9118800E+02  0.7816164E-02  0.1184000E+00
        -11   -1    0    0    0    0  0.00000000000E+00  0.00000000000E+00  0.45593999997E+02  0.45594000000E+02  0.51100000000E-03 0. -1.
         11   -1    0    0    0    0 -0.00000000000E+00 -0.00000000000E+00 -0.45593999997E+02  0.45594000000E+02  0.51100000000E-03 0.  1.
         23    2    1    2    0    0  0.00000000000E+00  0.00000000000E+00  0.00000000000E+00  0.91188000000E+02  0.91188000000E+02 0.  0.
    9900012    2    3    3    0    0  0.20889553386E+02 -0.37819930803E+02  0.12743340674E+02  0.46142319429E+02  0.10000015206E+02 0.  0.
        -12    1    3    3    0    0 -0.20889553386E+02  0.37819930803E+02 -0.12743340674E+02  0.45045680571E+02  0.00000000000E+00 0.  1.
         11    1    4    4    0    0  0.29881088175E+00 -0.27108628513E+01  0.16332787854E+01  0.31789408918E+01  0.51100000000E-03 0.  1.
        -11    1    4    4    0    0  0.81373739510E+01 -0.19595667232E+02  0.86688151987E+01  0.22920632327E+02  0.51100000000E-03 0. -1.
        -12    1    4    4    0    0  0.12453368554E+02 -0.15513400720E+02  0.24412466898E+01  0.20042746210E+02  0.00000000000E+00 0.  1.
</event>
<event>
 8    1  0.2962813E-009  0.9118800E+02  0.7816164E-02  0.1184000E+00
        -11   -1    0    0    0    0  0.00000000000E+00  0.00000000000E+00  0.45593999997E+02  0.45594000000E+02  0.51100000000E-03 0.  1.
         11   -1    0    0    0    0 -0.00000000000E+00 -0.00000000000E+00 -0.45593999997E+02  0.45594000000E+02  0.51100000000E-03 0. -1.
         23    2    1    2    0    0  0.71054273576E-14  0.00000000000E+00 -0.35527136788E-14  0.91188000000E+02  0.91188000000E+02 0.  0.
    9900012    2    3    3    0    0 -0.38405380735E+02  0.65287585853E+01 -0.22616713308E+02  0.46142315646E+02  0.99999807115E+01 0.  0.
         12    1    3    3    0    0  0.38405380735E+02 -0.65287585853E+01  0.22616713308E+02  0.45045684354E+02  0.00000000000E+00 0. -1.
         11    1    4    4    0    0 -0.10543764212E+02  0.44578318748E+01 -0.54586394243E+01  0.12682270042E+02  0.51100000000E-03 0. -1.
        -11    1    4    4    0    0 -0.14562316291E+02 -0.94952025257E+00 -0.11949019488E+02  0.18861116389E+02  0.51100000000E-03 0.  1.
        -12    1    4    4    0    0 -0.13299300232E+02  0.30204469631E+01 -0.52090543954E+01  0.14598929215E+02  0.00000000000E+00 0.  1.
</event>
<event>
 8    1  0.2962813E-009  0.9118800E+02  0.7816164E-02  0.1184000E+00
        -11   -1    0    0    0    0  0.00000000000E+00  0.00000000000E+00  0.45593999997E+02  0.45594000000E+02  0.51100000000E-03 0. -1.
         11   -1    0    0    0    0 -0.00000000000E+00 -0.00000000000E+00 -0.45593999997E+02  0.45594000000E+02  0.51100000000E-03 0.  1.
         23    2    1    2    0    0  0.00000000000E+00 -0.16653345369E-15  0.00000000000E+00  0.91188000000E+02  0.91188000000E+02 0.  0.
    9900012    2    3    3    0    0 -0.17167986778E+02  0.44907201663E+00  0.41643391653E+02  0.46142317587E+02  0.99999984096E+01 0.  0.
        -12    1    3    3    0    0  0.17167986778E+02 -0.44907201663E+00 -0.41643391653E+02  0.45045682413E+02  0.00000000000E+00 0.  1.
         11    1    4    4    0    0 -0.61414176572E+01 -0.47331213729E+00  0.20822640722E+02  0.21714589614E+02  0.51100000000E-03 0. -1.
        -11    1    4    4    0    0  0.10446939377E+00  0.15405141496E+01  0.35524452038E+01  0.38734951771E+01  0.51100000000E-03 0.  1.
        -12    1    4    4    0    0 -0.11131038515E+02 -0.61812999565E+00  0.17268305727E+02  0.20554232795E+02  0.00000000000E+00 0.  1.
</event>
<event>
 8    1  0.2962813E-009  0.9118800E+02  0.7816164E-02  0.1184000E+00
        -11   -1    0    0    0    0  0.00000000000E+00  0.00000000000E+00  0.45593999997E+02  0.45594000000E+02  0.51100000000E-03 0. -1.
         11   -1    0    0    0    0 -0.00000000000E+00 -0.00000000000E+00 -0.45593999997E+02  0.45594000000E+02  0.51100000000E-03 0.  1.
         23    2    1    2    0    0  0.35527136788E-14  0.00000000000E+00 -0.35527136788E-14  0.91188000000E+02  0.91188000000E+02 0.  0.
    9900012    2    3    3    0    0  0.29052086815E+02 -0.16674455842E+02 -0.30117309555E+02  0.46142316957E+02  0.99999926719E+01 0.  0.
         12    1    3    3    0    0 -0.29052086815E+02  0.16674455842E+02  0.30117309555E+02  0.45045683043E+02  0.00000000000E+00 0. -1.
         11    1    4    4    0    0  0.75623395020E+01 -0.76070396743E+01 -0.70840339779E+01  0.12854554407E+02  0.51100000000E-03 0. -1.
        -11    1    4    4    0    0  0.15774392622E+02 -0.92912729169E+01 -0.17837960526E+02  0.25560752160E+02  0.51100000000E-03 0.  1.
         12    1    4    4    0    0  0.57153546908E+01  0.22385674883E+00 -0.51953150509E+01  0.77270103898E+01  0.00000000000E+00 0. -1.
</event>
<event>
 8    1  0.2962813E-009  0.9118800E+02  0.7816164E-02  0.1184000E+00
        -11   -1    0    0    0    0  0.00000000000E+00  0.00000000000E+00  0.45593999997E+02  0.45594000000E+02  0.51100000000E-03 0. -1.
         11   -1    0    0    0    0 -0.00000000000E+00 -0.00000000000E+00 -0.45593999997E+02  0.45594000000E+02  0.51100000000E-03 0.  1.
         23    2    1    2    0    0 -0.71054273576E-14 -0.17763568394E-14  0.00000000000E+00  0.91188000000E+02  0.91188000000E+02 0.  0.
    9900012    2    3    3    0    0  0.36628623407E+02  0.13638054556E+02  0.22393328740E+02  0.46142314781E+02  0.99999728270E+01 0.  0.
        -12    1    3    3    0    0 -0.36628623407E+02 -0.13638054556E+02 -0.22393328740E+02  0.45045685219E+02  0.00000000000E+00 0.  1.
         11    1    4    4    0    0  0.15535882932E+02  0.21416190170E+01  0.81278179120E+01  0.17663850508E+02  0.51100000000E-03 0.  1.
        -11    1    4    4    0    0  0.12210980606E+02  0.96795068264E+01  0.89766245785E+01  0.17982788684E+02  0.51100000000E-03 0. -1.
         12    1    4    4    0    0  0.88817598694E+01  0.18169287122E+01  0.52888862493E+01  0.10495675590E+02  0.00000000000E+00 0. -1.
</event>
<event>
 8    1  0.3711006E-009  0.9118800E+02  0.7816164E-02  0.1184000E+00
        -11   -1    0    0    0    0  0.00000000000E+00  0.00000000000E+00  0.45593999997E+02  0.45594000000E+02  0.51100000000E-03 0. -1.
         11   -1    0    0    0    0 -0.00000000000E+00 -0.00000000000E+00 -0.45593999997E+02  0.45594000000E+02  0.51100000000E-03 0.  1.
         23    2    1    2    0    0 -0.17763568394E-14 -0.17763568394E-14  0.00000000000E+00  0.91188000000E+02  0.91188000000E+02 0.  0.
    9900012    2    3    3    0    0 -0.92764556102E+01 -0.11862085521E+02 -0.42454116348E+02  0.46142315451E+02  0.99999789366E+01 0.  0.
         12    1    3    3    0    0  0.92764556102E+01  0.11862085521E+02  0.42454116348E+02  0.45045684549E+02  0.00000000000E+00 0. -1.
         11    1    4    4    0    0 -0.37591374806E+00 -0.61996300874E+01 -0.18479665027E+02  0.19495505742E+02  0.51100000000E-03 0. -1.
        -11    1    4    4    0    0 -0.54083115356E+01 -0.60253976536E+01 -0.17477713248E+02  0.19262027702E+02  0.51100000000E-03 0.  1.
         12    1    4    4    0    0 -0.34922303265E+01  0.36294221990E+00 -0.64967380730E+01  0.73847820075E+01  0.00000000000E+00 0. -1.
</event>
<event>
 8    1  0.2962813E-009  0.9118800E+02  0.7816164E-02  0.1184000E+00
        -11   -1    0    0    0    0  0.00000000000E+00  0.00000000000E+00  0.45593999997E+02  0.45594000000E+02  0.51100000000E-03 0. -1.
         11   -1    0    0    0    0 -0.00000000000E+00 -0.00000000000E+00 -0.45593999997E+02  0.45594000000E+02  0.51100000000E-03 0.  1.
         23    2    1    2    0    0  0.00000000000E+00  0.17763568394E-14  0.00000000000E+00  0.91188000000E+02  0.91188000000E+02 0.  0.
    9900012    2    3    3    0    0  0.42617302181E+01  0.97100014589E+01  0.43779756011E+02  0.46142317530E+02  0.99999978943E+01 0.  0.
        -12    1    3    3    0    0 -0.42617302181E+01 -0.97100014589E+01 -0.43779756011E+02  0.45045682470E+02  0.00000000000E+00 0.  1.
         11    1    4    4    0    0  0.18418368551E+01  0.49177415192E+01  0.11633182458E+02  0.12763521419E+02  0.51100000000E-03 0. -1.
        -11    1    4    4    0    0 -0.10519872754E+01  0.48731719355E+01  0.13067036392E+02  0.13985775712E+02  0.51100000000E-03 0.  1.
        -12    1    4    4    0    0  0.34718806384E+01 -0.80911995743E-01  0.19079537161E+02  0.19393020399E+02  0.00000000000E+00 0.  1.
</event>
<event>
 8    1  0.2962813E-009  0.9118800E+02  0.7816164E-02  0.1184000E+00
        -11   -1    0    0    0    0  0.00000000000E+00  0.00000000000E+00  0.45593999997E+02  0.45594000000E+02  0.51100000000E-03 0.  1.
         11   -1    0    0    0    0 -0.00000000000E+00 -0.00000000000E+00 -0.45593999997E+02  0.45594000000E+02  0.51100000000E-03 0. -1.
         23    2    1    2    0    0  0.66613381478E-15  0.71054273576E-14  0.00000000000E+00  0.91188000000E+02  0.91188000000E+02 0.  0.
    9900012    2    3    3    0    0  0.15799775204E+01  0.38751887553E+02 -0.22910877527E+02  0.46142318443E+02  0.10000006219E+02 0.  0.
        -12    1    3    3    0    0 -0.15799775204E+01 -0.38751887553E+02  0.22910877527E+02  0.45045681557E+02  0.00000000000E+00 0.  1.
         11    1    4    4    0    0  0.96891388649E+00  0.74198685461E+01 -0.10326031898E+01  0.75537747497E+01  0.51100000000E-03 0. -1.
        -11    1    4    4    0    0  0.25635422759E+01  0.23276949259E+02 -0.14921534630E+02  0.27767612641E+02  0.51100000000E-03 0.  1.
        -12    1    4    4    0    0 -0.19524786419E+01  0.80550697479E+01 -0.69567397073E+01  0.10820931053E+02  0.00000000000E+00 0.  1.
</event>
<event>
 8    1  0.2962813E-009  0.9118800E+02  0.7816164E-02  0.1184000E+00
        -11   -1    0    0    0    0  0.00000000000E+00  0.00000000000E+00  0.45593999997E+02  0.45594000000E+02  0.51100000000E-03 0. -1.
         11   -1    0    0    0    0 -0.00000000000E+00 -0.00000000000E+00 -0.45593999997E+02  0.45594000000E+02  0.51100000000E-03 0.  1.
         23    2    1    2    0    0  0.17763568394E-14  0.35527136788E-14  0.00000000000E+00  0.91188000000E+02  0.91188000000E+02 0.  0.
    9900012    2    3    3    0    0  0.15742572542E+02 -0.27441132919E+02 -0.32066634698E+02  0.46142318443E+02  0.10000006216E+02 0.  0.
         12    1    3    3    0    0 -0.15742572542E+02  0.27441132919E+02  0.32066634698E+02  0.45045681557E+02  0.00000000000E+00 0. -1.
         11    1    4    4    0    0  0.79062232694E+01 -0.16123134356E+02 -0.19741865883E+02  0.26687171012E+02  0.51100000000E-03 0.  1.
        -11    1    4    4    0    0 -0.66854206945E+00  0.11481616744E+00 -0.11037038784E+00  0.68725041620E+00  0.51100000000E-03 0. -1.
         12    1    4    4    0    0  0.85048913416E+01 -0.11432814730E+02 -0.12214398428E+02  0.18767897014E+02  0.00000000000E+00 0. -1.
</event>
<event>
 8    1  0.2962813E-009  0.9118800E+02  0.7816164E-02  0.1184000E+00
        -11   -1    0    0    0    0  0.00000000000E+00  0.00000000000E+00  0.45593999997E+02  0.45594000000E+02  0.51100000000E-03 0. -1.
         11   -1    0    0    0    0 -0.00000000000E+00 -0.00000000000E+00 -0.45593999997E+02  0.45594000000E+02  0.51100000000E-03 0.  1.
         23    2    1    2    0    0  0.00000000000E+00  0.00000000000E+00  0.71054273576E-14  0.91188000000E+02  0.91188000000E+02 0.  0.
    9900012    2    3    3    0    0 -0.11790687162E+02  0.33576752446E+02 -0.27616934977E+02  0.46142315345E+02  0.99999779650E+01 0.  0.
         12    1    3    3    0    0  0.11790687162E+02 -0.33576752446E+02  0.27616934977E+02  0.45045684655E+02  0.00000000000E+00 0. -1.
         11    1    4    4    0    0  0.99384599536E+00  0.10375697314E+02 -0.71125752496E+01  0.12618698489E+02  0.51100000000E-03 0. -1.
        -11    1    4    4    0    0 -0.71917478680E+01  0.11779140785E+02 -0.10923751656E+02  0.17601072284E+02  0.51100000000E-03 0.  1.
         12    1    4    4    0    0 -0.55927852890E+01  0.11421914347E+02 -0.95806080708E+01  0.15922544572E+02  0.00000000000E+00 0. -1.
</event>
<event>
 8    1  0.2962813E-009  0.9118800E+02  0.7816164E-02  0.1184000E+00
        -11   -1    0    0    0    0  0.00000000000E+00  0.00000000000E+00  0.45593999997E+02  0.45594000000E+02  0.51100000000E-03 0. -1.
         11   -1    0    0    0    0 -0.00000000000E+00 -0.00000000000E+00 -0.45593999997E+02  0.45594000000E+02  0.51100000000E-03 0.  1.
         23    2    1    2    0    0  0.00000000000E+00  0.00000000000E+00 -0.17763568394E-14  0.91188000000E+02  0.91188000000E+02 0.  0.
    9900012    2    3    3    0    0 -0.35765511504E+02  0.23916072008E+02 -0.13340282133E+02  0.46142318289E+02  0.10000004812E+02 0.  0.
         12    1    3    3    0    0  0.35765511504E+02 -0.23916072008E+02  0.13340282133E+02  0.45045681711E+02  0.00000000000E+00 0. -1.
         11    1    4    4    0    0 -0.20421282147E+01  0.14327030077E+00  0.42622210344E+00  0.20910474808E+01  0.51100000000E-03 0. -1.
        -11    1    4    4    0    0 -0.22729429655E+02  0.12206489006E+02 -0.71146612385E+01  0.26762730636E+02  0.51100000000E-03 0.  1.
         12    1    4    4    0    0 -0.10993953635E+02  0.11566312701E+02 -0.66518429978E+01  0.17288540172E+02  0.00000000000E+00 0. -1.
</event>
<event>
 8    1  0.2962813E-009  0.9118800E+02  0.7816164E-02  0.1184000E+00
        -11   -1    0    0    0    0  0.00000000000E+00  0.00000000000E+00  0.45593999997E+02  0.45594000000E+02  0.51100000000E-03 0. -1.
         11   -1    0    0    0    0 -0.00000000000E+00 -0.00000000000E+00 -0.45593999997E+02  0.45594000000E+02  0.51100000000E-03 0.  1.
         23    2    1    2    0    0  0.00000000000E+00 -0.35527136788E-14  0.00000000000E+00  0.91188000000E+02  0.91188000000E+02 0.  0.
    9900012    2    3    3    0    0 -0.17886212800E+02 -0.21909606588E+02  0.35059463808E+02  0.46142317946E+02  0.10000001691E+02 0.  0.
        -12    1    3    3    0    0  0.17886212800E+02  0.21909606588E+02 -0.35059463808E+02  0.45045682054E+02  0.00000000000E+00 0.  1.
         11    1    4    4    0    0 -0.74046769748E+01 -0.85132031008E+01  0.16068153595E+02  0.19633884699E+02  0.51100000000E-03 0. -1.
        -11    1    4    4    0    0  0.95031991544E+00 -0.22525732055E+00  0.16278332614E+01  0.18983387975E+01  0.51100000000E-03 0.  1.
         12    1    4    4    0    0 -0.11431855741E+02 -0.13171146167E+02  0.17363476951E+02  0.24610094450E+02  0.00000000000E+00 0. -1.
</event>
<event>
 8    1  0.2962813E-009  0.9118800E+02  0.7816164E-02  0.1184000E+00
        -11   -1    0    0    0    0  0.00000000000E+00  0.00000000000E+00  0.45593999997E+02  0.45594000000E+02  0.51100000000E-03 0. -1.
         11   -1    0    0    0    0 -0.00000000000E+00 -0.00000000000E+00 -0.45593999997E+02  0.45594000000E+02  0.51100000000E-03 0.  1.
         23    2    1    2    0    0  0.00000000000E+00  0.00000000000E+00  0.00000000000E+00  0.91188000000E+02  0.91188000000E+02 0.  0.
    9900012    2    3    3    0    0 -0.32980304915E+02  0.20709242132E+02 -0.22639357845E+02  0.46142314906E+02  0.99999739630E+01 0.  0.
         12    1    3    3    0    0  0.32980304915E+02 -0.20709242132E+02  0.22639357845E+02  0.45045685094E+02  0.00000000000E+00 0. -1.
         11    1    4    4    0    0 -0.19848365909E+02  0.82961045906E+01 -0.11287239003E+02  0.24293718225E+02  0.51100000000E-03 0. -1.
        -11    1    4    4    0    0 -0.27094907388E+01  0.52424543119E+01 -0.25041634529E+01  0.64105773637E+01  0.51100000000E-03 0.  1.
         12    1    4    4    0    0 -0.10422448268E+02  0.71706832291E+01 -0.88479553894E+01  0.15438019317E+02  0.00000000000E+00 0. -1.
</event>
<event>
 8    1  0.2962813E-009  0.9118800E+02  0.7816164E-02  0.1184000E+00
        -11   -1    0    0    0    0  0.00000000000E+00  0.00000000000E+00  0.45593999997E+02  0.45594000000E+02  0.51100000000E-03 0. -1.
         11   -1    0    0    0    0 -0.00000000000E+00 -0.00000000000E+00 -0.45593999997E+02  0.45594000000E+02  0.51100000000E-03 0.  1.
         23    2    1    2    0    0  0.17763568394E-14  0.00000000000E+00  0.00000000000E+00  0.91188000000E+02  0.91188000000E+02 0.  0.
    9900012    2    3    3    0    0 -0.15782314385E+02 -0.17925603766E+02  0.38192994026E+02  0.46142317516E+02  0.99999977667E+01 0.  0.
        -12    1    3    3    0    0  0.15782314385E+02  0.17925603766E+02 -0.38192994026E+02  0.45045682484E+02  0.00000000000E+00 0.  1.
         11    1    4    4    0    0 -0.30061078448E+01 -0.27600465574E+01  0.13939487092E+02  0.14524594384E+02  0.51100000000E-03 0. -1.
        -11    1    4    4    0    0 -0.48021236049E+01 -0.43604367582E+01  0.52320486697E+01  0.83335546667E+01  0.51100000000E-03 0.  1.
         12    1    4    4    0    0 -0.79740829352E+01 -0.10805120451E+02  0.19021458265E+02  0.23284168466E+02  0.00000000000E+00 0. -1.
</event>
<event>
 8    1  0.2962813E-009  0.9118800E+02  0.7816164E-02  0.1184000E+00
        -11   -1    0    0    0    0  0.00000000000E+00  0.00000000000E+00  0.45593999997E+02  0.45594000000E+02  0.51100000000E-03 0. -1.
         11   -1    0    0    0    0 -0.00000000000E+00 -0.00000000000E+00 -0.45593999997E+02  0.45594000000E+02  0.51100000000E-03 0.  1.
         23    2    1    2    0    0 -0.11102230246E-15  0.00000000000E+00  0.00000000000E+00  0.91188000000E+02  0.91188000000E+02 0.  0.
    9900012    2    3    3    0    0 -0.75733008416E+00  0.90813378020E+01  0.44114274050E+02  0.46142318519E+02  0.10000006912E+02 0.  0.
        -12    1    3    3    0    0  0.75733008416E+00 -0.90813378020E+01 -0.44114274050E+02  0.45045681481E+02  0.00000000000E+00 0.  1.
         11    1    4    4    0    0  0.22994173996E+01  0.12040009103E+01  0.14249994400E+02  0.14484449566E+02  0.51100000000E-03 0. -1.
        -11    1    4    4    0    0 -0.19249956013E+01  0.83725539180E+00  0.20133306386E+01  0.29086259948E+01  0.51100000000E-03 0.  1.
        -12    1    4    4    0    0 -0.11317518825E+01  0.70400815000E+01  0.27850949011E+02  0.28749242958E+02  0.00000000000E+00 0.  1.
</event>
<event>
 8    1  0.2962813E-009  0.9118800E+02  0.7816164E-02  0.1184000E+00
        -11   -1    0    0    0    0  0.00000000000E+00  0.00000000000E+00  0.45593999997E+02  0.45594000000E+02  0.51100000000E-03 0. -1.
         11   -1    0    0    0    0 -0.00000000000E+00 -0.00000000000E+00 -0.45593999997E+02  0.45594000000E+02  0.51100000000E-03 0.  1.
         23    2    1    2    0    0 -0.35527136788E-14  0.00000000000E+00  0.00000000000E+00  0.91188000000E+02  0.91188000000E+02 0.  0.
    9900012    2    3    3    0    0  0.18468797052E+02 -0.16559995341E+02 -0.37600313305E+02  0.46142317955E+02  0.10000001771E+02 0.  0.
         12    1    3    3    0    0 -0.18468797052E+02  0.16559995341E+02  0.37600313305E+02  0.45045682045E+02  0.00000000000E+00 0. -1.
         11    1    4    4    0    0  0.84254819432E+01 -0.67703267307E+01 -0.13959407794E+02  0.17654776584E+02  0.51100000000E-03 0. -1.
        -11    1    4    4    0    0  0.35717250437E+01 -0.19994823893E+01 -0.13691891854E+02  0.14290663120E+02  0.51100000000E-03 0.  1.
        -12    1    4    4    0    0  0.64715900652E+01 -0.77901862212E+01 -0.99490136571E+01  0.14196878251E+02  0.00000000000E+00 0.  1.
</event>
<event>
 8    1  0.2962813E-009  0.9118800E+02  0.7816164E-02  0.1184000E+00
        -11   -1    0    0    0    0  0.00000000000E+00  0.00000000000E+00  0.45593999997E+02  0.45594000000E+02  0.51100000000E-03 0. -1.
         11   -1    0    0    0    0 -0.00000000000E+00 -0.00000000000E+00 -0.45593999997E+02  0.45594000000E+02  0.51100000000E-03 0.  1.
         23    2    1    2    0    0  0.35527136788E-14  0.00000000000E+00  0.00000000000E+00  0.91188000000E+02  0.91188000000E+02 0.  0.
    9900012    2    3    3    0    0 -0.21566240808E+02 -0.14079045652E+02 -0.36956613116E+02  0.46142317387E+02  0.99999965889E+01 0.  0.
         12    1    3    3    0    0  0.21566240808E+02  0.14079045652E+02  0.36956613116E+02  0.45045682613E+02  0.00000000000E+00 0. -1.
         11    1    4    4    0    0 -0.74339876571E+01 -0.19749607360E+01 -0.17666000832E+02  0.19267906686E+02  0.51100000000E-03 0. -1.
        -11    1    4    4    0    0 -0.56616783286E+01 -0.36252523980E+01 -0.71719685486E+01  0.98302690487E+01  0.51100000000E-03 0.  1.
         12    1    4    4    0    0 -0.84705748219E+01 -0.84788325181E+01 -0.12118643736E+02  0.17044141653E+02  0.00000000000E+00 0. -1.
</event>
<event>
 8    1  0.2962813E-009  0.9118800E+02  0.7816164E-02  0.1184000E+00
        -11   -1    0    0    0    0  0.00000000000E+00  0.00000000000E+00  0.45593999997E+02  0.45594000000E+02  0.51100000000E-03 0. -1.
         11   -1    0    0    0    0 -0.00000000000E+00 -0.00000000000E+00 -0.45593999997E+02  0.45594000000E+02  0.51100000000E-03 0.  1.
         23    2    1    2    0    0  0.88817841970E-15 -0.17763568394E-14  0.00000000000E+00  0.91188000000E+02  0.91188000000E+02 0.  0.
    9900012    2    3    3    0    0  0.43437122568E+01  0.14603334546E+02  0.42390897667E+02  0.46142318508E+02  0.10000006813E+02 0.  0.
        -12    1    3    3    0    0 -0.43437122568E+01 -0.14603334546E+02 -0.42390897667E+02  0.45045681492E+02  0.00000000000E+00 0.  1.
         11    1    4    4    0    0  0.40930584348E+01  0.35801898897E+01  0.23237678271E+02  0.23865468331E+02  0.51100000000E-03 0. -1.
        -11    1    4    4    0    0 -0.26025864310E+00  0.10824735250E+02  0.18232406619E+02  0.21205265365E+02  0.51100000000E-03 0.  1.
        -12    1    4    4    0    0  0.51091246510E+00  0.19840940669E+00  0.92081277711E+00  0.10715848124E+01  0.00000000000E+00 0.  1.
</event>
<event>
 8    1  0.2962813E-009  0.9118800E+02  0.7816164E-02  0.1184000E+00
        -11   -1    0    0    0    0  0.00000000000E+00  0.00000000000E+00  0.45593999997E+02  0.45594000000E+02  0.51100000000E-03 0. -1.
         11   -1    0    0    0    0 -0.00000000000E+00 -0.00000000000E+00 -0.45593999997E+02  0.45594000000E+02  0.51100000000E-03 0.  1.
         23    2    1    2    0    0  0.00000000000E+00  0.17763568394E-14  0.00000000000E+00  0.91188000000E+02  0.91188000000E+02 0.  0.
    9900012    2    3    3    0    0 -0.79442658846E+01  0.11501900592E+02 -0.42821820782E+02  0.46142318600E+02  0.10000007654E+02 0.  0.
         12    1    3    3    0    0  0.79442658846E+01 -0.11501900592E+02  0.42821820782E+02  0.45045681400E+02  0.00000000000E+00 0. -1.
         11    1    4    4    0    0 -0.30599992999E+01  0.24133876540E+01 -0.29797106645E+01  0.49057834837E+01  0.51100000000E-03 0. -1.
        -11    1    4    4    0    0 -0.48842372180E+01  0.80886569923E+01 -0.33157342985E+02  0.34477406214E+02  0.51100000000E-03 0.  1.
        -12    1    4    4    0    0 -0.29366647880E-04  0.99985594576E+00 -0.66847671321E+01  0.67591289027E+01  0.00000000000E+00 0.  1.
</event>
<event>
 8    1  0.2962813E-009  0.9118800E+02  0.7816164E-02  0.1184000E+00
        -11   -1    0    0    0    0  0.00000000000E+00  0.00000000000E+00  0.45593999997E+02  0.45594000000E+02  0.51100000000E-03 0.  1.
         11   -1    0    0    0    0 -0.00000000000E+00 -0.00000000000E+00 -0.45593999997E+02  0.45594000000E+02  0.51100000000E-03 0. -1.
         23    2    1    2    0    0  0.35527136788E-14  0.35527136788E-14  0.00000000000E+00  0.91188000000E+02  0.91188000000E+02 0.  0.
    9900012    2    3    3    0    0 -0.29472955379E+02  0.23654039328E+02 -0.24514173014E+02  0.46142319255E+02  0.10000013620E+02 0.  0.
         12    1    3    3    0    0  0.29472955379E+02 -0.23654039328E+02  0.24514173014E+02  0.45045680745E+02  0.00000000000E+00 0. -1.
         11    1    4    4    0    0 -0.70874744365E+01  0.59401693919E+01 -0.10968811160E+02  0.14346871604E+02  0.51100000000E-03 0. -1.
        -11    1    4    4    0    0 -0.20172872500E+02  0.16192386639E+02 -0.13333394173E+02  0.29101848230E+02  0.51100000000E-03 0.  1.
         12    1    4    4    0    0 -0.22126084424E+01  0.15214832965E+01 -0.21196768003E+00  0.26935994205E+01  0.00000000000E+00 0. -1.
</event>
<event>
 8    1  0.2962813E-009  0.9118800E+02  0.7816164E-02  0.1184000E+00
        -11   -1    0    0    0    0  0.00000000000E+00  0.00000000000E+00  0.45593999997E+02  0.45594000000E+02  0.51100000000E-03 0. -1.
         11   -1    0    0    0    0 -0.00000000000E+00 -0.00000000000E+00 -0.45593999997E+02  0.45594000000E+02  0.51100000000E-03 0.  1.
         23    2    1    2    0    0  0.00000000000E+00  0.00000000000E+00  0.00000000000E+00  0.91188000000E+02  0.91188000000E+02 0.  0.
    9900012    2    3    3    0    0  0.11377158495E+02  0.36726131957E+01  0.43430254125E+02  0.46142303242E+02  0.99998675982E+01 0.  0.
        -12    1    3    3    0    0 -0.11377158495E+02 -0.36726131957E+01 -0.43430254125E+02  0.45045696758E+02  0.00000000000E+00 0.  1.
         11    1    4    4    0    0  0.32573347559E+01  0.19260242618E+01  0.30122496585E+02  0.30359258883E+02  0.51100000000E-03 0. -1.
        -11    1    4    4    0    0  0.37845132154E+01  0.14809542869E+01  0.53673821345E+01  0.67323515295E+01  0.51100000000E-03 0.  1.
         12    1    4    4    0    0  0.43353105239E+01  0.26563464698E+00  0.79403754055E+01  0.90506928290E+01  0.00000000000E+00 0. -1.
</event>
<event>
 8    1  0.2962813E-009  0.9118800E+02  0.7816164E-02  0.1184000E+00
        -11   -1    0    0    0    0  0.00000000000E+00  0.00000000000E+00  0.45593999997E+02  0.45594000000E+02  0.51100000000E-03 0. -1.
         11   -1    0    0    0    0 -0.00000000000E+00 -0.00000000000E+00 -0.45593999997E+02  0.45594000000E+02  0.51100000000E-03 0.  1.
         23    2    1    2    0    0  0.00000000000E+00 -0.17763568394E-14  0.00000000000E+00  0.91188000000E+02  0.91188000000E+02 0.  0.
    9900012    2    3    3    0    0 -0.35077619092E+02  0.11028672435E+02 -0.26020036784E+02  0.46142319951E+02  0.10000019969E+02 0.  0.
         12    1    3    3    0    0  0.35077619092E+02 -0.11028672435E+02  0.26020036784E+02  0.45045680049E+02  0.00000000000E+00 0. -1.
         11    1    4    4    0    0 -0.45889890330E+00  0.11533675593E+01  0.15527578087E+00  0.12509819182E+01  0.51100000000E-03 0. -1.
        -11    1    4    4    0    0 -0.33807518904E+02  0.94553223731E+01 -0.23979643215E+02  0.42513230230E+02  0.51100000000E-03 0.  1.
         12    1    4    4    0    0 -0.81120128461E+00  0.41998250267E+00 -0.21956693500E+01  0.23781078027E+01  0.00000000000E+00 0. -1.
</event>
<event>
 8    1  0.2962813E-009  0.9118800E+02  0.7816164E-02  0.1184000E+00
        -11   -1    0    0    0    0  0.00000000000E+00  0.00000000000E+00  0.45593999997E+02  0.45594000000E+02  0.51100000000E-03 0. -1.
         11   -1    0    0    0    0 -0.00000000000E+00 -0.00000000000E+00 -0.45593999997E+02  0.45594000000E+02  0.51100000000E-03 0.  1.
         23    2    1    2    0    0  0.35527136788E-14  0.00000000000E+00  0.00000000000E+00  0.91188000000E+02  0.91188000000E+02 0.  0.
    9900012    2    3    3    0    0 -0.17227167939E+02 -0.27659264966E+02 -0.31101500052E+02  0.46142316975E+02  0.99999928351E+01 0.  0.
         12    1    3    3    0    0  0.17227167939E+02  0.27659264966E+02  0.31101500052E+02  0.45045683025E+02  0.00000000000E+00 0. -1.
         11    1    4    4    0    0 -0.64340450438E+00 -0.12726786932E+01 -0.51810700556E+01  0.53737480025E+01  0.51100000000E-03 0. -1.
        -11    1    4    4    0    0 -0.14159952778E+02 -0.19701265349E+02 -0.21325774243E+02  0.32302209930E+02  0.51100000000E-03 0.  1.
         12    1    4    4    0    0 -0.24238106573E+01 -0.66853209234E+01 -0.45946557533E+01  0.84663590429E+01  0.00000000000E+00 0. -1.
</event>
<event>
 8    1  0.2962813E-009  0.9118800E+02  0.7816164E-02  0.1184000E+00
        -11   -1    0    0    0    0  0.00000000000E+00  0.00000000000E+00  0.45593999997E+02  0.45594000000E+02  0.51100000000E-03 0. -1.
         11   -1    0    0    0    0 -0.00000000000E+00 -0.00000000000E+00 -0.45593999997E+02  0.45594000000E+02  0.51100000000E-03 0.  1.
         23    2    1    2    0    0 -0.35527136788E-14  0.71054273576E-14  0.10658141036E-13  0.91188000000E+02  0.91188000000E+02 0.  0.
    9900012    2    3    3    0    0  0.18345838086E+02 -0.32368213472E+02 -0.25393748503E+02  0.46142317838E+02  0.10000000697E+02 0.  0.
         12    1    3    3    0    0 -0.18345838086E+02  0.32368213472E+02  0.25393748503E+02  0.45045682162E+02  0.00000000000E+00 0. -1.
         11    1    4    4    0    0  0.19992466007E+01 -0.17507208321E+01 -0.47001649166E+01  0.53994037547E+01  0.51100000000E-03 0. -1.
        -11    1    4    4    0    0  0.13610971109E+02 -0.27445234742E+02 -0.16416784858E+02  0.34756442136E+02  0.51100000000E-03 0.  1.
        -12    1    4    4    0    0  0.27356203759E+01 -0.31722578974E+01 -0.42767987285E+01  0.59864719470E+01  0.00000000000E+00 0.  1.
</event>
<event>
 8    1  0.2962813E-009  0.9118800E+02  0.7816164E-02  0.1184000E+00
        -11   -1    0    0    0    0  0.00000000000E+00  0.00000000000E+00  0.45593999997E+02  0.45594000000E+02  0.51100000000E-03 0. -1.
         11   -1    0    0    0    0 -0.00000000000E+00 -0.00000000000E+00 -0.45593999997E+02  0.45594000000E+02  0.51100000000E-03 0.  1.
         23    2    1    2    0    0 -0.35527136788E-14 -0.88817841970E-15 -0.71054273576E-14  0.91188000000E+02  0.91188000000E+02 0.  0.
    9900012    2    3    3    0    0 -0.16948235800E+02 -0.64440254996E+01  0.41235243976E+02  0.46142317552E+02  0.99999980969E+01 0.  0.
        -12    1    3    3    0    0  0.16948235800E+02  0.64440254996E+01 -0.41235243976E+02  0.45045682448E+02  0.00000000000E+00 0.  1.
         11    1    4    4    0    0 -0.25267758758E+01 -0.20879233485E+01  0.21210812890E+01  0.39042292878E+01  0.51100000000E-03 0. -1.
        -11    1    4    4    0    0 -0.73806324451E+01 -0.23027935813E+01  0.26920301925E+02  0.28008556720E+02  0.51100000000E-03 0.  1.
         12    1    4    4    0    0 -0.70408274796E+01 -0.20533085698E+01  0.12193860762E+02  0.14229531544E+02  0.00000000000E+00 0. -1.
</event>
<event>
 8    1  0.2962813E-009  0.9118800E+02  0.7816164E-02  0.1184000E+00
        -11   -1    0    0    0    0  0.00000000000E+00  0.00000000000E+00  0.45593999997E+02  0.45594000000E+02  0.51100000000E-03 0. -1.
         11   -1    0    0    0    0 -0.00000000000E+00 -0.00000000000E+00 -0.45593999997E+02  0.45594000000E+02  0.51100000000E-03 0.  1.
         23    2    1    2    0    0  0.00000000000E+00  0.00000000000E+00 -0.17763568394E-14  0.91188000000E+02  0.91188000000E+02 0.  0.
    9900012    2    3    3    0    0  0.17197006482E+02  0.40647366950E+02  0.90093272497E+01  0.46142318193E+02  0.10000003941E+02 0.  0.
        -12    1    3    3    0    0 -0.17197006482E+02 -0.40647366950E+02 -0.90093272497E+01  0.45045681807E+02  0.00000000000E+00 0.  1.
         11    1    4    4    0    0  0.11796673169E+02  0.30416602398E+02  0.38488776910E+01  0.32850343363E+02  0.51100000000E-03 0. -1.
        -11    1    4    4    0    0  0.33691035728E+01  0.24440600242E+01  0.22723279407E+01  0.47421264025E+01  0.51100000000E-03 0.  1.
        -12    1    4    4    0    0  0.20312297407E+01  0.77867045275E+01  0.28881216180E+01  0.85498484278E+01  0.00000000000E+00 0.  1.
</event>
<event>
 8    1  0.2962813E-009  0.9118800E+02  0.7816164E-02  0.1184000E+00
        -11   -1    0    0    0    0  0.00000000000E+00  0.00000000000E+00  0.45593999997E+02  0.45594000000E+02  0.51100000000E-03 0. -1.
         11   -1    0    0    0    0 -0.00000000000E+00 -0.00000000000E+00 -0.45593999997E+02  0.45594000000E+02  0.51100000000E-03 0.  1.
         23    2    1    2    0    0 -0.88817841970E-15 -0.17763568394E-14 -0.71054273576E-14  0.91188000000E+02  0.91188000000E+02 0.  0.
    9900012    2    3    3    0    0  0.53161303014E+01  0.11421954347E+02  0.43248019832E+02  0.46142317611E+02  0.99999986321E+01 0.  0.
        -12    1    3    3    0    0 -0.53161303014E+01 -0.11421954347E+02 -0.43248019832E+02  0.45045682389E+02  0.00000000000E+00 0.  1.
         11    1    4    4    0    0  0.54044891443E+01  0.12512475462E+02  0.31256465657E+02  0.34098932398E+02  0.51100000000E-03 0. -1.
        -11    1    4    4    0    0 -0.14235103186E+00 -0.51953200160E+00  0.63129875014E+01  0.63359284064E+01  0.51100000000E-03 0.  1.
         12    1    4    4    0    0  0.53992188906E-01 -0.57098911370E+00  0.56785666740E+01  0.57074568063E+01  0.00000000000E+00 0. -1.
</event>
<event>
 8    1  0.2962813E-009  0.9118800E+02  0.7816164E-02  0.1184000E+00
        -11   -1    0    0    0    0  0.00000000000E+00  0.00000000000E+00  0.45593999997E+02  0.45594000000E+02  0.51100000000E-03 0. -1.
         11   -1    0    0    0    0 -0.00000000000E+00 -0.00000000000E+00 -0.45593999997E+02  0.45594000000E+02  0.51100000000E-03 0.  1.
         23    2    1    2    0    0 -0.88817841970E-15 -0.17763568394E-14 -0.71054273576E-14  0.91188000000E+02  0.91188000000E+02 0.  0.
    9900012    2    3    3    0    0  0.76912934146E+01  0.15844928274E+02  0.41459567127E+02  0.46142318156E+02  0.10000003604E+02 0.  0.
        -12    1    3    3    0    0 -0.76912934146E+01 -0.15844928274E+02 -0.41459567127E+02  0.45045681844E+02  0.00000000000E+00 0.  1.
         11    1    4    4    0    0 -0.88987242625E+00  0.28584437589E+01  0.49852873829E+01  0.58151237484E+01  0.51100000000E-03 0. -1.
        -11    1    4    4    0    0  0.97588748806E+01  0.99671698391E+01  0.28993841235E+02  0.32174880627E+02  0.51100000000E-03 0.  1.
        -12    1    4    4    0    0 -0.11777090397E+01  0.30193146759E+01  0.74804385093E+01  0.81523137811E+01  0.00000000000E+00 0.  1.
</event>
<event>
 8    1  0.2962813E-009  0.9118800E+02  0.7816164E-02  0.1184000E+00
        -11   -1    0    0    0    0  0.00000000000E+00  0.00000000000E+00  0.45593999997E+02  0.45594000000E+02  0.51100000000E-03 0. -1.
         11   -1    0    0    0    0 -0.00000000000E+00 -0.00000000000E+00 -0.45593999997E+02  0.45594000000E+02  0.51100000000E-03 0.  1.
         23    2    1    2    0    0  0.00000000000E+00  0.00000000000E+00  0.00000000000E+00  0.91188000000E+02  0.91188000000E+02 0.  0.
    9900012    2    3    3    0    0 -0.22464517817E+01 -0.16168503467E+02  0.41983882881E+02  0.46142317946E+02  0.10000001685E+02 0.  0.
        -12    1    3    3    0    0  0.22464517817E+01  0.16168503467E+02 -0.41983882881E+02  0.45045682054E+02  0.00000000000E+00 0.  1.
         11    1    4    4    0    0  0.44238315670E+00 -0.58434906731E+01  0.13670469823E+02  0.14873595111E+02  0.51100000000E-03 0. -1.
        -11    1    4    4    0    0 -0.39474952593E+01 -0.56324240605E+01  0.88520202328E+01  0.11210048264E+02  0.51100000000E-03 0.  1.
        -12    1    4    4    0    0  0.12586603209E+01 -0.46925887337E+01  0.19461392825E+02  0.20058674571E+02  0.00000000000E+00 0.  1.
</event>
<event>
 8    1  0.2962813E-009  0.9118800E+02  0.7816164E-02  0.1184000E+00
        -11   -1    0    0    0    0  0.00000000000E+00  0.00000000000E+00  0.45593999997E+02  0.45594000000E+02  0.51100000000E-03 0. -1.
         11   -1    0    0    0    0 -0.00000000000E+00 -0.00000000000E+00 -0.45593999997E+02  0.45594000000E+02  0.51100000000E-03 0.  1.
         23    2    1    2    0    0 -0.35527136788E-14  0.44408920985E-15 -0.71054273576E-14  0.91188000000E+02  0.91188000000E+02 0.  0.
    9900012    2    3    3    0    0  0.22071801970E+02 -0.20325765657E+01  0.39215017442E+02  0.46142318713E+02  0.10000008678E+02 0.  0.
        -12    1    3    3    0    0 -0.22071801970E+02  0.20325765657E+01 -0.39215017442E+02  0.45045681287E+02  0.00000000000E+00 0.  1.
         11    1    4    4    0    0  0.11701127067E+02 -0.40197568592E+01  0.23917528517E+02  0.26928107815E+02  0.51100000000E-03 0. -1.
        -11    1    4    4    0    0  0.53656198954E+01  0.26824419620E+01  0.52674358504E+01  0.79831856073E+01  0.51100000000E-03 0.  1.
         12    1    4    4    0    0  0.50050550069E+01 -0.69526166863E+00  0.10030053074E+02  0.11231025291E+02  0.00000000000E+00 0. -1.
</event>
<event>
 8    1  0.2962813E-009  0.9118800E+02  0.7816164E-02  0.1184000E+00
        -11   -1    0    0    0    0  0.00000000000E+00  0.00000000000E+00  0.45593999997E+02  0.45594000000E+02  0.51100000000E-03 0. -1.
         11   -1    0    0    0    0 -0.00000000000E+00 -0.00000000000E+00 -0.45593999997E+02  0.45594000000E+02  0.51100000000E-03 0.  1.
         23    2    1    2    0    0  0.00000000000E+00  0.00000000000E+00  0.71054273576E-14  0.91188000000E+02  0.91188000000E+02 0.  0.
    9900012    2    3    3    0    0 -0.15602980896E+01  0.98942199344E+01 -0.43917914252E+02  0.46142319735E+02  0.10000018001E+02 0.  0.
         12    1    3    3    0    0  0.15602980896E+01 -0.98942199344E+01  0.43917914252E+02  0.45045680265E+02  0.00000000000E+00 0. -1.
         11    1    4    4    0    0 -0.36672108452E+01  0.30155367830E+01 -0.21666743251E+02  0.22180839949E+02  0.51100000000E-03 0. -1.
        -11    1    4    4    0    0  0.27018569377E+01  0.67162998781E+01 -0.14707667414E+02  0.16392809277E+02  0.51100000000E-03 0.  1.
        -12    1    4    4    0    0 -0.59494418208E+00  0.16238327341E+00 -0.75435035874E+01  0.75686705094E+01  0.00000000000E+00 0.  1.
</event>
<event>
 8    1  0.2962813E-009  0.9118800E+02  0.7816164E-02  0.1184000E+00
        -11   -1    0    0    0    0  0.00000000000E+00  0.00000000000E+00  0.45593999997E+02  0.45594000000E+02  0.51100000000E-03 0. -1.
         11   -1    0    0    0    0 -0.00000000000E+00 -0.00000000000E+00 -0.45593999997E+02  0.45594000000E+02  0.51100000000E-03 0.  1.
         23    2    1    2    0    0 -0.17763568394E-14  0.00000000000E+00  0.00000000000E+00  0.91188000000E+02  0.91188000000E+02 0.  0.
    9900012    2    3    3    0    0  0.12555889438E+02 -0.90857690443E+01  0.42295531264E+02  0.46142317370E+02  0.99999964310E+01 0.  0.
        -12    1    3    3    0    0 -0.12555889438E+02  0.90857690443E+01 -0.42295531264E+02  0.45045682630E+02  0.00000000000E+00 0.  1.
         11    1    4    4    0    0  0.15557319683E+01 -0.60067751875E+01  0.13651290176E+02  0.14995311729E+02  0.51100000000E-03 0. -1.
        -11    1    4    4    0    0  0.27245265618E+01  0.28714365954E+00  0.33873106977E+01  0.43565319339E+01  0.51100000000E-03 0.  1.
         12    1    4    4    0    0  0.82756309075E+01 -0.33661375163E+01  0.25256930390E+02  0.26790473707E+02  0.00000000000E+00 0. -1.
</event>
<event>
 8    1  0.2962813E-009  0.9118800E+02  0.7816164E-02  0.1184000E+00
        -11   -1    0    0    0    0  0.00000000000E+00  0.00000000000E+00  0.45593999997E+02  0.45594000000E+02  0.51100000000E-03 0.  1.
         11   -1    0    0    0    0 -0.00000000000E+00 -0.00000000000E+00 -0.45593999997E+02  0.45594000000E+02  0.51100000000E-03 0. -1.
         23    2    1    2    0    0  0.71054273576E-14 -0.35527136788E-14  0.44408920985E-15  0.91188000000E+02  0.91188000000E+02 0.  0.
    9900012    2    3    3    0    0  0.35455705985E+02 -0.27754918905E+02  0.12926075299E+01  0.46142318247E+02  0.10000004433E+02 0.  0.
        -12    1    3    3    0    0 -0.35455705985E+02  0.27754918905E+02 -0.12926075299E+01  0.45045681753E+02  0.00000000000E+00 0.  1.
         11    1    4    4    0    0  0.23134327898E+02 -0.12255747230E+02  0.21041128496E+01  0.26264572310E+02  0.51100000000E-03 0. -1.
        -11    1    4    4    0    0  0.79550581109E+01 -0.10391262890E+02 -0.12337421783E+01  0.13144710496E+02  0.51100000000E-03 0.  1.
         12    1    4    4    0    0  0.43663199758E+01 -0.51079087856E+01  0.42223685862E+00  0.67330354416E+01  0.00000000000E+00 0. -1.
</event>
<event>
 8    1  0.2962813E-009  0.9118800E+02  0.7816164E-02  0.1184000E+00
        -11   -1    0    0    0    0  0.00000000000E+00  0.00000000000E+00  0.45593999997E+02  0.45594000000E+02  0.51100000000E-03 0.  1.
         11   -1    0    0    0    0 -0.00000000000E+00 -0.00000000000E+00 -0.45593999997E+02  0.45594000000E+02  0.51100000000E-03 0. -1.
         23    2    1    2    0    0  0.00000000000E+00 -0.71054273576E-14  0.00000000000E+00  0.91188000000E+02  0.91188000000E+02 0.  0.
    9900012    2    3    3    0    0 -0.20609856807E+02  0.37753489152E+02  0.13379891364E+02  0.46142316149E+02  0.99999852967E+01 0.  0.
        -12    1    3    3    0    0  0.20609856807E+02 -0.37753489152E+02 -0.13379891364E+02  0.45045683851E+02  0.00000000000E+00 0.  1.
         11    1    4    4    0    0 -0.10187558841E+02  0.15751493591E+02  0.63623649105E+01  0.19808472758E+02  0.51100000000E-03 0. -1.
        -11    1    4    4    0    0 -0.88305272456E+01  0.11729304739E+02  0.20899034606E+01  0.14829784147E+02  0.51100000000E-03 0.  1.
        -12    1    4    4    0    0 -0.15917707208E+01  0.10272690821E+02  0.49276229924E+01  0.11504059244E+02  0.00000000000E+00 0.  1.
</event>
<event>
 8    1  0.2962813E-009  0.9118800E+02  0.7816164E-02  0.1184000E+00
        -11   -1    0    0    0    0  0.00000000000E+00  0.00000000000E+00  0.45593999997E+02  0.45594000000E+02  0.51100000000E-03 0. -1.
         11   -1    0    0    0    0 -0.00000000000E+00 -0.00000000000E+00 -0.45593999997E+02  0.45594000000E+02  0.51100000000E-03 0.  1.
         23    2    1    2    0    0  0.22204460493E-15 -0.35527136788E-14  0.00000000000E+00  0.91188000000E+02  0.91188000000E+02 0.  0.
    9900012    2    3    3    0    0 -0.12604909739E+01  0.18591831493E+02 -0.41010589607E+02  0.46142317680E+02  0.99999992572E+01 0.  0.
         12    1    3    3    0    0  0.12604909739E+01 -0.18591831493E+02  0.41010589607E+02  0.45045682320E+02  0.00000000000E+00 0. -1.
         11    1    4    4    0    0 -0.42050928801E+00 -0.10372135154E+00  0.35358838497E+00  0.55911643437E+00  0.51100000000E-03 0. -1.
        -11    1    4    4    0    0 -0.17297506733E+01  0.14813807380E+02 -0.35378805588E+02  0.38394020518E+02  0.51100000000E-03 0.  1.
         12    1    4    4    0    0  0.88976898741E+00  0.38817454647E+01 -0.59853724044E+01  0.71891807268E+01  0.00000000000E+00 0. -1.
</event>
<event>
 8    1  0.2962813E-009  0.9118800E+02  0.7816164E-02  0.1184000E+00
        -11   -1    0    0    0    0  0.00000000000E+00  0.00000000000E+00  0.45593999997E+02  0.45594000000E+02  0.51100000000E-03 0. -1.
         11   -1    0    0    0    0 -0.00000000000E+00 -0.00000000000E+00 -0.45593999997E+02  0.45594000000E+02  0.51100000000E-03 0.  1.
         23    2    1    2    0    0 -0.71054273576E-14  0.00000000000E+00  0.00000000000E+00  0.91188000000E+02  0.91188000000E+02 0.  0.
    9900012    2    3    3    0    0 -0.37200358112E+02  0.24335539897E+02 -0.72819993722E+01  0.46142326949E+02  0.10000083780E+02 0.  0.
         12    1    3    3    0    0  0.37200358112E+02 -0.24335539897E+02  0.72819993722E+01  0.45045673051E+02  0.00000000000E+00 0. -1.
         11    1    4    4    0    0 -0.70744174997E+01  0.22324067845E+01 -0.20439446821E+01  0.76947211214E+01  0.51100000000E-03 0. -1.
        -11    1    4    4    0    0 -0.15334153062E+02  0.13855718827E+02 -0.59207093174E+01  0.21498185817E+02  0.51100000000E-03 0.  1.
        -12    1    4    4    0    0 -0.14791787551E+02  0.82474142862E+01  0.68265462733E+00  0.16949420011E+02  0.00000000000E+00 0.  1.
</event>
<event>
 8    1  0.2962813E-009  0.9118800E+02  0.7816164E-02  0.1184000E+00
        -11   -1    0    0    0    0  0.00000000000E+00  0.00000000000E+00  0.45593999997E+02  0.45594000000E+02  0.51100000000E-03 0. -1.
         11   -1    0    0    0    0 -0.00000000000E+00 -0.00000000000E+00 -0.45593999997E+02  0.45594000000E+02  0.51100000000E-03 0.  1.
         23    2    1    2    0    0  0.00000000000E+00  0.00000000000E+00  0.00000000000E+00  0.91188000000E+02  0.91188000000E+02 0.  0.
    9900012    2    3    3    0    0 -0.10712689965E+01 -0.41752990591E+02 -0.16871680804E+02  0.46142318146E+02  0.10000003511E+02 0.  0.
         12    1    3    3    0    0  0.10712689965E+01  0.41752990591E+02  0.16871680804E+02  0.45045681854E+02  0.00000000000E+00 0. -1.
         11    1    4    4    0    0  0.32635319091E+01 -0.15659964696E+02 -0.59857233707E+01  0.17079637564E+02  0.51100000000E-03 0. -1.
        -11    1    4    4    0    0 -0.35037924303E+01 -0.11980665075E+02 -0.73675777263E+01  0.14494623101E+02  0.51100000000E-03 0.  1.
        -12    1    4    4    0    0 -0.83100847534E+00 -0.14112360820E+02 -0.35183797072E+01  0.14568057481E+02  0.00000000000E+00 0.  1.
</event>
<event>
 8    1  0.2962813E-009  0.9118800E+02  0.7816164E-02  0.1184000E+00
        -11   -1    0    0    0    0  0.00000000000E+00  0.00000000000E+00  0.45593999997E+02  0.45594000000E+02  0.51100000000E-03 0. -1.
         11   -1    0    0    0    0 -0.00000000000E+00 -0.00000000000E+00 -0.45593999997E+02  0.45594000000E+02  0.51100000000E-03 0.  1.
         23    2    1    2    0    0  0.17763568394E-14  0.00000000000E+00  0.00000000000E+00  0.91188000000E+02  0.91188000000E+02 0.  0.
    9900012    2    3    3    0    0  0.84351837354E+01  0.89661781159E+01  0.43330921406E+02  0.46142318470E+02  0.10000006463E+02 0.  0.
        -12    1    3    3    0    0 -0.84351837354E+01 -0.89661781159E+01 -0.43330921406E+02  0.45045681530E+02  0.00000000000E+00 0.  1.
         11    1    4    4    0    0  0.32094969860E+00  0.12199319874E+01  0.17627303005E+02  0.17672381114E+02  0.51100000000E-03 0. -1.
        -11    1    4    4    0    0  0.68939582069E+01  0.36338164544E+01  0.14290077002E+02  0.16276903353E+02  0.51100000000E-03 0.  1.
         12    1    4    4    0    0  0.12202758299E+01  0.41124296741E+01  0.11413541399E+02  0.12193034003E+02  0.00000000000E+00 0. -1.
</event>
<event>
 8    1  0.2962813E-009  0.9118800E+02  0.7816164E-02  0.1184000E+00
        -11   -1    0    0    0    0  0.00000000000E+00  0.00000000000E+00  0.45593999997E+02  0.45594000000E+02  0.51100000000E-03 0. -1.
         11   -1    0    0    0    0 -0.00000000000E+00 -0.00000000000E+00 -0.45593999997E+02  0.45594000000E+02  0.51100000000E-03 0.  1.
         23    2    1    2    0    0  0.35527136788E-14  0.00000000000E+00  0.35527136788E-14  0.91188000000E+02  0.91188000000E+02 0.  0.
    9900012    2    3    3    0    0  0.23943507214E+02  0.25228640599E+02 -0.28624075322E+02  0.46142317274E+02  0.99999955571E+01 0.  0.
         12    1    3    3    0    0 -0.23943507214E+02 -0.25228640599E+02  0.28624075322E+02  0.45045682726E+02  0.00000000000E+00 0. -1.
         11    1    4    4    0    0  0.17810345723E+02  0.14987426480E+02 -0.17203948381E+02  0.28944899506E+02  0.51100000000E-03 0. -1.
        -11    1    4    4    0    0  0.47008880419E+01  0.63468896799E+01 -0.10144099831E+02  0.12856287125E+02  0.51100000000E-03 0.  1.
         12    1    4    4    0    0  0.14322734495E+01  0.38943244396E+01 -0.12760271105E+01  0.43411306432E+01  0.00000000000E+00 0. -1.
</event>
<event>
 8    1  0.2962813E-009  0.9118800E+02  0.7816164E-02  0.1184000E+00
        -11   -1    0    0    0    0  0.00000000000E+00  0.00000000000E+00  0.45593999997E+02  0.45594000000E+02  0.51100000000E-03 0. -1.
         11   -1    0    0    0    0 -0.00000000000E+00 -0.00000000000E+00 -0.45593999997E+02  0.45594000000E+02  0.51100000000E-03 0.  1.
         23    2    1    2    0    0  0.00000000000E+00 -0.35527136788E-14 -0.71054273576E-14  0.91188000000E+02  0.91188000000E+02 0.  0.
    9900012    2    3    3    0    0  0.17774293439E+02  0.16147399257E+02  0.38111015438E+02  0.46142317546E+02  0.99999980392E+01 0.  0.
        -12    1    3    3    0    0 -0.17774293439E+02 -0.16147399257E+02 -0.38111015438E+02  0.45045682454E+02  0.00000000000E+00 0.  1.
         11    1    4    4    0    0  0.67670753475E+01  0.60768171937E+01  0.16212622014E+02  0.18589516637E+02  0.51100000000E-03 0. -1.
        -11    1    4    4    0    0  0.38748892271E+01  0.82247975162E+01  0.14479601697E+02  0.17097395307E+02  0.51100000000E-03 0.  1.
        -12    1    4    4    0    0  0.71323288645E+01  0.18457845474E+01  0.74187917265E+01  0.10455405602E+02  0.00000000000E+00 0.  1.
</event>
<event>
 8    1  0.2962813E-009  0.9118800E+02  0.7816164E-02  0.1184000E+00
        -11   -1    0    0    0    0  0.00000000000E+00  0.00000000000E+00  0.45593999997E+02  0.45594000000E+02  0.51100000000E-03 0. -1.
         11   -1    0    0    0    0 -0.00000000000E+00 -0.00000000000E+00 -0.45593999997E+02  0.45594000000E+02  0.51100000000E-03 0.  1.
         23    2    1    2    0    0  0.00000000000E+00  0.00000000000E+00 -0.35527136788E-14  0.91188000000E+02  0.91188000000E+02 0.  0.
    9900012    2    3    3    0    0 -0.32643147869E+02 -0.80556167403E+01 -0.29977416598E+02  0.46142316858E+02  0.99999917614E+01 0.  0.
         12    1    3    3    0    0  0.32643147869E+02  0.80556167403E+01  0.29977416598E+02  0.45045683142E+02  0.00000000000E+00 0. -1.
         11    1    4    4    0    0 -0.21505567323E+01 -0.20337227574E+01 -0.40516899917E+01  0.50176801973E+01  0.51100000000E-03 0. -1.
        -11    1    4    4    0    0 -0.17169557488E+01  0.85232215634E+00 -0.35361299643E+01  0.40222637267E+01  0.51100000000E-03 0.  1.
        -12    1    4    4    0    0 -0.28775635388E+02 -0.68742161393E+01 -0.22389596642E+02  0.37102372934E+02  0.00000000000E+00 0.  1.
</event>
<event>
 8    1  0.2962813E-009  0.9118800E+02  0.7816164E-02  0.1184000E+00
        -11   -1    0    0    0    0  0.00000000000E+00  0.00000000000E+00  0.45593999997E+02  0.45594000000E+02  0.51100000000E-03 0. -1.
         11   -1    0    0    0    0 -0.00000000000E+00 -0.00000000000E+00 -0.45593999997E+02  0.45594000000E+02  0.51100000000E-03 0.  1.
         23    2    1    2    0    0  0.00000000000E+00 -0.11102230246E-15  0.35527136788E-14  0.91188000000E+02  0.91188000000E+02 0.  0.
    9900012    2    3    3    0    0 -0.31996005133E+02 -0.78261616455E+00 -0.31697896445E+02  0.46142317948E+02  0.10000001701E+02 0.  0.
         12    1    3    3    0    0  0.31996005133E+02  0.78261616455E+00  0.31697896445E+02  0.45045682052E+02  0.00000000000E+00 0. -1.
         11    1    4    4    0    0 -0.17928906260E+02 -0.10678893257E+00 -0.10946905012E+02  0.21006946784E+02  0.51100000000E-03 0. -1.
        -11    1    4    4    0    0 -0.13348810037E+02 -0.38494401049E+00 -0.20050835740E+02  0.24090971866E+02  0.51100000000E-03 0.  1.
        -12    1    4    4    0    0 -0.71828883559E+00 -0.29088322149E+00 -0.70015569322E+00  0.10443992985E+01  0.00000000000E+00 0.  1.
</event>
<event>
 8    1  0.2962813E-009  0.9118800E+02  0.7816164E-02  0.1184000E+00
        -11   -1    0    0    0    0  0.00000000000E+00  0.00000000000E+00  0.45593999997E+02  0.45594000000E+02  0.51100000000E-03 0. -1.
         11   -1    0    0    0    0 -0.00000000000E+00 -0.00000000000E+00 -0.45593999997E+02  0.45594000000E+02  0.51100000000E-03 0.  1.
         23    2    1    2    0    0 -0.71054273576E-14  0.00000000000E+00  0.88817841970E-15  0.91188000000E+02  0.91188000000E+02 0.  0.
    9900012    2    3    3    0    0 -0.42598662017E+02  0.13395971141E+02  0.59173634889E+01  0.46142320528E+02  0.10000025226E+02 0.  0.
         12    1    3    3    0    0  0.42598662017E+02 -0.13395971141E+02 -0.59173634889E+01  0.45045679472E+02  0.00000000000E+00 0. -1.
         11    1    4    4    0    0 -0.11306130534E+02  0.77001271131E+01  0.28505069837E+01  0.13973043174E+02  0.51100000000E-03 0. -1.
        -11    1    4    4    0    0 -0.28378883149E+02  0.44712786532E+01  0.36352672513E+01  0.28958047410E+02  0.51100000000E-03 0.  1.
         12    1    4    4    0    0 -0.29136483344E+01  0.12245653748E+01 -0.56841074602E+00  0.32112299435E+01  0.00000000000E+00 0. -1.
</event>
<event>
 8    1  0.2962813E-009  0.9118800E+02  0.7816164E-02  0.1184000E+00
        -11   -1    0    0    0    0  0.00000000000E+00  0.00000000000E+00  0.45593999997E+02  0.45594000000E+02  0.51100000000E-03 0. -1.
         11   -1    0    0    0    0 -0.00000000000E+00 -0.00000000000E+00 -0.45593999997E+02  0.45594000000E+02  0.51100000000E-03 0.  1.
         23    2    1    2    0    0  0.00000000000E+00  0.22204460493E-15  0.00000000000E+00  0.91188000000E+02  0.91188000000E+02 0.  0.
    9900012    2    3    3    0    0  0.13272972691E+01 -0.12865919896E+01 -0.45007737189E+02  0.46142318255E+02  0.10000004506E+02 0.  0.
         12    1    3    3    0    0 -0.13272972691E+01  0.12865919896E+01  0.45007737189E+02  0.45045681745E+02  0.00000000000E+00 0. -1.
         11    1    4    4    0    0  0.13430508103E+00 -0.37150958520E+01 -0.19071232190E+02  0.19430179427E+02  0.51100000000E-03 0. -1.
        -11    1    4    4    0    0  0.54526505969E+00 -0.16229239178E+01 -0.13689638201E+02  0.13796281759E+02  0.51100000000E-03 0.  1.
         12    1    4    4    0    0  0.64772712834E+00  0.40514277802E+01 -0.12246866797E+02  0.12915857070E+02  0.00000000000E+00 0. -1.
</event>
<event>
 8    1  0.2962813E-009  0.9118800E+02  0.7816164E-02  0.1184000E+00
        -11   -1    0    0    0    0  0.00000000000E+00  0.00000000000E+00  0.45593999997E+02  0.45594000000E+02  0.51100000000E-03 0. -1.
         11   -1    0    0    0    0 -0.00000000000E+00 -0.00000000000E+00 -0.45593999997E+02  0.45594000000E+02  0.51100000000E-03 0.  1.
         23    2    1    2    0    0 -0.88817841970E-15  0.00000000000E+00  0.71054273576E-14  0.91188000000E+02  0.91188000000E+02 0.  0.
    9900012    2    3    3    0    0 -0.79468533888E+01  0.16545819552E+02 -0.41136317973E+02  0.46142320076E+02  0.10000021106E+02 0.  0.
         12    1    3    3    0    0  0.79468533888E+01 -0.16545819552E+02  0.41136317973E+02  0.45045679924E+02  0.00000000000E+00 0. -1.
         11    1    4    4    0    0 -0.31015370400E+01  0.46651037226E+01 -0.20625562618E+02  0.21372799497E+02  0.51100000000E-03 0. -1.
        -11    1    4    4    0    0 -0.11369628344E+01  0.52036631513E+01 -0.42851848995E+01  0.68361981074E+01  0.51100000000E-03 0.  1.
        -12    1    4    4    0    0 -0.37083535145E+01  0.66770526784E+01 -0.16225570455E+02  0.17933322471E+02  0.00000000000E+00 0.  1.
</event>
<event>
 8    1  0.2962813E-009  0.9118800E+02  0.7816164E-02  0.1184000E+00
        -11   -1    0    0    0    0  0.00000000000E+00  0.00000000000E+00  0.45593999997E+02  0.45594000000E+02  0.51100000000E-03 0. -1.
         11   -1    0    0    0    0 -0.00000000000E+00 -0.00000000000E+00 -0.45593999997E+02  0.45594000000E+02  0.51100000000E-03 0.  1.
         23    2    1    2    0    0  0.00000000000E+00  0.00000000000E+00  0.00000000000E+00  0.91188000000E+02  0.91188000000E+02 0.  0.
    9900012    2    3    3    0    0 -0.30295696560E+02 -0.16708415733E+02  0.28846368731E+02  0.46142319016E+02  0.10000011442E+02 0.  0.
        -12    1    3    3    0    0  0.30295696560E+02  0.16708415733E+02 -0.28846368731E+02  0.45045680984E+02  0.00000000000E+00 0.  1.
         11    1    4    4    0    0 -0.66149550908E+01 -0.39523042432E+01  0.29588317553E+01  0.82542731540E+01  0.51100000000E-03 0. -1.
        -11    1    4    4    0    0 -0.14332732502E+02 -0.43871417862E+01  0.12262897564E+02  0.19366282321E+02  0.51100000000E-03 0.  1.
         12    1    4    4    0    0 -0.93480089672E+01 -0.83689697039E+01  0.13624639411E+02  0.18521763540E+02  0.00000000000E+00 0. -1.
</event>
<event>
 8    1  0.2962813E-009  0.9118800E+02  0.7816164E-02  0.1184000E+00
        -11   -1    0    0    0    0  0.00000000000E+00  0.00000000000E+00  0.45593999997E+02  0.45594000000E+02  0.51100000000E-03 0. -1.
         11   -1    0    0    0    0 -0.00000000000E+00 -0.00000000000E+00 -0.45593999997E+02  0.45594000000E+02  0.51100000000E-03 0.  1.
         23    2    1    2    0    0  0.00000000000E+00  0.71054273576E-14 -0.11102230246E-15  0.91188000000E+02  0.91188000000E+02 0.  0.
    9900012    2    3    3    0    0  0.32271540274E+02  0.31418506263E+02 -0.73392457172E+00  0.46142317713E+02  0.99999995588E+01 0.  0.
         12    1    3    3    0    0 -0.32271540274E+02 -0.31418506263E+02  0.73392457172E+00  0.45045682287E+02  0.00000000000E+00 0. -1.
         11    1    4    4    0    0  0.63005404088E+01  0.41873202264E+01 -0.24467178129E+01  0.79509048818E+01  0.51100000000E-03 0. -1.
        -11    1    4    4    0    0  0.19367329659E+02  0.20973874246E+02 -0.13832229328E+01  0.28581640347E+02  0.51100000000E-03 0.  1.
         12    1    4    4    0    0  0.66036702066E+01  0.62573117905E+01  0.30960161740E+01  0.96097724838E+01  0.00000000000E+00 0. -1.
</event>
<event>
 8    1  0.4826552E-009  0.9118800E+02  0.7816164E-02  0.1184000E+00
        -11   -1    0    0    0    0  0.00000000000E+00  0.00000000000E+00  0.45593999997E+02  0.45594000000E+02  0.51100000000E-03 0. -1.
         11   -1    0    0    0    0 -0.00000000000E+00 -0.00000000000E+00 -0.45593999997E+02  0.45594000000E+02  0.51100000000E-03 0.  1.
         23    2    1    2    0    0 -0.17763568394E-14  0.35527136788E-14  0.00000000000E+00  0.91188000000E+02  0.91188000000E+02 0.  0.
    9900012    2    3    3    0    0 -0.13094063310E+02  0.19536928375E+02 -0.38418321192E+02  0.46142317993E+02  0.10000002116E+02 0.  0.
         12    1    3    3    0    0  0.13094063310E+02 -0.19536928375E+02  0.38418321192E+02  0.45045682007E+02  0.00000000000E+00 0. -1.
         11    1    4    4    0    0 -0.18635410930E+00 -0.70271466193E+00 -0.87443379595E-01  0.73224473771E+00  0.51100000000E-03 0. -1.
        -11    1    4    4    0    0 -0.11003529520E+02  0.19314607933E+02 -0.34839271154E+02  0.41326826110E+02  0.51100000000E-03 0.  1.
        -12    1    4    4    0    0 -0.19041796803E+01  0.92503510371E+00 -0.34916066577E+01  0.40832471454E+01  0.00000000000E+00 0.  1.
</event>
<event>
 8    1  0.2962813E-009  0.9118800E+02  0.7816164E-02  0.1184000E+00
        -11   -1    0    0    0    0  0.00000000000E+00  0.00000000000E+00  0.45593999997E+02  0.45594000000E+02  0.51100000000E-03 0. -1.
         11   -1    0    0    0    0 -0.00000000000E+00 -0.00000000000E+00 -0.45593999997E+02  0.45594000000E+02  0.51100000000E-03 0.  1.
         23    2    1    2    0    0  0.00000000000E+00  0.35527136788E-14  0.00000000000E+00  0.91188000000E+02  0.91188000000E+02 0.  0.
    9900012    2    3    3    0    0  0.36708235123E+02  0.16410442903E+02 -0.20305581230E+02  0.46142314400E+02  0.99999693506E+01 0.  0.
         12    1    3    3    0    0 -0.36708235123E+02 -0.16410442903E+02  0.20305581230E+02  0.45045685600E+02  0.00000000000E+00 0. -1.
         11    1    4    4    0    0  0.19346676168E+02  0.34519450557E+01 -0.91644645398E+01  0.21684031313E+02  0.51100000000E-03 0. -1.
        -11    1    4    4    0    0  0.15497887464E+02  0.11034549816E+02 -0.90919780031E+01  0.21085774109E+02  0.51100000000E-03 0.  1.
         12    1    4    4    0    0  0.18636714907E+01  0.19239480317E+01 -0.20491386867E+01  0.33725089787E+01  0.00000000000E+00 0. -1.
</event>
<event>
 8    1  0.2962813E-009  0.9118800E+02  0.7816164E-02  0.1184000E+00
        -11   -1    0    0    0    0  0.00000000000E+00  0.00000000000E+00  0.45593999997E+02  0.45594000000E+02  0.51100000000E-03 0. -1.
         11   -1    0    0    0    0 -0.00000000000E+00 -0.00000000000E+00 -0.45593999997E+02  0.45594000000E+02  0.51100000000E-03 0.  1.
         23    2    1    2    0    0  0.00000000000E+00  0.00000000000E+00  0.00000000000E+00  0.91188000000E+02  0.91188000000E+02 0.  0.
    9900012    2    3    3    0    0 -0.34674451708E+02 -0.21637881267E+02  0.18936683230E+02  0.46142317868E+02  0.10000000977E+02 0.  0.
        -12    1    3    3    0    0  0.34674451708E+02  0.21637881267E+02 -0.18936683230E+02  0.45045682132E+02  0.00000000000E+00 0.  1.
         11    1    4    4    0    0 -0.86767663150E+01 -0.31683913135E+01  0.68736439244E+01  0.11513989676E+02  0.51100000000E-03 0. -1.
        -11    1    4    4    0    0 -0.13322804568E+02 -0.75969618554E+01  0.29965114672E+01  0.15626580951E+02  0.51100000000E-03 0.  1.
         12    1    4    4    0    0 -0.12674880825E+02 -0.10872528099E+02  0.90665278383E+01  0.19001747241E+02  0.00000000000E+00 0. -1.
</event>
<event>
 8    1  0.2962813E-009  0.9118800E+02  0.7816164E-02  0.1184000E+00
        -11   -1    0    0    0    0  0.00000000000E+00  0.00000000000E+00  0.45593999997E+02  0.45594000000E+02  0.51100000000E-03 0. -1.
         11   -1    0    0    0    0 -0.00000000000E+00 -0.00000000000E+00 -0.45593999997E+02  0.45594000000E+02  0.51100000000E-03 0.  1.
         23    2    1    2    0    0  0.35527136788E-14  0.35527136788E-14  0.00000000000E+00  0.91188000000E+02  0.91188000000E+02 0.  0.
    9900012    2    3    3    0    0  0.18723483197E+02  0.24228270605E+02 -0.33038395433E+02  0.46142317717E+02  0.99999995974E+01 0.  0.
         12    1    3    3    0    0 -0.18723483197E+02 -0.24228270605E+02  0.33038395433E+02  0.45045682283E+02  0.00000000000E+00 0. -1.
         11    1    4    4    0    0 -0.75930792270E+00  0.28079769422E+01 -0.19843764624E+01  0.35212260983E+01  0.51100000000E-03 0. -1.
        -11    1    4    4    0    0  0.44310160375E+01  0.37245705228E+01 -0.81606970117E+01  0.10005163901E+02  0.51100000000E-03 0.  1.
         12    1    4    4    0    0  0.15051775082E+02  0.17695723140E+02 -0.22893321959E+02  0.32615927718E+02  0.00000000000E+00 0. -1.
</event>
<event>
 8    1  0.2962813E-009  0.9118800E+02  0.7816164E-02  0.1184000E+00
        -11   -1    0    0    0    0  0.00000000000E+00  0.00000000000E+00  0.45593999997E+02  0.45594000000E+02  0.51100000000E-03 0. -1.
         11   -1    0    0    0    0 -0.00000000000E+00 -0.00000000000E+00 -0.45593999997E+02  0.45594000000E+02  0.51100000000E-03 0.  1.
         23    2    1    2    0    0 -0.35527136788E-14  0.00000000000E+00 -0.71054273576E-14  0.91188000000E+02  0.91188000000E+02 0.  0.
    9900012    2    3    3    0    0 -0.24827674789E+02 -0.62026847189E+01  0.37070564319E+02  0.46142317943E+02  0.10000001655E+02 0.  0.
        -12    1    3    3    0    0  0.24827674789E+02  0.62026847189E+01 -0.37070564319E+02  0.45045682057E+02  0.00000000000E+00 0.  1.
         11    1    4    4    0    0 -0.19583856019E+02 -0.71377648377E+01  0.30772502989E+02  0.37167486382E+02  0.51100000000E-03 0. -1.
        -11    1    4    4    0    0 -0.25966326149E+01  0.30086290489E+00  0.63276714643E+00  0.26895006873E+01  0.51100000000E-03 0.  1.
        -12    1    4    4    0    0 -0.26471861544E+01  0.63421721398E+00  0.56652941826E+01  0.62853308732E+01  0.00000000000E+00 0.  1.
</event>
<event>
 8    1  0.2962813E-009  0.9118800E+02  0.7816164E-02  0.1184000E+00
        -11   -1    0    0    0    0  0.00000000000E+00  0.00000000000E+00  0.45593999997E+02  0.45594000000E+02  0.51100000000E-03 0. -1.
         11   -1    0    0    0    0 -0.00000000000E+00 -0.00000000000E+00 -0.45593999997E+02  0.45594000000E+02  0.51100000000E-03 0.  1.
         23    2    1    2    0    0 -0.35527136788E-14  0.00000000000E+00  0.00000000000E+00  0.91188000000E+02  0.91188000000E+02 0.  0.
    9900012    2    3    3    0    0 -0.25514693020E+02 -0.14215674265E+02  0.34293272907E+02  0.46142317394E+02  0.99999966552E+01 0.  0.
        -12    1    3    3    0    0  0.25514693020E+02  0.14215674265E+02 -0.34293272907E+02  0.45045682606E+02  0.00000000000E+00 0.  1.
         11    1    4    4    0    0 -0.95341013576E+01 -0.50248732802E+01  0.98194898813E+01  0.14579808708E+02  0.51100000000E-03 0. -1.
        -11    1    4    4    0    0 -0.44512739355E+01  0.35026121384E+00  0.29653041713E+01  0.53599954903E+01  0.51100000000E-03 0.  1.
         12    1    4    4    0    0 -0.11529317727E+02 -0.95410621985E+01  0.21508478855E+02  0.26202513196E+02  0.00000000000E+00 0. -1.
</event>
<event>
 8    1  0.2962813E-009  0.9118800E+02  0.7816164E-02  0.1184000E+00
        -11   -1    0    0    0    0  0.00000000000E+00  0.00000000000E+00  0.45593999997E+02  0.45594000000E+02  0.51100000000E-03 0. -1.
         11   -1    0    0    0    0 -0.00000000000E+00 -0.00000000000E+00 -0.45593999997E+02  0.45594000000E+02  0.51100000000E-03 0.  1.
         23    2    1    2    0    0  0.00000000000E+00  0.16653345369E-15  0.22204460493E-15  0.91188000000E+02  0.91188000000E+02 0.  0.
    9900012    2    3    3    0    0 -0.45044912327E+02  0.25736748550E+00  0.56820417712E-01  0.46142316599E+02  0.99999893995E+01 0.  0.
         12    1    3    3    0    0  0.45044912327E+02 -0.25736748550E+00 -0.56820417712E-01  0.45045683401E+02  0.00000000000E+00 0. -1.
         11    1    4    4    0    0 -0.29865733521E+02  0.20478943715E+01  0.27440887114E+01  0.30061369450E+02  0.51100000000E-03 0. -1.
        -11    1    4    4    0    0 -0.41954282296E+01 -0.19431102515E+01 -0.21064560694E+01  0.50807925477E+01  0.51100000000E-03 0.  1.
        -12    1    4    4    0    0 -0.10983750576E+02  0.15258336548E+00 -0.58081222426E+00  0.11000154601E+02  0.00000000000E+00 0.  1.
</event>
<event>
 8    1  0.2962813E-009  0.9118800E+02  0.7816164E-02  0.1184000E+00
        -11   -1    0    0    0    0  0.00000000000E+00  0.00000000000E+00  0.45593999997E+02  0.45594000000E+02  0.51100000000E-03 0. -1.
         11   -1    0    0    0    0 -0.00000000000E+00 -0.00000000000E+00 -0.45593999997E+02  0.45594000000E+02  0.51100000000E-03 0.  1.
         23    2    1    2    0    0  0.00000000000E+00  0.00000000000E+00  0.00000000000E+00  0.91188000000E+02  0.91188000000E+02 0.  0.
    9900012    2    3    3    0    0  0.15298384570E+02  0.28679917605E+02 -0.31185496745E+02  0.46142318170E+02  0.10000003726E+02 0.  0.
         12    1    3    3    0    0 -0.15298384570E+02 -0.28679917605E+02  0.31185496745E+02  0.45045681830E+02  0.00000000000E+00 0. -1.
         11    1    4    4    0    0  0.19551095311E+01  0.13982899875E+01 -0.36748091973E+00  0.24316065996E+01  0.51100000000E-03 0. -1.
        -11    1    4    4    0    0  0.11795426057E+01  0.87601723453E+01 -0.88658086615E+01  0.12519365150E+02  0.51100000000E-03 0.  1.
        -12    1    4    4    0    0  0.12163732434E+02  0.18521455272E+02 -0.21952207164E+02  0.31191346420E+02  0.00000000000E+00 0.  1.
</event>
<event>
 8    1  0.2962813E-009  0.9118800E+02  0.7816164E-02  0.1184000E+00
        -11   -1    0    0    0    0  0.00000000000E+00  0.00000000000E+00  0.45593999997E+02  0.45594000000E+02  0.51100000000E-03 0. -1.
         11   -1    0    0    0    0 -0.00000000000E+00 -0.00000000000E+00 -0.45593999997E+02  0.45594000000E+02  0.51100000000E-03 0.  1.
         23    2    1    2    0    0  0.17763568394E-14 -0.88817841970E-15 -0.71054273576E-14  0.91188000000E+02  0.91188000000E+02 0.  0.
    9900012    2    3    3    0    0  0.12589884483E+02 -0.52247579877E+01  0.42933788812E+02  0.46142317531E+02  0.99999979012E+01 0.  0.
        -12    1    3    3    0    0 -0.12589884483E+02  0.52247579877E+01 -0.42933788812E+02  0.45045682469E+02  0.00000000000E+00 0.  1.
         11    1    4    4    0    0  0.89943547327E+01 -0.16395667540E+01  0.15915611423E+02  0.18354652909E+02  0.51100000000E-03 0. -1.
        -11    1    4    4    0    0  0.48801927964E+00 -0.31249355279E+01  0.10217781103E+02  0.10696094418E+02  0.51100000000E-03 0.  1.
        -12    1    4    4    0    0  0.31075104712E+01 -0.46025570572E+00  0.16800396287E+02  0.17091570204E+02  0.00000000000E+00 0.  1.
</event>
<event>
 8    1  0.2962813E-009  0.9118800E+02  0.7816164E-02  0.1184000E+00
        -11   -1    0    0    0    0  0.00000000000E+00  0.00000000000E+00  0.45593999997E+02  0.45594000000E+02  0.51100000000E-03 0. -1.
         11   -1    0    0    0    0 -0.00000000000E+00 -0.00000000000E+00 -0.45593999997E+02  0.45594000000E+02  0.51100000000E-03 0.  1.
         23    2    1    2    0    0  0.00000000000E+00 -0.88817841970E-15  0.00000000000E+00  0.91188000000E+02  0.91188000000E+02 0.  0.
    9900012    2    3    3    0    0  0.30629936521E+02  0.57759288689E+01 -0.32520132332E+02  0.46142319047E+02  0.10000011727E+02 0.  0.
         12    1    3    3    0    0 -0.30629936521E+02 -0.57759288689E+01  0.32520132332E+02  0.45045680953E+02  0.00000000000E+00 0. -1.
         11    1    4    4    0    0  0.15099466136E+02  0.73954677909E+01 -0.15944479511E+02  0.23171388577E+02  0.51100000000E-03 0. -1.
        -11    1    4    4    0    0  0.88786249535E+01 -0.57380301034E+00 -0.11493430394E+02  0.14534723026E+02  0.51100000000E-03 0.  1.
         12    1    4    4    0    0  0.66518454315E+01 -0.10457359116E+01 -0.50822224282E+01  0.84362074448E+01  0.00000000000E+00 0. -1.
</event>
<event>
 8    1  0.2962813E-009  0.9118800E+02  0.7816164E-02  0.1184000E+00
        -11   -1    0    0    0    0  0.00000000000E+00  0.00000000000E+00  0.45593999997E+02  0.45594000000E+02  0.51100000000E-03 0. -1.
         11   -1    0    0    0    0 -0.00000000000E+00 -0.00000000000E+00 -0.45593999997E+02  0.45594000000E+02  0.51100000000E-03 0.  1.
         23    2    1    2    0    0  0.00000000000E+00  0.00000000000E+00  0.00000000000E+00  0.91188000000E+02  0.91188000000E+02 0.  0.
    9900012    2    3    3    0    0 -0.33672689721E+02  0.84729574829E+01  0.28696210477E+02  0.46142317217E+02  0.99999950423E+01 0.  0.
        -12    1    3    3    0    0  0.33672689721E+02 -0.84729574829E+01 -0.28696210477E+02  0.45045682783E+02  0.00000000000E+00 0.  1.
         11    1    4    4    0    0 -0.88256892405E+01  0.17977152896E+01  0.43655382670E+01  0.10009120613E+02  0.51100000000E-03 0. -1.
        -11    1    4    4    0    0 -0.24082656574E+02  0.73194351237E+01  0.24492899108E+02  0.35120515160E+02  0.51100000000E-03 0.  1.
         12    1    4    4    0    0 -0.76434390724E+00 -0.64419293047E+00 -0.16222689706E+00  0.10126814437E+01  0.00000000000E+00 0. -1.
</event>
<event>
 8    1  0.2962813E-009  0.9118800E+02  0.7816164E-02  0.1184000E+00
        -11   -1    0    0    0    0  0.00000000000E+00  0.00000000000E+00  0.45593999997E+02  0.45594000000E+02  0.51100000000E-03 0. -1.
         11   -1    0    0    0    0 -0.00000000000E+00 -0.00000000000E+00 -0.45593999997E+02  0.45594000000E+02  0.51100000000E-03 0.  1.
         23    2    1    2    0    0  0.00000000000E+00 -0.35527136788E-14 -0.35527136788E-14  0.91188000000E+02  0.91188000000E+02 0.  0.
    9900012    2    3    3    0    0  0.28115682098E+02 -0.27618320167E+02 -0.21813992669E+02  0.46142318022E+02  0.10000002381E+02 0.  0.
         12    1    3    3    0    0 -0.28115682098E+02  0.27618320167E+02  0.21813992669E+02  0.45045681978E+02  0.00000000000E+00 0. -1.
         11    1    4    4    0    0  0.11784176780E+01  0.16114017703E+00 -0.17534195900E+01  0.21187531475E+01  0.51100000000E-03 0. -1.
        -11    1    4    4    0    0  0.10083901526E+01 -0.17284667424E+01  0.27134703717E+00  0.20194250308E+01  0.51100000000E-03 0.  1.
        -12    1    4    4    0    0  0.25928874267E+02 -0.26050993602E+02 -0.20331920116E+02  0.42004139844E+02  0.00000000000E+00 0.  1.
</event>
<event>
 8    1  0.2962813E-009  0.9118800E+02  0.7816164E-02  0.1184000E+00
        -11   -1    0    0    0    0  0.00000000000E+00  0.00000000000E+00  0.45593999997E+02  0.45594000000E+02  0.51100000000E-03 0.  1.
         11   -1    0    0    0    0 -0.00000000000E+00 -0.00000000000E+00 -0.45593999997E+02  0.45594000000E+02  0.51100000000E-03 0. -1.
         23    2    1    2    0    0  0.00000000000E+00 -0.35527136788E-14  0.55511151231E-16  0.91188000000E+02  0.91188000000E+02 0.  0.
    9900012    2    3    3    0    0 -0.33379178670E+02  0.30244600685E+02 -0.45622095131E+00  0.46142316779E+02  0.99999910450E+01 0.  0.
        -12    1    3    3    0    0  0.33379178670E+02 -0.30244600685E+02  0.45622095131E+00  0.45045683221E+02  0.00000000000E+00 0.  1.
         11    1    4    4    0    0 -0.12948526758E+02  0.16670510184E+02  0.15902162531E+01  0.21168350030E+02  0.51100000000E-03 0. -1.
        -11    1    4    4    0    0 -0.77438340168E-01 -0.23819544030E+00 -0.17484107962E+00  0.30545609922E+00  0.51100000000E-03 0.  1.
         12    1    4    4    0    0 -0.20353213572E+02  0.13812285942E+02 -0.18715961248E+01  0.24668510650E+02  0.00000000000E+00 0. -1.
</event>
<event>
 8    1  0.2962813E-009  0.9118800E+02  0.7816164E-02  0.1184000E+00
        -11   -1    0    0    0    0  0.00000000000E+00  0.00000000000E+00  0.45593999997E+02  0.45594000000E+02  0.51100000000E-03 0. -1.
         11   -1    0    0    0    0 -0.00000000000E+00 -0.00000000000E+00 -0.45593999997E+02  0.45594000000E+02  0.51100000000E-03 0.  1.
         23    2    1    2    0    0  0.00000000000E+00  0.00000000000E+00  0.00000000000E+00  0.91188000000E+02  0.91188000000E+02 0.  0.
    9900012    2    3    3    0    0  0.89719026997E+01  0.83792317637E+01 -0.43340587114E+02  0.46142322578E+02  0.10000043925E+02 0.  0.
         12    1    3    3    0    0 -0.89719026997E+01 -0.83792317637E+01  0.43340587114E+02  0.45045677422E+02  0.00000000000E+00 0. -1.
         11    1    4    4    0    0  0.16055407752E+01  0.24715417063E+01 -0.40159869576E+01  0.49814085450E+01  0.51100000000E-03 0.  1.
        -11    1    4    4    0    0  0.40406045624E+01  0.14578612762E+01 -0.60156619368E+01  0.73918897130E+01  0.51100000000E-03 0. -1.
        -12    1    4    4    0    0  0.33257573620E+01  0.44498287812E+01 -0.33308938220E+02  0.33769024320E+02  0.00000000000E+00 0.  1.
</event>
<event>
 8    1  0.2962813E-009  0.9118800E+02  0.7816164E-02  0.1184000E+00
        -11   -1    0    0    0    0  0.00000000000E+00  0.00000000000E+00  0.45593999997E+02  0.45594000000E+02  0.51100000000E-03 0. -1.
         11   -1    0    0    0    0 -0.00000000000E+00 -0.00000000000E+00 -0.45593999997E+02  0.45594000000E+02  0.51100000000E-03 0.  1.
         23    2    1    2    0    0  0.17763568394E-14  0.35527136788E-14  0.71054273576E-14  0.91188000000E+02  0.91188000000E+02 0.  0.
    9900012    2    3    3    0    0 -0.82228899198E+01 -0.14989774244E+02 -0.41674987323E+02  0.46142314092E+02  0.99999665433E+01 0.  0.
         12    1    3    3    0    0  0.82228899198E+01  0.14989774244E+02  0.41674987323E+02  0.45045685908E+02  0.00000000000E+00 0. -1.
         11    1    4    4    0    0 -0.97113179194E+00 -0.62674242608E+00 -0.96017291120E+00  0.15026094990E+01  0.51100000000E-03 0. -1.
        -11    1    4    4    0    0 -0.92556311676E+00  0.40544780456E-01 -0.10808357238E+02  0.10847990478E+02  0.51100000000E-03 0.  1.
        -12    1    4    4    0    0 -0.63261950111E+01 -0.14403576599E+02 -0.29906457174E+02  0.33791714115E+02  0.00000000000E+00 0.  1.
</event>
<event>
 8    1  0.2962813E-009  0.9118800E+02  0.7816164E-02  0.1184000E+00
        -11   -1    0    0    0    0  0.00000000000E+00  0.00000000000E+00  0.45593999997E+02  0.45594000000E+02  0.51100000000E-03 0. -1.
         11   -1    0    0    0    0 -0.00000000000E+00 -0.00000000000E+00 -0.45593999997E+02  0.45594000000E+02  0.51100000000E-03 0.  1.
         23    2    1    2    0    0  0.00000000000E+00  0.00000000000E+00  0.00000000000E+00  0.91188000000E+02  0.91188000000E+02 0.  0.
    9900012    2    3    3    0    0  0.18764383771E+01 -0.15374785291E+02  0.42299037664E+02  0.46142316178E+02  0.99999855624E+01 0.  0.
        -12    1    3    3    0    0 -0.18764383771E+01  0.15374785291E+02 -0.42299037664E+02  0.45045683822E+02  0.00000000000E+00 0.  1.
         11    1    4    4    0    0  0.24093057651E+01 -0.17812929068E+00  0.80395701443E+01  0.83947109944E+01  0.51100000000E-03 0. -1.
        -11    1    4    4    0    0  0.26063936497E+00 -0.16683958799E+01  0.82337000373E+01  0.84050755057E+01  0.51100000000E-03 0.  1.
         12    1    4    4    0    0 -0.79350675302E+00 -0.13528260120E+02  0.26025767482E+02  0.29342529678E+02  0.00000000000E+00 0. -1.
</event>
<event>
 8    1  0.2962813E-009  0.9118800E+02  0.7816164E-02  0.1184000E+00
        -11   -1    0    0    0    0  0.00000000000E+00  0.00000000000E+00  0.45593999997E+02  0.45594000000E+02  0.51100000000E-03 0. -1.
         11   -1    0    0    0    0 -0.00000000000E+00 -0.00000000000E+00 -0.45593999997E+02  0.45594000000E+02  0.51100000000E-03 0.  1.
         23    2    1    2    0    0  0.00000000000E+00  0.00000000000E+00  0.00000000000E+00  0.91188000000E+02  0.91188000000E+02 0.  0.
    9900012    2    3    3    0    0 -0.17783115203E+02  0.20914832825E+02  0.35713362179E+02  0.46142315894E+02  0.99999829782E+01 0.  0.
        -12    1    3    3    0    0  0.17783115203E+02 -0.20914832825E+02 -0.35713362179E+02  0.45045684106E+02  0.00000000000E+00 0.  1.
         11    1    4    4    0    0  0.72162003566E+00  0.11162115018E+00  0.19127628284E+01  0.20474024167E+01  0.51100000000E-03 0. -1.
        -11    1    4    4    0    0 -0.14734260682E+02  0.13046952654E+02  0.22884132668E+02  0.30182858374E+02  0.51100000000E-03 0.  1.
         12    1    4    4    0    0 -0.37704745565E+01  0.77562590204E+01  0.10916466683E+02  0.13912055104E+02  0.00000000000E+00 0. -1.
</event>
<event>
 8    1  0.2962813E-009  0.9118800E+02  0.7816164E-02  0.1184000E+00
        -11   -1    0    0    0    0  0.00000000000E+00  0.00000000000E+00  0.45593999997E+02  0.45594000000E+02  0.51100000000E-03 0. -1.
         11   -1    0    0    0    0 -0.00000000000E+00 -0.00000000000E+00 -0.45593999997E+02  0.45594000000E+02  0.51100000000E-03 0.  1.
         23    2    1    2    0    0  0.00000000000E+00  0.00000000000E+00  0.00000000000E+00  0.91188000000E+02  0.91188000000E+02 0.  0.
    9900012    2    3    3    0    0 -0.44635160696E+01  0.29212199481E+01  0.44728704580E+02  0.46142317464E+02  0.99999972926E+01 0.  0.
        -12    1    3    3    0    0  0.44635160696E+01 -0.29212199481E+01 -0.44728704580E+02  0.45045682536E+02  0.00000000000E+00 0.  1.
         11    1    4    4    0    0 -0.46892777451E+01 -0.17663711913E+00  0.13554004299E+02  0.14343345469E+02  0.51100000000E-03 0. -1.
        -11    1    4    4    0    0 -0.18151074581E+00  0.15964002948E+01  0.19227202892E+01  0.25056523350E+01  0.51100000000E-03 0.  1.
        -12    1    4    4    0    0  0.40727242128E+00  0.15014567724E+01  0.29251979992E+02  0.29293319661E+02  0.00000000000E+00 0.  1.
</event>
<event>
 8    1  0.2962813E-009  0.9118800E+02  0.7816164E-02  0.1184000E+00
        -11   -1    0    0    0    0  0.00000000000E+00  0.00000000000E+00  0.45593999997E+02  0.45594000000E+02  0.51100000000E-03 0. -1.
         11   -1    0    0    0    0 -0.00000000000E+00 -0.00000000000E+00 -0.45593999997E+02  0.45594000000E+02  0.51100000000E-03 0.  1.
         23    2    1    2    0    0  0.00000000000E+00 -0.35527136788E-14 -0.71054273576E-14  0.91188000000E+02  0.91188000000E+02 0.  0.
    9900012    2    3    3    0    0 -0.42176069472E+01 -0.21555678810E+02 -0.39327826251E+02  0.46142318576E+02  0.10000007428E+02 0.  0.
         12    1    3    3    0    0  0.42176069472E+01  0.21555678810E+02  0.39327826251E+02  0.45045681424E+02  0.00000000000E+00 0. -1.
         11    1    4    4    0    0 -0.21551161736E+01 -0.69956290662E+01 -0.13597194413E+02  0.15442378311E+02  0.51100000000E-03 0. -1.
        -11    1    4    4    0    0 -0.18342345402E+01 -0.47224265613E+01 -0.16304296545E+02  0.17073248521E+02  0.51100000000E-03 0.  1.
         12    1    4    4    0    0 -0.22825623335E+00 -0.98376231826E+01 -0.94263352933E+01  0.13626691743E+02  0.00000000000E+00 0. -1.
</event>
<event>
 8    1  0.2962813E-009  0.9118800E+02  0.7816164E-02  0.1184000E+00
        -11   -1    0    0    0    0  0.00000000000E+00  0.00000000000E+00  0.45593999997E+02  0.45594000000E+02  0.51100000000E-03 0.  1.
         11   -1    0    0    0    0 -0.00000000000E+00 -0.00000000000E+00 -0.45593999997E+02  0.45594000000E+02  0.51100000000E-03 0. -1.
         23    2    1    2    0    0  0.35527136788E-14  0.00000000000E+00  0.35527136788E-14  0.91188000000E+02  0.91188000000E+02 0.  0.
    9900012    2    3    3    0    0 -0.28241679675E+02  0.28640187929E+02 -0.20279560178E+02  0.46142318781E+02  0.10000009305E+02 0.  0.
        -12    1    3    3    0    0  0.28241679675E+02 -0.28640187929E+02  0.20279560178E+02  0.45045681219E+02  0.00000000000E+00 0.  1.
         11    1    4    4    0    0 -0.16646148527E+02  0.17595890190E+02 -0.14110866353E+02  0.28032591066E+02  0.51100000000E-03 0. -1.
        -11    1    4    4    0    0 -0.57572004043E+01  0.81146526278E+01 -0.59100754238E+01  0.11572464540E+02  0.51100000000E-03 0.  1.
         12    1    4    4    0    0 -0.58383307431E+01  0.29296451107E+01 -0.25861840061E+00  0.65372631749E+01  0.00000000000E+00 0. -1.
</event>
<event>
 8    1  0.2962813E-009  0.9118800E+02  0.7816164E-02  0.1184000E+00
        -11   -1    0    0    0    0  0.00000000000E+00  0.00000000000E+00  0.45593999997E+02  0.45594000000E+02  0.51100000000E-03 0. -1.
         11   -1    0    0    0    0 -0.00000000000E+00 -0.00000000000E+00 -0.45593999997E+02  0.45594000000E+02  0.51100000000E-03 0.  1.
         23    2    1    2    0    0 -0.88817841970E-15  0.00000000000E+00  0.00000000000E+00  0.91188000000E+02  0.91188000000E+02 0.  0.
    9900012    2    3    3    0    0  0.58400811045E+01  0.42231187525E+02 -0.14544200276E+02  0.46142317535E+02  0.99999979368E+01 0.  0.
         12    1    3    3    0    0 -0.58400811045E+01 -0.42231187525E+02  0.14544200276E+02  0.45045682465E+02  0.00000000000E+00 0. -1.
         11    1    4    4    0    0  0.18420306539E+01  0.49854547654E+01  0.67379671258E+00  0.53574096744E+01  0.51100000000E-03 0. -1.
        -11    1    4    4    0    0  0.33153920233E+01  0.91454594865E+01 -0.36890824763E+01  0.10403873474E+02  0.51100000000E-03 0.  1.
         12    1    4    4    0    0  0.68265842725E+00  0.28100273273E+02 -0.11528914513E+02  0.30381034386E+02  0.00000000000E+00 0. -1.
</event>
<event>
 8    1  0.2962813E-009  0.9118800E+02  0.7816164E-02  0.1184000E+00
        -11   -1    0    0    0    0  0.00000000000E+00  0.00000000000E+00  0.45593999997E+02  0.45594000000E+02  0.51100000000E-03 0. -1.
         11   -1    0    0    0    0 -0.00000000000E+00 -0.00000000000E+00 -0.45593999997E+02  0.45594000000E+02  0.51100000000E-03 0.  1.
         23    2    1    2    0    0 -0.35527136788E-14  0.00000000000E+00 -0.35527136788E-14  0.91188000000E+02  0.91188000000E+02 0.  0.
    9900012    2    3    3    0    0  0.22480464059E+02  0.26818414675E+02  0.28363965813E+02  0.46142321110E+02  0.10000030541E+02 0.  0.
        -12    1    3    3    0    0 -0.22480464059E+02 -0.26818414675E+02 -0.28363965813E+02  0.45045678890E+02  0.00000000000E+00 0.  1.
         11    1    4    4    0    0  0.10857512317E+02  0.12248669398E+02  0.13136909761E+02  0.20987945923E+02  0.51100000000E-03 0. -1.
        -11    1    4    4    0    0  0.12638350827E+02  0.13546349936E+02  0.13612275439E+02  0.22989683580E+02  0.51100000000E-03 0.  1.
        -12    1    4    4    0    0 -0.10153990855E+01  0.10233953410E+01  0.16147806121E+01  0.21646916067E+01  0.00000000000E+00 0.  1.
</event>
<event>
 8    1  0.2962813E-009  0.9118800E+02  0.7816164E-02  0.1184000E+00
        -11   -1    0    0    0    0  0.00000000000E+00  0.00000000000E+00  0.45593999997E+02  0.45594000000E+02  0.51100000000E-03 0. -1.
         11   -1    0    0    0    0 -0.00000000000E+00 -0.00000000000E+00 -0.45593999997E+02  0.45594000000E+02  0.51100000000E-03 0.  1.
         23    2    1    2    0    0  0.00000000000E+00  0.00000000000E+00  0.00000000000E+00  0.91188000000E+02  0.91188000000E+02 0.  0.
    9900012    2    3    3    0    0  0.10916987146E+02 -0.10360553343E+02 -0.42456940371E+02  0.46142318081E+02  0.10000002914E+02 0.  0.
         12    1    3    3    0    0 -0.10916987146E+02  0.10360553343E+02  0.42456940371E+02  0.45045681919E+02  0.00000000000E+00 0. -1.
         11    1    4    4    0    0  0.20987020376E+01 -0.23605866391E+01 -0.19869619484E+02  0.20119112760E+02  0.51100000000E-03 0. -1.
        -11    1    4    4    0    0  0.77118727372E+01 -0.39258200693E+01 -0.14096339799E+02  0.16540611849E+02  0.51100000000E-03 0.  1.
        -12    1    4    4    0    0  0.11064123714E+01 -0.40741466348E+01 -0.84909810872E+01  0.94825934723E+01  0.00000000000E+00 0.  1.
</event>
<event>
 8    1  0.2962813E-009  0.9118800E+02  0.7816164E-02  0.1184000E+00
        -11   -1    0    0    0    0  0.00000000000E+00  0.00000000000E+00  0.45593999997E+02  0.45594000000E+02  0.51100000000E-03 0. -1.
         11   -1    0    0    0    0 -0.00000000000E+00 -0.00000000000E+00 -0.45593999997E+02  0.45594000000E+02  0.51100000000E-03 0.  1.
         23    2    1    2    0    0  0.17763568394E-14 -0.71054273576E-14 -0.71054273576E-14  0.91188000000E+02  0.91188000000E+02 0.  0.
    9900012    2    3    3    0    0  0.13614956499E+02 -0.27499193070E+02 -0.32977883835E+02  0.46142317830E+02  0.10000000625E+02 0.  0.
         12    1    3    3    0    0 -0.13614956499E+02  0.27499193070E+02  0.32977883835E+02  0.45045682170E+02  0.00000000000E+00 0. -1.
         11    1    4    4    0    0  0.53122686312E+01 -0.13298678456E+02 -0.16418652285E+02  0.21786399193E+02  0.51100000000E-03 0.  1.
        -11    1    4    4    0    0  0.32938928847E+01 -0.99251324788E+01 -0.64361199912E+01  0.12279316995E+02  0.51100000000E-03 0. -1.
        -12    1    4    4    0    0  0.50087949835E+01 -0.42753821357E+01 -0.10123111558E+02  0.12076601642E+02  0.00000000000E+00 0.  1.
</event>
<event>
 8    1  0.2962813E-009  0.9118800E+02  0.7816164E-02  0.1184000E+00
        -11   -1    0    0    0    0  0.00000000000E+00  0.00000000000E+00  0.45593999997E+02  0.45594000000E+02  0.51100000000E-03 0. -1.
         11   -1    0    0    0    0 -0.00000000000E+00 -0.00000000000E+00 -0.45593999997E+02  0.45594000000E+02  0.51100000000E-03 0.  1.
         23    2    1    2    0    0  0.00000000000E+00 -0.88817841970E-15  0.00000000000E+00  0.91188000000E+02  0.91188000000E+02 0.  0.
    9900012    2    3    3    0    0 -0.11507717008E+02 -0.24065414931E+01  0.43484416881E+02  0.46142317586E+02  0.99999984010E+01 0.  0.
        -12    1    3    3    0    0  0.11507717008E+02  0.24065414931E+01 -0.43484416881E+02  0.45045682414E+02  0.00000000000E+00 0.  1.
         11    1    4    4    0    0 -0.90453880138E+01 -0.22188803908E+01  0.17898563191E+02  0.20176745007E+02  0.51100000000E-03 0. -1.
        -11    1    4    4    0    0 -0.10616304042E+01  0.82494674925E+00  0.21327340844E+02  0.21369676272E+02  0.51100000000E-03 0.  1.
         12    1    4    4    0    0 -0.14006985898E+01 -0.10126078516E+01  0.42585128460E+01  0.45958963065E+01  0.00000000000E+00 0. -1.
</event>
<event>
 8    1  0.2962813E-009  0.9118800E+02  0.7816164E-02  0.1184000E+00
        -11   -1    0    0    0    0  0.00000000000E+00  0.00000000000E+00  0.45593999997E+02  0.45594000000E+02  0.51100000000E-03 0. -1.
         11   -1    0    0    0    0 -0.00000000000E+00 -0.00000000000E+00 -0.45593999997E+02  0.45594000000E+02  0.51100000000E-03 0.  1.
         23    2    1    2    0    0 -0.71054273576E-14  0.00000000000E+00  0.00000000000E+00  0.91188000000E+02  0.91188000000E+02 0.  0.
    9900012    2    3    3    0    0  0.43622551250E+02 -0.92269777353E+00 -0.11195282010E+02  0.46142326645E+02  0.10000081007E+02 0.  0.
         12    1    3    3    0    0 -0.43622551250E+02  0.92269777353E+00  0.11195282010E+02  0.45045673355E+02  0.00000000000E+00 0. -1.
         11    1    4    4    0    0  0.17593497256E+01 -0.99012612436E+00  0.58469149729E+00  0.21017910475E+01  0.51100000000E-03 0. -1.
        -11    1    4    4    0    0  0.30261459443E+02  0.14625291536E+01 -0.11331771639E+02  0.32346622202E+02  0.51100000000E-03 0.  1.
        -12    1    4    4    0    0  0.11601742082E+02 -0.13951008028E+01 -0.44820186797E+00  0.11693913395E+02  0.00000000000E+00 0.  1.
</event>
<event>
 8    1  0.2962813E-009  0.9118800E+02  0.7816164E-02  0.1184000E+00
        -11   -1    0    0    0    0  0.00000000000E+00  0.00000000000E+00  0.45593999997E+02  0.45594000000E+02  0.51100000000E-03 0. -1.
         11   -1    0    0    0    0 -0.00000000000E+00 -0.00000000000E+00 -0.45593999997E+02  0.45594000000E+02  0.51100000000E-03 0.  1.
         23    2    1    2    0    0  0.00000000000E+00  0.35527136788E-14  0.00000000000E+00  0.91188000000E+02  0.91188000000E+02 0.  0.
    9900012    2    3    3    0    0  0.85540963489E+01  0.16108914612E+02  0.41187909364E+02  0.46142316832E+02  0.99999915293E+01 0.  0.
        -12    1    3    3    0    0 -0.85540963489E+01 -0.16108914612E+02 -0.41187909364E+02  0.45045683168E+02  0.00000000000E+00 0.  1.
         11    1    4    4    0    0  0.87515340825E+01  0.10782608000E+02  0.25986671352E+02  0.29464573174E+02  0.51100000000E-03 0. -1.
        -11    1    4    4    0    0  0.75651758634E+00  0.46180213431E+01  0.14628496428E+02  0.15358754767E+02  0.51100000000E-03 0.  1.
         12    1    4    4    0    0 -0.95395531987E+00  0.70828526838E+00  0.57274158257E+00  0.13189888908E+01  0.00000000000E+00 0. -1.
</event>
<event>
 8    1  0.2962813E-009  0.9118800E+02  0.7816164E-02  0.1184000E+00
        -11   -1    0    0    0    0  0.00000000000E+00  0.00000000000E+00  0.45593999997E+02  0.45594000000E+02  0.51100000000E-03 0. -1.
         11   -1    0    0    0    0 -0.00000000000E+00 -0.00000000000E+00 -0.45593999997E+02  0.45594000000E+02  0.51100000000E-03 0.  1.
         23    2    1    2    0    0 -0.71054273576E-14 -0.35527136788E-14  0.00000000000E+00  0.91188000000E+02  0.91188000000E+02 0.  0.
    9900012    2    3    3    0    0  0.37808204459E+02  0.17692047193E+02 -0.16930584387E+02  0.46142317121E+02  0.99999941644E+01 0.  0.
         12    1    3    3    0    0 -0.37808204459E+02 -0.17692047193E+02  0.16930584387E+02  0.45045682879E+02  0.00000000000E+00 0. -1.
         11    1    4    4    0    0  0.25965237861E+00  0.19668859571E+01 -0.18972546618E+01  0.27451111523E+01  0.51100000000E-03 0. -1.
        -11    1    4    4    0    0  0.21015432810E+02  0.85987591091E+01 -0.83991688771E+01  0.24210186131E+02  0.51100000000E-03 0.  1.
         12    1    4    4    0    0  0.16533119271E+02  0.71264021273E+01 -0.66341608479E+01  0.19187019838E+02  0.00000000000E+00 0. -1.
</event>
<event>
 8    1  0.2962813E-009  0.9118800E+02  0.7816164E-02  0.1184000E+00
        -11   -1    0    0    0    0  0.00000000000E+00  0.00000000000E+00  0.45593999997E+02  0.45594000000E+02  0.51100000000E-03 0. -1.
         11   -1    0    0    0    0 -0.00000000000E+00 -0.00000000000E+00 -0.45593999997E+02  0.45594000000E+02  0.51100000000E-03 0.  1.
         23    2    1    2    0    0  0.00000000000E+00  0.35527136788E-14  0.00000000000E+00  0.91188000000E+02  0.91188000000E+02 0.  0.
    9900012    2    3    3    0    0  0.27305035835E+02 -0.23579812380E+02 -0.26972967568E+02  0.46142317485E+02  0.99999974830E+01 0.  0.
         12    1    3    3    0    0 -0.27305035835E+02  0.23579812380E+02  0.26972967568E+02  0.45045682515E+02  0.00000000000E+00 0. -1.
         11    1    4    4    0    0  0.30608254844E+00 -0.19622379807E+01 -0.22415167222E+01  0.29947390364E+01  0.51100000000E-03 0. -1.
        -11    1    4    4    0    0  0.19657200350E+01 -0.39017943879E+01 -0.51852771896E+01  0.67804981008E+01  0.51100000000E-03 0.  1.
        -12    1    4    4    0    0  0.25033233251E+02 -0.17715780011E+02 -0.19546173656E+02  0.36367080348E+02  0.00000000000E+00 0.  1.
</event>
<event>
 8    1  0.2962813E-009  0.9118800E+02  0.7816164E-02  0.1184000E+00
        -11   -1    0    0    0    0  0.00000000000E+00  0.00000000000E+00  0.45593999997E+02  0.45594000000E+02  0.51100000000E-03 0. -1.
         11   -1    0    0    0    0 -0.00000000000E+00 -0.00000000000E+00 -0.45593999997E+02  0.45594000000E+02  0.51100000000E-03 0.  1.
         23    2    1    2    0    0  0.00000000000E+00  0.35527136788E-14  0.00000000000E+00  0.91188000000E+02  0.91188000000E+02 0.  0.
    9900012    2    3    3    0    0  0.49478656903E+01 -0.23753497772E+02 -0.37952647427E+02  0.46142317876E+02  0.10000001046E+02 0.  0.
         12    1    3    3    0    0 -0.49478656903E+01  0.23753497772E+02  0.37952647427E+02  0.45045682124E+02  0.00000000000E+00 0. -1.
         11    1    4    4    0    0  0.31920865454E+01 -0.46838402101E+01 -0.91462272503E+01  0.10760169553E+02  0.51100000000E-03 0. -1.
        -11    1    4    4    0    0  0.11078688037E+01 -0.46777807257E+00 -0.15069468389E+00  0.12119813366E+01  0.51100000000E-03 0.  1.
        -12    1    4    4    0    0  0.64791034113E+00 -0.18601879490E+02 -0.28655725493E+02  0.34170166987E+02  0.00000000000E+00 0.  1.
</event>
<event>
 8    1  0.2962813E-009  0.9118800E+02  0.7816164E-02  0.1184000E+00
        -11   -1    0    0    0    0  0.00000000000E+00  0.00000000000E+00  0.45593999997E+02  0.45594000000E+02  0.51100000000E-03 0. -1.
         11   -1    0    0    0    0 -0.00000000000E+00 -0.00000000000E+00 -0.45593999997E+02  0.45594000000E+02  0.51100000000E-03 0.  1.
         23    2    1    2    0    0  0.00000000000E+00 -0.44408920985E-15  0.00000000000E+00  0.91188000000E+02  0.91188000000E+02 0.  0.
    9900012    2    3    3    0    0  0.33908130407E+02  0.33536791618E+01 -0.29463628009E+02  0.46142313779E+02  0.99999636914E+01 0.  0.
         12    1    3    3    0    0 -0.33908130407E+02 -0.33536791618E+01  0.29463628009E+02  0.45045686221E+02  0.00000000000E+00 0. -1.
         11    1    4    4    0    0  0.27468877375E+02  0.15279720113E+01 -0.19715364029E+02  0.33846262744E+02  0.51100000000E-03 0.  1.
        -11    1    4    4    0    0  0.30774281405E+01  0.22367236252E+01 -0.34068538859E+01  0.51068728393E+01  0.51100000000E-03 0. -1.
        -12    1    4    4    0    0  0.33618248918E+01 -0.41101647474E+00 -0.63414100948E+01  0.71891781962E+01  0.00000000000E+00 0.  1.
</event>
<event>
 8    1  0.2962813E-009  0.9118800E+02  0.7816164E-02  0.1184000E+00
        -11   -1    0    0    0    0  0.00000000000E+00  0.00000000000E+00  0.45593999997E+02  0.45594000000E+02  0.51100000000E-03 0.  1.
         11   -1    0    0    0    0 -0.00000000000E+00 -0.00000000000E+00 -0.45593999997E+02  0.45594000000E+02  0.51100000000E-03 0. -1.
         23    2    1    2    0    0  0.00000000000E+00  0.00000000000E+00  0.35527136788E-14  0.91188000000E+02  0.91188000000E+02 0.  0.
    9900012    2    3    3    0    0 -0.31047379688E+02  0.23501212154E+02 -0.22646560192E+02  0.46142318223E+02  0.10000004216E+02 0.  0.
         12    1    3    3    0    0  0.31047379688E+02 -0.23501212154E+02  0.22646560192E+02  0.45045681777E+02  0.00000000000E+00 0. -1.
         11    1    4    4    0    0 -0.67069194606E+01  0.88291952777E+01 -0.97880536910E+01  0.14789978135E+02  0.51100000000E-03 0. -1.
        -11    1    4    4    0    0 -0.12440543957E+02  0.66265504456E+01 -0.78871463003E+01  0.16151946687E+02  0.51100000000E-03 0.  1.
        -12    1    4    4    0    0 -0.11899916271E+02  0.80454664303E+01 -0.49713602002E+01  0.15200393402E+02  0.00000000000E+00 0.  1.
</event>
<event>
 8    1  0.2962813E-009  0.9118800E+02  0.7816164E-02  0.1184000E+00
        -11   -1    0    0    0    0  0.00000000000E+00  0.00000000000E+00  0.45593999997E+02  0.45594000000E+02  0.51100000000E-03 0. -1.
         11   -1    0    0    0    0 -0.00000000000E+00 -0.00000000000E+00 -0.45593999997E+02  0.45594000000E+02  0.51100000000E-03 0.  1.
         23    2    1    2    0    0 -0.35527136788E-14  0.88817841970E-15 -0.71054273576E-14  0.91188000000E+02  0.91188000000E+02 0.  0.
    9900012    2    3    3    0    0  0.29216034168E+02  0.73294506877E+01  0.33493520541E+02  0.46142318541E+02  0.10000007109E+02 0.  0.
        -12    1    3    3    0    0 -0.29216034168E+02 -0.73294506877E+01 -0.33493520541E+02  0.45045681459E+02  0.00000000000E+00 0.  1.
         11    1    4    4    0    0  0.11041458872E+02  0.56434604543E+01  0.12809726513E+02  0.17828391782E+02  0.51100000000E-03 0. -1.
        -11    1    4    4    0    0  0.12941472639E+02  0.20825952774E+01  0.18397269375E+02  0.22589343458E+02  0.51100000000E-03 0.  1.
        -12    1    4    4    0    0  0.52331026568E+01 -0.39660504403E+00  0.22865246536E+01  0.57245833009E+01  0.00000000000E+00 0.  1.
</event>
<event>
 8    1  0.2962813E-009  0.9118800E+02  0.7816164E-02  0.1184000E+00
        -11   -1    0    0    0    0  0.00000000000E+00  0.00000000000E+00  0.45593999997E+02  0.45594000000E+02  0.51100000000E-03 0.  1.
         11   -1    0    0    0    0 -0.00000000000E+00 -0.00000000000E+00 -0.45593999997E+02  0.45594000000E+02  0.51100000000E-03 0. -1.
         23    2    1    2    0    0  0.00000000000E+00  0.00000000000E+00  0.00000000000E+00  0.91188000000E+02  0.91188000000E+02 0.  0.
    9900012    2    3    3    0    0 -0.78572102259E+01  0.40330206612E+02  0.18462182045E+02  0.46142317813E+02  0.10000000470E+02 0.  0.
        -12    1    3    3    0    0  0.78572102259E+01 -0.40330206612E+02 -0.18462182045E+02  0.45045682187E+02  0.00000000000E+00 0.  1.
         11    1    4    4    0    0 -0.31997119553E+00  0.20848974677E+02  0.11258922297E+02  0.23696950399E+02  0.51100000000E-03 0. -1.
        -11    1    4    4    0    0 -0.35334278703E+01  0.93564209331E+01  0.55342589968E+01  0.11430474535E+02  0.51100000000E-03 0.  1.
         12    1    4    4    0    0 -0.40038111601E+01  0.10124811001E+02  0.16690007505E+01  0.11014892878E+02  0.00000000000E+00 0. -1.
</event>
<event>
 8    1  0.2962813E-009  0.9118800E+02  0.7816164E-02  0.1184000E+00
        -11   -1    0    0    0    0  0.00000000000E+00  0.00000000000E+00  0.45593999997E+02  0.45594000000E+02  0.51100000000E-03 0. -1.
         11   -1    0    0    0    0 -0.00000000000E+00 -0.00000000000E+00 -0.45593999997E+02  0.45594000000E+02  0.51100000000E-03 0.  1.
         23    2    1    2    0    0 -0.35527136788E-14  0.00000000000E+00  0.00000000000E+00  0.91188000000E+02  0.91188000000E+02 0.  0.
    9900012    2    3    3    0    0 -0.29132615983E+02 -0.32048703832E+02 -0.12380820766E+02  0.46142318140E+02  0.10000003457E+02 0.  0.
         12    1    3    3    0    0  0.29132615983E+02  0.32048703832E+02  0.12380820766E+02  0.45045681860E+02  0.00000000000E+00 0. -1.
         11    1    4    4    0    0 -0.62143393082E+01 -0.34963564366E+01 -0.42283802989E+01  0.82898565478E+01  0.51100000000E-03 0. -1.
        -11    1    4    4    0    0 -0.53917171604E+01 -0.93906315257E+01 -0.77275026399E+00  0.10855953096E+02  0.51100000000E-03 0.  1.
        -12    1    4    4    0    0 -0.17526559515E+02 -0.19161715870E+02 -0.73796902034E+01  0.26996508497E+02  0.00000000000E+00 0.  1.
</event>
<event>
 8    1  0.2962813E-009  0.9118800E+02  0.7816164E-02  0.1184000E+00
        -11   -1    0    0    0    0  0.00000000000E+00  0.00000000000E+00  0.45593999997E+02  0.45594000000E+02  0.51100000000E-03 0. -1.
         11   -1    0    0    0    0 -0.00000000000E+00 -0.00000000000E+00 -0.45593999997E+02  0.45594000000E+02  0.51100000000E-03 0.  1.
         23    2    1    2    0    0  0.44408920985E-15  0.00000000000E+00  0.00000000000E+00  0.91188000000E+02  0.91188000000E+02 0.  0.
    9900012    2    3    3    0    0  0.13749539474E+01  0.41474899870E+02  0.17523000089E+02  0.46142319301E+02  0.10000014038E+02 0.  0.
        -12    1    3    3    0    0 -0.13749539474E+01 -0.41474899870E+02 -0.17523000089E+02  0.45045680699E+02  0.00000000000E+00 0.  1.
         11    1    4    4    0    0 -0.39143008615E+00  0.57280072397E+01  0.91010163014E+00  0.58130516675E+01  0.51100000000E-03 0. -1.
        -11    1    4    4    0    0  0.42814391882E+01  0.27769984909E+02  0.14852307960E+02  0.31781973435E+02  0.51100000000E-03 0.  1.
        -12    1    4    4    0    0 -0.25150551546E+01  0.79769077206E+01  0.17605904985E+01  0.85472941986E+01  0.00000000000E+00 0.  1.
</event>
<event>
 8    1  0.2962813E-009  0.9118800E+02  0.7816164E-02  0.1184000E+00
        -11   -1    0    0    0    0  0.00000000000E+00  0.00000000000E+00  0.45593999997E+02  0.45594000000E+02  0.51100000000E-03 0. -1.
         11   -1    0    0    0    0 -0.00000000000E+00 -0.00000000000E+00 -0.45593999997E+02  0.45594000000E+02  0.51100000000E-03 0.  1.
         23    2    1    2    0    0  0.35527136788E-14 -0.17763568394E-14  0.71054273576E-14  0.91188000000E+02  0.91188000000E+02 0.  0.
    9900012    2    3    3    0    0 -0.21943869532E+02  0.84870551646E+01 -0.38412886697E+02  0.46142318967E+02  0.10000010992E+02 0.  0.
         12    1    3    3    0    0  0.21943869532E+02 -0.84870551646E+01  0.38412886697E+02  0.45045681033E+02  0.00000000000E+00 0. -1.
         11    1    4    4    0    0 -0.86209483014E+01  0.39775830870E+01 -0.18401684111E+02  0.20706614769E+02  0.51100000000E-03 0. -1.
        -11    1    4    4    0    0 -0.97105691399E+01  0.43550398729E+01 -0.18834656616E+02  0.21633442061E+02  0.51100000000E-03 0.  1.
         12    1    4    4    0    0 -0.36123520904E+01  0.15443220465E+00 -0.11765459698E+01  0.38022621359E+01  0.00000000000E+00 0. -1.
</event>
<event>
 8    1  0.2962813E-009  0.9118800E+02  0.7816164E-02  0.1184000E+00
        -11   -1    0    0    0    0  0.00000000000E+00  0.00000000000E+00  0.45593999997E+02  0.45594000000E+02  0.51100000000E-03 0. -1.
         11   -1    0    0    0    0 -0.00000000000E+00 -0.00000000000E+00 -0.45593999997E+02  0.45594000000E+02  0.51100000000E-03 0.  1.
         23    2    1    2    0    0  0.00000000000E+00  0.35527136788E-14  0.00000000000E+00  0.91188000000E+02  0.91188000000E+02 0.  0.
    9900012    2    3    3    0    0 -0.11771622325E+02 -0.28148933595E+02 -0.33138798756E+02  0.46142317213E+02  0.99999950042E+01 0.  0.
         12    1    3    3    0    0  0.11771622325E+02  0.28148933595E+02  0.33138798756E+02  0.45045682787E+02  0.00000000000E+00 0. -1.
         11    1    4    4    0    0 -0.32085523823E+01 -0.10082113482E+02 -0.85190061703E+01  0.13583714037E+02  0.51100000000E-03 0.  1.
        -11    1    4    4    0    0 -0.74440167578E+01 -0.93812874906E+01 -0.10414477417E+02  0.15870831125E+02  0.51100000000E-03 0. -1.
         12    1    4    4    0    0 -0.11190531852E+01 -0.86855326221E+01 -0.14205315169E+02  0.16687772051E+02  0.00000000000E+00 0. -1.
</event>
<event>
 8    1  0.2962813E-009  0.9118800E+02  0.7816164E-02  0.1184000E+00
        -11   -1    0    0    0    0  0.00000000000E+00  0.00000000000E+00  0.45593999997E+02  0.45594000000E+02  0.51100000000E-03 0. -1.
         11   -1    0    0    0    0 -0.00000000000E+00 -0.00000000000E+00 -0.45593999997E+02  0.45594000000E+02  0.51100000000E-03 0.  1.
         23    2    1    2    0    0  0.00000000000E+00  0.00000000000E+00 -0.71054273576E-14  0.91188000000E+02  0.91188000000E+02 0.  0.
    9900012    2    3    3    0    0 -0.16215242538E+02 -0.16962309651E+02  0.38450740437E+02  0.46142317861E+02  0.10000000910E+02 0.  0.
        -12    1    3    3    0    0  0.16215242538E+02  0.16962309651E+02 -0.38450740437E+02  0.45045682139E+02  0.00000000000E+00 0.  1.
         11    1    4    4    0    0 -0.55786054631E+01 -0.47558599607E+01  0.17119588162E+02  0.18623086263E+02  0.51100000000E-03 0. -1.
        -11    1    4    4    0    0 -0.10634537632E+02 -0.10638959297E+02  0.15993413656E+02  0.21956095423E+02  0.51100000000E-03 0.  1.
        -12    1    4    4    0    0 -0.20994427048E-02 -0.15674903929E+01  0.53377386185E+01  0.55631361747E+01  0.00000000000E+00 0.  1.
</event>
<event>
 8    1  0.2962813E-009  0.9118800E+02  0.7816164E-02  0.1184000E+00
        -11   -1    0    0    0    0  0.00000000000E+00  0.00000000000E+00  0.45593999997E+02  0.45594000000E+02  0.51100000000E-03 0. -1.
         11   -1    0    0    0    0 -0.00000000000E+00 -0.00000000000E+00 -0.45593999997E+02  0.45594000000E+02  0.51100000000E-03 0.  1.
         23    2    1    2    0    0  0.00000000000E+00  0.71054273576E-14  0.00000000000E+00  0.91188000000E+02  0.91188000000E+02 0.  0.
    9900012    2    3    3    0    0  0.22454523764E+02 -0.37955292668E+02 -0.91817036617E+01  0.46142316954E+02  0.99999926396E+01 0.  0.
        -12    1    3    3    0    0 -0.22454523764E+02  0.37955292668E+02  0.91817036617E+01  0.45045683046E+02  0.00000000000E+00 0.  1.
         11    1    4    4    0    0  0.10892410105E+02 -0.12564035837E+02 -0.37103960237E+01  0.17037213191E+02  0.51100000000E-03 0. -1.
        -11    1    4    4    0    0  0.11506721240E+02 -0.20021607242E+02 -0.33634484980E+01  0.23336284544E+02  0.51100000000E-03 0.  1.
        -12    1    4    4    0    0  0.55392418823E-01 -0.53696495888E+01 -0.21078591400E+01  0.57688192190E+01  0.00000000000E+00 0.  1.
</event>
<event>
 8    1  0.2962813E-009  0.9118800E+02  0.7816164E-02  0.1184000E+00
        -11   -1    0    0    0    0  0.00000000000E+00  0.00000000000E+00  0.45593999997E+02  0.45594000000E+02  0.51100000000E-03 0. -1.
         11   -1    0    0    0    0 -0.00000000000E+00 -0.00000000000E+00 -0.45593999997E+02  0.45594000000E+02  0.51100000000E-03 0.  1.
         23    2    1    2    0    0 -0.35527136788E-14  0.35527136788E-14  0.00000000000E+00  0.91188000000E+02  0.91188000000E+02 0.  0.
    9900012    2    3    3    0    0  0.21663681595E+02 -0.30384294831E+02  0.25230795444E+02  0.46142317506E+02  0.99999976732E+01 0.  0.
        -12    1    3    3    0    0 -0.21663681595E+02  0.30384294831E+02 -0.25230795444E+02  0.45045682494E+02  0.00000000000E+00 0.  1.
         11    1    4    4    0    0  0.11024023211E+02 -0.22252779607E+02  0.13340386006E+02  0.28190090228E+02  0.51100000000E-03 0. -1.
        -11    1    4    4    0    0  0.38629990751E+01 -0.22216602123E+01  0.37949072903E+01  0.58531920826E+01  0.51100000000E-03 0.  1.
         12    1    4    4    0    0  0.67766593084E+01 -0.59098550119E+01  0.80955021473E+01  0.12099035195E+02  0.00000000000E+00 0. -1.
</event>
<event>
 8    1  0.2962813E-009  0.9118800E+02  0.7816164E-02  0.1184000E+00
        -11   -1    0    0    0    0  0.00000000000E+00  0.00000000000E+00  0.45593999997E+02  0.45594000000E+02  0.51100000000E-03 0.  1.
         11   -1    0    0    0    0 -0.00000000000E+00 -0.00000000000E+00 -0.45593999997E+02  0.45594000000E+02  0.51100000000E-03 0. -1.
         23    2    1    2    0    0 -0.17763568394E-14  0.00000000000E+00  0.00000000000E+00  0.91188000000E+02  0.91188000000E+02 0.  0.
    9900012    2    3    3    0    0 -0.13855930176E+02 -0.39566157543E+02  0.16481684117E+02  0.46142317242E+02  0.99999952707E+01 0.  0.
         12    1    3    3    0    0  0.13855930176E+02  0.39566157543E+02 -0.16481684117E+02  0.45045682758E+02  0.00000000000E+00 0. -1.
         11    1    4    4    0    0 -0.72213017064E+01 -0.16764223580E+02  0.68812651550E+01  0.19507388368E+02  0.51100000000E-03 0.  1.
        -11    1    4    4    0    0 -0.67985526303E+01 -0.15048027676E+02  0.91218010780E+01  0.18864535774E+02  0.51100000000E-03 0. -1.
         12    1    4    4    0    0  0.16392416119E+00 -0.77539062875E+01  0.47861788347E+00  0.77703930997E+01  0.00000000000E+00 0. -1.
</event>
<event>
 8    1  0.2962813E-009  0.9118800E+02  0.7816164E-02  0.1184000E+00
        -11   -1    0    0    0    0  0.00000000000E+00  0.00000000000E+00  0.45593999997E+02  0.45594000000E+02  0.51100000000E-03 0. -1.
         11   -1    0    0    0    0 -0.00000000000E+00 -0.00000000000E+00 -0.45593999997E+02  0.45594000000E+02  0.51100000000E-03 0.  1.
         23    2    1    2    0    0  0.88817841970E-15 -0.35527136788E-14  0.00000000000E+00  0.91188000000E+02  0.91188000000E+02 0.  0.
    9900012    2    3    3    0    0  0.65828992981E+01  0.25297704330E+02  0.36685218365E+02  0.46142315923E+02  0.99999832350E+01 0.  0.
        -12    1    3    3    0    0 -0.65828992981E+01 -0.25297704330E+02 -0.36685218365E+02  0.45045684077E+02  0.00000000000E+00 0.  1.
         11    1    4    4    0    0  0.42243769535E+01  0.16551267848E+02  0.22961253057E+02  0.28618332765E+02  0.51100000000E-03 0. -1.
        -11    1    4    4    0    0  0.14006692041E+01 -0.36211855207E+00  0.71343407561E+00  0.16130692813E+01  0.51100000000E-03 0.  1.
        -12    1    4    4    0    0  0.95785314045E+00  0.91085550336E+01  0.13010531232E+02  0.15910913876E+02  0.00000000000E+00 0.  1.
</event>
<event>
 8    1  0.2962813E-009  0.9118800E+02  0.7816164E-02  0.1184000E+00
        -11   -1    0    0    0    0  0.00000000000E+00  0.00000000000E+00  0.45593999997E+02  0.45594000000E+02  0.51100000000E-03 0. -1.
         11   -1    0    0    0    0 -0.00000000000E+00 -0.00000000000E+00 -0.45593999997E+02  0.45594000000E+02  0.51100000000E-03 0.  1.
         23    2    1    2    0    0  0.00000000000E+00 -0.71054273576E-14 -0.35527136788E-14  0.91188000000E+02  0.91188000000E+02 0.  0.
    9900012    2    3    3    0    0  0.14840694185E+01  0.35405704315E+02  0.27809119793E+02  0.46142317590E+02  0.99999984424E+01 0.  0.
        -12    1    3    3    0    0 -0.14840694185E+01 -0.35405704315E+02 -0.27809119793E+02  0.45045682410E+02  0.00000000000E+00 0.  1.
         11    1    4    4    0    0  0.18987401125E+01  0.10846601988E+02  0.50749317138E+01  0.12124723537E+02  0.51100000000E-03 0. -1.
        -11    1    4    4    0    0 -0.19099801748E+01  0.17770180325E+02  0.19156920470E+02  0.26199521660E+02  0.51100000000E-03 0.  1.
        -12    1    4    4    0    0  0.14953094807E+01  0.67889220018E+01  0.35772676095E+01  0.78180723929E+01  0.00000000000E+00 0.  1.
</event>
<event>
 8    1  0.2962813E-009  0.9118800E+02  0.7816164E-02  0.1184000E+00
        -11   -1    0    0    0    0  0.00000000000E+00  0.00000000000E+00  0.45593999997E+02  0.45594000000E+02  0.51100000000E-03 0. -1.
         11   -1    0    0    0    0 -0.00000000000E+00 -0.00000000000E+00 -0.45593999997E+02  0.45594000000E+02  0.51100000000E-03 0.  1.
         23    2    1    2    0    0  0.00000000000E+00  0.00000000000E+00  0.00000000000E+00  0.91188000000E+02  0.91188000000E+02 0.  0.
    9900012    2    3    3    0    0  0.33267189831E+02 -0.87884936690E+01 -0.29071806654E+02  0.46142317828E+02  0.10000000607E+02 0.  0.
         12    1    3    3    0    0 -0.33267189831E+02  0.87884936690E+01  0.29071806654E+02  0.45045682172E+02  0.00000000000E+00 0. -1.
         11    1    4    4    0    0  0.10004125691E+02 -0.33345665632E+01 -0.52964614605E+01  0.11800608852E+02  0.51100000000E-03 0. -1.
        -11    1    4    4    0    0  0.89841955425E+01  0.10766732746E+01 -0.95252111566E+01  0.13137908613E+02  0.51100000000E-03 0.  1.
         12    1    4    4    0    0  0.14278868598E+02 -0.65306003804E+01 -0.14250134037E+02  0.21203800363E+02  0.00000000000E+00 0. -1.
</event>
<event>
 8    1  0.2962813E-009  0.9118800E+02  0.7816164E-02  0.1184000E+00
        -11   -1    0    0    0    0  0.00000000000E+00  0.00000000000E+00  0.45593999997E+02  0.45594000000E+02  0.51100000000E-03 0. -1.
         11   -1    0    0    0    0 -0.00000000000E+00 -0.00000000000E+00 -0.45593999997E+02  0.45594000000E+02  0.51100000000E-03 0.  1.
         23    2    1    2    0    0 -0.11102230246E-15 -0.71054273576E-14  0.00000000000E+00  0.91188000000E+02  0.91188000000E+02 0.  0.
    9900012    2    3    3    0    0  0.63031060403E+00  0.41138495021E+02  0.18339586291E+02  0.46142317750E+02  0.99999998963E+01 0.  0.
        -12    1    3    3    0    0 -0.63031060403E+00 -0.41138495021E+02 -0.18339586291E+02  0.45045682250E+02  0.00000000000E+00 0.  1.
         11    1    4    4    0    0 -0.88525298297E+00  0.38464055622E+02  0.17584286677E+02  0.42302179447E+02  0.51100000000E-03 0. -1.
        -11    1    4    4    0    0  0.72366909985E+00  0.23760054915E+01  0.13297447809E+01  0.28173250620E+01  0.51100000000E-03 0.  1.
         12    1    4    4    0    0  0.79189448716E+00  0.29843390746E+00 -0.57444516687E+00  0.10228132408E+01  0.00000000000E+00 0. -1.
</event>
<event>
 8    1  0.3326144E-009  0.9118800E+02  0.7816164E-02  0.1184000E+00
        -11   -1    0    0    0    0  0.00000000000E+00  0.00000000000E+00  0.45593999997E+02  0.45594000000E+02  0.51100000000E-03 0. -1.
         11   -1    0    0    0    0 -0.00000000000E+00 -0.00000000000E+00 -0.45593999997E+02  0.45594000000E+02  0.51100000000E-03 0.  1.
         23    2    1    2    0    0  0.00000000000E+00  0.00000000000E+00 -0.71054273576E-14  0.91188000000E+02  0.91188000000E+02 0.  0.
    9900012    2    3    3    0    0 -0.11706319441E+02 -0.22572937430E+02 -0.37182496869E+02  0.46142317715E+02  0.99999995827E+01 0.  0.
         12    1    3    3    0    0  0.11706319441E+02  0.22572937430E+02  0.37182496869E+02  0.45045682285E+02  0.00000000000E+00 0. -1.
         11    1    4    4    0    0 -0.59499010496E+00 -0.37074738037E+01 -0.11710932093E+01  0.39332982084E+01  0.51100000000E-03 0. -1.
        -11    1    4    4    0    0 -0.10141136187E+02 -0.16687997622E+02 -0.30659145197E+02  0.36349898105E+02  0.51100000000E-03 0.  1.
         12    1    4    4    0    0 -0.97019314874E+00 -0.21774660040E+01 -0.53522584631E+01  0.58591214017E+01  0.00000000000E+00 0. -1.
</event>
<event>
 8    1  0.2962813E-009  0.9118800E+02  0.7816164E-02  0.1184000E+00
        -11   -1    0    0    0    0  0.00000000000E+00  0.00000000000E+00  0.45593999997E+02  0.45594000000E+02  0.51100000000E-03 0. -1.
         11   -1    0    0    0    0 -0.00000000000E+00 -0.00000000000E+00 -0.45593999997E+02  0.45594000000E+02  0.51100000000E-03 0.  1.
         23    2    1    2    0    0  0.44408920985E-15  0.00000000000E+00  0.00000000000E+00  0.91188000000E+02  0.91188000000E+02 0.  0.
    9900012    2    3    3    0    0 -0.25779878128E+01  0.17544930601E+02 -0.41408246646E+02  0.46142317618E+02  0.99999986931E+01 0.  0.
         12    1    3    3    0    0  0.25779878128E+01 -0.17544930601E+02  0.41408246646E+02  0.45045682382E+02  0.00000000000E+00 0. -1.
         11    1    4    4    0    0 -0.99998598419E+00  0.25583605031E+01 -0.10705089178E+02  0.11051882871E+02  0.51100000000E-03 0. -1.
        -11    1    4    4    0    0 -0.25627534083E+01  0.22119992637E+01 -0.28258802794E+01  0.44097897216E+01  0.51100000000E-03 0.  1.
        -12    1    4    4    0    0  0.98475157968E+00  0.12774570834E+02 -0.27877277190E+02  0.30680645025E+02  0.00000000000E+00 0.  1.
</event>
<event>
 8    1  0.2962813E-009  0.9118800E+02  0.7816164E-02  0.1184000E+00
        -11   -1    0    0    0    0  0.00000000000E+00  0.00000000000E+00  0.45593999997E+02  0.45594000000E+02  0.51100000000E-03 0. -1.
         11   -1    0    0    0    0 -0.00000000000E+00 -0.00000000000E+00 -0.45593999997E+02  0.45594000000E+02  0.51100000000E-03 0.  1.
         23    2    1    2    0    0 -0.35527136788E-14  0.35527136788E-14 -0.35527136788E-14  0.91188000000E+02  0.91188000000E+02 0.  0.
    9900012    2    3    3    0    0  0.21149219689E+02  0.28344587218E+02  0.27899970495E+02  0.46142317947E+02  0.10000001693E+02 0.  0.
        -12    1    3    3    0    0 -0.21149219689E+02 -0.28344587218E+02 -0.27899970495E+02  0.45045682053E+02  0.00000000000E+00 0.  1.
         11    1    4    4    0    0  0.11757504548E+02  0.20566596583E+02  0.16644535886E+02  0.28952795778E+02  0.51100000000E-03 0. -1.
        -11    1    4    4    0    0  0.98236373080E+01  0.72926543369E+01  0.11104306659E+02  0.16522478140E+02  0.51100000000E-03 0.  1.
         12    1    4    4    0    0 -0.43192216695E+00  0.48533629736E+00  0.15112795041E+00  0.66704402946E+00  0.00000000000E+00 0. -1.
</event>
<event>
 8    1  0.2962813E-009  0.9118800E+02  0.7816164E-02  0.1184000E+00
        -11   -1    0    0    0    0  0.00000000000E+00  0.00000000000E+00  0.45593999997E+02  0.45594000000E+02  0.51100000000E-03 0. -1.
         11   -1    0    0    0    0 -0.00000000000E+00 -0.00000000000E+00 -0.45593999997E+02  0.45594000000E+02  0.51100000000E-03 0.  1.
         23    2    1    2    0    0  0.00000000000E+00  0.71054273576E-14  0.00000000000E+00  0.91188000000E+02  0.91188000000E+02 0.  0.
    9900012    2    3    3    0    0  0.27238260910E+01  0.43421274759E+02 -0.11674206913E+02  0.46142318328E+02  0.10000005166E+02 0.  0.
         12    1    3    3    0    0 -0.27238260910E+01 -0.43421274759E+02  0.11674206913E+02  0.45045681672E+02  0.00000000000E+00 0. -1.
         11    1    4    4    0    0 -0.30555378756E+01  0.15873113321E+02 -0.19436508479E+01  0.16280964869E+02  0.51100000000E-03 0. -1.
        -11    1    4    4    0    0  0.49926002246E+01  0.24551805577E+02 -0.93413551180E+01  0.26739074961E+02  0.51100000000E-03 0.  1.
        -12    1    4    4    0    0  0.78676374205E+00  0.29963558615E+01 -0.38920094705E+00  0.31222784969E+01  0.00000000000E+00 0.  1.
</event>
<event>
 8    1  0.2962813E-009  0.9118800E+02  0.7816164E-02  0.1184000E+00
        -11   -1    0    0    0    0  0.00000000000E+00  0.00000000000E+00  0.45593999997E+02  0.45594000000E+02  0.51100000000E-03 0. -1.
         11   -1    0    0    0    0 -0.00000000000E+00 -0.00000000000E+00 -0.45593999997E+02  0.45594000000E+02  0.51100000000E-03 0.  1.
         23    2    1    2    0    0  0.00000000000E+00  0.00000000000E+00  0.00000000000E+00  0.91188000000E+02  0.91188000000E+02 0.  0.
    9900012    2    3    3    0    0  0.29463794676E+02 -0.19743449471E+02 -0.27770388930E+02  0.46142317687E+02  0.99999993238E+01 0.  0.
         12    1    3    3    0    0 -0.29463794676E+02  0.19743449471E+02  0.27770388930E+02  0.45045682313E+02  0.00000000000E+00 0. -1.
         11    1    4    4    0    0  0.52662357039E+01 -0.51404086179E+01 -0.10799900160E+02  0.13068851632E+02  0.51100000000E-03 0. -1.
        -11    1    4    4    0    0  0.69484822705E+01 -0.52397505653E+01 -0.42482797520E+01  0.96842280519E+01  0.51100000000E-03 0.  1.
         12    1    4    4    0    0  0.17249076701E+02 -0.93632902882E+01 -0.12722209018E+02  0.23389238003E+02  0.00000000000E+00 0. -1.
</event>
<event>
 8    1  0.2962813E-009  0.9118800E+02  0.7816164E-02  0.1184000E+00
        -11   -1    0    0    0    0  0.00000000000E+00  0.00000000000E+00  0.45593999997E+02  0.45594000000E+02  0.51100000000E-03 0.  1.
         11   -1    0    0    0    0 -0.00000000000E+00 -0.00000000000E+00 -0.45593999997E+02  0.45594000000E+02  0.51100000000E-03 0. -1.
         23    2    1    2    0    0 -0.71054273576E-14 -0.71054273576E-14 -0.35527136788E-14  0.91188000000E+02  0.91188000000E+02 0.  0.
    9900012    2    3    3    0    0 -0.33183588104E+02 -0.24475913714E+02 -0.18135399594E+02  0.46142316633E+02  0.99999897085E+01 0.  0.
         12    1    3    3    0    0  0.33183588104E+02  0.24475913714E+02  0.18135399594E+02  0.45045683367E+02  0.00000000000E+00 0. -1.
         11    1    4    4    0    0 -0.36251016979E+01 -0.25487787156E+01 -0.53702127544E+01  0.69625297522E+01  0.51100000000E-03 0. -1.
        -11    1    4    4    0    0 -0.24562484475E+02 -0.19995428495E+02 -0.11283769979E+02  0.33622258543E+02  0.51100000000E-03 0.  1.
        -12    1    4    4    0    0 -0.49960019309E+01 -0.19317065032E+01 -0.14814168602E+01  0.55575283374E+01  0.00000000000E+00 0.  1.
</event>
<event>
 8    1  0.2962813E-009  0.9118800E+02  0.7816164E-02  0.1184000E+00
        -11   -1    0    0    0    0  0.00000000000E+00  0.00000000000E+00  0.45593999997E+02  0.45594000000E+02  0.51100000000E-03 0. -1.
         11   -1    0    0    0    0 -0.00000000000E+00 -0.00000000000E+00 -0.45593999997E+02  0.45594000000E+02  0.51100000000E-03 0.  1.
         23    2    1    2    0    0  0.00000000000E+00  0.00000000000E+00  0.00000000000E+00  0.91188000000E+02  0.91188000000E+02 0.  0.
    9900012    2    3    3    0    0 -0.18882966733E+02 -0.13924554525E+02 -0.38453256093E+02  0.46142328116E+02  0.10000094423E+02 0.  0.
         12    1    3    3    0    0  0.18882966733E+02  0.13924554525E+02  0.38453256093E+02  0.45045671884E+02  0.00000000000E+00 0. -1.
         11    1    4    4    0    0 -0.32672178041E+00 -0.20999071525E+01 -0.12726528661E+01  0.24770956279E+01  0.51100000000E-03 0. -1.
        -11    1    4    4    0    0 -0.16747913925E+02 -0.12511459193E+02 -0.33092717298E+02  0.39142779288E+02  0.51100000000E-03 0.  1.
         12    1    4    4    0    0 -0.18083310275E+01  0.68681182000E+00 -0.40878859291E+01  0.45224532004E+01  0.00000000000E+00 0. -1.
</event>
<event>
 8    1  0.2962813E-009  0.9118800E+02  0.7816164E-02  0.1184000E+00
        -11   -1    0    0    0    0  0.00000000000E+00  0.00000000000E+00  0.45593999997E+02  0.45594000000E+02  0.51100000000E-03 0.  1.
         11   -1    0    0    0    0 -0.00000000000E+00 -0.00000000000E+00 -0.45593999997E+02  0.45594000000E+02  0.51100000000E-03 0. -1.
         23    2    1    2    0    0  0.00000000000E+00  0.35527136788E-14  0.00000000000E+00  0.91188000000E+02  0.91188000000E+02 0.  0.
    9900012    2    3    3    0    0 -0.27685856587E+02  0.30906802928E+02  0.17532152513E+02  0.46142317699E+02  0.99999994368E+01 0.  0.
        -12    1    3    3    0    0  0.27685856587E+02 -0.30906802928E+02 -0.17532152513E+02  0.45045682301E+02  0.00000000000E+00 0.  1.
         11    1    4    4    0    0 -0.26065176162E+01  0.74887694973E+01  0.20610932656E+01  0.81929059788E+01  0.51100000000E-03 0. -1.
        -11    1    4    4    0    0 -0.10129747151E+02  0.10733634817E+02  0.90801587881E+01  0.17328357614E+02  0.51100000000E-03 0.  1.
         12    1    4    4    0    0 -0.14949591820E+02  0.12684398614E+02  0.63909004589E+01  0.20621054106E+02  0.00000000000E+00 0. -1.
</event>
<event>
 8    1  0.2962813E-009  0.9118800E+02  0.7816164E-02  0.1184000E+00
        -11   -1    0    0    0    0  0.00000000000E+00  0.00000000000E+00  0.45593999997E+02  0.45594000000E+02  0.51100000000E-03 0. -1.
         11   -1    0    0    0    0 -0.00000000000E+00 -0.00000000000E+00 -0.45593999997E+02  0.45594000000E+02  0.51100000000E-03 0.  1.
         23    2    1    2    0    0  0.00000000000E+00  0.00000000000E+00  0.00000000000E+00  0.91188000000E+02  0.91188000000E+02 0.  0.
    9900012    2    3    3    0    0 -0.23850318093E+02  0.94404147652E+01 -0.37029101905E+02  0.46142317721E+02  0.99999996351E+01 0.  0.
         12    1    3    3    0    0  0.23850318093E+02 -0.94404147652E+01  0.37029101905E+02  0.45045682279E+02  0.00000000000E+00 0. -1.
         11    1    4    4    0    0 -0.11420614552E+02  0.70689393320E+01 -0.14512599472E+02  0.19774121566E+02  0.51100000000E-03 0. -1.
        -11    1    4    4    0    0 -0.94418698610E+01  0.37754256313E+01 -0.18966258835E+02  0.21520263001E+02  0.51100000000E-03 0.  1.
         12    1    4    4    0    0 -0.29878336804E+01 -0.14039501981E+01 -0.35502435979E+01  0.48479331540E+01  0.00000000000E+00 0. -1.
</event>
<event>
 8    1  0.2962813E-009  0.9118800E+02  0.7816164E-02  0.1184000E+00
        -11   -1    0    0    0    0  0.00000000000E+00  0.00000000000E+00  0.45593999997E+02  0.45594000000E+02  0.51100000000E-03 0. -1.
         11   -1    0    0    0    0 -0.00000000000E+00 -0.00000000000E+00 -0.45593999997E+02  0.45594000000E+02  0.51100000000E-03 0.  1.
         23    2    1    2    0    0 -0.35527136788E-14  0.17763568394E-14  0.71054273576E-14  0.91188000000E+02  0.91188000000E+02 0.  0.
    9900012    2    3    3    0    0 -0.19775509211E+02  0.86806739098E+01  0.39530855822E+02  0.46142318452E+02  0.10000006300E+02 0.  0.
        -12    1    3    3    0    0  0.19775509211E+02 -0.86806739098E+01 -0.39530855822E+02  0.45045681548E+02  0.00000000000E+00 0.  1.
         11    1    4    4    0    0 -0.85789323473E+00  0.17158069157E+01  0.80480234097E+01  0.82734911155E+01  0.51100000000E-03 0. -1.
        -11    1    4    4    0    0 -0.28187373125E+01  0.15916431110E+01  0.18731148347E+01  0.37399421486E+01  0.51100000000E-03 0.  1.
         12    1    4    4    0    0 -0.16098878664E+02  0.53732238831E+01  0.29609717578E+02  0.34128885188E+02  0.00000000000E+00 0. -1.
</event>
<event>
 8    1  0.2962813E-009  0.9118800E+02  0.7816164E-02  0.1184000E+00
        -11   -1    0    0    0    0  0.00000000000E+00  0.00000000000E+00  0.45593999997E+02  0.45594000000E+02  0.51100000000E-03 0. -1.
         11   -1    0    0    0    0 -0.00000000000E+00 -0.00000000000E+00 -0.45593999997E+02  0.45594000000E+02  0.51100000000E-03 0.  1.
         23    2    1    2    0    0 -0.35527136788E-14  0.00000000000E+00  0.71054273576E-14  0.91188000000E+02  0.91188000000E+02 0.  0.
    9900012    2    3    3    0    0  0.18807870440E+02  0.24556981241E+02  0.32746483408E+02  0.46142317702E+02  0.99999994581E+01 0.  0.
        -12    1    3    3    0    0 -0.18807870440E+02 -0.24556981241E+02 -0.32746483408E+02  0.45045682298E+02  0.00000000000E+00 0.  1.
         11    1    4    4    0    0  0.17961175427E+02  0.17147807928E+02  0.26900037450E+02  0.36609604676E+02  0.51100000000E-03 0. -1.
        -11    1    4    4    0    0 -0.20815171262E+00  0.75005366463E+00  0.46962994085E+00  0.90909855228E+00  0.51100000000E-03 0.  1.
         12    1    4    4    0    0  0.10548467250E+01  0.66591196483E+01  0.53768160168E+01  0.86236144732E+01  0.00000000000E+00 0. -1.
</event>
<event>
 8    1  0.2962813E-009  0.9118800E+02  0.7816164E-02  0.1184000E+00
        -11   -1    0    0    0    0  0.00000000000E+00  0.00000000000E+00  0.45593999997E+02  0.45594000000E+02  0.51100000000E-03 0. -1.
         11   -1    0    0    0    0 -0.00000000000E+00 -0.00000000000E+00 -0.45593999997E+02  0.45594000000E+02  0.51100000000E-03 0.  1.
         23    2    1    2    0    0 -0.17763568394E-14  0.00000000000E+00  0.00000000000E+00  0.91188000000E+02  0.91188000000E+02 0.  0.
    9900012    2    3    3    0    0  0.14669196341E+02  0.14594930480E+02  0.40011450311E+02  0.46142317932E+02  0.10000001555E+02 0.  0.
        -12    1    3    3    0    0 -0.14669196341E+02 -0.14594930480E+02 -0.40011450311E+02  0.45045682068E+02  0.00000000000E+00 0.  1.
         11    1    4    4    0    0  0.11938219208E+02  0.10694077073E+02  0.31425405178E+02  0.35276627576E+02  0.51100000000E-03 0. -1.
        -11    1    4    4    0    0  0.30714221993E+01  0.34929530150E+00  0.39866508029E+01  0.50447028078E+01  0.51100000000E-03 0.  1.
         12    1    4    4    0    0 -0.34044506638E+00  0.35515581059E+01  0.45993943305E+01  0.58209875477E+01  0.00000000000E+00 0. -1.
</event>
<event>
 8    1  0.3314526E-009  0.9118800E+02  0.7816164E-02  0.1184000E+00
        -11   -1    0    0    0    0  0.00000000000E+00  0.00000000000E+00  0.45593999997E+02  0.45594000000E+02  0.51100000000E-03 0. -1.
         11   -1    0    0    0    0 -0.00000000000E+00 -0.00000000000E+00 -0.45593999997E+02  0.45594000000E+02  0.51100000000E-03 0.  1.
         23    2    1    2    0    0  0.17763568394E-14  0.88817841970E-15  0.00000000000E+00  0.91188000000E+02  0.91188000000E+02 0.  0.
    9900012    2    3    3    0    0 -0.15501129669E+02 -0.69929539834E+01 -0.41712433320E+02  0.46142317411E+02  0.99999968085E+01 0.  0.
         12    1    3    3    0    0  0.15501129669E+02  0.69929539834E+01  0.41712433320E+02  0.45045682589E+02  0.00000000000E+00 0. -1.
         11    1    4    4    0    0 -0.26925589114E+00  0.12389635594E+01 -0.52373678234E+01  0.53886502406E+01  0.51100000000E-03 0. -1.
        -11    1    4    4    0    0 -0.13178518592E+02 -0.84593556858E+01 -0.34534822278E+02  0.37919493680E+02  0.51100000000E-03 0.  1.
        -12    1    4    4    0    0 -0.20533551861E+01  0.22743814293E+00 -0.19402432185E+01  0.28341734908E+01  0.00000000000E+00 0.  1.
</event>
<event>
 8    1  0.2962813E-009  0.9118800E+02  0.7816164E-02  0.1184000E+00
        -11   -1    0    0    0    0  0.00000000000E+00  0.00000000000E+00  0.45593999997E+02  0.45594000000E+02  0.51100000000E-03 0. -1.
         11   -1    0    0    0    0 -0.00000000000E+00 -0.00000000000E+00 -0.45593999997E+02  0.45594000000E+02  0.51100000000E-03 0.  1.
         23    2    1    2    0    0  0.00000000000E+00  0.35527136788E-14 -0.71054273576E-14  0.91188000000E+02  0.91188000000E+02 0.  0.
    9900012    2    3    3    0    0 -0.15371400662E+02  0.11640547847E+02  0.40710328712E+02  0.46142321225E+02  0.10000031584E+02 0.  0.
        -12    1    3    3    0    0  0.15371400662E+02 -0.11640547847E+02 -0.40710328712E+02  0.45045678775E+02  0.00000000000E+00 0.  1.
         11    1    4    4    0    0  0.24735531934E+00  0.31986428820E+01  0.10365344086E+02  0.10850477373E+02  0.51100000000E-03 0. -1.
        -11    1    4    4    0    0 -0.13923623190E+02  0.81703233165E+01  0.25812644133E+02  0.30445263395E+02  0.51100000000E-03 0.  1.
        -12    1    4    4    0    0 -0.16951327915E+01  0.27158164816E+00  0.45323404935E+01  0.48465804565E+01  0.00000000000E+00 0.  1.
</event>
<event>
 8    1  0.2962813E-009  0.9118800E+02  0.7816164E-02  0.1184000E+00
        -11   -1    0    0    0    0  0.00000000000E+00  0.00000000000E+00  0.45593999997E+02  0.45594000000E+02  0.51100000000E-03 0. -1.
         11   -1    0    0    0    0 -0.00000000000E+00 -0.00000000000E+00 -0.45593999997E+02  0.45594000000E+02  0.51100000000E-03 0.  1.
         23    2    1    2    0    0  0.00000000000E+00  0.00000000000E+00  0.71054273576E-14  0.91188000000E+02  0.91188000000E+02 0.  0.
    9900012    2    3    3    0    0  0.22836503736E+02 -0.21123317285E+02 -0.32579334302E+02  0.46142318081E+02  0.10000002914E+02 0.  0.
         12    1    3    3    0    0 -0.22836503736E+02  0.21123317285E+02  0.32579334302E+02  0.45045681919E+02  0.00000000000E+00 0. -1.
         11    1    4    4    0    0  0.35498557945E+01 -0.53477129988E+01 -0.87055988280E+01  0.10816051114E+02  0.51100000000E-03 0. -1.
        -11    1    4    4    0    0  0.53715693438E+01 -0.12622754739E+01 -0.79538310981E+01  0.96804197216E+01  0.51100000000E-03 0.  1.
         12    1    4    4    0    0  0.13915078598E+02 -0.14513328812E+02 -0.15919904376E+02  0.25645847245E+02  0.00000000000E+00 0. -1.
</event>
<event>
 8    1  0.2962813E-009  0.9118800E+02  0.7816164E-02  0.1184000E+00
        -11   -1    0    0    0    0  0.00000000000E+00  0.00000000000E+00  0.45593999997E+02  0.45594000000E+02  0.51100000000E-03 0. -1.
         11   -1    0    0    0    0 -0.00000000000E+00 -0.00000000000E+00 -0.45593999997E+02  0.45594000000E+02  0.51100000000E-03 0.  1.
         23    2    1    2    0    0  0.17763568394E-14  0.35527136788E-14  0.00000000000E+00  0.91188000000E+02  0.91188000000E+02 0.  0.
    9900012    2    3    3    0    0  0.11080600483E+02  0.21519512307E+02 -0.37990056197E+02  0.46142317778E+02  0.10000000154E+02 0.  0.
         12    1    3    3    0    0 -0.11080600483E+02 -0.21519512307E+02  0.37990056197E+02  0.45045682222E+02  0.00000000000E+00 0. -1.
         11    1    4    4    0    0  0.41807953152E+01  0.15200091797E+02 -0.18060357251E+02  0.23972866837E+02  0.51100000000E-03 0. -1.
        -11    1    4    4    0    0  0.40533410192E+01  0.43894356693E+01 -0.15112009523E+02  0.16250216952E+02  0.51100000000E-03 0.  1.
         12    1    4    4    0    0  0.28464641481E+01  0.19299848413E+01 -0.48176894227E+01  0.59192339883E+01  0.00000000000E+00 0. -1.
</event>
<event>
 8    1  0.2962813E-009  0.9118800E+02  0.7816164E-02  0.1184000E+00
        -11   -1    0    0    0    0  0.00000000000E+00  0.00000000000E+00  0.45593999997E+02  0.45594000000E+02  0.51100000000E-03 0.  1.
         11   -1    0    0    0    0 -0.00000000000E+00 -0.00000000000E+00 -0.45593999997E+02  0.45594000000E+02  0.51100000000E-03 0. -1.
         23    2    1    2    0    0 -0.35527136788E-14  0.71054273576E-14  0.88817841970E-15  0.91188000000E+02  0.91188000000E+02 0.  0.
    9900012    2    3    3    0    0 -0.24845859691E+02  0.36750573845E+02  0.78225358571E+01  0.46142317755E+02  0.99999999414E+01 0.  0.
        -12    1    3    3    0    0  0.24845859691E+02 -0.36750573845E+02 -0.78225358571E+01  0.45045682245E+02  0.00000000000E+00 0.  1.
         11    1    4    4    0    0 -0.19821754099E+02  0.28781411424E+02  0.38368851684E+01  0.35156695908E+02  0.51100000000E-03 0. -1.
        -11    1    4    4    0    0 -0.39454233154E+01  0.59357119888E+01  0.47443087204E+01  0.85619803461E+01  0.51100000000E-03 0.  1.
         12    1    4    4    0    0 -0.10786822761E+01  0.20334504322E+01 -0.75865803167E+00  0.24236415003E+01  0.00000000000E+00 0. -1.
</event>
<event>
 8    1  0.2962813E-009  0.9118800E+02  0.7816164E-02  0.1184000E+00
        -11   -1    0    0    0    0  0.00000000000E+00  0.00000000000E+00  0.45593999997E+02  0.45594000000E+02  0.51100000000E-03 0. -1.
         11   -1    0    0    0    0 -0.00000000000E+00 -0.00000000000E+00 -0.45593999997E+02  0.45594000000E+02  0.51100000000E-03 0.  1.
         23    2    1    2    0    0  0.00000000000E+00 -0.17763568394E-14  0.71054273576E-14  0.91188000000E+02  0.91188000000E+02 0.  0.
    9900012    2    3    3    0    0  0.70083389721E+01 -0.10383528375E+02  0.43268682674E+02  0.46142318997E+02  0.10000011270E+02 0.  0.
        -12    1    3    3    0    0 -0.70083389721E+01  0.10383528375E+02 -0.43268682674E+02  0.45045681003E+02  0.00000000000E+00 0.  1.
         11    1    4    4    0    0 -0.21988675058E+00 -0.12781486287E+01  0.89233842138E+01  0.90171392464E+01  0.51100000000E-03 0. -1.
        -11    1    4    4    0    0  0.42916327928E+01  0.36844456082E-01  0.13690745052E+02  0.14347681691E+02  0.51100000000E-03 0.  1.
        -12    1    4    4    0    0  0.29365929299E+01 -0.91422242020E+01  0.20654553408E+02  0.22777498060E+02  0.00000000000E+00 0.  1.
</event>
<event>
 8    1  0.2962813E-009  0.9118800E+02  0.7816164E-02  0.1184000E+00
        -11   -1    0    0    0    0  0.00000000000E+00  0.00000000000E+00  0.45593999997E+02  0.45594000000E+02  0.51100000000E-03 0. -1.
         11   -1    0    0    0    0 -0.00000000000E+00 -0.00000000000E+00 -0.45593999997E+02  0.45594000000E+02  0.51100000000E-03 0.  1.
         23    2    1    2    0    0  0.88817841970E-15  0.00000000000E+00  0.00000000000E+00  0.91188000000E+02  0.91188000000E+02 0.  0.
    9900012    2    3    3    0    0  0.79629255068E+01  0.34295209974E+02 -0.28098827483E+02  0.46142315238E+02  0.99999769881E+01 0.  0.
         12    1    3    3    0    0 -0.79629255068E+01 -0.34295209974E+02  0.28098827483E+02  0.45045684762E+02  0.00000000000E+00 0. -1.
         11    1    4    4    0    0  0.17855604366E+01  0.15179865858E+02 -0.14557652072E+02  0.21107860802E+02  0.51100000000E-03 0. -1.
        -11    1    4    4    0    0  0.54208751276E+01  0.68366386940E+01 -0.49731932575E+01  0.10042816697E+02  0.51100000000E-03 0.  1.
        -12    1    4    4    0    0  0.75648994267E+00  0.12278705422E+02 -0.85679821537E+01  0.14991637738E+02  0.00000000000E+00 0.  1.
</event>
<event>
 8    1  0.2962813E-009  0.9118800E+02  0.7816164E-02  0.1184000E+00
        -11   -1    0    0    0    0  0.00000000000E+00  0.00000000000E+00  0.45593999997E+02  0.45594000000E+02  0.51100000000E-03 0. -1.
         11   -1    0    0    0    0 -0.00000000000E+00 -0.00000000000E+00 -0.45593999997E+02  0.45594000000E+02  0.51100000000E-03 0.  1.
         23    2    1    2    0    0  0.00000000000E+00  0.00000000000E+00  0.00000000000E+00  0.91188000000E+02  0.91188000000E+02 0.  0.
    9900012    2    3    3    0    0 -0.39798925892E+02  0.18180338321E+02 -0.10706738848E+02  0.46142318071E+02  0.10000002828E+02 0.  0.
         12    1    3    3    0    0  0.39798925892E+02 -0.18180338321E+02  0.10706738848E+02  0.45045681929E+02  0.00000000000E+00 0. -1.
         11    1    4    4    0    0 -0.19420099002E+01 -0.57292740085E+00  0.79665059582E+00  0.21758448226E+01  0.51100000000E-03 0. -1.
        -11    1    4    4    0    0 -0.24657884538E+02  0.13858492386E+02 -0.88806329922E+01  0.29646833283E+02  0.51100000000E-03 0.  1.
        -12    1    4    4    0    0 -0.13199031455E+02  0.48947733353E+01 -0.26227564520E+01  0.14319639966E+02  0.00000000000E+00 0.  1.
</event>
<event>
 8    1  0.2962813E-009  0.9118800E+02  0.7816164E-02  0.1184000E+00
        -11   -1    0    0    0    0  0.00000000000E+00  0.00000000000E+00  0.45593999997E+02  0.45594000000E+02  0.51100000000E-03 0. -1.
         11   -1    0    0    0    0 -0.00000000000E+00 -0.00000000000E+00 -0.45593999997E+02  0.45594000000E+02  0.51100000000E-03 0.  1.
         23    2    1    2    0    0 -0.35527136788E-14 -0.71054273576E-14  0.00000000000E+00  0.91188000000E+02  0.91188000000E+02 0.  0.
    9900012    2    3    3    0    0 -0.19992452481E+02 -0.40291494736E+02  0.24517008723E+01  0.46142317172E+02  0.99999946313E+01 0.  0.
        -12    1    3    3    0    0  0.19992452481E+02  0.40291494736E+02 -0.24517008723E+01  0.45045682828E+02  0.00000000000E+00 0.  1.
         11    1    4    4    0    0 -0.46487642439E+01 -0.14069510934E+02  0.32502252123E+01  0.15169908078E+02  0.51100000000E-03 0. -1.
        -11    1    4    4    0    0 -0.10674333116E+02 -0.19422921118E+02 -0.31743595828E+01  0.22389010948E+02  0.51100000000E-03 0.  1.
        -12    1    4    4    0    0 -0.46693551209E+01 -0.67990626843E+01  0.23758352428E+01  0.85833981459E+01  0.00000000000E+00 0.  1.
</event>
<event>
 8    1  0.2962813E-009  0.9118800E+02  0.7816164E-02  0.1184000E+00
        -11   -1    0    0    0    0  0.00000000000E+00  0.00000000000E+00  0.45593999997E+02  0.45594000000E+02  0.51100000000E-03 0. -1.
         11   -1    0    0    0    0 -0.00000000000E+00 -0.00000000000E+00 -0.45593999997E+02  0.45594000000E+02  0.51100000000E-03 0.  1.
         23    2    1    2    0    0  0.00000000000E+00  0.00000000000E+00  0.35527136788E-14  0.91188000000E+02  0.91188000000E+02 0.  0.
    9900012    2    3    3    0    0 -0.20207727792E+02  0.33878312680E+02 -0.21749049322E+02  0.46142317865E+02  0.10000000950E+02 0.  0.
         12    1    3    3    0    0  0.20207727792E+02 -0.33878312680E+02  0.21749049322E+02  0.45045682135E+02  0.00000000000E+00 0. -1.
         11    1    4    4    0    0 -0.32648895994E+01  0.43044250521E+01 -0.88576569074E+00  0.54746835749E+01  0.51100000000E-03 0. -1.
        -11    1    4    4    0    0 -0.88853167127E+00  0.65826285456E+01 -0.22604379811E+01  0.70164141289E+01  0.51100000000E-03 0.  1.
         12    1    4    4    0    0 -0.16054306521E+02  0.22991259082E+02 -0.18602845651E+02  0.33651220162E+02  0.00000000000E+00 0. -1.
</event>
<event>
 8    1  0.2962813E-009  0.9118800E+02  0.7816164E-02  0.1184000E+00
        -11   -1    0    0    0    0  0.00000000000E+00  0.00000000000E+00  0.45593999997E+02  0.45594000000E+02  0.51100000000E-03 0. -1.
         11   -1    0    0    0    0 -0.00000000000E+00 -0.00000000000E+00 -0.45593999997E+02  0.45594000000E+02  0.51100000000E-03 0.  1.
         23    2    1    2    0    0  0.00000000000E+00  0.00000000000E+00 -0.71054273576E-14  0.91188000000E+02  0.91188000000E+02 0.  0.
    9900012    2    3    3    0    0 -0.23174429652E+02  0.44476914138E+01  0.38370266205E+02  0.46142317884E+02  0.10000001119E+02 0.  0.
        -12    1    3    3    0    0  0.23174429652E+02 -0.44476914138E+01 -0.38370266205E+02  0.45045682116E+02  0.00000000000E+00 0.  1.
         11    1    4    4    0    0 -0.11858572486E+02  0.28125434856E+01  0.21043667650E+02  0.24318143241E+02  0.51100000000E-03 0. -1.
        -11    1    4    4    0    0 -0.84359066827E+01 -0.15862608022E+01  0.89632444400E+01  0.12410499428E+02  0.51100000000E-03 0.  1.
        -12    1    4    4    0    0 -0.28799504838E+01  0.32214087304E+01  0.83633541150E+01  0.94136752148E+01  0.00000000000E+00 0.  1.
</event>
<event>
 8    1  0.2962813E-009  0.9118800E+02  0.7816164E-02  0.1184000E+00
        -11   -1    0    0    0    0  0.00000000000E+00  0.00000000000E+00  0.45593999997E+02  0.45594000000E+02  0.51100000000E-03 0. -1.
         11   -1    0    0    0    0 -0.00000000000E+00 -0.00000000000E+00 -0.45593999997E+02  0.45594000000E+02  0.51100000000E-03 0.  1.
         23    2    1    2    0    0  0.00000000000E+00  0.35527136788E-14  0.00000000000E+00  0.91188000000E+02  0.91188000000E+02 0.  0.
    9900012    2    3    3    0    0 -0.24028422059E+01 -0.26395206786E+02  0.36422960885E+02  0.46142326827E+02  0.10000082674E+02 0.  0.
        -12    1    3    3    0    0  0.24028422059E+01  0.26395206786E+02 -0.36422960885E+02  0.45045673173E+02  0.00000000000E+00 0.  1.
         11    1    4    4    0    0 -0.46484821164E+01 -0.14933896489E+02  0.16188045792E+02  0.22509608551E+02  0.51100000000E-03 0. -1.
        -11    1    4    4    0    0  0.26384709637E+01 -0.10216120652E+02  0.15719654664E+02  0.18932464003E+02  0.51100000000E-03 0.  1.
         12    1    4    4    0    0 -0.39283105311E+00 -0.12451896452E+01  0.45152604289E+01  0.47002542729E+01  0.00000000000E+00 0. -1.
</event>
<event>
 8    1  0.2962813E-009  0.9118800E+02  0.7816164E-02  0.1184000E+00
        -11   -1    0    0    0    0  0.00000000000E+00  0.00000000000E+00  0.45593999997E+02  0.45594000000E+02  0.51100000000E-03 0. -1.
         11   -1    0    0    0    0 -0.00000000000E+00 -0.00000000000E+00 -0.45593999997E+02  0.45594000000E+02  0.51100000000E-03 0.  1.
         23    2    1    2    0    0  0.00000000000E+00  0.00000000000E+00  0.00000000000E+00  0.91188000000E+02  0.91188000000E+02 0.  0.
    9900012    2    3    3    0    0 -0.52300896177E+01  0.10181840353E+02  0.43567071272E+02  0.46142318635E+02  0.10000007973E+02 0.  0.
        -12    1    3    3    0    0  0.52300896177E+01 -0.10181840353E+02 -0.43567071272E+02  0.45045681365E+02  0.00000000000E+00 0.  1.
         11    1    4    4    0    0 -0.76887507250E+00  0.41305208271E+00  0.18979535183E+02  0.18999593073E+02  0.51100000000E-03 0. -1.
        -11    1    4    4    0    0 -0.19828141154E+01  0.63927311676E+01  0.10552607212E+02  0.12496242748E+02  0.51100000000E-03 0.  1.
        -12    1    4    4    0    0 -0.24784004298E+01  0.33760571027E+01  0.14034928877E+02  0.14646482814E+02  0.00000000000E+00 0.  1.
</event>
<event>
 8    1  0.2962813E-009  0.9118800E+02  0.7816164E-02  0.1184000E+00
        -11   -1    0    0    0    0  0.00000000000E+00  0.00000000000E+00  0.45593999997E+02  0.45594000000E+02  0.51100000000E-03 0. -1.
         11   -1    0    0    0    0 -0.00000000000E+00 -0.00000000000E+00 -0.45593999997E+02  0.45594000000E+02  0.51100000000E-03 0.  1.
         23    2    1    2    0    0  0.88817841970E-15  0.00000000000E+00  0.35527136788E-14  0.91188000000E+02  0.91188000000E+02 0.  0.
    9900012    2    3    3    0    0 -0.62432798765E+01 -0.32543495220E+02 -0.30513190367E+02  0.46142329718E+02  0.10000109036E+02 0.  0.
         12    1    3    3    0    0  0.62432798765E+01  0.32543495220E+02  0.30513190367E+02  0.45045670282E+02  0.00000000000E+00 0. -1.
         11    1    4    4    0    0  0.65447812127E+00  0.71685370223E-01 -0.80013724257E+00  0.10361950934E+01  0.51100000000E-03 0. -1.
        -11    1    4    4    0    0 -0.30543241815E+01 -0.41326516903E+01 -0.54818501244E+01  0.75138796402E+01  0.51100000000E-03 0.  1.
         12    1    4    4    0    0 -0.38434338163E+01 -0.28482528900E+02 -0.24231203000E+02  0.37592254985E+02  0.00000000000E+00 0. -1.
</event>
<event>
 8    1  0.2962813E-009  0.9118800E+02  0.7816164E-02  0.1184000E+00
        -11   -1    0    0    0    0  0.00000000000E+00  0.00000000000E+00  0.45593999997E+02  0.45594000000E+02  0.51100000000E-03 0. -1.
         11   -1    0    0    0    0 -0.00000000000E+00 -0.00000000000E+00 -0.45593999997E+02  0.45594000000E+02  0.51100000000E-03 0.  1.
         23    2    1    2    0    0  0.22204460493E-15  0.71054273576E-14  0.00000000000E+00  0.91188000000E+02  0.91188000000E+02 0.  0.
    9900012    2    3    3    0    0 -0.19254883034E+01 -0.42450301774E+02  0.14945832745E+02  0.46142317162E+02  0.99999945381E+01 0.  0.
        -12    1    3    3    0    0  0.19254883034E+01  0.42450301774E+02 -0.14945832745E+02  0.45045682838E+02  0.00000000000E+00 0.  1.
         11    1    4    4    0    0 -0.25040276795E+01 -0.54829920952E+01  0.31744758293E+01  0.68125365311E+01  0.51100000000E-03 0. -1.
        -11    1    4    4    0    0 -0.28537249850E+00 -0.34879563680E+02  0.12341192522E+02  0.36999600445E+02  0.51100000000E-03 0.  1.
        -12    1    4    4    0    0  0.86391187461E+00 -0.20877459989E+01 -0.56983560607E+00  0.23301801863E+01  0.00000000000E+00 0.  1.
</event>
<event>
 8    1  0.2962813E-009  0.9118800E+02  0.7816164E-02  0.1184000E+00
        -11   -1    0    0    0    0  0.00000000000E+00  0.00000000000E+00  0.45593999997E+02  0.45594000000E+02  0.51100000000E-03 0. -1.
         11   -1    0    0    0    0 -0.00000000000E+00 -0.00000000000E+00 -0.45593999997E+02  0.45594000000E+02  0.51100000000E-03 0.  1.
         23    2    1    2    0    0  0.22204460493E-15  0.00000000000E+00  0.00000000000E+00  0.91188000000E+02  0.91188000000E+02 0.  0.
    9900012    2    3    3    0    0  0.16679808120E+01 -0.39540251350E+02  0.21515107506E+02  0.46142317767E+02  0.10000000053E+02 0.  0.
        -12    1    3    3    0    0 -0.16679808120E+01  0.39540251350E+02 -0.21515107506E+02  0.45045682233E+02  0.00000000000E+00 0.  1.
         11    1    4    4    0    0 -0.24167375287E+01 -0.58343534104E+01  0.50754469730E+01  0.81018801667E+01  0.51100000000E-03 0. -1.
        -11    1    4    4    0    0  0.33728786526E+01 -0.14777538319E+02  0.93840635426E+01  0.17827299235E+02  0.51100000000E-03 0.  1.
         12    1    4    4    0    0  0.71183968813E+00 -0.18928359621E+02  0.70555969909E+01  0.20213138366E+02  0.00000000000E+00 0. -1.
</event>
<event>
 8    1  0.2962813E-009  0.9118800E+02  0.7816164E-02  0.1184000E+00
        -11   -1    0    0    0    0  0.00000000000E+00  0.00000000000E+00  0.45593999997E+02  0.45594000000E+02  0.51100000000E-03 0. -1.
         11   -1    0    0    0    0 -0.00000000000E+00 -0.00000000000E+00 -0.45593999997E+02  0.45594000000E+02  0.51100000000E-03 0.  1.
         23    2    1    2    0    0 -0.44408920985E-15  0.00000000000E+00  0.00000000000E+00  0.91188000000E+02  0.91188000000E+02 0.  0.
    9900012    2    3    3    0    0 -0.27545537026E+01 -0.13759026785E+02 -0.42804381235E+02  0.46142318330E+02  0.10000005191E+02 0.  0.
         12    1    3    3    0    0  0.27545537026E+01  0.13759026785E+02  0.42804381235E+02  0.45045681670E+02  0.00000000000E+00 0. -1.
         11    1    4    4    0    0  0.83290780437E+00 -0.23702036751E+01 -0.62458481809E+01  0.67321780007E+01  0.51100000000E-03 0. -1.
        -11    1    4    4    0    0  0.23158161598E+01 -0.11356721644E+01 -0.10148501501E+02  0.10471143144E+02  0.51100000000E-03 0.  1.
        -12    1    4    4    0    0 -0.59032776667E+01 -0.10253150945E+02 -0.26410031553E+02  0.28938997186E+02  0.00000000000E+00 0.  1.
</event>
<event>
 8    1  0.2962813E-009  0.9118800E+02  0.7816164E-02  0.1184000E+00
        -11   -1    0    0    0    0  0.00000000000E+00  0.00000000000E+00  0.45593999997E+02  0.45594000000E+02  0.51100000000E-03 0.  1.
         11   -1    0    0    0    0 -0.00000000000E+00 -0.00000000000E+00 -0.45593999997E+02  0.45594000000E+02  0.51100000000E-03 0. -1.
         23    2    1    2    0    0 -0.14210854715E-13  0.44408920985E-15  0.00000000000E+00  0.91188000000E+02  0.91188000000E+02 0.  0.
    9900012    2    3    3    0    0  0.42983344646E+02 -0.18322990163E+01 -0.13348720213E+02  0.46142316878E+02  0.99999919444E+01 0.  0.
        -12    1    3    3    0    0 -0.42983344646E+02  0.18322990163E+01  0.13348720213E+02  0.45045683122E+02  0.00000000000E+00 0.  1.
         11    1    4    4    0    0  0.29112136219E+02 -0.46631282133E+01 -0.56764889796E+01  0.30024719272E+02  0.51100000000E-03 0. -1.
        -11    1    4    4    0    0  0.45824969588E+01  0.12690049306E+01 -0.26270199920E+01  0.54323923083E+01  0.51100000000E-03 0.  1.
         12    1    4    4    0    0  0.92887114676E+01  0.15618242664E+01 -0.50452112415E+01  0.10685205297E+02  0.00000000000E+00 0. -1.
</event>
<event>
 8    1  0.2962813E-009  0.9118800E+02  0.7816164E-02  0.1184000E+00
        -11   -1    0    0    0    0  0.00000000000E+00  0.00000000000E+00  0.45593999997E+02  0.45594000000E+02  0.51100000000E-03 0. -1.
         11   -1    0    0    0    0 -0.00000000000E+00 -0.00000000000E+00 -0.45593999997E+02  0.45594000000E+02  0.51100000000E-03 0.  1.
         23    2    1    2    0    0  0.00000000000E+00 -0.35527136788E-14 -0.71054273576E-14  0.91188000000E+02  0.91188000000E+02 0.  0.
    9900012    2    3    3    0    0 -0.10764002607E+01 -0.25463584562E+02 -0.37142438359E+02  0.46142317593E+02  0.99999984678E+01 0.  0.
         12    1    3    3    0    0  0.10764002607E+01  0.25463584562E+02  0.37142438359E+02  0.45045682407E+02  0.00000000000E+00 0. -1.
         11    1    4    4    0    0 -0.82113446707E+00 -0.79058239856E+01 -0.18737548593E+02  0.20353673925E+02  0.51100000000E-03 0. -1.
        -11    1    4    4    0    0 -0.96336656306E+00 -0.17200831657E+02 -0.17925512147E+02  0.24862032717E+02  0.51100000000E-03 0.  1.
         12    1    4    4    0    0  0.70810076939E+00 -0.35692891914E+00 -0.47937761843E+00  0.92661095071E+00  0.00000000000E+00 0. -1.
</event>
<event>
 8    1  0.2962813E-009  0.9118800E+02  0.7816164E-02  0.1184000E+00
        -11   -1    0    0    0    0  0.00000000000E+00  0.00000000000E+00  0.45593999997E+02  0.45594000000E+02  0.51100000000E-03 0. -1.
         11   -1    0    0    0    0 -0.00000000000E+00 -0.00000000000E+00 -0.45593999997E+02  0.45594000000E+02  0.51100000000E-03 0.  1.
         23    2    1    2    0    0  0.35527136788E-14 -0.35527136788E-14  0.35527136788E-14  0.91188000000E+02  0.91188000000E+02 0.  0.
    9900012    2    3    3    0    0  0.25776769029E+02 -0.25601496012E+02  0.26631468791E+02  0.46142317082E+02  0.99999938051E+01 0.  0.
        -12    1    3    3    0    0 -0.25776769029E+02  0.25601496012E+02 -0.26631468791E+02  0.45045682918E+02  0.00000000000E+00 0.  1.
         11    1    4    4    0    0  0.38037335380E+01 -0.10440948098E+01  0.20900350800E+01  0.44639410498E+01  0.51100000000E-03 0. -1.
        -11    1    4    4    0    0  0.21765941049E+02 -0.24545320039E+02  0.24952999234E+02  0.41217485326E+02  0.51100000000E-03 0.  1.
        -12    1    4    4    0    0  0.20709444224E+00 -0.12081162766E-01 -0.41156552349E+00  0.46089070573E+00  0.00000000000E+00 0.  1.
</event>
<event>
 8    1  0.2962813E-009  0.9118800E+02  0.7816164E-02  0.1184000E+00
        -11   -1    0    0    0    0  0.00000000000E+00  0.00000000000E+00  0.45593999997E+02  0.45594000000E+02  0.51100000000E-03 0.  1.
         11   -1    0    0    0    0 -0.00000000000E+00 -0.00000000000E+00 -0.45593999997E+02  0.45594000000E+02  0.51100000000E-03 0. -1.
         23    2    1    2    0    0 -0.88817841970E-15  0.00000000000E+00 -0.17763568394E-14  0.91188000000E+02  0.91188000000E+02 0.  0.
    9900012    2    3    3    0    0 -0.46152877756E+01 -0.43724977908E+02 -0.97948389896E+01  0.46142318241E+02  0.10000004376E+02 0.  0.
        -12    1    3    3    0    0  0.46152877756E+01  0.43724977908E+02  0.97948389896E+01  0.45045681759E+02  0.00000000000E+00 0.  1.
         11    1    4    4    0    0 -0.31547542036E+01 -0.20175478526E+02 -0.52045926771E+01  0.21073447583E+02  0.51100000000E-03 0. -1.
        -11    1    4    4    0    0 -0.14808609223E+01 -0.25514900305E+01  0.13535950181E+01  0.32458080937E+01  0.51100000000E-03 0.  1.
        -12    1    4    4    0    0  0.20327350296E-01 -0.20998009352E+02 -0.59438413305E+01  0.21823062564E+02  0.00000000000E+00 0.  1.
</event>
<event>
 8    1  0.2962813E-009  0.9118800E+02  0.7816164E-02  0.1184000E+00
        -11   -1    0    0    0    0  0.00000000000E+00  0.00000000000E+00  0.45593999997E+02  0.45594000000E+02  0.51100000000E-03 0. -1.
         11   -1    0    0    0    0 -0.00000000000E+00 -0.00000000000E+00 -0.45593999997E+02  0.45594000000E+02  0.51100000000E-03 0.  1.
         23    2    1    2    0    0  0.00000000000E+00  0.00000000000E+00  0.00000000000E+00  0.91188000000E+02  0.91188000000E+02 0.  0.
    9900012    2    3    3    0    0 -0.37135269146E+02 -0.91100400712E+01 -0.23813703802E+02  0.46142317261E+02  0.99999954385E+01 0.  0.
         12    1    3    3    0    0  0.37135269146E+02  0.91100400712E+01  0.23813703802E+02  0.45045682739E+02  0.00000000000E+00 0. -1.
         11    1    4    4    0    0 -0.14631472861E+02 -0.69508566477E+01 -0.10715721434E+02  0.19422180422E+02  0.51100000000E-03 0. -1.
        -11    1    4    4    0    0 -0.20868660338E+02 -0.93903088628E+00 -0.10393868473E+02  0.23332708060E+02  0.51100000000E-03 0.  1.
        -12    1    4    4    0    0 -0.16351359472E+01 -0.12201525372E+01 -0.27041138944E+01  0.33874287791E+01  0.00000000000E+00 0.  1.
</event>
<event>
 8    1  0.2962813E-009  0.9118800E+02  0.7816164E-02  0.1184000E+00
        -11   -1    0    0    0    0  0.00000000000E+00  0.00000000000E+00  0.45593999997E+02  0.45594000000E+02  0.51100000000E-03 0. -1.
         11   -1    0    0    0    0 -0.00000000000E+00 -0.00000000000E+00 -0.45593999997E+02  0.45594000000E+02  0.51100000000E-03 0.  1.
         23    2    1    2    0    0  0.00000000000E+00  0.00000000000E+00  0.00000000000E+00  0.91188000000E+02  0.91188000000E+02 0.  0.
    9900012    2    3    3    0    0  0.22671800985E+02  0.24680834698E+02 -0.30099158193E+02  0.46142317796E+02  0.10000000315E+02 0.  0.
         12    1    3    3    0    0 -0.22671800985E+02 -0.24680834698E+02  0.30099158193E+02  0.45045682204E+02  0.00000000000E+00 0. -1.
         11    1    4    4    0    0 -0.54721176481E+00  0.42675592072E+00 -0.12201953821E+01  0.14037230364E+01  0.51100000000E-03 0. -1.
        -11    1    4    4    0    0  0.54260480731E+01  0.95304854809E+01 -0.10989145752E+02  0.15525252842E+02  0.51100000000E-03 0.  1.
        -12    1    4    4    0    0  0.17792964677E+02  0.14723593297E+02 -0.17889817060E+02  0.29213341917E+02  0.00000000000E+00 0.  1.
</event>
<event>
 8    1  0.2962813E-009  0.9118800E+02  0.7816164E-02  0.1184000E+00
        -11   -1    0    0    0    0  0.00000000000E+00  0.00000000000E+00  0.45593999997E+02  0.45594000000E+02  0.51100000000E-03 0. -1.
         11   -1    0    0    0    0 -0.00000000000E+00 -0.00000000000E+00 -0.45593999997E+02  0.45594000000E+02  0.51100000000E-03 0.  1.
         23    2    1    2    0    0  0.00000000000E+00  0.00000000000E+00  0.00000000000E+00  0.91188000000E+02  0.91188000000E+02 0.  0.
    9900012    2    3    3    0    0 -0.36620116344E+02 -0.18053595038E+02 -0.19030193954E+02  0.46142317668E+02  0.99999991494E+01 0.  0.
         12    1    3    3    0    0  0.36620116344E+02  0.18053595038E+02  0.19030193954E+02  0.45045682332E+02  0.00000000000E+00 0. -1.
         11    1    4    4    0    0 -0.21577855106E+02 -0.78506883912E+01 -0.12381922601E+02  0.26087336904E+02  0.51100000000E-03 0. -1.
        -11    1    4    4    0    0 -0.49208611942E+01 -0.59315278541E+01 -0.12259497686E+01  0.78038997093E+01  0.51100000000E-03 0.  1.
        -12    1    4    4    0    0 -0.10121400044E+02 -0.42713787931E+01 -0.54223215844E+01  0.12251081055E+02  0.00000000000E+00 0.  1.
</event>
<event>
 8    1  0.2962813E-009  0.9118800E+02  0.7816164E-02  0.1184000E+00
        -11   -1    0    0    0    0  0.00000000000E+00  0.00000000000E+00  0.45593999997E+02  0.45594000000E+02  0.51100000000E-03 0. -1.
         11   -1    0    0    0    0 -0.00000000000E+00 -0.00000000000E+00 -0.45593999997E+02  0.45594000000E+02  0.51100000000E-03 0.  1.
         23    2    1    2    0    0  0.71054273576E-14  0.00000000000E+00 -0.17763568394E-14  0.91188000000E+02  0.91188000000E+02 0.  0.
    9900012    2    3    3    0    0  0.41641880071E+02  0.13696355369E+02 -0.10367119848E+02  0.46142317630E+02  0.99999988007E+01 0.  0.
         12    1    3    3    0    0 -0.41641880071E+02 -0.13696355369E+02  0.10367119848E+02  0.45045682370E+02  0.00000000000E+00 0. -1.
         11    1    4    4    0    0  0.12225368267E+02  0.69833894579E+01 -0.41045689193E+01  0.14665430231E+02  0.51100000000E-03 0. -1.
        -11    1    4    4    0    0  0.28868145276E+02  0.64061822788E+01 -0.71184057602E+01  0.30415139058E+02  0.51100000000E-03 0.  1.
        -12    1    4    4    0    0  0.54836652822E+00  0.30678363268E+00  0.85585483172E+00  0.10617483410E+01  0.00000000000E+00 0.  1.
</event>
<event>
 8    1  0.2962813E-009  0.9118800E+02  0.7816164E-02  0.1184000E+00
        -11   -1    0    0    0    0  0.00000000000E+00  0.00000000000E+00  0.45593999997E+02  0.45594000000E+02  0.51100000000E-03 0. -1.
         11   -1    0    0    0    0 -0.00000000000E+00 -0.00000000000E+00 -0.45593999997E+02  0.45594000000E+02  0.51100000000E-03 0.  1.
         23    2    1    2    0    0  0.00000000000E+00  0.00000000000E+00 -0.71054273576E-14  0.91188000000E+02  0.91188000000E+02 0.  0.
    9900012    2    3    3    0    0 -0.46925493150E+01  0.52284003998E+01  0.44494463627E+02  0.46142317818E+02  0.10000000520E+02 0.  0.
        -12    1    3    3    0    0  0.46925493150E+01 -0.52284003998E+01 -0.44494463627E+02  0.45045682182E+02  0.00000000000E+00 0.  1.
         11    1    4    4    0    0 -0.14873053016E+01  0.53025974462E+01  0.34051761105E+02  0.34494232146E+02  0.51100000000E-03 0. -1.
        -11    1    4    4    0    0 -0.35021573869E+01 -0.78639760026E+00  0.50225897218E+01  0.61733244952E+01  0.51100000000E-03 0.  1.
        -12    1    4    4    0    0  0.29691337355E+00  0.71220055395E+00  0.54201128001E+01  0.54747611771E+01  0.00000000000E+00 0.  1.
</event>
<event>
 8    1  0.2962813E-009  0.9118800E+02  0.7816164E-02  0.1184000E+00
        -11   -1    0    0    0    0  0.00000000000E+00  0.00000000000E+00  0.45593999997E+02  0.45594000000E+02  0.51100000000E-03 0. -1.
         11   -1    0    0    0    0 -0.00000000000E+00 -0.00000000000E+00 -0.45593999997E+02  0.45594000000E+02  0.51100000000E-03 0.  1.
         23    2    1    2    0    0  0.00000000000E+00  0.00000000000E+00  0.00000000000E+00  0.91188000000E+02  0.91188000000E+02 0.  0.
    9900012    2    3    3    0    0 -0.36151576442E+01 -0.35130732375E+02 -0.27962043144E+02  0.46142316758E+02  0.99999908522E+01 0.  0.
         12    1    3    3    0    0  0.36151576442E+01  0.35130732375E+02  0.27962043144E+02  0.45045683242E+02  0.00000000000E+00 0. -1.
         11    1    4    4    0    0  0.27513119512E+01 -0.14648033080E+02 -0.92319286462E+01  0.17531773936E+02  0.51100000000E-03 0. -1.
        -11    1    4    4    0    0 -0.43723459742E+01 -0.97394367305E+01 -0.85716122099E+01  0.13691112931E+02  0.51100000000E-03 0.  1.
        -12    1    4    4    0    0 -0.19941236212E+01 -0.10743262564E+02 -0.10158502288E+02  0.14919429891E+02  0.00000000000E+00 0.  1.
</event>
<event>
 8    1  0.2962813E-009  0.9118800E+02  0.7816164E-02  0.1184000E+00
        -11   -1    0    0    0    0  0.00000000000E+00  0.00000000000E+00  0.45593999997E+02  0.45594000000E+02  0.51100000000E-03 0.  1.
         11   -1    0    0    0    0 -0.00000000000E+00 -0.00000000000E+00 -0.45593999997E+02  0.45594000000E+02  0.51100000000E-03 0. -1.
         23    2    1    2    0    0  0.17763568394E-14  0.00000000000E+00 -0.88817841970E-15  0.91188000000E+02  0.91188000000E+02 0.  0.
    9900012    2    3    3    0    0  0.11064769441E+02  0.43447054113E+02 -0.43632183049E+01  0.46142319765E+02  0.10000018273E+02 0.  0.
        -12    1    3    3    0    0 -0.11064769441E+02 -0.43447054113E+02  0.43632183049E+01  0.45045680235E+02  0.00000000000E+00 0.  1.
         11    1    4    4    0    0 -0.44379302971E+00  0.15901771067E+02 -0.16952593668E+01  0.15998036752E+02  0.51100000000E-03 0. -1.
        -11    1    4    4    0    0  0.10185491017E+02  0.22424085258E+02 -0.31658212081E+01  0.24831557565E+02  0.51100000000E-03 0.  1.
        -12    1    4    4    0    0  0.13230714536E+01  0.51211977880E+01  0.49786226995E+00  0.53127254488E+01  0.00000000000E+00 0.  1.
</event>
<event>
 8    1  0.2962813E-009  0.9118800E+02  0.7816164E-02  0.1184000E+00
        -11   -1    0    0    0    0  0.00000000000E+00  0.00000000000E+00  0.45593999997E+02  0.45594000000E+02  0.51100000000E-03 0.  1.
         11   -1    0    0    0    0 -0.00000000000E+00 -0.00000000000E+00 -0.45593999997E+02  0.45594000000E+02  0.51100000000E-03 0. -1.
         23    2    1    2    0    0  0.00000000000E+00  0.00000000000E+00  0.00000000000E+00  0.91188000000E+02  0.91188000000E+02 0.  0.
    9900012    2    3    3    0    0 -0.35903138731E+02  0.16267084692E+02  0.21805055870E+02  0.46142313452E+02  0.99999607051E+01 0.  0.
         12    1    3    3    0    0  0.35903138731E+02 -0.16267084692E+02 -0.21805055870E+02  0.45045686548E+02  0.00000000000E+00 0. -1.
         11    1    4    4    0    0 -0.13701091654E+02  0.27261861520E+01  0.10981125355E+02  0.17768993155E+02  0.51100000000E-03 0. -1.
        -11    1    4    4    0    0 -0.12902047076E+02  0.77654066634E+01  0.44360948912E+01  0.15698512590E+02  0.51100000000E-03 0.  1.
         12    1    4    4    0    0 -0.93000000020E+01  0.57754918761E+01  0.63878356238E+01  0.12674807707E+02  0.00000000000E+00 0. -1.
</event>
<event>
 8    1  0.2962813E-009  0.9118800E+02  0.7816164E-02  0.1184000E+00
        -11   -1    0    0    0    0  0.00000000000E+00  0.00000000000E+00  0.45593999997E+02  0.45594000000E+02  0.51100000000E-03 0. -1.
         11   -1    0    0    0    0 -0.00000000000E+00 -0.00000000000E+00 -0.45593999997E+02  0.45594000000E+02  0.51100000000E-03 0.  1.
         23    2    1    2    0    0  0.17763568394E-14  0.35527136788E-14 -0.71054273576E-14  0.91188000000E+02  0.91188000000E+02 0.  0.
    9900012    2    3    3    0    0  0.91453623199E+01  0.19327857208E+02 -0.39647317292E+02  0.46142317802E+02  0.10000000371E+02 0.  0.
         12    1    3    3    0    0 -0.91453623199E+01 -0.19327857208E+02  0.39647317292E+02  0.45045682198E+02  0.00000000000E+00 0. -1.
         11    1    4    4    0    0  0.28609616003E+01  0.10800932746E+02 -0.17110313131E+02  0.20435460972E+02  0.51100000000E-03 0. -1.
        -11    1    4    4    0    0 -0.77561866929E+00  0.35775088836E+01 -0.81447490538E+01  0.89295627857E+01  0.51100000000E-03 0.  1.
        -12    1    4    4    0    0  0.70600193889E+01  0.49494155788E+01 -0.14392255108E+02  0.16777294044E+02  0.00000000000E+00 0.  1.
</event>
<event>
 8    1  0.2962813E-009  0.9118800E+02  0.7816164E-02  0.1184000E+00
        -11   -1    0    0    0    0  0.00000000000E+00  0.00000000000E+00  0.45593999997E+02  0.45594000000E+02  0.51100000000E-03 0. -1.
         11   -1    0    0    0    0 -0.00000000000E+00 -0.00000000000E+00 -0.45593999997E+02  0.45594000000E+02  0.51100000000E-03 0.  1.
         23    2    1    2    0    0  0.88817841970E-15 -0.71054273576E-14  0.00000000000E+00  0.91188000000E+02  0.91188000000E+02 0.  0.
    9900012    2    3    3    0    0 -0.70645481808E+01  0.19511774754E+02 -0.39981199192E+02  0.46142317811E+02  0.10000000456E+02 0.  0.
         12    1    3    3    0    0  0.70645481808E+01 -0.19511774754E+02  0.39981199192E+02  0.45045682189E+02  0.00000000000E+00 0. -1.
         11    1    4    4    0    0 -0.91591196823E+01  0.13081585764E+02 -0.27733005527E+02  0.32002139855E+02  0.51100000000E-03 0. -1.
        -11    1    4    4    0    0  0.16930557620E+01  0.36817499040E+01 -0.54102708677E+01  0.67596413583E+01  0.51100000000E-03 0.  1.
         12    1    4    4    0    0  0.40151573940E+00  0.27484390868E+01 -0.68379227968E+01  0.73805365982E+01  0.00000000000E+00 0. -1.
</event>
<event>
 8    1  0.2962813E-009  0.9118800E+02  0.7816164E-02  0.1184000E+00
        -11   -1    0    0    0    0  0.00000000000E+00  0.00000000000E+00  0.45593999997E+02  0.45594000000E+02  0.51100000000E-03 0. -1.
         11   -1    0    0    0    0 -0.00000000000E+00 -0.00000000000E+00 -0.45593999997E+02  0.45594000000E+02  0.51100000000E-03 0.  1.
         23    2    1    2    0    0  0.00000000000E+00  0.35527136788E-14 -0.71054273576E-14  0.91188000000E+02  0.91188000000E+02 0.  0.
    9900012    2    3    3    0    0 -0.10108506886E+01  0.28539396967E+02 -0.34836683996E+02  0.46142317075E+02  0.99999937451E+01 0.  0.
         12    1    3    3    0    0  0.10108506886E+01 -0.28539396967E+02  0.34836683996E+02  0.45045682925E+02  0.00000000000E+00 0. -1.
         11    1    4    4    0    0 -0.25258633881E+01  0.80866490348E+01 -0.91769053346E+01  0.12489574462E+02  0.51100000000E-03 0.  1.
        -11    1    4    4    0    0 -0.49950679758E+00 -0.45887497323E+00 -0.36102996527E+00  0.76838543637E+00  0.51100000000E-03 0. -1.
        -12    1    4    4    0    0  0.20145194971E+01  0.20911622905E+02 -0.25298748696E+02  0.32884357177E+02  0.00000000000E+00 0.  1.
</event>
<event>
 8    1  0.2962813E-009  0.9118800E+02  0.7816164E-02  0.1184000E+00
        -11   -1    0    0    0    0  0.00000000000E+00  0.00000000000E+00  0.45593999997E+02  0.45594000000E+02  0.51100000000E-03 0. -1.
         11   -1    0    0    0    0 -0.00000000000E+00 -0.00000000000E+00 -0.45593999997E+02  0.45594000000E+02  0.51100000000E-03 0.  1.
         23    2    1    2    0    0  0.71054273576E-14  0.00000000000E+00  0.35527136788E-14  0.91188000000E+02  0.91188000000E+02 0.  0.
    9900012    2    3    3    0    0  0.32910199876E+02 -0.98898600481E+01  0.29124266131E+02  0.46142318017E+02  0.10000002333E+02 0.  0.
        -12    1    3    3    0    0 -0.32910199876E+02  0.98898600481E+01 -0.29124266131E+02  0.45045681983E+02  0.00000000000E+00 0.  1.
         11    1    4    4    0    0  0.24797107331E+02 -0.73519337184E+01  0.19772724789E+02  0.32556229929E+02  0.51100000000E-03 0. -1.
        -11    1    4    4    0    0  0.36451122501E+01  0.13501473952E+01  0.30763509740E+01  0.49571843703E+01  0.51100000000E-03 0.  1.
        -12    1    4    4    0    0  0.44679802950E+01 -0.38880737249E+01  0.62751903682E+01  0.86289037173E+01  0.00000000000E+00 0.  1.
</event>
<event>
 8    1  0.2962813E-009  0.9118800E+02  0.7816164E-02  0.1184000E+00
        -11   -1    0    0    0    0  0.00000000000E+00  0.00000000000E+00  0.45593999997E+02  0.45594000000E+02  0.51100000000E-03 0. -1.
         11   -1    0    0    0    0 -0.00000000000E+00 -0.00000000000E+00 -0.45593999997E+02  0.45594000000E+02  0.51100000000E-03 0.  1.
         23    2    1    2    0    0 -0.22204460493E-15  0.00000000000E+00  0.00000000000E+00  0.91188000000E+02  0.91188000000E+02 0.  0.
    9900012    2    3    3    0    0  0.19628477120E+01 -0.39222211574E+02  0.22065330084E+02  0.46142318258E+02  0.10000004532E+02 0.  0.
        -12    1    3    3    0    0 -0.19628477120E+01  0.39222211574E+02 -0.22065330084E+02  0.45045681742E+02  0.00000000000E+00 0.  1.
         11    1    4    4    0    0 -0.67149134840E+00 -0.14647256616E+02  0.90802202101E+01  0.17246548244E+02  0.51100000000E-03 0. -1.
        -11    1    4    4    0    0  0.38266857551E+01 -0.24119749525E+02  0.11681644887E+02  0.27071510274E+02  0.51100000000E-03 0.  1.
        -12    1    4    4    0    0 -0.11923466947E+01 -0.45520543317E+00  0.13034649868E+01  0.18242597399E+01  0.00000000000E+00 0.  1.
</event>
<event>
 8    1  0.2962813E-009  0.9118800E+02  0.7816164E-02  0.1184000E+00
        -11   -1    0    0    0    0  0.00000000000E+00  0.00000000000E+00  0.45593999997E+02  0.45594000000E+02  0.51100000000E-03 0. -1.
         11   -1    0    0    0    0 -0.00000000000E+00 -0.00000000000E+00 -0.45593999997E+02  0.45594000000E+02  0.51100000000E-03 0.  1.
         23    2    1    2    0    0  0.00000000000E+00  0.00000000000E+00  0.00000000000E+00  0.91188000000E+02  0.91188000000E+02 0.  0.
    9900012    2    3    3    0    0  0.22813692452E+02  0.29588787350E+02 -0.25162523496E+02  0.46142317756E+02  0.99999999564E+01 0.  0.
         12    1    3    3    0    0 -0.22813692452E+02 -0.29588787350E+02  0.25162523496E+02  0.45045682244E+02  0.00000000000E+00 0. -1.
         11    1    4    4    0    0  0.25141473353E+01  0.25575081511E+00 -0.19214496779E+01  0.31746361096E+01  0.51100000000E-03 0. -1.
        -11    1    4    4    0    0  0.58517968466E+01  0.13229543500E+02 -0.83401748123E+01  0.16697989811E+02  0.51100000000E-03 0.  1.
         12    1    4    4    0    0  0.14447748270E+02  0.16103493035E+02 -0.14900899006E+02  0.26269691836E+02  0.00000000000E+00 0. -1.
</event>
<event>
 8    1  0.2962813E-009  0.9118800E+02  0.7816164E-02  0.1184000E+00
        -11   -1    0    0    0    0  0.00000000000E+00  0.00000000000E+00  0.45593999997E+02  0.45594000000E+02  0.51100000000E-03 0. -1.
         11   -1    0    0    0    0 -0.00000000000E+00 -0.00000000000E+00 -0.45593999997E+02  0.45594000000E+02  0.51100000000E-03 0.  1.
         23    2    1    2    0    0 -0.35527136788E-14  0.17763568394E-14  0.00000000000E+00  0.91188000000E+02  0.91188000000E+02 0.  0.
    9900012    2    3    3    0    0  0.16832453766E+02 -0.15481320307E+02 -0.38808640953E+02  0.46142318843E+02  0.10000009869E+02 0.  0.
         12    1    3    3    0    0 -0.16832453766E+02  0.15481320307E+02  0.38808640953E+02  0.45045681157E+02  0.00000000000E+00 0. -1.
         11    1    4    4    0    0  0.92284545008E+01 -0.90958720477E+01 -0.28713255936E+02  0.31501592459E+02  0.51100000000E-03 0. -1.
        -11    1    4    4    0    0  0.23567906199E+01 -0.68594605119E+00 -0.89404629066E+00  0.26123367016E+01  0.51100000000E-03 0.  1.
         12    1    4    4    0    0  0.52472086454E+01 -0.56995022086E+01 -0.92013387265E+01  0.12028389682E+02  0.00000000000E+00 0. -1.
</event>
<event>
 8    1  0.2962813E-009  0.9118800E+02  0.7816164E-02  0.1184000E+00
        -11   -1    0    0    0    0  0.00000000000E+00  0.00000000000E+00  0.45593999997E+02  0.45594000000E+02  0.51100000000E-03 0. -1.
         11   -1    0    0    0    0 -0.00000000000E+00 -0.00000000000E+00 -0.45593999997E+02  0.45594000000E+02  0.51100000000E-03 0.  1.
         23    2    1    2    0    0  0.88817841970E-15  0.00000000000E+00  0.00000000000E+00  0.91188000000E+02  0.91188000000E+02 0.  0.
    9900012    2    3    3    0    0 -0.42585074940E+01 -0.23626297889E+01 -0.44781655485E+02  0.46142316815E+02  0.99999913770E+01 0.  0.
         12    1    3    3    0    0  0.42585074940E+01  0.23626297889E+01  0.44781655485E+02  0.45045683185E+02  0.00000000000E+00 0. -1.
         11    1    4    4    0    0 -0.22277470631E+01  0.63338053947E-01 -0.72902795406E+01  0.76233224205E+01  0.51100000000E-03 0. -1.
        -11    1    4    4    0    0  0.20849314860E+01 -0.26497272796E+01 -0.72219673757E+01  0.79702451026E+01  0.51100000000E-03 0.  1.
        -12    1    4    4    0    0 -0.41156919170E+01  0.22375943673E+00 -0.30269408569E+02  0.30548749292E+02  0.00000000000E+00 0.  1.
</event>
<event>
 8    1  0.2987981E-009  0.9118800E+02  0.7816164E-02  0.1184000E+00
        -11   -1    0    0    0    0  0.00000000000E+00  0.00000000000E+00  0.45593999997E+02  0.45594000000E+02  0.51100000000E-03 0. -1.
         11   -1    0    0    0    0 -0.00000000000E+00 -0.00000000000E+00 -0.45593999997E+02  0.45594000000E+02  0.51100000000E-03 0.  1.
         23    2    1    2    0    0  0.26645352591E-14 -0.88817841970E-15 -0.71054273576E-14  0.91188000000E+02  0.91188000000E+02 0.  0.
    9900012    2    3    3    0    0  0.78456739659E+01 -0.48719621186E+01 -0.44088805983E+02  0.46142318433E+02  0.10000006127E+02 0.  0.
         12    1    3    3    0    0 -0.78456739659E+01  0.48719621186E+01  0.44088805983E+02  0.45045681567E+02  0.00000000000E+00 0. -1.
         11    1    4    4    0    0 -0.11501568654E+01 -0.48094975631E-01 -0.74457657283E+00  0.13709735503E+01  0.51100000000E-03 0. -1.
        -11    1    4    4    0    0  0.92134641240E+01 -0.35971089947E+01 -0.36593953132E+02  0.37907051064E+02  0.51100000000E-03 0.  1.
        -12    1    4    4    0    0 -0.21763329269E+00 -0.12267581483E+01 -0.67502762773E+01  0.68642938183E+01  0.00000000000E+00 0.  1.
</event>
<event>
 8    1  0.2962813E-009  0.9118800E+02  0.7816164E-02  0.1184000E+00
        -11   -1    0    0    0    0  0.00000000000E+00  0.00000000000E+00  0.45593999997E+02  0.45594000000E+02  0.51100000000E-03 0. -1.
         11   -1    0    0    0    0 -0.00000000000E+00 -0.00000000000E+00 -0.45593999997E+02  0.45594000000E+02  0.51100000000E-03 0.  1.
         23    2    1    2    0    0  0.17763568394E-14 -0.35527136788E-14 -0.35527136788E-14  0.91188000000E+02  0.91188000000E+02 0.  0.
    9900012    2    3    3    0    0 -0.11937397088E+02  0.30133858311E+02 -0.31281986986E+02  0.46142316791E+02  0.99999911572E+01 0.  0.
         12    1    3    3    0    0  0.11937397088E+02 -0.30133858311E+02  0.31281986986E+02  0.45045683209E+02  0.00000000000E+00 0. -1.
         11    1    4    4    0    0 -0.98703079265E+01  0.13176770646E+02 -0.17566263933E+02  0.24075379375E+02  0.51100000000E-03 0. -1.
        -11    1    4    4    0    0 -0.25708612089E+00  0.67039612014E+01 -0.39125573155E+01  0.77664209306E+01  0.51100000000E-03 0.  1.
        -12    1    4    4    0    0 -0.18100030407E+01  0.10253126464E+02 -0.98031657371E+01  0.14300516486E+02  0.00000000000E+00 0.  1.
</event>
<event>
 8    1  0.2962813E-009  0.9118800E+02  0.7816164E-02  0.1184000E+00
        -11   -1    0    0    0    0  0.00000000000E+00  0.00000000000E+00  0.45593999997E+02  0.45594000000E+02  0.51100000000E-03 0.  1.
         11   -1    0    0    0    0 -0.00000000000E+00 -0.00000000000E+00 -0.45593999997E+02  0.45594000000E+02  0.51100000000E-03 0. -1.
         23    2    1    2    0    0  0.71054273576E-14 -0.35527136788E-14  0.00000000000E+00  0.91188000000E+02  0.91188000000E+02 0.  0.
    9900012    2    3    3    0    0  0.40598493884E+02 -0.16800795225E+02  0.99302103625E+01  0.46142317591E+02  0.99999984521E+01 0.  0.
        -12    1    3    3    0    0 -0.40598493884E+02  0.16800795225E+02 -0.99302103625E+01  0.45045682409E+02  0.00000000000E+00 0.  1.
         11    1    4    4    0    0  0.28906914991E+02 -0.83162902786E+01  0.64267875666E+01  0.30758316224E+02  0.51100000000E-03 0. -1.
        -11    1    4    4    0    0  0.36580648561E+00  0.42771483757E+00  0.20952804255E+00  0.60054694149E+00  0.51100000000E-03 0.  1.
         12    1    4    4    0    0  0.11325772407E+02 -0.89122197840E+01  0.32938947533E+01  0.14783454425E+02  0.00000000000E+00 0. -1.
</event>
<event>
 8    1  0.2962813E-009  0.9118800E+02  0.7816164E-02  0.1184000E+00
        -11   -1    0    0    0    0  0.00000000000E+00  0.00000000000E+00  0.45593999997E+02  0.45594000000E+02  0.51100000000E-03 0. -1.
         11   -1    0    0    0    0 -0.00000000000E+00 -0.00000000000E+00 -0.45593999997E+02  0.45594000000E+02  0.51100000000E-03 0.  1.
         23    2    1    2    0    0  0.00000000000E+00  0.17763568394E-14  0.71054273576E-14  0.91188000000E+02  0.91188000000E+02 0.  0.
    9900012    2    3    3    0    0  0.28529385173E+01 -0.15746825616E+02 -0.42107145408E+02  0.46142317970E+02  0.10000001902E+02 0.  0.
         12    1    3    3    0    0 -0.28529385173E+01  0.15746825616E+02  0.42107145408E+02  0.45045682030E+02  0.00000000000E+00 0. -1.
         11    1    4    4    0    0  0.93845942817E-02 -0.55699923973E+01 -0.25478124940E+02  0.26079872586E+02  0.51100000000E-03 0. -1.
        -11    1    4    4    0    0  0.12936825739E+01 -0.58013364878E+01 -0.12536098242E+02  0.13873819915E+02  0.51100000000E-03 0.  1.
         12    1    4    4    0    0  0.15498713492E+01 -0.43754967309E+01 -0.40929222256E+01  0.61886254683E+01  0.00000000000E+00 0. -1.
</event>
<event>
 8    1  0.2962813E-009  0.9118800E+02  0.7816164E-02  0.1184000E+00
        -11   -1    0    0    0    0  0.00000000000E+00  0.00000000000E+00  0.45593999997E+02  0.45594000000E+02  0.51100000000E-03 0. -1.
         11   -1    0    0    0    0 -0.00000000000E+00 -0.00000000000E+00 -0.45593999997E+02  0.45594000000E+02  0.51100000000E-03 0.  1.
         23    2    1    2    0    0  0.00000000000E+00  0.71054273576E-14  0.17763568394E-14  0.91188000000E+02  0.91188000000E+02 0.  0.
    9900012    2    3    3    0    0 -0.47170414271E+01  0.43414626500E+02  0.11046864440E+02  0.46142317766E+02  0.10000000043E+02 0.  0.
        -12    1    3    3    0    0  0.47170414271E+01 -0.43414626500E+02 -0.11046864440E+02  0.45045682234E+02  0.00000000000E+00 0.  1.
         11    1    4    4    0    0  0.50752699674E+00  0.66374301675E+01 -0.14612587201E+01  0.68153019147E+01  0.51100000000E-03 0. -1.
        -11    1    4    4    0    0 -0.45962991601E+01  0.25714779204E+02  0.99663748481E+01  0.27958978224E+02  0.51100000000E-03 0.  1.
         12    1    4    4    0    0 -0.62826926374E+00  0.11062417129E+02  0.25417483119E+01  0.11368037627E+02  0.00000000000E+00 0. -1.
</event>
<event>
 8    1  0.2962813E-009  0.9118800E+02  0.7816164E-02  0.1184000E+00
        -11   -1    0    0    0    0  0.00000000000E+00  0.00000000000E+00  0.45593999997E+02  0.45594000000E+02  0.51100000000E-03 0. -1.
         11   -1    0    0    0    0 -0.00000000000E+00 -0.00000000000E+00 -0.45593999997E+02  0.45594000000E+02  0.51100000000E-03 0.  1.
         23    2    1    2    0    0 -0.44408920985E-15 -0.35527136788E-14  0.00000000000E+00  0.91188000000E+02  0.91188000000E+02 0.  0.
    9900012    2    3    3    0    0  0.25801640442E+01 -0.28737559627E+02  0.34592034963E+02  0.46142318046E+02  0.10000002598E+02 0.  0.
        -12    1    3    3    0    0 -0.25801640442E+01  0.28737559627E+02 -0.34592034963E+02  0.45045681954E+02  0.00000000000E+00 0.  1.
         11    1    4    4    0    0 -0.21286025136E+01 -0.12843205202E+02  0.15667554709E+02  0.20370349514E+02  0.51100000000E-03 0. -1.
        -11    1    4    4    0    0  0.50243732002E+01 -0.73576403274E+01  0.87629957300E+01  0.12496771250E+02  0.51100000000E-03 0.  1.
        -12    1    4    4    0    0 -0.31560664236E+00 -0.85367140976E+01  0.10161484525E+02  0.13275197282E+02  0.00000000000E+00 0.  1.
</event>
<event>
 8    1  0.2962813E-009  0.9118800E+02  0.7816164E-02  0.1184000E+00
        -11   -1    0    0    0    0  0.00000000000E+00  0.00000000000E+00  0.45593999997E+02  0.45594000000E+02  0.51100000000E-03 0. -1.
         11   -1    0    0    0    0 -0.00000000000E+00 -0.00000000000E+00 -0.45593999997E+02  0.45594000000E+02  0.51100000000E-03 0.  1.
         23    2    1    2    0    0  0.00000000000E+00 -0.44408920985E-15  0.00000000000E+00  0.91188000000E+02  0.91188000000E+02 0.  0.
    9900012    2    3    3    0    0 -0.30044931450E+02 -0.37457098574E+01 -0.33352439720E+02  0.46142317816E+02  0.10000000499E+02 0.  0.
         12    1    3    3    0    0  0.30044931450E+02  0.37457098574E+01  0.33352439720E+02  0.45045682184E+02  0.00000000000E+00 0. -1.
         11    1    4    4    0    0 -0.95083292982E+01 -0.14866877245E+01 -0.56852711302E+01  0.11177695403E+02  0.51100000000E-03 0. -1.
        -11    1    4    4    0    0 -0.21079662496E+01  0.80812540115E+00 -0.56804851825E+01  0.61126508606E+01  0.51100000000E-03 0.  1.
        -12    1    4    4    0    0 -0.18428635903E+02 -0.30671475341E+01 -0.21986683407E+02  0.28851971552E+02  0.00000000000E+00 0.  1.
</event>
<event>
 8    1  0.2962813E-009  0.9118800E+02  0.7816164E-02  0.1184000E+00
        -11   -1    0    0    0    0  0.00000000000E+00  0.00000000000E+00  0.45593999997E+02  0.45594000000E+02  0.51100000000E-03 0. -1.
         11   -1    0    0    0    0 -0.00000000000E+00 -0.00000000000E+00 -0.45593999997E+02  0.45594000000E+02  0.51100000000E-03 0.  1.
         23    2    1    2    0    0  0.00000000000E+00  0.00000000000E+00 -0.35527136788E-14  0.91188000000E+02  0.91188000000E+02 0.  0.
    9900012    2    3    3    0    0 -0.35859733996E+02 -0.10303483707E+02  0.25239476070E+02  0.46142318175E+02  0.10000003775E+02 0.  0.
        -12    1    3    3    0    0  0.35859733996E+02  0.10303483707E+02 -0.25239476070E+02  0.45045681825E+02  0.00000000000E+00 0.  1.
         11    1    4    4    0    0 -0.13665601579E+02 -0.38865537546E+01  0.14713083146E+02  0.20453087359E+02  0.51100000000E-03 0. -1.
        -11    1    4    4    0    0 -0.16878897208E+02 -0.65788168660E+01  0.81790759297E+01  0.19876500840E+02  0.51100000000E-03 0.  1.
        -12    1    4    4    0    0 -0.53152352100E+01  0.16188691333E+00  0.23473169946E+01  0.58127299768E+01  0.00000000000E+00 0.  1.
</event>
<event>
 8    1  0.2962813E-009  0.9118800E+02  0.7816164E-02  0.1184000E+00
        -11   -1    0    0    0    0  0.00000000000E+00  0.00000000000E+00  0.45593999997E+02  0.45594000000E+02  0.51100000000E-03 0. -1.
         11   -1    0    0    0    0 -0.00000000000E+00 -0.00000000000E+00 -0.45593999997E+02  0.45594000000E+02  0.51100000000E-03 0.  1.
         23    2    1    2    0    0  0.00000000000E+00 -0.44408920985E-15  0.00000000000E+00  0.91188000000E+02  0.91188000000E+02 0.  0.
    9900012    2    3    3    0    0  0.11942879670E+02 -0.13959907763E+01 -0.43411200062E+02  0.46142318122E+02  0.10000003286E+02 0.  0.
         12    1    3    3    0    0 -0.11942879670E+02  0.13959907763E+01  0.43411200062E+02  0.45045681878E+02  0.00000000000E+00 0. -1.
         11    1    4    4    0    0  0.63541268223E+01  0.64195021495E+00 -0.31538391311E+02  0.32178520080E+02  0.51100000000E-03 0. -1.
        -11    1    4    4    0    0  0.52283710379E+01 -0.30273299863E+01 -0.84850831752E+01  0.10416200234E+02  0.51100000000E-03 0.  1.
        -12    1    4    4    0    0  0.36038180955E+00  0.98938899507E+00 -0.33877255758E+01  0.35475978083E+01  0.00000000000E+00 0.  1.
</event>
<event>
 8    1  0.2962813E-009  0.9118800E+02  0.7816164E-02  0.1184000E+00
        -11   -1    0    0    0    0  0.00000000000E+00  0.00000000000E+00  0.45593999997E+02  0.45594000000E+02  0.51100000000E-03 0. -1.
         11   -1    0    0    0    0 -0.00000000000E+00 -0.00000000000E+00 -0.45593999997E+02  0.45594000000E+02  0.51100000000E-03 0.  1.
         23    2    1    2    0    0  0.00000000000E+00  0.00000000000E+00  0.00000000000E+00  0.91188000000E+02  0.91188000000E+02 0.  0.
    9900012    2    3    3    0    0 -0.75990212126E+00 -0.20425964123E+01  0.44992930942E+02  0.46142317786E+02  0.10000000227E+02 0.  0.
        -12    1    3    3    0    0  0.75990212126E+00  0.20425964123E+01 -0.44992930942E+02  0.45045682214E+02  0.00000000000E+00 0.  1.
         11    1    4    4    0    0 -0.65012747000E+00 -0.33274242581E+01  0.22637946215E+02  0.22890413431E+02  0.51100000000E-03 0. -1.
        -11    1    4    4    0    0  0.12095574824E+01  0.21410772444E+01  0.21091660167E+02  0.21234532487E+02  0.51100000000E-03 0.  1.
         12    1    4    4    0    0 -0.13193321337E+01 -0.85624939866E+00  0.12633245601E+01  0.20173718685E+01  0.00000000000E+00 0. -1.
</event>
<event>
 8    1  0.2962813E-009  0.9118800E+02  0.7816164E-02  0.1184000E+00
        -11   -1    0    0    0    0  0.00000000000E+00  0.00000000000E+00  0.45593999997E+02  0.45594000000E+02  0.51100000000E-03 0. -1.
         11   -1    0    0    0    0 -0.00000000000E+00 -0.00000000000E+00 -0.45593999997E+02  0.45594000000E+02  0.51100000000E-03 0.  1.
         23    2    1    2    0    0  0.35527136788E-14  0.00000000000E+00 -0.35527136788E-14  0.91188000000E+02  0.91188000000E+02 0.  0.
    9900012    2    3    3    0    0  0.23378902932E+02 -0.32439232763E+02 -0.20742145140E+02  0.46142317526E+02  0.99999978545E+01 0.  0.
         12    1    3    3    0    0 -0.23378902932E+02  0.32439232763E+02  0.20742145140E+02  0.45045682474E+02  0.00000000000E+00 0. -1.
         11    1    4    4    0    0  0.54772652993E+01 -0.34246096434E+01 -0.59663543085E+01  0.87935072846E+01  0.51100000000E-03 0. -1.
        -11    1    4    4    0    0  0.66931980497E+01 -0.13839962606E+02 -0.77624462194E+01  0.17222050884E+02  0.51100000000E-03 0.  1.
         12    1    4    4    0    0  0.11208439583E+02 -0.15174660514E+02 -0.70133446117E+01  0.20126759358E+02  0.00000000000E+00 0. -1.
</event>
<event>
 8    1  0.2962813E-009  0.9118800E+02  0.7816164E-02  0.1184000E+00
        -11   -1    0    0    0    0  0.00000000000E+00  0.00000000000E+00  0.45593999997E+02  0.45594000000E+02  0.51100000000E-03 0. -1.
         11   -1    0    0    0    0 -0.00000000000E+00 -0.00000000000E+00 -0.45593999997E+02  0.45594000000E+02  0.51100000000E-03 0.  1.
         23    2    1    2    0    0  0.00000000000E+00  0.17763568394E-14  0.71054273576E-14  0.91188000000E+02  0.91188000000E+02 0.  0.
    9900012    2    3    3    0    0  0.30307128551E+01  0.15124918458E+02 -0.42322157748E+02  0.46142318573E+02  0.10000007405E+02 0.  0.
         12    1    3    3    0    0 -0.30307128551E+01 -0.15124918458E+02  0.42322157748E+02  0.45045681427E+02  0.00000000000E+00 0. -1.
         11    1    4    4    0    0  0.27755921511E+01  0.14294760487E+02 -0.26029861080E+02  0.29826125415E+02  0.51100000000E-03 0. -1.
        -11    1    4    4    0    0  0.18986441233E+00  0.47173477746E+00 -0.10664731277E+02  0.10676847646E+02  0.51100000000E-03 0.  1.
         12    1    4    4    0    0  0.65256291644E-01  0.35842319371E+00 -0.56275653913E+01  0.56393455119E+01  0.00000000000E+00 0. -1.
</event>
<event>
 8    1  0.2962813E-009  0.9118800E+02  0.7816164E-02  0.1184000E+00
        -11   -1    0    0    0    0  0.00000000000E+00  0.00000000000E+00  0.45593999997E+02  0.45594000000E+02  0.51100000000E-03 0. -1.
         11   -1    0    0    0    0 -0.00000000000E+00 -0.00000000000E+00 -0.45593999997E+02  0.45594000000E+02  0.51100000000E-03 0.  1.
         23    2    1    2    0    0  0.00000000000E+00  0.00000000000E+00  0.00000000000E+00  0.91188000000E+02  0.91188000000E+02 0.  0.
    9900012    2    3    3    0    0 -0.12977461120E+02 -0.37325434536E+02 -0.21622001174E+02  0.46142317686E+02  0.99999993133E+01 0.  0.
         12    1    3    3    0    0  0.12977461120E+02  0.37325434536E+02  0.21622001174E+02  0.45045682314E+02  0.00000000000E+00 0. -1.
         11    1    4    4    0    0 -0.85023754116E+00 -0.52235345207E+01 -0.66745800682E+01  0.85181122389E+01  0.51100000000E-03 0. -1.
        -11    1    4    4    0    0 -0.45478919335E+01 -0.12161848230E+02 -0.36615519516E+01  0.13490768560E+02  0.51100000000E-03 0.  1.
         12    1    4    4    0    0 -0.75793316458E+01 -0.19940051785E+02 -0.11285869154E+02  0.24133436886E+02  0.00000000000E+00 0. -1.
</event>
<event>
 8    1  0.2962813E-009  0.9118800E+02  0.7816164E-02  0.1184000E+00
        -11   -1    0    0    0    0  0.00000000000E+00  0.00000000000E+00  0.45593999997E+02  0.45594000000E+02  0.51100000000E-03 0. -1.
         11   -1    0    0    0    0 -0.00000000000E+00 -0.00000000000E+00 -0.45593999997E+02  0.45594000000E+02  0.51100000000E-03 0.  1.
         23    2    1    2    0    0  0.00000000000E+00  0.00000000000E+00  0.00000000000E+00  0.91188000000E+02  0.91188000000E+02 0.  0.
    9900012    2    3    3    0    0  0.22515446684E+02 -0.21037350224E+02 -0.32857235571E+02  0.46142319039E+02  0.10000011654E+02 0.  0.
         12    1    3    3    0    0 -0.22515446684E+02  0.21037350224E+02  0.32857235571E+02  0.45045680961E+02  0.00000000000E+00 0. -1.
         11    1    4    4    0    0  0.53875793805E+01 -0.15184058630E+01 -0.33450118943E+01  0.65207877423E+01  0.51100000000E-03 0. -1.
        -11    1    4    4    0    0  0.86126734084E+01 -0.12232277860E+02 -0.14038541795E+02  0.20515540960E+02  0.51100000000E-03 0.  1.
         12    1    4    4    0    0  0.85151938952E+01 -0.72866665014E+01 -0.15473681882E+02  0.19105990337E+02  0.00000000000E+00 0. -1.
</event>
<event>
 8    1  0.2962813E-009  0.9118800E+02  0.7816164E-02  0.1184000E+00
        -11   -1    0    0    0    0  0.00000000000E+00  0.00000000000E+00  0.45593999997E+02  0.45594000000E+02  0.51100000000E-03 0. -1.
         11   -1    0    0    0    0 -0.00000000000E+00 -0.00000000000E+00 -0.45593999997E+02  0.45594000000E+02  0.51100000000E-03 0.  1.
         23    2    1    2    0    0  0.00000000000E+00 -0.88817841970E-15 -0.71054273576E-14  0.91188000000E+02  0.91188000000E+02 0.  0.
    9900012    2    3    3    0    0 -0.18292223294E+02 -0.40496881346E+01 -0.40964717808E+02  0.46142317498E+02  0.99999975965E+01 0.  0.
         12    1    3    3    0    0  0.18292223294E+02  0.40496881346E+01  0.40964717808E+02  0.45045682502E+02  0.00000000000E+00 0. -1.
         11    1    4    4    0    0 -0.87087128264E+01 -0.12059508726E+01 -0.12065102631E+02  0.14928586616E+02  0.51100000000E-03 0. -1.
        -11    1    4    4    0    0 -0.18016447523E+01 -0.30207312691E+01 -0.13605433895E+02  0.14052706961E+02  0.51100000000E-03 0.  1.
        -12    1    4    4    0    0 -0.77818657153E+01  0.17699400715E+00 -0.15294181282E+02  0.17161023920E+02  0.00000000000E+00 0.  1.
</event>
<event>
 8    1  0.2962813E-009  0.9118800E+02  0.7816164E-02  0.1184000E+00
        -11   -1    0    0    0    0  0.00000000000E+00  0.00000000000E+00  0.45593999997E+02  0.45594000000E+02  0.51100000000E-03 0. -1.
         11   -1    0    0    0    0 -0.00000000000E+00 -0.00000000000E+00 -0.45593999997E+02  0.45594000000E+02  0.51100000000E-03 0.  1.
         23    2    1    2    0    0  0.00000000000E+00  0.00000000000E+00  0.00000000000E+00  0.91188000000E+02  0.91188000000E+02 0.  0.
    9900012    2    3    3    0    0  0.34971026748E+02  0.22410914483E+02  0.17432489763E+02  0.46142317642E+02  0.99999989107E+01 0.  0.
        -12    1    3    3    0    0 -0.34971026748E+02 -0.22410914483E+02 -0.17432489763E+02  0.45045682358E+02  0.00000000000E+00 0.  1.
         11    1    4    4    0    0  0.57779742244E+00  0.14328468111E+00  0.20114335598E+01  0.20976762352E+01  0.51100000000E-03 0.  1.
        -11    1    4    4    0    0  0.82034290188E+01  0.43197833636E+01  0.55058918746E+01  0.10782931956E+02  0.51100000000E-03 0. -1.
         12    1    4    4    0    0  0.26189800307E+02  0.17947846438E+02  0.99151643285E+01  0.33261709450E+02  0.00000000000E+00 0. -1.
</event>
<event>
 8    1  0.2962813E-009  0.9118800E+02  0.7816164E-02  0.1184000E+00
        -11   -1    0    0    0    0  0.00000000000E+00  0.00000000000E+00  0.45593999997E+02  0.45594000000E+02  0.51100000000E-03 0. -1.
         11   -1    0    0    0    0 -0.00000000000E+00 -0.00000000000E+00 -0.45593999997E+02  0.45594000000E+02  0.51100000000E-03 0.  1.
         23    2    1    2    0    0  0.00000000000E+00  0.00000000000E+00  0.00000000000E+00  0.91188000000E+02  0.91188000000E+02 0.  0.
    9900012    2    3    3    0    0 -0.40924855543E+02  0.17291899193E+02 -0.74337164826E+01  0.46142315194E+02  0.99999765919E+01 0.  0.
         12    1    3    3    0    0  0.40924855543E+02 -0.17291899193E+02  0.74337164826E+01  0.45045684806E+02  0.00000000000E+00 0. -1.
         11    1    4    4    0    0  0.51250176463E+00  0.62943667225E+00 -0.47633069502E+00  0.94113749010E+00  0.51100000000E-03 0. -1.
        -11    1    4    4    0    0 -0.23482244317E+02  0.95512699653E+01 -0.39055563503E+01  0.25649481999E+02  0.51100000000E-03 0.  1.
         12    1    4    4    0    0 -0.17955112990E+02  0.71111925559E+01 -0.30518294372E+01  0.19551695705E+02  0.00000000000E+00 0. -1.
</event>
<event>
 8    1  0.2962813E-009  0.9118800E+02  0.7816164E-02  0.1184000E+00
        -11   -1    0    0    0    0  0.00000000000E+00  0.00000000000E+00  0.45593999997E+02  0.45594000000E+02  0.51100000000E-03 0. -1.
         11   -1    0    0    0    0 -0.00000000000E+00 -0.00000000000E+00 -0.45593999997E+02  0.45594000000E+02  0.51100000000E-03 0.  1.
         23    2    1    2    0    0 -0.71054273576E-14  0.00000000000E+00  0.00000000000E+00  0.91188000000E+02  0.91188000000E+02 0.  0.
    9900012    2    3    3    0    0 -0.35266443381E+02  0.92957237410E+01 -0.26438250243E+02  0.46142316694E+02  0.99999902655E+01 0.  0.
         12    1    3    3    0    0  0.35266443381E+02 -0.92957237410E+01  0.26438250243E+02  0.45045683306E+02  0.00000000000E+00 0. -1.
         11    1    4    4    0    0 -0.81377697432E+00  0.70583763481E+00  0.15764468701E+00  0.10887110907E+01  0.51100000000E-03 0. -1.
        -11    1    4    4    0    0 -0.86347196088E+00 -0.90142378072E+00 -0.19859420854E+01  0.23456587321E+01  0.51100000000E-03 0.  1.
        -12    1    4    4    0    0 -0.33589194446E+02  0.94913098869E+01 -0.24609952845E+02  0.42707946871E+02  0.00000000000E+00 0.  1.
</event>
<event>
 8    1  0.2962813E-009  0.9118800E+02  0.7816164E-02  0.1184000E+00
        -11   -1    0    0    0    0  0.00000000000E+00  0.00000000000E+00  0.45593999997E+02  0.45594000000E+02  0.51100000000E-03 0. -1.
         11   -1    0    0    0    0 -0.00000000000E+00 -0.00000000000E+00 -0.45593999997E+02  0.45594000000E+02  0.51100000000E-03 0.  1.
         23    2    1    2    0    0 -0.44408920985E-15  0.00000000000E+00  0.00000000000E+00  0.91188000000E+02  0.91188000000E+02 0.  0.
    9900012    2    3    3    0    0 -0.62067870031E+00 -0.39785672758E+02  0.21114626553E+02  0.46142329250E+02  0.10000104764E+02 0.  0.
        -12    1    3    3    0    0  0.62067870031E+00  0.39785672758E+02 -0.21114626553E+02  0.45045670750E+02  0.00000000000E+00 0.  1.
         11    1    4    4    0    0 -0.32351897970E+01 -0.23382140384E+02  0.10945131995E+02  0.26018971091E+02  0.51100000000E-03 0. -1.
        -11    1    4    4    0    0  0.11854491923E+01 -0.12839678059E+02  0.99326409088E+01  0.16276362558E+02  0.51100000000E-03 0.  1.
         12    1    4    4    0    0  0.14290619044E+01 -0.35638543148E+01  0.23685364966E+00  0.38469956011E+01  0.00000000000E+00 0. -1.
</event>
<event>
 8    1  0.2962813E-009  0.9118800E+02  0.7816164E-02  0.1184000E+00
        -11   -1    0    0    0    0  0.00000000000E+00  0.00000000000E+00  0.45593999997E+02  0.45594000000E+02  0.51100000000E-03 0. -1.
         11   -1    0    0    0    0 -0.00000000000E+00 -0.00000000000E+00 -0.45593999997E+02  0.45594000000E+02  0.51100000000E-03 0.  1.
         23    2    1    2    0    0  0.00000000000E+00  0.00000000000E+00  0.00000000000E+00  0.91188000000E+02  0.91188000000E+02 0.  0.
    9900012    2    3    3    0    0  0.12913788720E+02 -0.26234853727E+02 -0.34264848567E+02  0.46142319447E+02  0.10000015372E+02 0.  0.
         12    1    3    3    0    0 -0.12913788720E+02  0.26234853727E+02  0.34264848567E+02  0.45045680553E+02  0.00000000000E+00 0. -1.
         11    1    4    4    0    0  0.76872980280E+01 -0.84526568695E+01 -0.83527815027E+01  0.14153123974E+02  0.51100000000E-03 0. -1.
        -11    1    4    4    0    0  0.92647047894E+00 -0.30362930336E+01 -0.27675822777E+01  0.42115240542E+01  0.51100000000E-03 0.  1.
         12    1    4    4    0    0  0.43000202126E+01 -0.14745903824E+02 -0.23144484786E+02  0.27777671419E+02  0.00000000000E+00 0. -1.
</event>
<event>
 8    1  0.2962813E-009  0.9118800E+02  0.7816164E-02  0.1184000E+00
        -11   -1    0    0    0    0  0.00000000000E+00  0.00000000000E+00  0.45593999997E+02  0.45594000000E+02  0.51100000000E-03 0. -1.
         11   -1    0    0    0    0 -0.00000000000E+00 -0.00000000000E+00 -0.45593999997E+02  0.45594000000E+02  0.51100000000E-03 0.  1.
         23    2    1    2    0    0  0.00000000000E+00  0.00000000000E+00  0.00000000000E+00  0.91188000000E+02  0.91188000000E+02 0.  0.
    9900012    2    3    3    0    0 -0.23375472657E+02  0.32352580609E+02  0.20880878703E+02  0.46142319970E+02  0.10000020141E+02 0.  0.
        -12    1    3    3    0    0  0.23375472657E+02 -0.32352580609E+02 -0.20880878703E+02  0.45045680030E+02  0.00000000000E+00 0.  1.
         11    1    4    4    0    0 -0.53409637672E+01  0.10289680640E+02  0.37284660195E+01  0.12178049136E+02  0.51100000000E-03 0. -1.
        -11    1    4    4    0    0 -0.17346063708E+02  0.20564427070E+02  0.17726473576E+02  0.32218154084E+02  0.51100000000E-03 0.  1.
        -12    1    4    4    0    0 -0.68844518165E+00  0.14984728983E+01 -0.57406089274E+00  0.17461167497E+01  0.00000000000E+00 0.  1.
</event>
<event>
 8    1  0.2962813E-009  0.9118800E+02  0.7816164E-02  0.1184000E+00
        -11   -1    0    0    0    0  0.00000000000E+00  0.00000000000E+00  0.45593999997E+02  0.45594000000E+02  0.51100000000E-03 0. -1.
         11   -1    0    0    0    0 -0.00000000000E+00 -0.00000000000E+00 -0.45593999997E+02  0.45594000000E+02  0.51100000000E-03 0.  1.
         23    2    1    2    0    0  0.00000000000E+00  0.00000000000E+00 -0.71054273576E-14  0.91188000000E+02  0.91188000000E+02 0.  0.
    9900012    2    3    3    0    0  0.98419170175E+01  0.26554988506E+02 -0.35029739559E+02  0.46142318757E+02  0.10000009078E+02 0.  0.
         12    1    3    3    0    0 -0.98419170175E+01 -0.26554988506E+02  0.35029739559E+02  0.45045681243E+02  0.00000000000E+00 0. -1.
         11    1    4    4    0    0  0.69460926853E+01  0.97888493308E+01 -0.15726440448E+02  0.19783596848E+02  0.51100000000E-03 0. -1.
        -11    1    4    4    0    0  0.42884405465E+00  0.14556445750E+02 -0.14743236413E+02  0.20722862744E+02  0.51100000000E-03 0.  1.
        -12    1    4    4    0    0  0.24669802776E+01  0.22096934249E+01 -0.45600626974E+01  0.56358591649E+01  0.00000000000E+00 0.  1.
</event>
<event>
 8    1  0.2962813E-009  0.9118800E+02  0.7816164E-02  0.1184000E+00
        -11   -1    0    0    0    0  0.00000000000E+00  0.00000000000E+00  0.45593999997E+02  0.45594000000E+02  0.51100000000E-03 0. -1.
         11   -1    0    0    0    0 -0.00000000000E+00 -0.00000000000E+00 -0.45593999997E+02  0.45594000000E+02  0.51100000000E-03 0.  1.
         23    2    1    2    0    0  0.00000000000E+00  0.35527136788E-14  0.00000000000E+00  0.91188000000E+02  0.91188000000E+02 0.  0.
    9900012    2    3    3    0    0 -0.37744828271E+02 -0.21349431529E+02  0.12191927716E+02  0.46142318861E+02  0.10000010034E+02 0.  0.
        -12    1    3    3    0    0  0.37744828271E+02  0.21349431529E+02 -0.12191927716E+02  0.45045681139E+02  0.00000000000E+00 0.  1.
         11    1    4    4    0    0 -0.19715434217E+02 -0.62956433380E+01  0.63785799951E+01  0.21656863910E+02  0.51100000000E-03 0. -1.
        -11    1    4    4    0    0 -0.65391133350E+01 -0.78696481149E+01  0.26635523713E+01  0.10572884004E+02  0.51100000000E-03 0.  1.
         12    1    4    4    0    0 -0.11490280719E+02 -0.71841400761E+01  0.31497953499E+01  0.13912570948E+02  0.00000000000E+00 0. -1.
</event>
<event>
 8    1  0.2962813E-009  0.9118800E+02  0.7816164E-02  0.1184000E+00
        -11   -1    0    0    0    0  0.00000000000E+00  0.00000000000E+00  0.45593999997E+02  0.45594000000E+02  0.51100000000E-03 0. -1.
         11   -1    0    0    0    0 -0.00000000000E+00 -0.00000000000E+00 -0.45593999997E+02  0.45594000000E+02  0.51100000000E-03 0.  1.
         23    2    1    2    0    0  0.00000000000E+00  0.00000000000E+00 -0.71054273576E-14  0.91188000000E+02  0.91188000000E+02 0.  0.
    9900012    2    3    3    0    0 -0.66622279979E+00  0.83032954526E+01 -0.44268780797E+02  0.46142317393E+02  0.99999966477E+01 0.  0.
         12    1    3    3    0    0  0.66622279979E+00 -0.83032954526E+01  0.44268780797E+02  0.45045682607E+02  0.00000000000E+00 0. -1.
         11    1    4    4    0    0 -0.33515339548E+00  0.15695228856E+01 -0.23157756028E+01  0.28175426866E+01  0.51100000000E-03 0. -1.
        -11    1    4    4    0    0  0.31355735692E+00  0.20437452333E+01 -0.14015373748E+01  0.24979031344E+01  0.51100000000E-03 0.  1.
        -12    1    4    4    0    0 -0.64462676123E+00  0.46900273337E+01 -0.40551467820E+02  0.40826871573E+02  0.00000000000E+00 0.  1.
</event>
<event>
 8    1  0.2962813E-009  0.9118800E+02  0.7816164E-02  0.1184000E+00
        -11   -1    0    0    0    0  0.00000000000E+00  0.00000000000E+00  0.45593999997E+02  0.45594000000E+02  0.51100000000E-03 0. -1.
         11   -1    0    0    0    0 -0.00000000000E+00 -0.00000000000E+00 -0.45593999997E+02  0.45594000000E+02  0.51100000000E-03 0.  1.
         23    2    1    2    0    0  0.00000000000E+00 -0.35527136788E-14  0.00000000000E+00  0.91188000000E+02  0.91188000000E+02 0.  0.
    9900012    2    3    3    0    0 -0.21875247764E+02 -0.19847772120E+02 -0.34009602725E+02  0.46142316518E+02  0.99999886634E+01 0.  0.
         12    1    3    3    0    0  0.21875247764E+02  0.19847772120E+02  0.34009602725E+02  0.45045683482E+02  0.00000000000E+00 0. -1.
         11    1    4    4    0    0 -0.78943856595E+01 -0.91934187944E+01 -0.13596255414E+02  0.18212590030E+02  0.51100000000E-03 0. -1.
        -11    1    4    4    0    0 -0.56675761671E+01 -0.80129627244E+00 -0.36741411767E+01  0.68016769236E+01  0.51100000000E-03 0.  1.
         12    1    4    4    0    0 -0.83132859369E+01 -0.98530570537E+01 -0.16739206134E+02  0.21128049564E+02  0.00000000000E+00 0. -1.
</event>
<event>
 8    1  0.4105873E-009  0.9118800E+02  0.7816164E-02  0.1184000E+00
        -11   -1    0    0    0    0  0.00000000000E+00  0.00000000000E+00  0.45593999997E+02  0.45594000000E+02  0.51100000000E-03 0. -1.
         11   -1    0    0    0    0 -0.00000000000E+00 -0.00000000000E+00 -0.45593999997E+02  0.45594000000E+02  0.51100000000E-03 0.  1.
         23    2    1    2    0    0 -0.44408920985E-15  0.00000000000E+00  0.00000000000E+00  0.91188000000E+02  0.91188000000E+02 0.  0.
    9900012    2    3    3    0    0  0.14375392779E+01 -0.80699388079E+01 -0.44293600688E+02  0.46142317704E+02  0.99999994828E+01 0.  0.
         12    1    3    3    0    0 -0.14375392779E+01  0.80699388079E+01  0.44293600688E+02  0.45045682296E+02  0.00000000000E+00 0. -1.
         11    1    4    4    0    0 -0.12561048798E+00 -0.31488691113E+01 -0.42935503355E+01  0.53259486873E+01  0.51100000000E-03 0. -1.
        -11    1    4    4    0    0  0.39009193943E+01 -0.32610101534E+01 -0.21341305268E+02  0.21938611399E+02  0.51100000000E-03 0.  1.
        -12    1    4    4    0    0 -0.23377696284E+01 -0.16600595431E+01 -0.18658745085E+02  0.18877757618E+02  0.00000000000E+00 0.  1.
</event>
<event>
 8    1  0.3305195E-009  0.9118800E+02  0.7816164E-02  0.1184000E+00
        -11   -1    0    0    0    0  0.00000000000E+00  0.00000000000E+00  0.45593999997E+02  0.45594000000E+02  0.51100000000E-03 0. -1.
         11   -1    0    0    0    0 -0.00000000000E+00 -0.00000000000E+00 -0.45593999997E+02  0.45594000000E+02  0.51100000000E-03 0.  1.
         23    2    1    2    0    0  0.00000000000E+00 -0.35527136788E-14 -0.71054273576E-14  0.91188000000E+02  0.91188000000E+02 0.  0.
    9900012    2    3    3    0    0  0.74269003010E+00 -0.21036814127E+02 -0.39824796070E+02  0.46142317420E+02  0.99999968892E+01 0.  0.
         12    1    3    3    0    0 -0.74269003010E+00  0.21036814127E+02  0.39824796070E+02  0.45045682580E+02  0.00000000000E+00 0. -1.
         11    1    4    4    0    0  0.21145745241E+01 -0.16363638287E+01 -0.72434742933E+01  0.77212066477E+01  0.51100000000E-03 0. -1.
        -11    1    4    4    0    0 -0.16862546932E+01 -0.10790655989E+02 -0.12681099767E+02  0.16735949424E+02  0.51100000000E-03 0.  1.
        -12    1    4    4    0    0  0.31437019921E+00 -0.86097943100E+01 -0.19900222009E+02  0.21685161348E+02  0.00000000000E+00 0.  1.
</event>
<event>
 8    1  0.2962813E-009  0.9118800E+02  0.7816164E-02  0.1184000E+00
        -11   -1    0    0    0    0  0.00000000000E+00  0.00000000000E+00  0.45593999997E+02  0.45594000000E+02  0.51100000000E-03 0. -1.
         11   -1    0    0    0    0 -0.00000000000E+00 -0.00000000000E+00 -0.45593999997E+02  0.45594000000E+02  0.51100000000E-03 0.  1.
         23    2    1    2    0    0  0.00000000000E+00  0.00000000000E+00  0.00000000000E+00  0.91188000000E+02  0.91188000000E+02 0.  0.
    9900012    2    3    3    0    0 -0.85895006568E+01  0.22039514459E+02  0.38335281989E+02  0.46142316918E+02  0.99999923100E+01 0.  0.
        -12    1    3    3    0    0  0.85895006568E+01 -0.22039514459E+02 -0.38335281989E+02  0.45045683082E+02  0.00000000000E+00 0.  1.
         11    1    4    4    0    0 -0.31639327187E+01  0.60090575175E+01  0.13334163365E+02  0.14963928475E+02  0.51100000000E-03 0. -1.
        -11    1    4    4    0    0 -0.45140815575E+01  0.10316027527E+02  0.98528595564E+01  0.14962493039E+02  0.51100000000E-03 0.  1.
        -12    1    4    4    0    0 -0.91148638065E+00  0.57144294152E+01  0.15148259068E+02  0.16215895404E+02  0.00000000000E+00 0.  1.
</event>
<event>
 8    1  0.2962813E-009  0.9118800E+02  0.7816164E-02  0.1184000E+00
        -11   -1    0    0    0    0  0.00000000000E+00  0.00000000000E+00  0.45593999997E+02  0.45594000000E+02  0.51100000000E-03 0. -1.
         11   -1    0    0    0    0 -0.00000000000E+00 -0.00000000000E+00 -0.45593999997E+02  0.45594000000E+02  0.51100000000E-03 0.  1.
         23    2    1    2    0    0  0.00000000000E+00 -0.88817841970E-15  0.71054273576E-14  0.91188000000E+02  0.91188000000E+02 0.  0.
    9900012    2    3    3    0    0 -0.16756207062E+02  0.43915960470E+01 -0.41581929818E+02  0.46142317873E+02  0.10000001018E+02 0.  0.
         12    1    3    3    0    0  0.16756207062E+02 -0.43915960470E+01  0.41581929818E+02  0.45045682127E+02  0.00000000000E+00 0. -1.
         11    1    4    4    0    0 -0.10652940353E+02  0.21305485581E+01 -0.24816161454E+02  0.27089965761E+02  0.51100000000E-03 0. -1.
        -11    1    4    4    0    0 -0.70166228575E+01  0.21767744145E+01 -0.11087812861E+02  0.13300787100E+02  0.51100000000E-03 0.  1.
         12    1    4    4    0    0  0.91335614825E+00  0.84273074405E-01 -0.56779555018E+01  0.57515650118E+01  0.00000000000E+00 0. -1.
</event>
<event>
 8    1  0.2962813E-009  0.9118800E+02  0.7816164E-02  0.1184000E+00
        -11   -1    0    0    0    0  0.00000000000E+00  0.00000000000E+00  0.45593999997E+02  0.45594000000E+02  0.51100000000E-03 0. -1.
         11   -1    0    0    0    0 -0.00000000000E+00 -0.00000000000E+00 -0.45593999997E+02  0.45594000000E+02  0.51100000000E-03 0.  1.
         23    2    1    2    0    0  0.00000000000E+00  0.00000000000E+00 -0.71054273576E-14  0.91188000000E+02  0.91188000000E+02 0.  0.
    9900012    2    3    3    0    0  0.11392555993E+01  0.20977719512E+01  0.44982385291E+02  0.46142317222E+02  0.99999950849E+01 0.  0.
        -12    1    3    3    0    0 -0.11392555993E+01 -0.20977719512E+01 -0.44982385291E+02  0.45045682778E+02  0.00000000000E+00 0.  1.
         11    1    4    4    0    0 -0.31109526917E+01 -0.69202310586E+00  0.23515062655E+02  0.23730046240E+02  0.51100000000E-03 0. -1.
        -11    1    4    4    0    0  0.33205914792E+01  0.84242303915E+00  0.18038637885E+02  0.18361058286E+02  0.51100000000E-03 0.  1.
         12    1    4    4    0    0  0.92961681178E+00  0.19473720179E+01  0.34286847502E+01  0.40512126961E+01  0.00000000000E+00 0. -1.
</event>
<event>
 8    1  0.2962813E-009  0.9118800E+02  0.7816164E-02  0.1184000E+00
        -11   -1    0    0    0    0  0.00000000000E+00  0.00000000000E+00  0.45593999997E+02  0.45594000000E+02  0.51100000000E-03 0. -1.
         11   -1    0    0    0    0 -0.00000000000E+00 -0.00000000000E+00 -0.45593999997E+02  0.45594000000E+02  0.51100000000E-03 0.  1.
         23    2    1    2    0    0  0.35527136788E-14  0.88817841970E-15  0.00000000000E+00  0.91188000000E+02  0.91188000000E+02 0.  0.
    9900012    2    3    3    0    0  0.23354008805E+02  0.29701307060E+01  0.38404192573E+02  0.46142318621E+02  0.10000007841E+02 0.  0.
        -12    1    3    3    0    0 -0.23354008805E+02 -0.29701307060E+01 -0.38404192573E+02  0.45045681379E+02  0.00000000000E+00 0.  1.
         11    1    4    4    0    0  0.93773709017E+01  0.60914542917E+01  0.15397342760E+02  0.19029426285E+02  0.51100000000E-03 0. -1.
        -11    1    4    4    0    0  0.91405799911E+01 -0.24287804545E+01  0.15402557349E+02  0.18074511064E+02  0.51100000000E-03 0.  1.
         12    1    4    4    0    0  0.48360579126E+01 -0.69254313118E+00  0.76042924648E+01  0.90383812717E+01  0.00000000000E+00 0. -1.
</event>
<event>
 8    1  0.2962813E-009  0.9118800E+02  0.7816164E-02  0.1184000E+00
        -11   -1    0    0    0    0  0.00000000000E+00  0.00000000000E+00  0.45593999997E+02  0.45594000000E+02  0.51100000000E-03 0. -1.
         11   -1    0    0    0    0 -0.00000000000E+00 -0.00000000000E+00 -0.45593999997E+02  0.45594000000E+02  0.51100000000E-03 0.  1.
         23    2    1    2    0    0 -0.35527136788E-14 -0.88817841970E-15  0.00000000000E+00  0.91188000000E+02  0.91188000000E+02 0.  0.
    9900012    2    3    3    0    0  0.25836075665E+02  0.60808188575E+01  0.36395526432E+02  0.46142317544E+02  0.99999980165E+01 0.  0.
        -12    1    3    3    0    0 -0.25836075665E+02 -0.60808188575E+01 -0.36395526432E+02  0.45045682456E+02  0.00000000000E+00 0.  1.
         11    1    4    4    0    0  0.46439634043E+01 -0.12362370399E+01  0.10321848899E+02  0.11385747366E+02  0.51100000000E-03 0. -1.
        -11    1    4    4    0    0  0.19998943679E+02  0.78741561117E+01  0.23379796067E+02  0.31758069008E+02  0.51100000000E-03 0.  1.
        -12    1    4    4    0    0  0.11931685810E+01 -0.55710021431E+00  0.26938814659E+01  0.29985011695E+01  0.00000000000E+00 0.  1.
</event>
<event>
 8    1  0.2962813E-009  0.9118800E+02  0.7816164E-02  0.1184000E+00
        -11   -1    0    0    0    0  0.00000000000E+00  0.00000000000E+00  0.45593999997E+02  0.45594000000E+02  0.51100000000E-03 0. -1.
         11   -1    0    0    0    0 -0.00000000000E+00 -0.00000000000E+00 -0.45593999997E+02  0.45594000000E+02  0.51100000000E-03 0.  1.
         23    2    1    2    0    0  0.00000000000E+00  0.00000000000E+00  0.00000000000E+00  0.91188000000E+02  0.91188000000E+02 0.  0.
    9900012    2    3    3    0    0  0.16020459121E+02 -0.37960663656E+02 -0.18205669971E+02  0.46142317468E+02  0.99999973253E+01 0.  0.
         12    1    3    3    0    0 -0.16020459121E+02  0.37960663656E+02  0.18205669971E+02  0.45045682532E+02  0.00000000000E+00 0. -1.
         11    1    4    4    0    0  0.64103502953E+01 -0.17814917163E+02 -0.13407780073E+02  0.23199836878E+02  0.51100000000E-03 0. -1.
        -11    1    4    4    0    0  0.54571021878E+01 -0.12276262940E+02 -0.39547436285E+01  0.14004520466E+02  0.51100000000E-03 0.  1.
        -12    1    4    4    0    0  0.41530066380E+01 -0.78694835539E+01 -0.84314626994E+00  0.89379601237E+01  0.00000000000E+00 0.  1.
</event>
<event>
 8    1  0.4570108E-009  0.9118800E+02  0.7816164E-02  0.1184000E+00
        -11   -1    0    0    0    0  0.00000000000E+00  0.00000000000E+00  0.45593999997E+02  0.45594000000E+02  0.51100000000E-03 0. -1.
         11   -1    0    0    0    0 -0.00000000000E+00 -0.00000000000E+00 -0.45593999997E+02  0.45594000000E+02  0.51100000000E-03 0.  1.
         23    2    1    2    0    0  0.00000000000E+00  0.00000000000E+00  0.00000000000E+00  0.91188000000E+02  0.91188000000E+02 0.  0.
    9900012    2    3    3    0    0 -0.14393495612E+02 -0.16751923679E+02 -0.39259570900E+02  0.46142316853E+02  0.99999917226E+01 0.  0.
         12    1    3    3    0    0  0.14393495612E+02  0.16751923679E+02  0.39259570900E+02  0.45045683147E+02  0.00000000000E+00 0. -1.
         11    1    4    4    0    0 -0.15275303755E+01  0.46708194263E+00 -0.61556139319E+01  0.63594887947E+01  0.51100000000E-03 0. -1.
        -11    1    4    4    0    0 -0.80327438672E+01 -0.14326363642E+02 -0.25057115431E+02  0.29960452320E+02  0.51100000000E-03 0.  1.
        -12    1    4    4    0    0 -0.48332213691E+01 -0.28926419796E+01 -0.80468415372E+01  0.98223757385E+01  0.00000000000E+00 0.  1.
</event>
<event>
 8    1  0.2962813E-009  0.9118800E+02  0.7816164E-02  0.1184000E+00
        -11   -1    0    0    0    0  0.00000000000E+00  0.00000000000E+00  0.45593999997E+02  0.45594000000E+02  0.51100000000E-03 0. -1.
         11   -1    0    0    0    0 -0.00000000000E+00 -0.00000000000E+00 -0.45593999997E+02  0.45594000000E+02  0.51100000000E-03 0.  1.
         23    2    1    2    0    0  0.00000000000E+00  0.71054273576E-14 -0.17763568394E-14  0.91188000000E+02  0.91188000000E+02 0.  0.
    9900012    2    3    3    0    0 -0.62021204545E+01 -0.42305338392E+02  0.14174117688E+02  0.46142316890E+02  0.99999920578E+01 0.  0.
        -12    1    3    3    0    0  0.62021204545E+01  0.42305338392E+02 -0.14174117688E+02  0.45045683110E+02  0.00000000000E+00 0.  1.
         11    1    4    4    0    0 -0.17929858378E+01 -0.26182489647E+02  0.11116194746E+02  0.28501006092E+02  0.51100000000E-03 0. -1.
        -11    1    4    4    0    0 -0.42752248061E+01 -0.16100864845E+02  0.36330841909E+01  0.17050357677E+02  0.51100000000E-03 0.  1.
        -12    1    4    4    0    0 -0.13390981061E+00 -0.21983899691E-01 -0.57516124936E+00  0.59095312165E+00  0.00000000000E+00 0.  1.
</event>
<event>
 8    1  0.2962813E-009  0.9118800E+02  0.7816164E-02  0.1184000E+00
        -11   -1    0    0    0    0  0.00000000000E+00  0.00000000000E+00  0.45593999997E+02  0.45594000000E+02  0.51100000000E-03 0. -1.
         11   -1    0    0    0    0 -0.00000000000E+00 -0.00000000000E+00 -0.45593999997E+02  0.45594000000E+02  0.51100000000E-03 0.  1.
         23    2    1    2    0    0  0.00000000000E+00  0.00000000000E+00 -0.55511151231E-16  0.91188000000E+02  0.91188000000E+02 0.  0.
    9900012    2    3    3    0    0 -0.39339206701E+02 -0.21941875418E+02 -0.30725037048E+00  0.46142317814E+02  0.10000000486E+02 0.  0.
        -12    1    3    3    0    0  0.39339206701E+02  0.21941875418E+02  0.30725037048E+00  0.45045682186E+02  0.00000000000E+00 0.  1.
         11    1    4    4    0    0 -0.20034791582E+02 -0.96076630519E+01 -0.62331020319E+00  0.22228103358E+02  0.51100000000E-03 0. -1.
        -11    1    4    4    0    0 -0.46724139555E+01 -0.42951674704E+01  0.29741790323E+01  0.70089697494E+01  0.51100000000E-03 0.  1.
        -12    1    4    4    0    0 -0.14632001164E+02 -0.80390448960E+01 -0.26581191996E+01  0.16905244707E+02  0.00000000000E+00 0.  1.
</event>
<event>
 8    1  0.2962813E-009  0.9118800E+02  0.7816164E-02  0.1184000E+00
        -11   -1    0    0    0    0  0.00000000000E+00  0.00000000000E+00  0.45593999997E+02  0.45594000000E+02  0.51100000000E-03 0. -1.
         11   -1    0    0    0    0 -0.00000000000E+00 -0.00000000000E+00 -0.45593999997E+02  0.45594000000E+02  0.51100000000E-03 0.  1.
         23    2    1    2    0    0  0.35527136788E-14  0.00000000000E+00  0.00000000000E+00  0.91188000000E+02  0.91188000000E+02 0.  0.
    9900012    2    3    3    0    0 -0.29394841124E+02  0.11504237307E+02  0.32135794702E+02  0.46142318055E+02  0.10000002682E+02 0.  0.
        -12    1    3    3    0    0  0.29394841124E+02 -0.11504237307E+02 -0.32135794702E+02  0.45045681945E+02  0.00000000000E+00 0.  1.
         11    1    4    4    0    0 -0.11231982329E+02  0.60814305439E+01  0.92154980066E+01  0.15750131056E+02  0.51100000000E-03 0. -1.
        -11    1    4    4    0    0 -0.12588479442E+02  0.64211551916E+00  0.14946344432E+02  0.19551862805E+02  0.51100000000E-03 0.  1.
        -12    1    4    4    0    0 -0.55743793529E+01  0.47806912438E+01  0.79739522635E+01  0.10840324194E+02  0.00000000000E+00 0.  1.
</event>
<event>
 8    1  0.2962813E-009  0.9118800E+02  0.7816164E-02  0.1184000E+00
        -11   -1    0    0    0    0  0.00000000000E+00  0.00000000000E+00  0.45593999997E+02  0.45594000000E+02  0.51100000000E-03 0. -1.
         11   -1    0    0    0    0 -0.00000000000E+00 -0.00000000000E+00 -0.45593999997E+02  0.45594000000E+02  0.51100000000E-03 0.  1.
         23    2    1    2    0    0  0.00000000000E+00 -0.35527136788E-14 -0.71054273576E-14  0.91188000000E+02  0.91188000000E+02 0.  0.
    9900012    2    3    3    0    0  0.83643797009E+01  0.17566259755E+02  0.40627297020E+02  0.46142316603E+02  0.99999894379E+01 0.  0.
        -12    1    3    3    0    0 -0.83643797009E+01 -0.17566259755E+02 -0.40627297020E+02  0.45045683397E+02  0.00000000000E+00 0.  1.
         11    1    4    4    0    0  0.42899377819E+01  0.10063373630E+02  0.20747338540E+02  0.23454788674E+02  0.51100000000E-03 0. -1.
        -11    1    4    4    0    0  0.12117920342E+01 -0.12372637249E+01  0.33569965234E+01  0.37773916104E+01  0.51100000000E-03 0.  1.
        -12    1    4    4    0    0  0.28626498849E+01  0.87401498491E+01  0.16522961957E+02  0.18910136318E+02  0.00000000000E+00 0.  1.
</event>
<event>
 8    1  0.2962813E-009  0.9118800E+02  0.7816164E-02  0.1184000E+00
        -11   -1    0    0    0    0  0.00000000000E+00  0.00000000000E+00  0.45593999997E+02  0.45594000000E+02  0.51100000000E-03 0. -1.
         11   -1    0    0    0    0 -0.00000000000E+00 -0.00000000000E+00 -0.45593999997E+02  0.45594000000E+02  0.51100000000E-03 0.  1.
         23    2    1    2    0    0  0.00000000000E+00  0.00000000000E+00  0.00000000000E+00  0.91188000000E+02  0.91188000000E+02 0.  0.
    9900012    2    3    3    0    0 -0.10986542727E+02  0.25809454913E+02  0.35246011450E+02  0.46142318662E+02  0.10000008218E+02 0.  0.
        -12    1    3    3    0    0  0.10986542727E+02 -0.25809454913E+02 -0.35246011450E+02  0.45045681338E+02  0.00000000000E+00 0.  1.
         11    1    4    4    0    0 -0.32049503024E+01  0.14802731200E+02  0.12931856225E+02  0.19915457893E+02  0.51100000000E-03 0. -1.
        -11    1    4    4    0    0 -0.56521426007E+01  0.93865546325E+01  0.19324837271E+02  0.22214937760E+02  0.51100000000E-03 0.  1.
        -12    1    4    4    0    0 -0.21294498237E+01  0.16201690814E+01  0.29893179546E+01  0.40119230100E+01  0.00000000000E+00 0.  1.
</event>
<event>
 8    1  0.2962813E-009  0.9118800E+02  0.7816164E-02  0.1184000E+00
        -11   -1    0    0    0    0  0.00000000000E+00  0.00000000000E+00  0.45593999997E+02  0.45594000000E+02  0.51100000000E-03 0. -1.
         11   -1    0    0    0    0 -0.00000000000E+00 -0.00000000000E+00 -0.45593999997E+02  0.45594000000E+02  0.51100000000E-03 0.  1.
         23    2    1    2    0    0  0.00000000000E+00  0.00000000000E+00 -0.35527136788E-14  0.91188000000E+02  0.91188000000E+02 0.  0.
    9900012    2    3    3    0    0 -0.31531637641E+02 -0.17407943104E+02  0.27052411071E+02  0.46142316520E+02  0.99999886826E+01 0.  0.
        -12    1    3    3    0    0  0.31531637641E+02  0.17407943104E+02 -0.27052411071E+02  0.45045683480E+02  0.00000000000E+00 0.  1.
         11    1    4    4    0    0 -0.12074637982E+02 -0.74985387257E+01  0.80481302157E+01  0.16333932951E+02  0.51100000000E-03 0. -1.
        -11    1    4    4    0    0 -0.41728801212E+01 -0.27747772598E+01  0.87074804053E+01  0.10046518433E+02  0.51100000000E-03 0.  1.
        -12    1    4    4    0    0 -0.15284119537E+02 -0.71346271185E+01  0.10296800450E+02  0.19761865136E+02  0.00000000000E+00 0.  1.
</event>
<event>
 8    1  0.2962813E-009  0.9118800E+02  0.7816164E-02  0.1184000E+00
        -11   -1    0    0    0    0  0.00000000000E+00  0.00000000000E+00  0.45593999997E+02  0.45594000000E+02  0.51100000000E-03 0. -1.
         11   -1    0    0    0    0 -0.00000000000E+00 -0.00000000000E+00 -0.45593999997E+02  0.45594000000E+02  0.51100000000E-03 0.  1.
         23    2    1    2    0    0 -0.35527136788E-14  0.00000000000E+00  0.00000000000E+00  0.91188000000E+02  0.91188000000E+02 0.  0.
    9900012    2    3    3    0    0  0.25428707624E+02  0.18488351618E+02 -0.32259498025E+02  0.46142317301E+02  0.99999958011E+01 0.  0.
         12    1    3    3    0    0 -0.25428707624E+02 -0.18488351618E+02  0.32259498025E+02  0.45045682699E+02  0.00000000000E+00 0. -1.
         11    1    4    4    0    0  0.10566549626E+02  0.24817681867E+01 -0.87219029197E+01  0.13924178077E+02  0.51100000000E-03 0. -1.
        -11    1    4    4    0    0  0.12009950938E+02  0.12420985790E+02 -0.17033342486E+02  0.24262204476E+02  0.51100000000E-03 0.  1.
         12    1    4    4    0    0  0.28522070605E+01  0.35855976417E+01 -0.65042526197E+01  0.79559347475E+01  0.00000000000E+00 0. -1.
</event>
<event>
 8    1  0.2962813E-009  0.9118800E+02  0.7816164E-02  0.1184000E+00
        -11   -1    0    0    0    0  0.00000000000E+00  0.00000000000E+00  0.45593999997E+02  0.45594000000E+02  0.51100000000E-03 0. -1.
         11   -1    0    0    0    0 -0.00000000000E+00 -0.00000000000E+00 -0.45593999997E+02  0.45594000000E+02  0.51100000000E-03 0.  1.
         23    2    1    2    0    0  0.00000000000E+00 -0.17763568394E-14 -0.71054273576E-14  0.91188000000E+02  0.91188000000E+02 0.  0.
    9900012    2    3    3    0    0 -0.11932464164E+02  0.12710593146E+02  0.41535172796E+02  0.46142318094E+02  0.10000003037E+02 0.  0.
        -12    1    3    3    0    0  0.11932464164E+02 -0.12710593146E+02 -0.41535172796E+02  0.45045681906E+02  0.00000000000E+00 0.  1.
         11    1    4    4    0    0 -0.48613542875E+01  0.30403633603E+01  0.12161360490E+02  0.13445269209E+02  0.51100000000E-03 0. -1.
        -11    1    4    4    0    0 -0.74619720986E+01  0.41692215138E+01  0.14475984500E+02  0.16811233242E+02  0.51100000000E-03 0.  1.
        -12    1    4    4    0    0  0.39086222254E+00  0.55010082714E+01  0.14897827807E+02  0.15885815643E+02  0.00000000000E+00 0.  1.
</event>
<event>
 8    1  0.2962813E-009  0.9118800E+02  0.7816164E-02  0.1184000E+00
        -11   -1    0    0    0    0  0.00000000000E+00  0.00000000000E+00  0.45593999997E+02  0.45594000000E+02  0.51100000000E-03 0. -1.
         11   -1    0    0    0    0 -0.00000000000E+00 -0.00000000000E+00 -0.45593999997E+02  0.45594000000E+02  0.51100000000E-03 0.  1.
         23    2    1    2    0    0  0.00000000000E+00  0.00000000000E+00  0.35527136788E-14  0.91188000000E+02  0.91188000000E+02 0.  0.
    9900012    2    3    3    0    0  0.17985586867E+02 -0.29497307955E+02  0.28905726066E+02  0.46142317511E+02  0.99999977164E+01 0.  0.
        -12    1    3    3    0    0 -0.17985586867E+02  0.29497307955E+02 -0.28905726066E+02  0.45045682489E+02  0.00000000000E+00 0.  1.
         11    1    4    4    0    0  0.10545546892E+02 -0.13110158373E+02  0.17357169377E+02  0.24173459431E+02  0.51100000000E-03 0. -1.
        -11    1    4    4    0    0  0.50863880747E+01 -0.14795729221E+02  0.85152962408E+01  0.17812782409E+02  0.51100000000E-03 0.  1.
        -12    1    4    4    0    0  0.23536519006E+01 -0.15914203606E+01  0.30332604484E+01  0.41560756707E+01  0.00000000000E+00 0.  1.
</event>
<event>
 8    1  0.2962813E-009  0.9118800E+02  0.7816164E-02  0.1184000E+00
        -11   -1    0    0    0    0  0.00000000000E+00  0.00000000000E+00  0.45593999997E+02  0.45594000000E+02  0.51100000000E-03 0.  1.
         11   -1    0    0    0    0 -0.00000000000E+00 -0.00000000000E+00 -0.45593999997E+02  0.45594000000E+02  0.51100000000E-03 0. -1.
         23    2    1    2    0    0  0.00000000000E+00  0.00000000000E+00  0.00000000000E+00  0.91188000000E+02  0.91188000000E+02 0.  0.
    9900012    2    3    3    0    0 -0.99872268301E+01 -0.16283014768E+02  0.40795002258E+02  0.46142317866E+02  0.10000000959E+02 0.  0.
        -12    1    3    3    0    0  0.99872268301E+01  0.16283014768E+02 -0.40795002258E+02  0.45045682134E+02  0.00000000000E+00 0.  1.
         11    1    4    4    0    0 -0.30534620530E+01 -0.12279063675E+02  0.19160264573E+02  0.22961157941E+02  0.51100000000E-03 0. -1.
        -11    1    4    4    0    0 -0.68593082256E+01 -0.33023457099E+01  0.19529709379E+02  0.20961038743E+02  0.51100000000E-03 0.  1.
         12    1    4    4    0    0 -0.74456551533E-01 -0.70160538336E+00  0.21050283061E+01  0.22201211817E+01  0.00000000000E+00 0. -1.
</event>
<event>
 8    1  0.2962813E-009  0.9118800E+02  0.7816164E-02  0.1184000E+00
        -11   -1    0    0    0    0  0.00000000000E+00  0.00000000000E+00  0.45593999997E+02  0.45594000000E+02  0.51100000000E-03 0. -1.
         11   -1    0    0    0    0 -0.00000000000E+00 -0.00000000000E+00 -0.45593999997E+02  0.45594000000E+02  0.51100000000E-03 0.  1.
         23    2    1    2    0    0  0.00000000000E+00  0.00000000000E+00  0.00000000000E+00  0.91188000000E+02  0.91188000000E+02 0.  0.
    9900012    2    3    3    0    0 -0.36888140548E+02 -0.16824497075E+02 -0.19629439995E+02  0.46142317305E+02  0.99999958444E+01 0.  0.
         12    1    3    3    0    0  0.36888140548E+02  0.16824497075E+02  0.19629439995E+02  0.45045682695E+02  0.00000000000E+00 0. -1.
         11    1    4    4    0    0 -0.13802849614E+02 -0.10382798784E+02 -0.98889891128E+01  0.19902594655E+02  0.51100000000E-03 0. -1.
        -11    1    4    4    0    0 -0.17008250525E+02 -0.27937568546E+01 -0.62051735600E+01  0.18319111399E+02  0.51100000000E-03 0.  1.
        -12    1    4    4    0    0 -0.60770404088E+01 -0.36479414362E+01 -0.35352773226E+01  0.79206112516E+01  0.00000000000E+00 0.  1.
</event>
<event>
 8    1  0.2962813E-009  0.9118800E+02  0.7816164E-02  0.1184000E+00
        -11   -1    0    0    0    0  0.00000000000E+00  0.00000000000E+00  0.45593999997E+02  0.45594000000E+02  0.51100000000E-03 0. -1.
         11   -1    0    0    0    0 -0.00000000000E+00 -0.00000000000E+00 -0.45593999997E+02  0.45594000000E+02  0.51100000000E-03 0.  1.
         23    2    1    2    0    0  0.00000000000E+00 -0.35527136788E-14  0.00000000000E+00  0.91188000000E+02  0.91188000000E+02 0.  0.
    9900012    2    3    3    0    0  0.20108140016E+02 -0.15460648880E+02  0.37225588454E+02  0.46142318803E+02  0.10000009503E+02 0.  0.
        -12    1    3    3    0    0 -0.20108140016E+02  0.15460648880E+02 -0.37225588454E+02  0.45045681197E+02  0.00000000000E+00 0.  1.
         11    1    4    4    0    0  0.14440952214E+02 -0.53192151226E+01  0.20054796766E+02  0.25279043177E+02  0.51100000000E-03 0. -1.
        -11    1    4    4    0    0  0.22901035311E+01 -0.55002011127E+01  0.10411847706E+02  0.11995972632E+02  0.51100000000E-03 0.  1.
         12    1    4    4    0    0  0.33770842708E+01 -0.46412326450E+01  0.67589439824E+01  0.88673029944E+01  0.00000000000E+00 0. -1.
</event>
<event>
 8    1  0.3178779E-009  0.9118800E+02  0.7816164E-02  0.1184000E+00
        -11   -1    0    0    0    0  0.00000000000E+00  0.00000000000E+00  0.45593999997E+02  0.45594000000E+02  0.51100000000E-03 0. -1.
         11   -1    0    0    0    0 -0.00000000000E+00 -0.00000000000E+00 -0.45593999997E+02  0.45594000000E+02  0.51100000000E-03 0.  1.
         23    2    1    2    0    0  0.00000000000E+00  0.00000000000E+00 -0.71054273576E-14  0.91188000000E+02  0.91188000000E+02 0.  0.
    9900012    2    3    3    0    0 -0.17223415140E+01  0.21261131511E+02 -0.39675071619E+02  0.46142317839E+02  0.10000000707E+02 0.  0.
         12    1    3    3    0    0  0.17223415140E+01 -0.21261131511E+02  0.39675071619E+02  0.45045682161E+02  0.00000000000E+00 0. -1.
         11    1    4    4    0    0 -0.22879963549E+01  0.44582953439E+01 -0.14810099871E+02  0.15634909119E+02  0.51100000000E-03 0. -1.
        -11    1    4    4    0    0  0.60819860895E-01  0.99986530250E+01 -0.99502945020E+01  0.14106208644E+02  0.51100000000E-03 0.  1.
        -12    1    4    4    0    0  0.50483498005E+00  0.68041831422E+01 -0.14914677246E+02  0.16401200076E+02  0.00000000000E+00 0.  1.
</event>
<event>
 8    1  0.2962813E-009  0.9118800E+02  0.7816164E-02  0.1184000E+00
        -11   -1    0    0    0    0  0.00000000000E+00  0.00000000000E+00  0.45593999997E+02  0.45594000000E+02  0.51100000000E-03 0. -1.
         11   -1    0    0    0    0 -0.00000000000E+00 -0.00000000000E+00 -0.45593999997E+02  0.45594000000E+02  0.51100000000E-03 0.  1.
         23    2    1    2    0    0  0.35527136788E-14  0.00000000000E+00  0.35527136788E-14  0.91188000000E+02  0.91188000000E+02 0.  0.
    9900012    2    3    3    0    0  0.29629903718E+02 -0.19060840400E+02 -0.28068961545E+02  0.46142318372E+02  0.10000005571E+02 0.  0.
         12    1    3    3    0    0 -0.29629903718E+02  0.19060840400E+02  0.28068961545E+02  0.45045681628E+02  0.00000000000E+00 0. -1.
         11    1    4    4    0    0  0.76653972330E+01 -0.18531380590E+01 -0.61373562444E+01  0.99929764003E+01  0.51100000000E-03 0. -1.
        -11    1    4    4    0    0  0.16617859194E+02 -0.16219590410E+02 -0.16689110338E+02  0.28596411688E+02  0.51100000000E-03 0.  1.
        -12    1    4    4    0    0  0.53466472909E+01 -0.98811193117E+00 -0.52424949628E+01  0.75529302842E+01  0.00000000000E+00 0.  1.
</event>
<event>
 8    1  0.2962813E-009  0.9118800E+02  0.7816164E-02  0.1184000E+00
        -11   -1    0    0    0    0  0.00000000000E+00  0.00000000000E+00  0.45593999997E+02  0.45594000000E+02  0.51100000000E-03 0. -1.
         11   -1    0    0    0    0 -0.00000000000E+00 -0.00000000000E+00 -0.45593999997E+02  0.45594000000E+02  0.51100000000E-03 0.  1.
         23    2    1    2    0    0  0.00000000000E+00  0.00000000000E+00  0.71054273576E-14  0.91188000000E+02  0.91188000000E+02 0.  0.
    9900012    2    3    3    0    0 -0.83848531830E+01  0.84563498296E+01  0.43443041737E+02  0.46142317736E+02  0.99999997668E+01 0.  0.
        -12    1    3    3    0    0  0.83848531830E+01 -0.84563498296E+01 -0.43443041737E+02  0.45045682264E+02  0.00000000000E+00 0.  1.
         11    1    4    4    0    0 -0.54527549409E+01  0.79639538501E+01  0.31102030963E+02  0.32565218066E+02  0.51100000000E-03 0. -1.
        -11    1    4    4    0    0 -0.10942770980E+01 -0.16054936867E+01  0.17163640617E+01  0.25924810893E+01  0.51100000000E-03 0.  1.
        -12    1    4    4    0    0 -0.18378211442E+01  0.20978896662E+01  0.10624646712E+02  0.10984618581E+02  0.00000000000E+00 0.  1.
</event>
<event>
 8    1  0.2962813E-009  0.9118800E+02  0.7816164E-02  0.1184000E+00
        -11   -1    0    0    0    0  0.00000000000E+00  0.00000000000E+00  0.45593999997E+02  0.45594000000E+02  0.51100000000E-03 0. -1.
         11   -1    0    0    0    0 -0.00000000000E+00 -0.00000000000E+00 -0.45593999997E+02  0.45594000000E+02  0.51100000000E-03 0.  1.
         23    2    1    2    0    0  0.17763568394E-14 -0.71054273576E-14 -0.35527136788E-14  0.91188000000E+02  0.91188000000E+02 0.  0.
    9900012    2    3    3    0    0  0.12327593237E+02 -0.34221293809E+02 -0.26571542456E+02  0.46142319036E+02  0.10000011630E+02 0.  0.
         12    1    3    3    0    0 -0.12327593237E+02  0.34221293809E+02  0.26571542456E+02  0.45045680964E+02  0.00000000000E+00 0. -1.
         11    1    4    4    0    0  0.90809232974E+01 -0.14089911733E+02 -0.11048281209E+02  0.20076187350E+02  0.51100000000E-03 0. -1.
        -11    1    4    4    0    0  0.13693382545E+00 -0.12595076105E+02 -0.11110723899E+02  0.16795918515E+02  0.51100000000E-03 0.  1.
        -12    1    4    4    0    0  0.31097361142E+01 -0.75363059708E+01 -0.44125373482E+01  0.92702131709E+01  0.00000000000E+00 0.  1.
</event>
<event>
 8    1  0.2962813E-009  0.9118800E+02  0.7816164E-02  0.1184000E+00
        -11   -1    0    0    0    0  0.00000000000E+00  0.00000000000E+00  0.45593999997E+02  0.45594000000E+02  0.51100000000E-03 0. -1.
         11   -1    0    0    0    0 -0.00000000000E+00 -0.00000000000E+00 -0.45593999997E+02  0.45594000000E+02  0.51100000000E-03 0.  1.
         23    2    1    2    0    0  0.22204460493E-15  0.00000000000E+00  0.71054273576E-14  0.91188000000E+02  0.91188000000E+02 0.  0.
    9900012    2    3    3    0    0  0.19489146834E+01 -0.23959800572E+02  0.38095185577E+02  0.46142317897E+02  0.10000001243E+02 0.  0.
        -12    1    3    3    0    0 -0.19489146834E+01  0.23959800572E+02 -0.38095185577E+02  0.45045682103E+02  0.00000000000E+00 0.  1.
         11    1    4    4    0    0 -0.10629047497E+01 -0.19483270831E+00  0.34367227386E+01  0.36026087401E+01  0.51100000000E-03 0. -1.
        -11    1    4    4    0    0  0.22957058573E+01 -0.47865340451E+01  0.48228361485E+01  0.71722327294E+01  0.51100000000E-03 0.  1.
         12    1    4    4    0    0  0.71611357577E+00 -0.18978433819E+02  0.29835626690E+02  0.35367476428E+02  0.00000000000E+00 0. -1.
</event>
<event>
 8    1  0.2962813E-009  0.9118800E+02  0.7816164E-02  0.1184000E+00
        -11   -1    0    0    0    0  0.00000000000E+00  0.00000000000E+00  0.45593999997E+02  0.45594000000E+02  0.51100000000E-03 0. -1.
         11   -1    0    0    0    0 -0.00000000000E+00 -0.00000000000E+00 -0.45593999997E+02  0.45594000000E+02  0.51100000000E-03 0.  1.
         23    2    1    2    0    0  0.88817841970E-15  0.35527136788E-14 -0.71054273576E-14  0.91188000000E+02  0.91188000000E+02 0.  0.
    9900012    2    3    3    0    0  0.72069511579E+01  0.17812981102E+02  0.40741515060E+02  0.46142317742E+02  0.99999998213E+01 0.  0.
        -12    1    3    3    0    0 -0.72069511579E+01 -0.17812981102E+02 -0.40741515060E+02  0.45045682258E+02  0.00000000000E+00 0.  1.
         11    1    4    4    0    0  0.12176773693E+01  0.54746110108E+01  0.52892441520E+01  0.77090990301E+01  0.51100000000E-03 0. -1.
        -11    1    4    4    0    0  0.30623663909E+01  0.86601884666E+01  0.29201896956E+02  0.30612542173E+02  0.51100000000E-03 0.  1.
         12    1    4    4    0    0  0.29269073977E+01  0.36781816251E+01  0.62503739517E+01  0.78206765384E+01  0.00000000000E+00 0. -1.
</event>
<event>
 8    1  0.2962813E-009  0.9118800E+02  0.7816164E-02  0.1184000E+00
        -11   -1    0    0    0    0  0.00000000000E+00  0.00000000000E+00  0.45593999997E+02  0.45594000000E+02  0.51100000000E-03 0.  1.
         11   -1    0    0    0    0 -0.00000000000E+00 -0.00000000000E+00 -0.45593999997E+02  0.45594000000E+02  0.51100000000E-03 0. -1.
         23    2    1    2    0    0  0.00000000000E+00  0.00000000000E+00  0.00000000000E+00  0.91188000000E+02  0.91188000000E+02 0.  0.
    9900012    2    3    3    0    0 -0.16762773985E+02  0.40149339402E+02 -0.11668489016E+02  0.46142315611E+02  0.99999803950E+01 0.  0.
        -12    1    3    3    0    0  0.16762773985E+02 -0.40149339402E+02  0.11668489016E+02  0.45045684389E+02  0.00000000000E+00 0.  1.
         11    1    4    4    0    0 -0.10253893008E+02  0.17934722794E+02 -0.26354976246E+01  0.20826484377E+02  0.51100000000E-03 0. -1.
        -11    1    4    4    0    0 -0.38259925628E+01  0.16967266970E+02 -0.86087784682E+01  0.19407149057E+02  0.51100000000E-03 0.  1.
        -12    1    4    4    0    0 -0.26828884147E+01  0.52473496380E+01 -0.42421292349E+00  0.59086821774E+01  0.00000000000E+00 0.  1.
</event>
<event>
 8    1  0.2962813E-009  0.9118800E+02  0.7816164E-02  0.1184000E+00
        -11   -1    0    0    0    0  0.00000000000E+00  0.00000000000E+00  0.45593999997E+02  0.45594000000E+02  0.51100000000E-03 0. -1.
         11   -1    0    0    0    0 -0.00000000000E+00 -0.00000000000E+00 -0.45593999997E+02  0.45594000000E+02  0.51100000000E-03 0.  1.
         23    2    1    2    0    0 -0.88817841970E-15  0.00000000000E+00 -0.71054273576E-14  0.91188000000E+02  0.91188000000E+02 0.  0.
    9900012    2    3    3    0    0  0.60004740128E+01  0.24184536729E+02 -0.37526205161E+02  0.46142316756E+02  0.99999908309E+01 0.  0.
         12    1    3    3    0    0 -0.60004740128E+01 -0.24184536729E+02  0.37526205161E+02  0.45045683244E+02  0.00000000000E+00 0. -1.
         11    1    4    4    0    0 -0.12671362709E+00  0.15728862108E+01 -0.75026018390E+01  0.76667504192E+01  0.51100000000E-03 0. -1.
        -11    1    4    4    0    0  0.46219403934E+01  0.71049046750E+01 -0.10985608186E+02  0.13875359128E+02  0.51100000000E-03 0.  1.
         12    1    4    4    0    0  0.15052472464E+01  0.15506745843E+02 -0.19037995136E+02  0.24600207209E+02  0.00000000000E+00 0. -1.
</event>
<event>
 8    1  0.2962813E-009  0.9118800E+02  0.7816164E-02  0.1184000E+00
        -11   -1    0    0    0    0  0.00000000000E+00  0.00000000000E+00  0.45593999997E+02  0.45594000000E+02  0.51100000000E-03 0. -1.
         11   -1    0    0    0    0 -0.00000000000E+00 -0.00000000000E+00 -0.45593999997E+02  0.45594000000E+02  0.51100000000E-03 0.  1.
         23    2    1    2    0    0  0.00000000000E+00  0.00000000000E+00  0.00000000000E+00  0.91188000000E+02  0.91188000000E+02 0.  0.
    9900012    2    3    3    0    0 -0.50617510807E+01  0.43083717588E+02  0.12136109059E+02  0.46142321092E+02  0.10000030371E+02 0.  0.
        -12    1    3    3    0    0  0.50617510807E+01 -0.43083717588E+02 -0.12136109059E+02  0.45045678908E+02  0.00000000000E+00 0.  1.
         11    1    4    4    0    0 -0.47185856956E+01  0.11912105278E+02  0.46729365560E+01  0.13638168479E+02  0.51100000000E-03 0.  1.
        -11    1    4    4    0    0  0.52325481656E+00  0.33291714486E+01  0.25317605990E+01  0.42150907616E+01  0.51100000000E-03 0. -1.
         12    1    4    4    0    0 -0.86642020171E+00  0.27842440861E+02  0.49314119035E+01  0.28289061851E+02  0.00000000000E+00 0. -1.
</event>
<event>
 8    1  0.2962813E-009  0.9118800E+02  0.7816164E-02  0.1184000E+00
        -11   -1    0    0    0    0  0.00000000000E+00  0.00000000000E+00  0.45593999997E+02  0.45594000000E+02  0.51100000000E-03 0. -1.
         11   -1    0    0    0    0 -0.00000000000E+00 -0.00000000000E+00 -0.45593999997E+02  0.45594000000E+02  0.51100000000E-03 0.  1.
         23    2    1    2    0    0  0.00000000000E+00  0.00000000000E+00  0.00000000000E+00  0.91188000000E+02  0.91188000000E+02 0.  0.
    9900012    2    3    3    0    0  0.26072433809E+02  0.94613042828E+01  0.35494019160E+02  0.46142317858E+02  0.10000000886E+02 0.  0.
        -12    1    3    3    0    0 -0.26072433809E+02 -0.94613042828E+01 -0.35494019160E+02  0.45045682142E+02  0.00000000000E+00 0.  1.
         11    1    4    4    0    0  0.49521860391E+01  0.41098959208E+01  0.12420594199E+02  0.13988800933E+02  0.51100000000E-03 0. -1.
        -11    1    4    4    0    0  0.62744186882E+01  0.20136457791E+00  0.40123584019E+01  0.74503622580E+01  0.51100000000E-03 0.  1.
         12    1    4    4    0    0  0.14845829082E+02  0.51500437841E+01  0.19061066560E+02  0.24703154667E+02  0.00000000000E+00 0. -1.
</event>
<event>
 8    1  0.2962813E-009  0.9118800E+02  0.7816164E-02  0.1184000E+00
        -11   -1    0    0    0    0  0.00000000000E+00  0.00000000000E+00  0.45593999997E+02  0.45594000000E+02  0.51100000000E-03 0.  1.
         11   -1    0    0    0    0 -0.00000000000E+00 -0.00000000000E+00 -0.45593999997E+02  0.45594000000E+02  0.51100000000E-03 0. -1.
         23    2    1    2    0    0  0.00000000000E+00  0.00000000000E+00  0.00000000000E+00  0.91188000000E+02  0.91188000000E+02 0.  0.
    9900012    2    3    3    0    0  0.31474862925E+02 -0.30870567288E+02  0.92441657668E+01  0.46142317393E+02  0.99999966415E+01 0.  0.
         12    1    3    3    0    0 -0.31474862925E+02  0.30870567288E+02 -0.92441657668E+01  0.45045682607E+02  0.00000000000E+00 0. -1.
         11    1    4    4    0    0  0.83825192678E+01 -0.10130626445E+02  0.85022505137E+00  0.13176460235E+02  0.51100000000E-03 0. -1.
        -11    1    4    4    0    0  0.12304271314E+02 -0.77593627157E+01  0.66599959885E+01  0.15998698358E+02  0.51100000000E-03 0.  1.
        -12    1    4    4    0    0  0.10788072343E+02 -0.12980578128E+02  0.17339447270E+01  0.16967158799E+02  0.00000000000E+00 0.  1.
</event>
<event>
 8    1  0.2962813E-009  0.9118800E+02  0.7816164E-02  0.1184000E+00
        -11   -1    0    0    0    0  0.00000000000E+00  0.00000000000E+00  0.45593999997E+02  0.45594000000E+02  0.51100000000E-03 0. -1.
         11   -1    0    0    0    0 -0.00000000000E+00 -0.00000000000E+00 -0.45593999997E+02  0.45594000000E+02  0.51100000000E-03 0.  1.
         23    2    1    2    0    0 -0.44408920985E-15  0.00000000000E+00  0.14210854715E-13  0.91188000000E+02  0.91188000000E+02 0.  0.
    9900012    2    3    3    0    0  0.18474902345E+01  0.17232991088E+02 -0.41577931129E+02  0.46142316977E+02  0.99999928522E+01 0.  0.
         12    1    3    3    0    0 -0.18474902345E+01 -0.17232991088E+02  0.41577931129E+02  0.45045683023E+02  0.00000000000E+00 0. -1.
         11    1    4    4    0    0  0.19265051084E+01  0.73363125148E+01 -0.86478800035E+01  0.11502987962E+02  0.51100000000E-03 0. -1.
        -11    1    4    4    0    0  0.14733416598E+01  0.66854909506E+01 -0.25414086726E+02  0.26319998657E+02  0.51100000000E-03 0.  1.
         12    1    4    4    0    0 -0.15523565337E+01  0.32111876227E+01 -0.75159643994E+01  0.83193303582E+01  0.00000000000E+00 0. -1.
</event>
<event>
 8    1  0.2962813E-009  0.9118800E+02  0.7816164E-02  0.1184000E+00
        -11   -1    0    0    0    0  0.00000000000E+00  0.00000000000E+00  0.45593999997E+02  0.45594000000E+02  0.51100000000E-03 0. -1.
         11   -1    0    0    0    0 -0.00000000000E+00 -0.00000000000E+00 -0.45593999997E+02  0.45594000000E+02  0.51100000000E-03 0.  1.
         23    2    1    2    0    0  0.00000000000E+00  0.00000000000E+00  0.17763568394E-14  0.91188000000E+02  0.91188000000E+02 0.  0.
    9900012    2    3    3    0    0  0.42582610952E+02  0.80837889018E+01 -0.12267319105E+02  0.46142317449E+02  0.99999971535E+01 0.  0.
         12    1    3    3    0    0 -0.42582610952E+02 -0.80837889018E+01  0.12267319105E+02  0.45045682551E+02  0.00000000000E+00 0. -1.
         11    1    4    4    0    0  0.81372957746E+01  0.51552140245E+01 -0.16690495299E+01  0.97763766681E+01  0.51100000000E-03 0. -1.
        -11    1    4    4    0    0  0.16685883181E+02 -0.52718171517E+00 -0.51919371722E+01  0.17482929673E+02  0.51100000000E-03 0.  1.
         12    1    4    4    0    0  0.17759431996E+02  0.34557565924E+01 -0.54063324028E+01  0.18883011107E+02  0.00000000000E+00 0. -1.
</event>
<event>
 8    1  0.2962813E-009  0.9118800E+02  0.7816164E-02  0.1184000E+00
        -11   -1    0    0    0    0  0.00000000000E+00  0.00000000000E+00  0.45593999997E+02  0.45594000000E+02  0.51100000000E-03 0. -1.
         11   -1    0    0    0    0 -0.00000000000E+00 -0.00000000000E+00 -0.45593999997E+02  0.45594000000E+02  0.51100000000E-03 0.  1.
         23    2    1    2    0    0  0.00000000000E+00  0.00000000000E+00  0.00000000000E+00  0.91188000000E+02  0.91188000000E+02 0.  0.
    9900012    2    3    3    0    0  0.16929885997E+02  0.19701798666E+02 -0.36801243543E+02  0.46142318333E+02  0.10000005216E+02 0.  0.
         12    1    3    3    0    0 -0.16929885997E+02 -0.19701798666E+02  0.36801243543E+02  0.45045681667E+02  0.00000000000E+00 0. -1.
         11    1    4    4    0    0  0.12874439253E+02  0.88553647991E+01 -0.16251712909E+02  0.22545217775E+02  0.51100000000E-03 0. -1.
        -11    1    4    4    0    0  0.52865969550E+00  0.20720668107E+01 -0.40368296549E+01  0.45682530431E+01  0.51100000000E-03 0.  1.
         12    1    4    4    0    0  0.35267870485E+01  0.87743670565E+01 -0.16512700979E+02  0.19028847515E+02  0.00000000000E+00 0. -1.
</event>
<event>
 8    1  0.2962813E-009  0.9118800E+02  0.7816164E-02  0.1184000E+00
        -11   -1    0    0    0    0  0.00000000000E+00  0.00000000000E+00  0.45593999997E+02  0.45594000000E+02  0.51100000000E-03 0. -1.
         11   -1    0    0    0    0 -0.00000000000E+00 -0.00000000000E+00 -0.45593999997E+02  0.45594000000E+02  0.51100000000E-03 0.  1.
         23    2    1    2    0    0 -0.17763568394E-14  0.00000000000E+00  0.35527136788E-14  0.91188000000E+02  0.91188000000E+02 0.  0.
    9900012    2    3    3    0    0  0.77478689959E+01  0.35426608130E+02 -0.26721517402E+02  0.46142317301E+02  0.99999958021E+01 0.  0.
         12    1    3    3    0    0 -0.77478689959E+01 -0.35426608130E+02  0.26721517402E+02  0.45045682699E+02  0.00000000000E+00 0. -1.
         11    1    4    4    0    0  0.43076969079E+01  0.72335964574E+01 -0.98926555382E+01  0.12990219560E+02  0.51100000000E-03 0. -1.
        -11    1    4    4    0    0  0.35022538483E+01  0.22623591918E+02 -0.12396460753E+02  0.26033918890E+02  0.51100000000E-03 0.  1.
         12    1    4    4    0    0 -0.62081760349E-01  0.55694197547E+01 -0.44324011109E+01  0.71181788511E+01  0.00000000000E+00 0. -1.
</event>
<event>
 8    1  0.2962813E-009  0.9118800E+02  0.7816164E-02  0.1184000E+00
        -11   -1    0    0    0    0  0.00000000000E+00  0.00000000000E+00  0.45593999997E+02  0.45594000000E+02  0.51100000000E-03 0. -1.
         11   -1    0    0    0    0 -0.00000000000E+00 -0.00000000000E+00 -0.45593999997E+02  0.45594000000E+02  0.51100000000E-03 0.  1.
         23    2    1    2    0    0  0.17763568394E-14  0.00000000000E+00  0.71054273576E-14  0.91188000000E+02  0.91188000000E+02 0.  0.
    9900012    2    3    3    0    0  0.15665975011E+02  0.10668447324E+02  0.40864102344E+02  0.46142318723E+02  0.10000008771E+02 0.  0.
        -12    1    3    3    0    0 -0.15665975011E+02 -0.10668447324E+02 -0.40864102344E+02  0.45045681277E+02  0.00000000000E+00 0.  1.
         11    1    4    4    0    0  0.22833773911E+01  0.39395021319E+01  0.11049185252E+02  0.11950647863E+02  0.51100000000E-03 0. -1.
        -11    1    4    4    0    0  0.69313457831E-01 -0.10054887771E+01  0.61398219368E+00  0.11801637308E+01  0.51100000000E-03 0.  1.
        -12    1    4    4    0    0  0.13313284162E+02  0.77344339687E+01  0.29200934898E+02  0.33011507129E+02  0.00000000000E+00 0.  1.
</event>
<event>
 8    1  0.2962813E-009  0.9118800E+02  0.7816164E-02  0.1184000E+00
        -11   -1    0    0    0    0  0.00000000000E+00  0.00000000000E+00  0.45593999997E+02  0.45594000000E+02  0.51100000000E-03 0. -1.
         11   -1    0    0    0    0 -0.00000000000E+00 -0.00000000000E+00 -0.45593999997E+02  0.45594000000E+02  0.51100000000E-03 0.  1.
         23    2    1    2    0    0 -0.35527136788E-14  0.17763568394E-14  0.71054273576E-14  0.91188000000E+02  0.91188000000E+02 0.  0.
    9900012    2    3    3    0    0  0.16186830717E+02 -0.12791803877E+02 -0.40043348575E+02  0.46142317630E+02  0.99999988057E+01 0.  0.
         12    1    3    3    0    0 -0.16186830717E+02  0.12791803877E+02  0.40043348575E+02  0.45045682370E+02  0.00000000000E+00 0. -1.
         11    1    4    4    0    0  0.98844716422E+01 -0.87693936428E+01 -0.15186282537E+02  0.20130281221E+02  0.51100000000E-03 0. -1.
        -11    1    4    4    0    0  0.21884989020E+01 -0.69576460387E+00 -0.93263841157E+01  0.96049495971E+01  0.51100000000E-03 0.  1.
         12    1    4    4    0    0  0.41138601724E+01 -0.33266456307E+01 -0.15530681922E+02  0.16407086812E+02  0.00000000000E+00 0. -1.
</event>
<event>
 8    1  0.2962813E-009  0.9118800E+02  0.7816164E-02  0.1184000E+00
        -11   -1    0    0    0    0  0.00000000000E+00  0.00000000000E+00  0.45593999997E+02  0.45594000000E+02  0.51100000000E-03 0.  1.
         11   -1    0    0    0    0 -0.00000000000E+00 -0.00000000000E+00 -0.45593999997E+02  0.45594000000E+02  0.51100000000E-03 0. -1.
         23    2    1    2    0    0 -0.17763568394E-14  0.00000000000E+00  0.00000000000E+00  0.91188000000E+02  0.91188000000E+02 0.  0.
    9900012    2    3    3    0    0  0.15488802534E+02  0.42043966251E+02 -0.46384741559E+01  0.46142317138E+02  0.99999943143E+01 0.  0.
         12    1    3    3    0    0 -0.15488802534E+02 -0.42043966251E+02  0.46384741559E+01  0.45045682862E+02  0.00000000000E+00 0. -1.
         11    1    4    4    0    0  0.60369049393E+01  0.21859441857E+02 -0.22428288135E+01  0.22788367667E+02  0.51100000000E-03 0.  1.
        -11    1    4    4    0    0  0.36804105677E+01  0.21651109279E+01 -0.97249817092E+00  0.43793698440E+01  0.51100000000E-03 0. -1.
         12    1    4    4    0    0  0.57714870268E+01  0.18019413466E+02 -0.14231471714E+01  0.18974579627E+02  0.00000000000E+00 0. -1.
</event>
<event>
 8    1  0.2962813E-009  0.9118800E+02  0.7816164E-02  0.1184000E+00
        -11   -1    0    0    0    0  0.00000000000E+00  0.00000000000E+00  0.45593999997E+02  0.45594000000E+02  0.51100000000E-03 0. -1.
         11   -1    0    0    0    0 -0.00000000000E+00 -0.00000000000E+00 -0.45593999997E+02  0.45594000000E+02  0.51100000000E-03 0.  1.
         23    2    1    2    0    0  0.00000000000E+00  0.00000000000E+00  0.00000000000E+00  0.91188000000E+02  0.91188000000E+02 0.  0.
    9900012    2    3    3    0    0  0.30616796883E+02 -0.21660711346E+02 -0.24950728426E+02  0.46142317450E+02  0.99999971668E+01 0.  0.
         12    1    3    3    0    0 -0.30616796883E+02  0.21660711346E+02  0.24950728426E+02  0.45045682550E+02  0.00000000000E+00 0. -1.
         11    1    4    4    0    0  0.91024653126E+01 -0.11833289377E+02 -0.12096829620E+02  0.19214965505E+02  0.51100000000E-03 0.  1.
        -11    1    4    4    0    0  0.86746367040E+01 -0.37225892434E+01 -0.48702889061E+01  0.10621991664E+02  0.51100000000E-03 0. -1.
        -12    1    4    4    0    0  0.12839694867E+02 -0.61048327252E+01 -0.79836098996E+01  0.16305360281E+02  0.00000000000E+00 0.  1.
</event>
<event>
 8    1  0.2962813E-009  0.9118800E+02  0.7816164E-02  0.1184000E+00
        -11   -1    0    0    0    0  0.00000000000E+00  0.00000000000E+00  0.45593999997E+02  0.45594000000E+02  0.51100000000E-03 0. -1.
         11   -1    0    0    0    0 -0.00000000000E+00 -0.00000000000E+00 -0.45593999997E+02  0.45594000000E+02  0.51100000000E-03 0.  1.
         23    2    1    2    0    0 -0.17763568394E-14 -0.17763568394E-14  0.71054273576E-14  0.91188000000E+02  0.91188000000E+02 0.  0.
    9900012    2    3    3    0    0 -0.13870984668E+02 -0.10647294443E+02  0.41513184467E+02  0.46142316753E+02  0.99999908062E+01 0.  0.
        -12    1    3    3    0    0  0.13870984668E+02  0.10647294443E+02 -0.41513184467E+02  0.45045683247E+02  0.00000000000E+00 0.  1.
         11    1    4    4    0    0 -0.19653641267E+01  0.79164565397E+00  0.34398313798E+01  0.40400246502E+01  0.51100000000E-03 0. -1.
        -11    1    4    4    0    0 -0.13753799926E+01 -0.47470113060E+01  0.65939770351E+01  0.82405291010E+01  0.51100000000E-03 0.  1.
         12    1    4    4    0    0 -0.10530240548E+02 -0.66919287906E+01  0.31479376052E+02  0.33861763002E+02  0.00000000000E+00 0. -1.
</event>
<event>
 8    1  0.2962813E-009  0.9118800E+02  0.7816164E-02  0.1184000E+00
        -11   -1    0    0    0    0  0.00000000000E+00  0.00000000000E+00  0.45593999997E+02  0.45594000000E+02  0.51100000000E-03 0. -1.
         11   -1    0    0    0    0 -0.00000000000E+00 -0.00000000000E+00 -0.45593999997E+02  0.45594000000E+02  0.51100000000E-03 0.  1.
         23    2    1    2    0    0  0.22204460493E-15  0.35527136788E-14  0.00000000000E+00  0.91188000000E+02  0.91188000000E+02 0.  0.
    9900012    2    3    3    0    0 -0.18148226965E+01 -0.24767223082E+02  0.37581971758E+02  0.46142317389E+02  0.99999966108E+01 0.  0.
        -12    1    3    3    0    0  0.18148226965E+01  0.24767223082E+02 -0.37581971758E+02  0.45045682611E+02  0.00000000000E+00 0.  1.
         11    1    4    4    0    0  0.18356938098E+01 -0.94615266320E+00  0.46694772010E+01  0.51057804709E+01  0.51100000000E-03 0. -1.
        -11    1    4    4    0    0 -0.10418002779E+01 -0.37438725969E+01  0.29674644884E+01  0.48895578115E+01  0.51100000000E-03 0.  1.
         12    1    4    4    0    0 -0.26087162283E+01 -0.20077197822E+02  0.29945030069E+02  0.36146979107E+02  0.00000000000E+00 0. -1.
</event>
<event>
 8    1  0.2962813E-009  0.9118800E+02  0.7816164E-02  0.1184000E+00
        -11   -1    0    0    0    0  0.00000000000E+00  0.00000000000E+00  0.45593999997E+02  0.45594000000E+02  0.51100000000E-03 0. -1.
         11   -1    0    0    0    0 -0.00000000000E+00 -0.00000000000E+00 -0.45593999997E+02  0.45594000000E+02  0.51100000000E-03 0.  1.
         23    2    1    2    0    0 -0.22204460493E-15  0.00000000000E+00  0.00000000000E+00  0.91188000000E+02  0.91188000000E+02 0.  0.
    9900012    2    3    3    0    0 -0.17952797863E+01 -0.10130681394E+02 -0.43854986755E+02  0.46142316541E+02  0.99999888744E+01 0.  0.
         12    1    3    3    0    0  0.17952797863E+01  0.10130681394E+02  0.43854986755E+02  0.45045683459E+02  0.00000000000E+00 0. -1.
         11    1    4    4    0    0  0.18904940531E+01 -0.42121529208E+01 -0.12830642264E+02  0.13636039791E+02  0.51100000000E-03 0. -1.
        -11    1    4    4    0    0 -0.36173348506E+01 -0.72345008564E+01 -0.23148029657E+02  0.24520489215E+02  0.51100000000E-03 0.  1.
        -12    1    4    4    0    0 -0.68438988825E-01  0.13159723836E+01 -0.78763148337E+01  0.79857875359E+01  0.00000000000E+00 0.  1.
</event>
<event>
 8    1  0.2962813E-009  0.9118800E+02  0.7816164E-02  0.1184000E+00
        -11   -1    0    0    0    0  0.00000000000E+00  0.00000000000E+00  0.45593999997E+02  0.45594000000E+02  0.51100000000E-03 0. -1.
         11   -1    0    0    0    0 -0.00000000000E+00 -0.00000000000E+00 -0.45593999997E+02  0.45594000000E+02  0.51100000000E-03 0.  1.
         23    2    1    2    0    0  0.00000000000E+00  0.00000000000E+00  0.00000000000E+00  0.91188000000E+02  0.91188000000E+02 0.  0.
    9900012    2    3    3    0    0  0.30555860360E+02  0.17185518942E+02  0.28286233268E+02  0.46142315899E+02  0.99999830181E+01 0.  0.
        -12    1    3    3    0    0 -0.30555860360E+02 -0.17185518942E+02 -0.28286233268E+02  0.45045684101E+02  0.00000000000E+00 0.  1.
         11    1    4    4    0    0  0.14572629985E+02  0.65050678595E+01  0.12291380286E+02  0.20143373157E+02  0.51100000000E-03 0. -1.
        -11    1    4    4    0    0  0.12109886769E+02  0.47204974515E+01  0.78305646565E+01  0.15173997392E+02  0.51100000000E-03 0.  1.
        -12    1    4    4    0    0  0.38733436064E+01  0.59599536309E+01  0.81642883259E+01  0.10824945351E+02  0.00000000000E+00 0.  1.
</event>
<event>
 8    1  0.2962813E-009  0.9118800E+02  0.7816164E-02  0.1184000E+00
        -11   -1    0    0    0    0  0.00000000000E+00  0.00000000000E+00  0.45593999997E+02  0.45594000000E+02  0.51100000000E-03 0.  1.
         11   -1    0    0    0    0 -0.00000000000E+00 -0.00000000000E+00 -0.45593999997E+02  0.45594000000E+02  0.51100000000E-03 0. -1.
         23    2    1    2    0    0  0.71054273576E-14 -0.88817841970E-15  0.17763568394E-14  0.91188000000E+02  0.91188000000E+02 0.  0.
    9900012    2    3    3    0    0 -0.42422594247E+02  0.59792359354E+01 -0.13917095634E+02  0.46142319676E+02  0.10000017458E+02 0.  0.
         12    1    3    3    0    0  0.42422594247E+02 -0.59792359354E+01  0.13917095634E+02  0.45045680324E+02  0.00000000000E+00 0. -1.
         11    1    4    4    0    0 -0.50437973706E+01  0.34188825164E+01 -0.24616330731E+01  0.65717796086E+01  0.51100000000E-03 0. -1.
        -11    1    4    4    0    0 -0.27095849849E+02 -0.37205631118E-01 -0.65031744899E+01  0.27865350204E+02  0.51100000000E-03 0.  1.
        -12    1    4    4    0    0 -0.10282947027E+02  0.25975590501E+01 -0.49522880707E+01  0.11705189863E+02  0.00000000000E+00 0.  1.
</event>
<event>
 8    1  0.2962813E-009  0.9118800E+02  0.7816164E-02  0.1184000E+00
        -11   -1    0    0    0    0  0.00000000000E+00  0.00000000000E+00  0.45593999997E+02  0.45594000000E+02  0.51100000000E-03 0. -1.
         11   -1    0    0    0    0 -0.00000000000E+00 -0.00000000000E+00 -0.45593999997E+02  0.45594000000E+02  0.51100000000E-03 0.  1.
         23    2    1    2    0    0 -0.33306690739E-15  0.00000000000E+00  0.00000000000E+00  0.91188000000E+02  0.91188000000E+02 0.  0.
    9900012    2    3    3    0    0 -0.34764483071E+00  0.36020732649E+02  0.27046254059E+02  0.46142313235E+02  0.99999587305E+01 0.  0.
        -12    1    3    3    0    0  0.34764483071E+00 -0.36020732649E+02 -0.27046254059E+02  0.45045686765E+02  0.00000000000E+00 0.  1.
         11    1    4    4    0    0  0.19533705889E+01  0.15447044490E+02  0.14073455660E+02  0.20987829678E+02  0.51100000000E-03 0. -1.
        -11    1    4    4    0    0  0.12982650518E+01  0.55185677999E+01  0.14344579714E+01  0.58478844585E+01  0.51100000000E-03 0.  1.
        -12    1    4    4    0    0 -0.35992804714E+01  0.15055120359E+02  0.11538340428E+02  0.19306599099E+02  0.00000000000E+00 0.  1.
</event>
<event>
 8    1  0.2962813E-009  0.9118800E+02  0.7816164E-02  0.1184000E+00
        -11   -1    0    0    0    0  0.00000000000E+00  0.00000000000E+00  0.45593999997E+02  0.45594000000E+02  0.51100000000E-03 0. -1.
         11   -1    0    0    0    0 -0.00000000000E+00 -0.00000000000E+00 -0.45593999997E+02  0.45594000000E+02  0.51100000000E-03 0.  1.
         23    2    1    2    0    0 -0.17763568394E-14  0.00000000000E+00  0.00000000000E+00  0.91188000000E+02  0.91188000000E+02 0.  0.
    9900012    2    3    3    0    0  0.68653064174E+01 -0.17547450937E+02 -0.40915376227E+02  0.46142317872E+02  0.10000001013E+02 0.  0.
         12    1    3    3    0    0 -0.68653064174E+01  0.17547450937E+02  0.40915376227E+02  0.45045682128E+02  0.00000000000E+00 0. -1.
         11    1    4    4    0    0  0.18058189903E+01 -0.32451761105E+01 -0.18745349151E+01  0.41600518774E+01  0.51100000000E-03 0. -1.
        -11    1    4    4    0    0  0.46353485051E+01 -0.97573453968E+01 -0.29206361492E+02  0.31140067386E+02  0.51100000000E-03 0.  1.
        -12    1    4    4    0    0  0.42413892198E+00 -0.45449294300E+01 -0.98344798198E+01  0.10842198609E+02  0.00000000000E+00 0.  1.
</event>
<event>
 8    1  0.2962813E-009  0.9118800E+02  0.7816164E-02  0.1184000E+00
        -11   -1    0    0    0    0  0.00000000000E+00  0.00000000000E+00  0.45593999997E+02  0.45594000000E+02  0.51100000000E-03 0. -1.
         11   -1    0    0    0    0 -0.00000000000E+00 -0.00000000000E+00 -0.45593999997E+02  0.45594000000E+02  0.51100000000E-03 0.  1.
         23    2    1    2    0    0  0.00000000000E+00  0.17763568394E-14 -0.17763568394E-14  0.91188000000E+02  0.91188000000E+02 0.  0.
    9900012    2    3    3    0    0 -0.41499246173E+02  0.12460649364E+02 -0.12314952748E+02  0.46142320111E+02  0.10000021428E+02 0.  0.
         12    1    3    3    0    0  0.41499246173E+02 -0.12460649364E+02  0.12314952748E+02  0.45045679889E+02  0.00000000000E+00 0. -1.
         11    1    4    4    0    0 -0.10126862709E+02  0.24193032945E+00 -0.20808333967E+01  0.10341264260E+02  0.51100000000E-03 0. -1.
        -11    1    4    4    0    0 -0.53016506439E+01 -0.36893034643E+00 -0.95312026077E+00  0.53992636205E+01  0.51100000000E-03 0.  1.
        -12    1    4    4    0    0 -0.26070732820E+02  0.12587649381E+02 -0.92809990907E+01  0.30401792230E+02  0.00000000000E+00 0.  1.
</event>
<event>
 8    1  0.2962813E-009  0.9118800E+02  0.7816164E-02  0.1184000E+00
        -11   -1    0    0    0    0  0.00000000000E+00  0.00000000000E+00  0.45593999997E+02  0.45594000000E+02  0.51100000000E-03 0. -1.
         11   -1    0    0    0    0 -0.00000000000E+00 -0.00000000000E+00 -0.45593999997E+02  0.45594000000E+02  0.51100000000E-03 0.  1.
         23    2    1    2    0    0 -0.44408920985E-15  0.00000000000E+00  0.00000000000E+00  0.91188000000E+02  0.91188000000E+02 0.  0.
    9900012    2    3    3    0    0 -0.27122168422E+01 -0.35534885212E+02 -0.27550486523E+02  0.46142317689E+02  0.99999993401E+01 0.  0.
         12    1    3    3    0    0  0.27122168422E+01  0.35534885212E+02  0.27550486523E+02  0.45045682311E+02  0.00000000000E+00 0. -1.
         11    1    4    4    0    0  0.29318569277E+01 -0.10574915080E+02 -0.93063209750E+01  0.14388614400E+02  0.51100000000E-03 0. -1.
        -11    1    4    4    0    0 -0.45338478896E+01 -0.18447888278E+02 -0.15804405251E+02  0.24711527354E+02  0.51100000000E-03 0.  1.
        -12    1    4    4    0    0 -0.11102258804E+01 -0.65120818550E+01 -0.24397602967E+01  0.70421759348E+01  0.00000000000E+00 0.  1.
</event>
<event>
 8    1  0.2962813E-009  0.9118800E+02  0.7816164E-02  0.1184000E+00
        -11   -1    0    0    0    0  0.00000000000E+00  0.00000000000E+00  0.45593999997E+02  0.45594000000E+02  0.51100000000E-03 0.  1.
         11   -1    0    0    0    0 -0.00000000000E+00 -0.00000000000E+00 -0.45593999997E+02  0.45594000000E+02  0.51100000000E-03 0. -1.
         23    2    1    2    0    0  0.00000000000E+00  0.00000000000E+00  0.00000000000E+00  0.91188000000E+02  0.91188000000E+02 0.  0.
    9900012    2    3    3    0    0  0.40230668714E+02  0.18340514678E+02 -0.86158119295E+01  0.46142318752E+02  0.10000009040E+02 0.  0.
         12    1    3    3    0    0 -0.40230668714E+02 -0.18340514678E+02  0.86158119295E+01  0.45045681248E+02  0.00000000000E+00 0. -1.
         11    1    4    4    0    0  0.18305072116E+02  0.61323175038E+01 -0.14497347642E+01  0.19359305625E+02  0.51100000000E-03 0. -1.
        -11    1    4    4    0    0  0.15887999866E+02  0.11063909430E+02 -0.36457550673E+01  0.19701019311E+02  0.51100000000E-03 0.  1.
         12    1    4    4    0    0  0.60375967324E+01  0.11442877443E+01 -0.35203220980E+01  0.70819938166E+01  0.00000000000E+00 0. -1.
</event>
<event>
 8    1  0.2962813E-009  0.9118800E+02  0.7816164E-02  0.1184000E+00
        -11   -1    0    0    0    0  0.00000000000E+00  0.00000000000E+00  0.45593999997E+02  0.45594000000E+02  0.51100000000E-03 0. -1.
         11   -1    0    0    0    0 -0.00000000000E+00 -0.00000000000E+00 -0.45593999997E+02  0.45594000000E+02  0.51100000000E-03 0.  1.
         23    2    1    2    0    0 -0.35527136788E-14  0.71054273576E-14  0.35527136788E-14  0.91188000000E+02  0.91188000000E+02 0.  0.
    9900012    2    3    3    0    0 -0.18814714052E+02  0.35471473239E+02  0.20417998363E+02  0.46142317235E+02  0.99999951993E+01 0.  0.
        -12    1    3    3    0    0  0.18814714052E+02 -0.35471473239E+02 -0.20417998363E+02  0.45045682765E+02  0.00000000000E+00 0.  1.
         11    1    4    4    0    0 -0.41807408549E+00  0.35834619482E+01  0.38693924508E+01  0.52903859665E+01  0.51100000000E-03 0. -1.
        -11    1    4    4    0    0 -0.22273651080E+01  0.10301825654E+01  0.54229007402E+00  0.25132668438E+01  0.51100000000E-03 0.  1.
         12    1    4    4    0    0 -0.16169274859E+02  0.30857828726E+02  0.16006315838E+02  0.38338664424E+02  0.00000000000E+00 0. -1.
</event>
<event>
 8    1  0.2962813E-009  0.9118800E+02  0.7816164E-02  0.1184000E+00
        -11   -1    0    0    0    0  0.00000000000E+00  0.00000000000E+00  0.45593999997E+02  0.45594000000E+02  0.51100000000E-03 0.  1.
         11   -1    0    0    0    0 -0.00000000000E+00 -0.00000000000E+00 -0.45593999997E+02  0.45594000000E+02  0.51100000000E-03 0. -1.
         23    2    1    2    0    0 -0.35527136788E-14  0.71054273576E-14  0.35527136788E-14  0.91188000000E+02  0.91188000000E+02 0.  0.
    9900012    2    3    3    0    0  0.19323574898E+02 -0.36390634877E+02 -0.18205344727E+02  0.46142318407E+02  0.10000005887E+02 0.  0.
         12    1    3    3    0    0 -0.19323574898E+02  0.36390634877E+02  0.18205344727E+02  0.45045681593E+02  0.00000000000E+00 0. -1.
         11    1    4    4    0    0  0.74596409298E+00 -0.74000717526E+01 -0.44038338747E+01  0.86435685587E+01  0.51100000000E-03 0. -1.
        -11    1    4    4    0    0  0.63927271913E+01 -0.14395608588E+02 -0.76880294410E+01  0.17527301689E+02  0.51100000000E-03 0.  1.
         12    1    4    4    0    0  0.12184883613E+02 -0.14594954536E+02 -0.61134814116E+01  0.19971448159E+02  0.00000000000E+00 0. -1.
</event>
<event>
 8    1  0.2962813E-009  0.9118800E+02  0.7816164E-02  0.1184000E+00
        -11   -1    0    0    0    0  0.00000000000E+00  0.00000000000E+00  0.45593999997E+02  0.45594000000E+02  0.51100000000E-03 0. -1.
         11   -1    0    0    0    0 -0.00000000000E+00 -0.00000000000E+00 -0.45593999997E+02  0.45594000000E+02  0.51100000000E-03 0.  1.
         23    2    1    2    0    0  0.00000000000E+00  0.00000000000E+00 -0.17763568394E-14  0.91188000000E+02  0.91188000000E+02 0.  0.
    9900012    2    3    3    0    0 -0.33542967508E+02  0.26034477166E+02  0.15039610013E+02  0.46142306090E+02  0.99998935709E+01 0.  0.
        -12    1    3    3    0    0  0.33542967508E+02 -0.26034477166E+02 -0.15039610013E+02  0.45045693910E+02  0.00000000000E+00 0.  1.
         11    1    4    4    0    0 -0.18304123071E+02  0.11972702562E+02  0.94647231573E+01  0.23832068998E+02  0.51100000000E-03 0. -1.
        -11    1    4    4    0    0  0.35492794882E+00  0.87615577379E+00 -0.40952718943E+00  0.10302114195E+01  0.51100000000E-03 0.  1.
        -12    1    4    4    0    0 -0.15593772386E+02  0.13185618829E+02  0.59844140446E+01  0.21280025672E+02  0.00000000000E+00 0.  1.
</event>
<event>
 8    1  0.2962813E-009  0.9118800E+02  0.7816164E-02  0.1184000E+00
        -11   -1    0    0    0    0  0.00000000000E+00  0.00000000000E+00  0.45593999997E+02  0.45594000000E+02  0.51100000000E-03 0. -1.
         11   -1    0    0    0    0 -0.00000000000E+00 -0.00000000000E+00 -0.45593999997E+02  0.45594000000E+02  0.51100000000E-03 0.  1.
         23    2    1    2    0    0  0.17763568394E-14  0.00000000000E+00  0.00000000000E+00  0.91188000000E+02  0.91188000000E+02 0.  0.
    9900012    2    3    3    0    0  0.11909909136E+02 -0.43273438769E+02 -0.38310675225E+01  0.46142317444E+02  0.99999971118E+01 0.  0.
        -12    1    3    3    0    0 -0.11909909136E+02  0.43273438769E+02  0.38310675225E+01  0.45045682556E+02  0.00000000000E+00 0.  1.
         11    1    4    4    0    0  0.52656819471E+01 -0.11525342864E+02 -0.72157025349E+00  0.12691792560E+02  0.51100000000E-03 0. -1.
        -11    1    4    4    0    0 -0.45904886230E-01 -0.85419997739E+01  0.19806512146E+01  0.87687426061E+01  0.51100000000E-03 0.  1.
        -12    1    4    4    0    0  0.66901320755E+01 -0.23206096131E+02 -0.50901484836E+01  0.24681782278E+02  0.00000000000E+00 0.  1.
</event>
<event>
 8    1  0.2962813E-009  0.9118800E+02  0.7816164E-02  0.1184000E+00
        -11   -1    0    0    0    0  0.00000000000E+00  0.00000000000E+00  0.45593999997E+02  0.45594000000E+02  0.51100000000E-03 0.  1.
         11   -1    0    0    0    0 -0.00000000000E+00 -0.00000000000E+00 -0.45593999997E+02  0.45594000000E+02  0.51100000000E-03 0. -1.
         23    2    1    2    0    0  0.00000000000E+00  0.00000000000E+00  0.00000000000E+00  0.91188000000E+02  0.91188000000E+02 0.  0.
    9900012    2    3    3    0    0 -0.29910055098E+02  0.33128787229E+02  0.60815703834E+01  0.46142318326E+02  0.10000005147E+02 0.  0.
        -12    1    3    3    0    0  0.29910055098E+02 -0.33128787229E+02 -0.60815703834E+01  0.45045681674E+02  0.00000000000E+00 0.  1.
         11    1    4    4    0    0 -0.27005420009E+01  0.68121283899E+01  0.17937213012E+01  0.75442333385E+01  0.51100000000E-03 0. -1.
        -11    1    4    4    0    0 -0.89264893910E+01  0.59160673394E+01 -0.78597955760E+00  0.10737775828E+02  0.51100000000E-03 0.  1.
         12    1    4    4    0    0 -0.18283023706E+02  0.20400591499E+02  0.50738286398E+01  0.27860309159E+02  0.00000000000E+00 0. -1.
</event>
<event>
 8    1  0.2962813E-009  0.9118800E+02  0.7816164E-02  0.1184000E+00
        -11   -1    0    0    0    0  0.00000000000E+00  0.00000000000E+00  0.45593999997E+02  0.45594000000E+02  0.51100000000E-03 0. -1.
         11   -1    0    0    0    0 -0.00000000000E+00 -0.00000000000E+00 -0.45593999997E+02  0.45594000000E+02  0.51100000000E-03 0.  1.
         23    2    1    2    0    0  0.00000000000E+00  0.35527136788E-14  0.71054273576E-14  0.91188000000E+02  0.91188000000E+02 0.  0.
    9900012    2    3    3    0    0 -0.71857184630E+01 -0.14472145415E+02 -0.42048019350E+02  0.46142317921E+02  0.10000001457E+02 0.  0.
         12    1    3    3    0    0  0.71857184630E+01  0.14472145415E+02  0.42048019350E+02  0.45045682079E+02  0.00000000000E+00 0. -1.
         11    1    4    4    0    0 -0.72649479734E+01 -0.54619314150E+01 -0.22187704189E+02  0.23977205452E+02  0.51100000000E-03 0. -1.
        -11    1    4    4    0    0  0.45532459733E+00 -0.93018298419E+01 -0.19303692742E+02  0.21432776596E+02  0.51100000000E-03 0.  1.
        -12    1    4    4    0    0 -0.37609508694E+00  0.29161584167E+00 -0.55662241919E+00  0.73233587313E+00  0.00000000000E+00 0.  1.
</event>
<event>
 8    1  0.2962813E-009  0.9118800E+02  0.7816164E-02  0.1184000E+00
        -11   -1    0    0    0    0  0.00000000000E+00  0.00000000000E+00  0.45593999997E+02  0.45594000000E+02  0.51100000000E-03 0. -1.
         11   -1    0    0    0    0 -0.00000000000E+00 -0.00000000000E+00 -0.45593999997E+02  0.45594000000E+02  0.51100000000E-03 0.  1.
         23    2    1    2    0    0  0.00000000000E+00  0.00000000000E+00  0.00000000000E+00  0.91188000000E+02  0.91188000000E+02 0.  0.
    9900012    2    3    3    0    0  0.17843883840E+02 -0.29710141662E+02  0.28775280901E+02  0.46142317643E+02  0.99999989223E+01 0.  0.
        -12    1    3    3    0    0 -0.17843883840E+02  0.29710141662E+02 -0.28775280901E+02  0.45045682357E+02  0.00000000000E+00 0.  1.
         11    1    4    4    0    0  0.39664693043E+01 -0.13559288860E+02  0.13457040107E+02  0.19511000021E+02  0.51100000000E-03 0.  1.
        -11    1    4    4    0    0  0.99606376514E+01 -0.85375884939E+01  0.79813715262E+01  0.15356008968E+02  0.51100000000E-03 0. -1.
        -12    1    4    4    0    0  0.39167768846E+01 -0.76132643078E+01  0.73368692680E+01  0.11275308654E+02  0.00000000000E+00 0.  1.
</event>
<event>
 8    1  0.2962813E-009  0.9118800E+02  0.7816164E-02  0.1184000E+00
        -11   -1    0    0    0    0  0.00000000000E+00  0.00000000000E+00  0.45593999997E+02  0.45594000000E+02  0.51100000000E-03 0.  1.
         11   -1    0    0    0    0 -0.00000000000E+00 -0.00000000000E+00 -0.45593999997E+02  0.45594000000E+02  0.51100000000E-03 0. -1.
         23    2    1    2    0    0  0.00000000000E+00  0.00000000000E+00  0.00000000000E+00  0.91188000000E+02  0.91188000000E+02 0.  0.
    9900012    2    3    3    0    0 -0.39107392348E+02 -0.22265210614E+02 -0.19964323620E+01  0.46142317831E+02  0.10000000636E+02 0.  0.
        -12    1    3    3    0    0  0.39107392348E+02  0.22265210614E+02  0.19964323620E+01  0.45045682169E+02  0.00000000000E+00 0.  1.
         11    1    4    4    0    0 -0.15961879069E+02 -0.13684426062E+02 -0.25667298985E+01  0.21180963214E+02  0.51100000000E-03 0. -1.
        -11    1    4    4    0    0 -0.11125552183E+02 -0.29250220576E+01 -0.11733269371E+01  0.11563319670E+02  0.51100000000E-03 0.  1.
         12    1    4    4    0    0 -0.12019961096E+02 -0.56557624938E+01  0.17436244736E+01  0.13398034947E+02  0.00000000000E+00 0. -1.
</event>
<event>
 8    1  0.2962813E-009  0.9118800E+02  0.7816164E-02  0.1184000E+00
        -11   -1    0    0    0    0  0.00000000000E+00  0.00000000000E+00  0.45593999997E+02  0.45594000000E+02  0.51100000000E-03 0. -1.
         11   -1    0    0    0    0 -0.00000000000E+00 -0.00000000000E+00 -0.45593999997E+02  0.45594000000E+02  0.51100000000E-03 0.  1.
         23    2    1    2    0    0  0.35527136788E-14  0.00000000000E+00 -0.35527136788E-14  0.91188000000E+02  0.91188000000E+02 0.  0.
    9900012    2    3    3    0    0  0.18144532617E+02  0.31495364153E+02 -0.26606981497E+02  0.46142317727E+02  0.99999996917E+01 0.  0.
         12    1    3    3    0    0 -0.18144532617E+02 -0.31495364153E+02  0.26606981497E+02  0.45045682273E+02  0.00000000000E+00 0. -1.
         11    1    4    4    0    0  0.61169911737E+01  0.56064424165E+01 -0.83356565456E+01  0.11761502791E+02  0.51100000000E-03 0. -1.
        -11    1    4    4    0    0  0.76765119108E+01  0.21934525128E+02 -0.14316282244E+02  0.27294837703E+02  0.51100000000E-03 0.  1.
         12    1    4    4    0    0  0.43510295327E+01  0.39543966090E+01 -0.39550427075E+01  0.70859772335E+01  0.00000000000E+00 0. -1.
</event>
<event>
 8    1  0.2962813E-009  0.9118800E+02  0.7816164E-02  0.1184000E+00
        -11   -1    0    0    0    0  0.00000000000E+00  0.00000000000E+00  0.45593999997E+02  0.45594000000E+02  0.51100000000E-03 0. -1.
         11   -1    0    0    0    0 -0.00000000000E+00 -0.00000000000E+00 -0.45593999997E+02  0.45594000000E+02  0.51100000000E-03 0.  1.
         23    2    1    2    0    0 -0.17763568394E-14  0.44408920985E-15  0.00000000000E+00  0.91188000000E+02  0.91188000000E+02 0.  0.
    9900012    2    3    3    0    0 -0.15862121831E+02 -0.28508374767E+01  0.42063990028E+02  0.46142318294E+02  0.10000004855E+02 0.  0.
        -12    1    3    3    0    0  0.15862121831E+02  0.28508374767E+01 -0.42063990028E+02  0.45045681706E+02  0.00000000000E+00 0.  1.
         11    1    4    4    0    0 -0.21288553466E+01  0.21968095098E+01  0.10354376675E+02  0.10796810348E+02  0.51100000000E-03 0. -1.
        -11    1    4    4    0    0 -0.18451364878E+01  0.92582454607E+00  0.24547149958E+01  0.32073830019E+01  0.51100000000E-03 0.  1.
         12    1    4    4    0    0 -0.11888129997E+02 -0.59734715325E+01  0.29254898358E+02  0.32138124944E+02  0.00000000000E+00 0. -1.
</event>
<event>
 8    1  0.2962813E-009  0.9118800E+02  0.7816164E-02  0.1184000E+00
        -11   -1    0    0    0    0  0.00000000000E+00  0.00000000000E+00  0.45593999997E+02  0.45594000000E+02  0.51100000000E-03 0. -1.
         11   -1    0    0    0    0 -0.00000000000E+00 -0.00000000000E+00 -0.45593999997E+02  0.45594000000E+02  0.51100000000E-03 0.  1.
         23    2    1    2    0    0 -0.17763568394E-14  0.00000000000E+00  0.00000000000E+00  0.91188000000E+02  0.91188000000E+02 0.  0.
    9900012    2    3    3    0    0  0.11856143379E+02 -0.28967088277E+02 -0.32395265012E+02  0.46142317252E+02  0.99999953556E+01 0.  0.
         12    1    3    3    0    0 -0.11856143379E+02  0.28967088277E+02  0.32395265012E+02  0.45045682748E+02  0.00000000000E+00 0. -1.
         11    1    4    4    0    0  0.16486460141E+01  0.27962704539E+00 -0.20692229878E+01  0.26604339869E+01  0.51100000000E-03 0. -1.
        -11    1    4    4    0    0  0.56891981797E+01 -0.16117269713E+02 -0.19060217997E+02  0.25601274759E+02  0.51100000000E-03 0.  1.
        -12    1    4    4    0    0  0.45182991851E+01 -0.13129445609E+02 -0.11265824027E+02  0.17880608506E+02  0.00000000000E+00 0.  1.
</event>
<event>
 8    1  0.2962813E-009  0.9118800E+02  0.7816164E-02  0.1184000E+00
        -11   -1    0    0    0    0  0.00000000000E+00  0.00000000000E+00  0.45593999997E+02  0.45594000000E+02  0.51100000000E-03 0. -1.
         11   -1    0    0    0    0 -0.00000000000E+00 -0.00000000000E+00 -0.45593999997E+02  0.45594000000E+02  0.51100000000E-03 0.  1.
         23    2    1    2    0    0  0.00000000000E+00  0.00000000000E+00  0.00000000000E+00  0.91188000000E+02  0.91188000000E+02 0.  0.
    9900012    2    3    3    0    0  0.16197181409E+02 -0.28852750160E+01  0.41933757390E+02  0.46142317561E+02  0.99999981778E+01 0.  0.
        -12    1    3    3    0    0 -0.16197181409E+02  0.28852750160E+01 -0.41933757390E+02  0.45045682439E+02  0.00000000000E+00 0.  1.
         11    1    4    4    0    0  0.31122192033E+01  0.20526870216E+01  0.15108240171E+02  0.15561438034E+02  0.51100000000E-03 0. -1.
        -11    1    4    4    0    0  0.13003724412E+02 -0.47130445089E+01  0.23659678381E+02  0.27406021573E+02  0.51100000000E-03 0.  1.
        -12    1    4    4    0    0  0.81237793308E-01 -0.22491752873E+00  0.31658388383E+01  0.31748579534E+01  0.00000000000E+00 0.  1.
</event>
<event>
 8    1  0.2962813E-009  0.9118800E+02  0.7816164E-02  0.1184000E+00
        -11   -1    0    0    0    0  0.00000000000E+00  0.00000000000E+00  0.45593999997E+02  0.45594000000E+02  0.51100000000E-03 0. -1.
         11   -1    0    0    0    0 -0.00000000000E+00 -0.00000000000E+00 -0.45593999997E+02  0.45594000000E+02  0.51100000000E-03 0.  1.
         23    2    1    2    0    0  0.00000000000E+00  0.00000000000E+00 -0.35527136788E-14  0.91188000000E+02  0.91188000000E+02 0.  0.
    9900012    2    3    3    0    0 -0.22377770263E+01  0.34179439938E+02 -0.29255285816E+02  0.46142317536E+02  0.99999979485E+01 0.  0.
         12    1    3    3    0    0  0.22377770263E+01 -0.34179439938E+02  0.29255285816E+02  0.45045682464E+02  0.00000000000E+00 0. -1.
         11    1    4    4    0    0 -0.18663404904E+01  0.22257254136E+02 -0.20519102028E+02  0.30329888506E+02  0.51100000000E-03 0.  1.
        -11    1    4    4    0    0  0.16342855939E+01  0.27804642602E+01 -0.34715080305E+00  0.32438225669E+01  0.51100000000E-03 0. -1.
         12    1    4    4    0    0 -0.20057221298E+01  0.91417215411E+01 -0.83890329851E+01  0.12568606463E+02  0.00000000000E+00 0. -1.
</event>
<event>
 8    1  0.2962813E-009  0.9118800E+02  0.7816164E-02  0.1184000E+00
        -11   -1    0    0    0    0  0.00000000000E+00  0.00000000000E+00  0.45593999997E+02  0.45594000000E+02  0.51100000000E-03 0. -1.
         11   -1    0    0    0    0 -0.00000000000E+00 -0.00000000000E+00 -0.45593999997E+02  0.45594000000E+02  0.51100000000E-03 0.  1.
         23    2    1    2    0    0  0.00000000000E+00 -0.71054273576E-14  0.00000000000E+00  0.91188000000E+02  0.91188000000E+02 0.  0.
    9900012    2    3    3    0    0 -0.22216998155E+02  0.35419510747E+02  0.16762368159E+02  0.46142315025E+02  0.99999750477E+01 0.  0.
        -12    1    3    3    0    0  0.22216998155E+02 -0.35419510747E+02 -0.16762368159E+02  0.45045684975E+02  0.00000000000E+00 0.  1.
         11    1    4    4    0    0 -0.22450900019E+01  0.28086560609E+01  0.20435959060E+01  0.41358508766E+01  0.51100000000E-03 0. -1.
        -11    1    4    4    0    0 -0.11415439966E+01  0.58473269714E+01  0.52477176946E+01  0.79393259582E+01  0.51100000000E-03 0.  1.
        -12    1    4    4    0    0 -0.18830364156E+02  0.26763527715E+02  0.94710545588E+01  0.34067138190E+02  0.00000000000E+00 0.  1.
</event>
<event>
 8    1  0.2962813E-009  0.9118800E+02  0.7816164E-02  0.1184000E+00
        -11   -1    0    0    0    0  0.00000000000E+00  0.00000000000E+00  0.45593999997E+02  0.45594000000E+02  0.51100000000E-03 0. -1.
         11   -1    0    0    0    0 -0.00000000000E+00 -0.00000000000E+00 -0.45593999997E+02  0.45594000000E+02  0.51100000000E-03 0.  1.
         23    2    1    2    0    0  0.00000000000E+00  0.44408920985E-15  0.71054273576E-14  0.91188000000E+02  0.91188000000E+02 0.  0.
    9900012    2    3    3    0    0 -0.12789780474E+02 -0.30513785139E+01  0.43083920216E+02  0.46142316781E+02  0.99999910660E+01 0.  0.
        -12    1    3    3    0    0  0.12789780474E+02  0.30513785139E+01 -0.43083920216E+02  0.45045683219E+02  0.00000000000E+00 0.  1.
         11    1    4    4    0    0 -0.48753560513E+01 -0.58735356556E+01  0.25395960823E+02  0.26518339770E+02  0.51100000000E-03 0. -1.
        -11    1    4    4    0    0 -0.57962608143E+00  0.43553023669E+00  0.95709433595E+00  0.12007009663E+01  0.51100000000E-03 0.  1.
         12    1    4    4    0    0 -0.73347983414E+01  0.23866269051E+01  0.16730865057E+02  0.18423276046E+02  0.00000000000E+00 0. -1.
</event>
<event>
 8    1  0.2962813E-009  0.9118800E+02  0.7816164E-02  0.1184000E+00
        -11   -1    0    0    0    0  0.00000000000E+00  0.00000000000E+00  0.45593999997E+02  0.45594000000E+02  0.51100000000E-03 0. -1.
         11   -1    0    0    0    0 -0.00000000000E+00 -0.00000000000E+00 -0.45593999997E+02  0.45594000000E+02  0.51100000000E-03 0.  1.
         23    2    1    2    0    0  0.00000000000E+00  0.00000000000E+00  0.00000000000E+00  0.91188000000E+02  0.91188000000E+02 0.  0.
    9900012    2    3    3    0    0  0.42722946204E+02 -0.46294012639E+01  0.13506730815E+02  0.46142320233E+02  0.10000022537E+02 0.  0.
        -12    1    3    3    0    0 -0.42722946204E+02  0.46294012639E+01 -0.13506730815E+02  0.45045679767E+02  0.00000000000E+00 0.  1.
         11    1    4    4    0    0  0.15336615034E+01  0.87622978590E+00 -0.30982307158E+00  0.17932893915E+01  0.51100000000E-03 0. -1.
        -11    1    4    4    0    0  0.17002733695E+01  0.37951202556E+00 -0.68484511509E+00  0.18718899544E+01  0.51100000000E-03 0.  1.
         12    1    4    4    0    0  0.39489011331E+02 -0.58851430754E+01  0.14501399001E+02  0.42477140887E+02  0.00000000000E+00 0. -1.
</event>
<event>
 8    1  0.2962813E-009  0.9118800E+02  0.7816164E-02  0.1184000E+00
        -11   -1    0    0    0    0  0.00000000000E+00  0.00000000000E+00  0.45593999997E+02  0.45594000000E+02  0.51100000000E-03 0. -1.
         11   -1    0    0    0    0 -0.00000000000E+00 -0.00000000000E+00 -0.45593999997E+02  0.45594000000E+02  0.51100000000E-03 0.  1.
         23    2    1    2    0    0  0.71054273576E-14 -0.55511151231E-16  0.00000000000E+00  0.91188000000E+02  0.91188000000E+02 0.  0.
    9900012    2    3    3    0    0  0.42234901940E+02  0.32862713837E+00  0.15659455263E+02  0.46142317889E+02  0.10000001170E+02 0.  0.
        -12    1    3    3    0    0 -0.42234901940E+02 -0.32862713837E+00 -0.15659455263E+02  0.45045682111E+02  0.00000000000E+00 0.  1.
         11    1    4    4    0    0  0.28119785015E+02  0.23678237226E+01  0.14725121733E+02  0.31830144655E+02  0.51100000000E-03 0. -1.
        -11    1    4    4    0    0  0.78470037844E+01 -0.12026419473E+01  0.88967108092E+00  0.79883246641E+01  0.51100000000E-03 0.  1.
         12    1    4    4    0    0  0.62681131406E+01 -0.83655463694E+00  0.44662449759E-01  0.63238485702E+01  0.00000000000E+00 0. -1.
</event>
<event>
 8    1  0.2962813E-009  0.9118800E+02  0.7816164E-02  0.1184000E+00
        -11   -1    0    0    0    0  0.00000000000E+00  0.00000000000E+00  0.45593999997E+02  0.45594000000E+02  0.51100000000E-03 0. -1.
         11   -1    0    0    0    0 -0.00000000000E+00 -0.00000000000E+00 -0.45593999997E+02  0.45594000000E+02  0.51100000000E-03 0.  1.
         23    2    1    2    0    0  0.00000000000E+00 -0.88817841970E-15  0.00000000000E+00  0.91188000000E+02  0.91188000000E+02 0.  0.
    9900012    2    3    3    0    0  0.21433814252E+02 -0.68248890173E+01 -0.39027245524E+02  0.46142318778E+02  0.10000009277E+02 0.  0.
         12    1    3    3    0    0 -0.21433814252E+02  0.68248890173E+01  0.39027245524E+02  0.45045681222E+02  0.00000000000E+00 0. -1.
         11    1    4    4    0    0  0.54495518758E+01 -0.37881035480E+01 -0.65972729426E+01  0.93579567576E+01  0.51100000000E-03 0. -1.
        -11    1    4    4    0    0  0.94401426794E+01 -0.27791396518E+01 -0.25070965940E+02  0.26933125412E+02  0.51100000000E-03 0.  1.
        -12    1    4    4    0    0  0.65441196970E+01 -0.25764581742E+00 -0.73590066419E+01  0.98512366093E+01  0.00000000000E+00 0.  1.
</event>
<event>
 8    1  0.2962813E-009  0.9118800E+02  0.7816164E-02  0.1184000E+00
        -11   -1    0    0    0    0  0.00000000000E+00  0.00000000000E+00  0.45593999997E+02  0.45594000000E+02  0.51100000000E-03 0. -1.
         11   -1    0    0    0    0 -0.00000000000E+00 -0.00000000000E+00 -0.45593999997E+02  0.45594000000E+02  0.51100000000E-03 0.  1.
         23    2    1    2    0    0  0.00000000000E+00  0.00000000000E+00  0.00000000000E+00  0.91188000000E+02  0.91188000000E+02 0.  0.
    9900012    2    3    3    0    0  0.42079192692E+01  0.18733965629E+02  0.40748563595E+02  0.46142317767E+02  0.10000000054E+02 0.  0.
        -12    1    3    3    0    0 -0.42079192692E+01 -0.18733965629E+02 -0.40748563595E+02  0.45045682233E+02  0.00000000000E+00 0.  1.
         11    1    4    4    0    0  0.11502914213E+01  0.35754604694E+01  0.35376118648E+01  0.51596304024E+01  0.51100000000E-03 0. -1.
        -11    1    4    4    0    0 -0.17494196865E+01  0.11425188835E+01  0.26158545601E+01  0.33479118834E+01  0.51100000000E-03 0.  1.
         12    1    4    4    0    0  0.48070475344E+01  0.14015986276E+02  0.34595097170E+02  0.37634775481E+02  0.00000000000E+00 0. -1.
</event>
<event>
 8    1  0.2962813E-009  0.9118800E+02  0.7816164E-02  0.1184000E+00
        -11   -1    0    0    0    0  0.00000000000E+00  0.00000000000E+00  0.45593999997E+02  0.45594000000E+02  0.51100000000E-03 0. -1.
         11   -1    0    0    0    0 -0.00000000000E+00 -0.00000000000E+00 -0.45593999997E+02  0.45594000000E+02  0.51100000000E-03 0.  1.
         23    2    1    2    0    0 -0.88817841970E-15 -0.35527136788E-14  0.71054273576E-14  0.91188000000E+02  0.91188000000E+02 0.  0.
    9900012    2    3    3    0    0  0.73517244047E+01  0.30695258204E+02 -0.32138244971E+02  0.46142317435E+02  0.99999970221E+01 0.  0.
         12    1    3    3    0    0 -0.73517244047E+01 -0.30695258204E+02  0.32138244971E+02  0.45045682565E+02  0.00000000000E+00 0. -1.
         11    1    4    4    0    0  0.81353204228E+01  0.20788013055E+02 -0.17629548543E+02  0.28445138552E+02  0.51100000000E-03 0. -1.
        -11    1    4    4    0    0 -0.13359059006E+01  0.70507807586E+01 -0.95149191445E+01  0.11917711209E+02  0.51100000000E-03 0.  1.
         12    1    4    4    0    0  0.55230988244E+00  0.28564643902E+01 -0.49937772843E+01  0.57794676730E+01  0.00000000000E+00 0. -1.
</event>
<event>
 8    1  0.2962813E-009  0.9118800E+02  0.7816164E-02  0.1184000E+00
        -11   -1    0    0    0    0  0.00000000000E+00  0.00000000000E+00  0.45593999997E+02  0.45594000000E+02  0.51100000000E-03 0. -1.
         11   -1    0    0    0    0 -0.00000000000E+00 -0.00000000000E+00 -0.45593999997E+02  0.45594000000E+02  0.51100000000E-03 0.  1.
         23    2    1    2    0    0  0.00000000000E+00  0.00000000000E+00  0.00000000000E+00  0.91188000000E+02  0.91188000000E+02 0.  0.
    9900012    2    3    3    0    0  0.17496614272E+02  0.68640120757E+01 -0.40937359630E+02  0.46142316675E+02  0.99999900968E+01 0.  0.
         12    1    3    3    0    0 -0.17496614272E+02 -0.68640120757E+01  0.40937359630E+02  0.45045683325E+02  0.00000000000E+00 0. -1.
         11    1    4    4    0    0  0.50693581302E+01  0.46159858997E+01 -0.84933554359E+01  0.10915255586E+02  0.51100000000E-03 0. -1.
        -11    1    4    4    0    0  0.32159717265E+01  0.23846925522E+01 -0.14683157302E+02  0.15219209616E+02  0.51100000000E-03 0.  1.
         12    1    4    4    0    0  0.92112844153E+01 -0.13666637613E+00 -0.17760846892E+02  0.20007851474E+02  0.00000000000E+00 0. -1.
</event>
<event>
 8    1  0.2962813E-009  0.9118800E+02  0.7816164E-02  0.1184000E+00
        -11   -1    0    0    0    0  0.00000000000E+00  0.00000000000E+00  0.45593999997E+02  0.45594000000E+02  0.51100000000E-03 0. -1.
         11   -1    0    0    0    0 -0.00000000000E+00 -0.00000000000E+00 -0.45593999997E+02  0.45594000000E+02  0.51100000000E-03 0.  1.
         23    2    1    2    0    0  0.00000000000E+00  0.00000000000E+00  0.00000000000E+00  0.91188000000E+02  0.91188000000E+02 0.  0.
    9900012    2    3    3    0    0  0.20786584654E+02  0.15237893169E+02 -0.36943713829E+02  0.46142317840E+02  0.10000000715E+02 0.  0.
         12    1    3    3    0    0 -0.20786584654E+02 -0.15237893169E+02  0.36943713829E+02  0.45045682160E+02  0.00000000000E+00 0. -1.
         11    1    4    4    0    0  0.41358920415E+01  0.57350880573E+01 -0.45894680215E+01  0.84297126277E+01  0.51100000000E-03 0. -1.
        -11    1    4    4    0    0  0.13163069983E+02  0.70700882657E+01 -0.22864219168E+02  0.27313459647E+02  0.51100000000E-03 0.  1.
         12    1    4    4    0    0  0.34876226294E+01  0.24327168460E+01 -0.94900266400E+01  0.10399145565E+02  0.00000000000E+00 0. -1.
</event>
<event>
 8    1  0.2962813E-009  0.9118800E+02  0.7816164E-02  0.1184000E+00
        -11   -1    0    0    0    0  0.00000000000E+00  0.00000000000E+00  0.45593999997E+02  0.45594000000E+02  0.51100000000E-03 0. -1.
         11   -1    0    0    0    0 -0.00000000000E+00 -0.00000000000E+00 -0.45593999997E+02  0.45594000000E+02  0.51100000000E-03 0.  1.
         23    2    1    2    0    0  0.00000000000E+00 -0.71054273576E-14 -0.35527136788E-14  0.91188000000E+02  0.91188000000E+02 0.  0.
    9900012    2    3    3    0    0 -0.31022274555E+02 -0.30366553770E+02 -0.12025157414E+02  0.46142317440E+02  0.99999970724E+01 0.  0.
         12    1    3    3    0    0  0.31022274555E+02  0.30366553770E+02  0.12025157414E+02  0.45045682560E+02  0.00000000000E+00 0. -1.
         11    1    4    4    0    0 -0.15886682932E+00 -0.12939457378E+01  0.72993841991E+00  0.14941032761E+01  0.51100000000E-03 0. -1.
        -11    1    4    4    0    0 -0.11788349725E+02 -0.12065001964E+02 -0.79362690858E+01  0.18641722799E+02  0.51100000000E-03 0.  1.
         12    1    4    4    0    0 -0.19075058000E+02 -0.17007606068E+02 -0.48188267480E+01  0.26006491365E+02  0.00000000000E+00 0. -1.
</event>
<event>
 8    1  0.2962813E-009  0.9118800E+02  0.7816164E-02  0.1184000E+00
        -11   -1    0    0    0    0  0.00000000000E+00  0.00000000000E+00  0.45593999997E+02  0.45594000000E+02  0.51100000000E-03 0. -1.
         11   -1    0    0    0    0 -0.00000000000E+00 -0.00000000000E+00 -0.45593999997E+02  0.45594000000E+02  0.51100000000E-03 0.  1.
         23    2    1    2    0    0 -0.35527136788E-14  0.00000000000E+00  0.35527136788E-14  0.91188000000E+02  0.91188000000E+02 0.  0.
    9900012    2    3    3    0    0 -0.18068600373E+02 -0.27403803900E+02  0.30849172451E+02  0.46142309545E+02  0.99999250796E+01 0.  0.
        -12    1    3    3    0    0  0.18068600373E+02  0.27403803900E+02 -0.30849172451E+02  0.45045690455E+02  0.00000000000E+00 0.  1.
         11    1    4    4    0    0 -0.16323366455E+01 -0.65858270846E+01  0.46411620838E+01  0.82205855669E+01  0.51100000000E-03 0. -1.
        -11    1    4    4    0    0 -0.12279860672E+02 -0.19392967226E+02  0.21034282769E+02  0.31133955865E+02  0.51100000000E-03 0.  1.
        -12    1    4    4    0    0 -0.41564030555E+01 -0.14250095890E+01  0.51737275988E+01  0.67877681129E+01  0.00000000000E+00 0.  1.
</event>
<event>
 8    1  0.2962813E-009  0.9118800E+02  0.7816164E-02  0.1184000E+00
        -11   -1    0    0    0    0  0.00000000000E+00  0.00000000000E+00  0.45593999997E+02  0.45594000000E+02  0.51100000000E-03 0. -1.
         11   -1    0    0    0    0 -0.00000000000E+00 -0.00000000000E+00 -0.45593999997E+02  0.45594000000E+02  0.51100000000E-03 0.  1.
         23    2    1    2    0    0  0.00000000000E+00  0.17763568394E-14  0.44408920985E-15  0.91188000000E+02  0.91188000000E+02 0.  0.
    9900012    2    3    3    0    0 -0.44151476786E+02  0.86491788570E+01 -0.22253696303E+01  0.46142317995E+02  0.10000002137E+02 0.  0.
        -12    1    3    3    0    0  0.44151476786E+02 -0.86491788570E+01  0.22253696303E+01  0.45045682005E+02  0.00000000000E+00 0.  1.
         11    1    4    4    0    0 -0.26993188377E+02  0.53502780400E+01 -0.45478527608E+00  0.27522073392E+02  0.51100000000E-03 0. -1.
        -11    1    4    4    0    0 -0.10413753216E+02  0.46745069162E+01  0.34217769896E+00  0.11419910542E+02  0.51100000000E-03 0.  1.
        -12    1    4    4    0    0 -0.67445351930E+01 -0.13756060991E+01 -0.21127620532E+01  0.72003340619E+01  0.00000000000E+00 0.  1.
</event>
<event>
 8    1  0.2962813E-009  0.9118800E+02  0.7816164E-02  0.1184000E+00
        -11   -1    0    0    0    0  0.00000000000E+00  0.00000000000E+00  0.45593999997E+02  0.45594000000E+02  0.51100000000E-03 0. -1.
         11   -1    0    0    0    0 -0.00000000000E+00 -0.00000000000E+00 -0.45593999997E+02  0.45594000000E+02  0.51100000000E-03 0.  1.
         23    2    1    2    0    0  0.17763568394E-14  0.00000000000E+00  0.00000000000E+00  0.91188000000E+02  0.91188000000E+02 0.  0.
    9900012    2    3    3    0    0 -0.10811727797E+02  0.17561108217E+02  0.40047815428E+02  0.46142317629E+02  0.99999987910E+01 0.  0.
        -12    1    3    3    0    0  0.10811727797E+02 -0.17561108217E+02 -0.40047815428E+02  0.45045682371E+02  0.00000000000E+00 0.  1.
         11    1    4    4    0    0 -0.37195079781E+01  0.78047447941E+01  0.18158717213E+02  0.20111881861E+02  0.51100000000E-03 0. -1.
        -11    1    4    4    0    0 -0.15641952427E+01 -0.21727515704E+00  0.28947473386E+00  0.16055251894E+01  0.51100000000E-03 0.  1.
        -12    1    4    4    0    0 -0.55280245762E+01  0.99736385800E+01  0.21599623481E+02  0.24424910579E+02  0.00000000000E+00 0.  1.
</event>
<event>
 8    1  0.2962813E-009  0.9118800E+02  0.7816164E-02  0.1184000E+00
        -11   -1    0    0    0    0  0.00000000000E+00  0.00000000000E+00  0.45593999997E+02  0.45594000000E+02  0.51100000000E-03 0. -1.
         11   -1    0    0    0    0 -0.00000000000E+00 -0.00000000000E+00 -0.45593999997E+02  0.45594000000E+02  0.51100000000E-03 0.  1.
         23    2    1    2    0    0  0.00000000000E+00  0.71054273576E-14  0.00000000000E+00  0.91188000000E+02  0.91188000000E+02 0.  0.
    9900012    2    3    3    0    0 -0.56534048236E+01 -0.38372549306E+02  0.22906329323E+02  0.46142318194E+02  0.10000003951E+02 0.  0.
        -12    1    3    3    0    0  0.56534048236E+01  0.38372549306E+02 -0.22906329323E+02  0.45045681806E+02  0.00000000000E+00 0.  1.
         11    1    4    4    0    0  0.74077328431E+00 -0.67966319100E+01  0.65129265413E+01  0.94425188786E+01  0.51100000000E-03 0. -1.
        -11    1    4    4    0    0 -0.31118262597E+01 -0.86514634424E+01  0.19251353952E+01  0.93934779989E+01  0.51100000000E-03 0.  1.
         12    1    4    4    0    0 -0.32823518482E+01 -0.22924453953E+02  0.14468267386E+02  0.27306321317E+02  0.00000000000E+00 0. -1.
</event>
<event>
 8    1  0.5123298E-009  0.9118800E+02  0.7816164E-02  0.1184000E+00
        -11   -1    0    0    0    0  0.00000000000E+00  0.00000000000E+00  0.45593999997E+02  0.45594000000E+02  0.51100000000E-03 0. -1.
         11   -1    0    0    0    0 -0.00000000000E+00 -0.00000000000E+00 -0.45593999997E+02  0.45594000000E+02  0.51100000000E-03 0.  1.
         23    2    1    2    0    0  0.00000000000E+00 -0.88817841970E-15  0.00000000000E+00  0.91188000000E+02  0.91188000000E+02 0.  0.
    9900012    2    3    3    0    0 -0.49420656751E+01 -0.61712014337E+01 -0.44346429321E+02  0.46142317257E+02  0.99999953995E+01 0.  0.
         12    1    3    3    0    0  0.49420656751E+01  0.61712014337E+01  0.44346429321E+02  0.45045682743E+02  0.00000000000E+00 0. -1.
         11    1    4    4    0    0 -0.45520719068E-01  0.17827928973E+01 -0.96760400781E+01  0.98390128826E+01  0.51100000000E-03 0. -1.
        -11    1    4    4    0    0 -0.17651840282E+01 -0.72394482602E+01 -0.21806059684E+02  0.23044082212E+02  0.51100000000E-03 0.  1.
        -12    1    4    4    0    0 -0.31313609278E+01 -0.71454607078E+00 -0.12864329559E+02  0.13259222162E+02  0.00000000000E+00 0.  1.
</event>
<event>
 8    1  0.2962813E-009  0.9118800E+02  0.7816164E-02  0.1184000E+00
        -11   -1    0    0    0    0  0.00000000000E+00  0.00000000000E+00  0.45593999997E+02  0.45594000000E+02  0.51100000000E-03 0. -1.
         11   -1    0    0    0    0 -0.00000000000E+00 -0.00000000000E+00 -0.45593999997E+02  0.45594000000E+02  0.51100000000E-03 0.  1.
         23    2    1    2    0    0  0.00000000000E+00  0.00000000000E+00  0.00000000000E+00  0.91188000000E+02  0.91188000000E+02 0.  0.
    9900012    2    3    3    0    0 -0.37277299982E+02  0.15780262104E+02 -0.19761067301E+02  0.46142317111E+02  0.99999940742E+01 0.  0.
         12    1    3    3    0    0  0.37277299982E+02 -0.15780262104E+02  0.19761067301E+02  0.45045682889E+02  0.00000000000E+00 0. -1.
         11    1    4    4    0    0 -0.36275475869E+01 -0.75389675090E+00 -0.21783520530E+01  0.42979855437E+01  0.51100000000E-03 0. -1.
        -11    1    4    4    0    0 -0.17947815801E+01  0.26977633185E+01 -0.14362987495E+01  0.35443084236E+01  0.51100000000E-03 0.  1.
         12    1    4    4    0    0 -0.31854970815E+02  0.13836395536E+02 -0.16146416498E+02  0.38300023144E+02  0.00000000000E+00 0. -1.
</event>
<event>
 8    1  0.2962813E-009  0.9118800E+02  0.7816164E-02  0.1184000E+00
        -11   -1    0    0    0    0  0.00000000000E+00  0.00000000000E+00  0.45593999997E+02  0.45594000000E+02  0.51100000000E-03 0.  1.
         11   -1    0    0    0    0 -0.00000000000E+00 -0.00000000000E+00 -0.45593999997E+02  0.45594000000E+02  0.51100000000E-03 0. -1.
         23    2    1    2    0    0  0.00000000000E+00  0.00000000000E+00  0.00000000000E+00  0.91188000000E+02  0.91188000000E+02 0.  0.
    9900012    2    3    3    0    0 -0.30249800474E+02 -0.33372471988E+02 -0.58423855610E+00  0.46142315967E+02  0.99999836410E+01 0.  0.
         12    1    3    3    0    0  0.30249800474E+02  0.33372471988E+02  0.58423855610E+00  0.45045684033E+02  0.00000000000E+00 0. -1.
         11    1    4    4    0    0 -0.47216907287E+01 -0.23901553912E+01  0.14229131094E+01  0.54801357748E+01  0.51100000000E-03 0. -1.
        -11    1    4    4    0    0 -0.15863383707E+02 -0.15617240567E+02  0.89948150724E+00  0.22279008344E+02  0.51100000000E-03 0.  1.
         12    1    4    4    0    0 -0.96647260383E+01 -0.15365076030E+02 -0.29066331727E+01  0.18383171848E+02  0.00000000000E+00 0. -1.
</event>
<event>
 8    1  0.2962813E-009  0.9118800E+02  0.7816164E-02  0.1184000E+00
        -11   -1    0    0    0    0  0.00000000000E+00  0.00000000000E+00  0.45593999997E+02  0.45594000000E+02  0.51100000000E-03 0.  1.
         11   -1    0    0    0    0 -0.00000000000E+00 -0.00000000000E+00 -0.45593999997E+02  0.45594000000E+02  0.51100000000E-03 0. -1.
         23    2    1    2    0    0  0.00000000000E+00  0.00000000000E+00  0.00000000000E+00  0.91188000000E+02  0.91188000000E+02 0.  0.
    9900012    2    3    3    0    0  0.38642926762E+02  0.21989327657E+02  0.72323694727E+01  0.46142317769E+02  0.10000000068E+02 0.  0.
         12    1    3    3    0    0 -0.38642926762E+02 -0.21989327657E+02 -0.72323694727E+01  0.45045682231E+02  0.00000000000E+00 0. -1.
         11    1    4    4    0    0  0.94823942850E+01  0.56328658279E+01 -0.22206706883E+00  0.11031513625E+02  0.51100000000E-03 0. -1.
        -11    1    4    4    0    0  0.13096084447E+02  0.32915381039E+01  0.16344829604E+01  0.13601955218E+02  0.51100000000E-03 0.  1.
        -12    1    4    4    0    0  0.16064448030E+02  0.13064923725E+02  0.58199535812E+01  0.21508848926E+02  0.00000000000E+00 0.  1.
</event>
<event>
 8    1  0.2962813E-009  0.9118800E+02  0.7816164E-02  0.1184000E+00
        -11   -1    0    0    0    0  0.00000000000E+00  0.00000000000E+00  0.45593999997E+02  0.45594000000E+02  0.51100000000E-03 0. -1.
         11   -1    0    0    0    0 -0.00000000000E+00 -0.00000000000E+00 -0.45593999997E+02  0.45594000000E+02  0.51100000000E-03 0.  1.
         23    2    1    2    0    0 -0.88817841970E-15 -0.17763568394E-14 -0.71054273576E-14  0.91188000000E+02  0.91188000000E+02 0.  0.
    9900012    2    3    3    0    0  0.43028659254E+01  0.14754084720E+02  0.42342837439E+02  0.46142317039E+02  0.99999934125E+01 0.  0.
        -12    1    3    3    0    0 -0.43028659254E+01 -0.14754084720E+02 -0.42342837439E+02  0.45045682961E+02  0.00000000000E+00 0.  1.
         11    1    4    4    0    0 -0.13281994882E+01  0.18002920801E-01  0.64086400640E+01  0.65448533762E+01  0.51100000000E-03 0. -1.
        -11    1    4    4    0    0 -0.10423607956E+01  0.19966541376E+01  0.47977518560E+01  0.53001478193E+01  0.51100000000E-03 0.  1.
         12    1    4    4    0    0  0.66734262092E+01  0.12739427661E+02  0.31136445519E+02  0.34297315843E+02  0.00000000000E+00 0. -1.
</event>
<event>
 8    1  0.2962813E-009  0.9118800E+02  0.7816164E-02  0.1184000E+00
        -11   -1    0    0    0    0  0.00000000000E+00  0.00000000000E+00  0.45593999997E+02  0.45594000000E+02  0.51100000000E-03 0. -1.
         11   -1    0    0    0    0 -0.00000000000E+00 -0.00000000000E+00 -0.45593999997E+02  0.45594000000E+02  0.51100000000E-03 0.  1.
         23    2    1    2    0    0  0.00000000000E+00  0.00000000000E+00  0.00000000000E+00  0.91188000000E+02  0.91188000000E+02 0.  0.
    9900012    2    3    3    0    0 -0.36223602363E+02 -0.26269918849E+02 -0.51822055047E+01  0.46142320314E+02  0.10000023277E+02 0.  0.
        -12    1    3    3    0    0  0.36223602363E+02  0.26269918849E+02  0.51822055047E+01  0.45045679686E+02  0.00000000000E+00 0.  1.
         11    1    4    4    0    0 -0.20700241626E+02 -0.12922137614E+02 -0.21403204118E+01  0.24496175530E+02  0.51100000000E-03 0. -1.
        -11    1    4    4    0    0 -0.34568888083E+01 -0.41354936920E+01  0.18462877335E+01  0.56974702251E+01  0.51100000000E-03 0.  1.
        -12    1    4    4    0    0 -0.12066471929E+02 -0.92122875426E+01 -0.48881728265E+01  0.15948674558E+02  0.00000000000E+00 0.  1.
</event>
<event>
 8    1  0.2962813E-009  0.9118800E+02  0.7816164E-02  0.1184000E+00
        -11   -1    0    0    0    0  0.00000000000E+00  0.00000000000E+00  0.45593999997E+02  0.45594000000E+02  0.51100000000E-03 0. -1.
         11   -1    0    0    0    0 -0.00000000000E+00 -0.00000000000E+00 -0.45593999997E+02  0.45594000000E+02  0.51100000000E-03 0.  1.
         23    2    1    2    0    0  0.00000000000E+00  0.00000000000E+00  0.00000000000E+00  0.91188000000E+02  0.91188000000E+02 0.  0.
    9900012    2    3    3    0    0 -0.18493503404E+01 -0.42766321106E+02 -0.14026231221E+02  0.46142317855E+02  0.10000000859E+02 0.  0.
         12    1    3    3    0    0  0.18493503404E+01  0.42766321106E+02  0.14026231221E+02  0.45045682145E+02  0.00000000000E+00 0. -1.
         11    1    4    4    0    0 -0.25807188155E+01 -0.13767774758E+02 -0.85520165411E+01  0.16411846897E+02  0.51100000000E-03 0. -1.
        -11    1    4    4    0    0 -0.44374370914E+00 -0.18577831107E+02 -0.20353586456E+01  0.18694261210E+02  0.51100000000E-03 0.  1.
        -12    1    4    4    0    0  0.11751121842E+01 -0.10420715241E+02 -0.34388560340E+01  0.11036209748E+02  0.00000000000E+00 0.  1.
</event>
<event>
 8    1  0.2962813E-009  0.9118800E+02  0.7816164E-02  0.1184000E+00
        -11   -1    0    0    0    0  0.00000000000E+00  0.00000000000E+00  0.45593999997E+02  0.45594000000E+02  0.51100000000E-03 0. -1.
         11   -1    0    0    0    0 -0.00000000000E+00 -0.00000000000E+00 -0.45593999997E+02  0.45594000000E+02  0.51100000000E-03 0.  1.
         23    2    1    2    0    0  0.22204460493E-15 -0.35527136788E-14 -0.71054273576E-14  0.91188000000E+02  0.91188000000E+02 0.  0.
    9900012    2    3    3    0    0  0.19566507264E+01 -0.31842073772E+02 -0.31802005844E+02  0.46142315191E+02  0.99999765656E+01 0.  0.
         12    1    3    3    0    0 -0.19566507264E+01  0.31842073772E+02  0.31802005844E+02  0.45045684809E+02  0.00000000000E+00 0. -1.
         11    1    4    4    0    0  0.85868557180E-01 -0.14504267757E+02 -0.19898743505E+02  0.24623995409E+02  0.51100000000E-03 0. -1.
        -11    1    4    4    0    0  0.10620073288E+01 -0.16275599457E+02 -0.11888544355E+02  0.20183173298E+02  0.51100000000E-03 0.  1.
        -12    1    4    4    0    0  0.80877484039E+00 -0.10622065577E+01 -0.14717984731E-01  0.13351464837E+01  0.00000000000E+00 0.  1.
</event>
<event>
 8    1  0.2962813E-009  0.9118800E+02  0.7816164E-02  0.1184000E+00
        -11   -1    0    0    0    0  0.00000000000E+00  0.00000000000E+00  0.45593999997E+02  0.45594000000E+02  0.51100000000E-03 0. -1.
         11   -1    0    0    0    0 -0.00000000000E+00 -0.00000000000E+00 -0.45593999997E+02  0.45594000000E+02  0.51100000000E-03 0.  1.
         23    2    1    2    0    0  0.00000000000E+00  0.00000000000E+00 -0.17763568394E-14  0.91188000000E+02  0.91188000000E+02 0.  0.
    9900012    2    3    3    0    0  0.27072221665E+02 -0.34728589338E+02  0.94938609871E+01  0.46142317635E+02  0.99999988513E+01 0.  0.
        -12    1    3    3    0    0 -0.27072221665E+02  0.34728589338E+02 -0.94938609871E+01  0.45045682365E+02  0.00000000000E+00 0.  1.
         11    1    4    4    0    0  0.77114140745E+01 -0.13166984571E+02  0.60361609671E+01  0.16409467669E+02  0.51100000000E-03 0. -1.
        -11    1    4    4    0    0  0.47081298022E+01 -0.29848293691E+01 -0.98053892880E+00  0.56601368755E+01  0.51100000000E-03 0.  1.
         12    1    4    4    0    0  0.14652677788E+02 -0.18576775398E+02  0.44382389488E+01  0.24072713090E+02  0.00000000000E+00 0. -1.
</event>
<event>
 8    1  0.2962813E-009  0.9118800E+02  0.7816164E-02  0.1184000E+00
        -11   -1    0    0    0    0  0.00000000000E+00  0.00000000000E+00  0.45593999997E+02  0.45594000000E+02  0.51100000000E-03 0. -1.
         11   -1    0    0    0    0 -0.00000000000E+00 -0.00000000000E+00 -0.45593999997E+02  0.45594000000E+02  0.51100000000E-03 0.  1.
         23    2    1    2    0    0  0.35527136788E-14  0.00000000000E+00 -0.35527136788E-14  0.91188000000E+02  0.91188000000E+02 0.  0.
    9900012    2    3    3    0    0 -0.23822670878E+02 -0.30613349704E+02  0.22900149854E+02  0.46142315510E+02  0.99999794725E+01 0.  0.
        -12    1    3    3    0    0  0.23822670878E+02  0.30613349704E+02 -0.22900149854E+02  0.45045684490E+02  0.00000000000E+00 0.  1.
         11    1    4    4    0    0 -0.65922143967E+01 -0.14769629452E+02  0.11023665075E+02  0.19573462564E+02  0.51100000000E-03 0. -1.
        -11    1    4    4    0    0 -0.89446238754E+01 -0.83009618273E+01  0.38861364878E+01  0.12806807588E+02  0.51100000000E-03 0.  1.
         12    1    4    4    0    0 -0.82858326061E+01 -0.75427584244E+01  0.79903482912E+01  0.13762045358E+02  0.00000000000E+00 0. -1.
</event>
<event>
 8    1  0.2962813E-009  0.9118800E+02  0.7816164E-02  0.1184000E+00
        -11   -1    0    0    0    0  0.00000000000E+00  0.00000000000E+00  0.45593999997E+02  0.45594000000E+02  0.51100000000E-03 0. -1.
         11   -1    0    0    0    0 -0.00000000000E+00 -0.00000000000E+00 -0.45593999997E+02  0.45594000000E+02  0.51100000000E-03 0.  1.
         23    2    1    2    0    0 -0.35527136788E-14  0.00000000000E+00  0.00000000000E+00  0.91188000000E+02  0.91188000000E+02 0.  0.
    9900012    2    3    3    0    0  0.22411768903E+02 -0.37231517351E+02 -0.11859165601E+02  0.46142322312E+02  0.10000041502E+02 0.  0.
         12    1    3    3    0    0 -0.22411768903E+02  0.37231517351E+02  0.11859165601E+02  0.45045677688E+02  0.00000000000E+00 0. -1.
         11    1    4    4    0    0  0.97438731919E+01 -0.23297482700E+02 -0.34424669564E+01  0.25486591454E+02  0.51100000000E-03 0. -1.
        -11    1    4    4    0    0  0.11585721204E+02 -0.13144363453E+02 -0.78951031550E+01  0.19218113343E+02  0.51100000000E-03 0.  1.
         12    1    4    4    0    0  0.10821745074E+01 -0.78967119824E+00 -0.52159548937E+00  0.14376175153E+01  0.00000000000E+00 0. -1.
</event>
<event>
 8    1  0.2962813E-009  0.9118800E+02  0.7816164E-02  0.1184000E+00
        -11   -1    0    0    0    0  0.00000000000E+00  0.00000000000E+00  0.45593999997E+02  0.45594000000E+02  0.51100000000E-03 0.  1.
         11   -1    0    0    0    0 -0.00000000000E+00 -0.00000000000E+00 -0.45593999997E+02  0.45594000000E+02  0.51100000000E-03 0. -1.
         23    2    1    2    0    0  0.00000000000E+00  0.00000000000E+00 -0.22204460493E-15  0.91188000000E+02  0.91188000000E+02 0.  0.
    9900012    2    3    3    0    0  0.15352620475E+02  0.42311467514E+02 -0.17748548496E+01  0.46142319315E+02  0.10000014173E+02 0.  0.
        -12    1    3    3    0    0 -0.15352620475E+02 -0.42311467514E+02  0.17748548496E+01  0.45045680685E+02  0.00000000000E+00 0.  1.
         11    1    4    4    0    0  0.39306681828E+00  0.13426737100E+01 -0.14065385981E+01  0.19838410482E+01  0.51100000000E-03 0. -1.
        -11    1    4    4    0    0  0.72166599934E+01  0.17232825194E+02  0.31443264662E+01  0.18945638939E+02  0.51100000000E-03 0.  1.
         12    1    4    4    0    0  0.77428936629E+01  0.23735968610E+02 -0.35126427177E+01  0.25212839328E+02  0.00000000000E+00 0. -1.
</event>
<event>
 8    1  0.2962813E-009  0.9118800E+02  0.7816164E-02  0.1184000E+00
        -11   -1    0    0    0    0  0.00000000000E+00  0.00000000000E+00  0.45593999997E+02  0.45594000000E+02  0.51100000000E-03 0. -1.
         11   -1    0    0    0    0 -0.00000000000E+00 -0.00000000000E+00 -0.45593999997E+02  0.45594000000E+02  0.51100000000E-03 0.  1.
         23    2    1    2    0    0 -0.17763568394E-14  0.00000000000E+00  0.71054273576E-14  0.91188000000E+02  0.91188000000E+02 0.  0.
    9900012    2    3    3    0    0  0.15560481818E+02 -0.21192854066E+02  0.36576602470E+02  0.46142317564E+02  0.99999982023E+01 0.  0.
        -12    1    3    3    0    0 -0.15560481818E+02  0.21192854066E+02 -0.36576602470E+02  0.45045682436E+02  0.00000000000E+00 0.  1.
         11    1    4    4    0    0  0.32038249579E+01 -0.54627705315E+01  0.14042432901E+02  0.15404423984E+02  0.51100000000E-03 0. -1.
        -11    1    4    4    0    0  0.72419344644E+00  0.36518205198E+00  0.20644493381E+01  0.22180544199E+01  0.51100000000E-03 0.  1.
         12    1    4    4    0    0  0.11632463414E+02 -0.16095265587E+02  0.20469720231E+02  0.28519839160E+02  0.00000000000E+00 0. -1.
</event>
<event>
 8    1  0.2962813E-009  0.9118800E+02  0.7816164E-02  0.1184000E+00
        -11   -1    0    0    0    0  0.00000000000E+00  0.00000000000E+00  0.45593999997E+02  0.45594000000E+02  0.51100000000E-03 0. -1.
         11   -1    0    0    0    0 -0.00000000000E+00 -0.00000000000E+00 -0.45593999997E+02  0.45594000000E+02  0.51100000000E-03 0.  1.
         23    2    1    2    0    0 -0.17763568394E-14  0.35527136788E-14 -0.71054273576E-14  0.91188000000E+02  0.91188000000E+02 0.  0.
    9900012    2    3    3    0    0  0.90605752796E+01 -0.19366366029E+02  0.39647992088E+02  0.46142318363E+02  0.10000005489E+02 0.  0.
        -12    1    3    3    0    0 -0.90605752796E+01  0.19366366029E+02 -0.39647992088E+02  0.45045681637E+02  0.00000000000E+00 0.  1.
         11    1    4    4    0    0  0.38822348100E+01 -0.67323882095E+01  0.17596345660E+02  0.19236116525E+02  0.51100000000E-03 0. -1.
        -11    1    4    4    0    0  0.34735039572E+00 -0.48632999241E+01  0.28793837138E+01  0.56624366912E+01  0.51100000000E-03 0.  1.
        -12    1    4    4    0    0  0.48309900739E+01 -0.77706778951E+01  0.19172262714E+02  0.21243765147E+02  0.00000000000E+00 0.  1.
</event>
<event>
 8    1  0.2962813E-009  0.9118800E+02  0.7816164E-02  0.1184000E+00
        -11   -1    0    0    0    0  0.00000000000E+00  0.00000000000E+00  0.45593999997E+02  0.45594000000E+02  0.51100000000E-03 0. -1.
         11   -1    0    0    0    0 -0.00000000000E+00 -0.00000000000E+00 -0.45593999997E+02  0.45594000000E+02  0.51100000000E-03 0.  1.
         23    2    1    2    0    0  0.00000000000E+00  0.00000000000E+00 -0.71054273576E-14  0.91188000000E+02  0.91188000000E+02 0.  0.
    9900012    2    3    3    0    0 -0.51162538181E+01  0.36237193365E+02 -0.26264106475E+02  0.46142317354E+02  0.99999962895E+01 0.  0.
         12    1    3    3    0    0  0.51162538181E+01 -0.36237193365E+02  0.26264106475E+02  0.45045682646E+02  0.00000000000E+00 0. -1.
         11    1    4    4    0    0 -0.71796927523E+01  0.21680016242E+02 -0.18777879668E+02  0.29566532724E+02  0.51100000000E-03 0. -1.
        -11    1    4    4    0    0  0.91142393923E+00  0.95524196914E+01 -0.41713785716E+01  0.10463260247E+02  0.51100000000E-03 0.  1.
         12    1    4    4    0    0  0.11520149950E+01  0.50047574319E+01 -0.33148482352E+01  0.61125243823E+01  0.00000000000E+00 0. -1.
</event>
<event>
 8    1  0.2962813E-009  0.9118800E+02  0.7816164E-02  0.1184000E+00
        -11   -1    0    0    0    0  0.00000000000E+00  0.00000000000E+00  0.45593999997E+02  0.45594000000E+02  0.51100000000E-03 0. -1.
         11   -1    0    0    0    0 -0.00000000000E+00 -0.00000000000E+00 -0.45593999997E+02  0.45594000000E+02  0.51100000000E-03 0.  1.
         23    2    1    2    0    0  0.35527136788E-14  0.35527136788E-14  0.71054273576E-14  0.91188000000E+02  0.91188000000E+02 0.  0.
    9900012    2    3    3    0    0  0.18436600074E+02  0.20430895356E+02  0.35662076349E+02  0.46142318776E+02  0.10000009258E+02 0.  0.
        -12    1    3    3    0    0 -0.18436600074E+02 -0.20430895356E+02 -0.35662076349E+02  0.45045681224E+02  0.00000000000E+00 0.  1.
         11    1    4    4    0    0  0.13560642917E+02  0.87020324086E+01  0.21576568707E+02  0.26928882669E+02  0.51100000000E-03 0. -1.
        -11    1    4    4    0    0  0.38302687742E+01  0.10019822622E+02  0.13236541348E+02  0.17037424435E+02  0.51100000000E-03 0.  1.
        -12    1    4    4    0    0  0.10456883830E+01  0.17090403262E+01  0.84896629423E+00  0.21760116727E+01  0.00000000000E+00 0.  1.
</event>
<event>
 8    1  0.2962813E-009  0.9118800E+02  0.7816164E-02  0.1184000E+00
        -11   -1    0    0    0    0  0.00000000000E+00  0.00000000000E+00  0.45593999997E+02  0.45594000000E+02  0.51100000000E-03 0. -1.
         11   -1    0    0    0    0 -0.00000000000E+00 -0.00000000000E+00 -0.45593999997E+02  0.45594000000E+02  0.51100000000E-03 0.  1.
         23    2    1    2    0    0 -0.22204460493E-15  0.71054273576E-14 -0.14210854715E-13  0.91188000000E+02  0.91188000000E+02 0.  0.
    9900012    2    3    3    0    0 -0.12609015112E+01  0.29483652099E+02 -0.34032899654E+02  0.46142313496E+02  0.99999611108E+01 0.  0.
         12    1    3    3    0    0  0.12609015112E+01 -0.29483652099E+02  0.34032899654E+02  0.45045686504E+02  0.00000000000E+00 0. -1.
         11    1    4    4    0    0 -0.19982586120E+00  0.98543253223E+01 -0.11766068704E+02  0.15348877189E+02  0.51100000000E-03 0.  1.
        -11    1    4    4    0    0  0.56200118339E-01  0.20064815807E+02 -0.21177284161E+02  0.29173230135E+02  0.51100000000E-03 0. -1.
         12    1    4    4    0    0 -0.11172757683E+01 -0.43548902998E+00 -0.10895467886E+01  0.16202061728E+01  0.00000000000E+00 0. -1.
</event>
<event>
 8    1  0.2962813E-009  0.9118800E+02  0.7816164E-02  0.1184000E+00
        -11   -1    0    0    0    0  0.00000000000E+00  0.00000000000E+00  0.45593999997E+02  0.45594000000E+02  0.51100000000E-03 0.  1.
         11   -1    0    0    0    0 -0.00000000000E+00 -0.00000000000E+00 -0.45593999997E+02  0.45594000000E+02  0.51100000000E-03 0. -1.
         23    2    1    2    0    0  0.71054273576E-14 -0.71054273576E-14 -0.88817841970E-15  0.91188000000E+02  0.91188000000E+02 0.  0.
    9900012    2    3    3    0    0  0.21769442297E+02 -0.38764092772E+02 -0.72491399099E+01  0.46142317234E+02  0.99999951972E+01 0.  0.
        -12    1    3    3    0    0 -0.21769442297E+02  0.38764092772E+02  0.72491399099E+01  0.45045682766E+02  0.00000000000E+00 0.  1.
         11    1    4    4    0    0  0.15071564176E+02 -0.27332715631E+02 -0.56343342529E+01  0.31717110732E+02  0.51100000000E-03 0. -1.
        -11    1    4    4    0    0  0.57700705787E+01 -0.52271743710E+01 -0.22907500959E+01  0.81157009957E+01  0.51100000000E-03 0.  1.
        -12    1    4    4    0    0  0.92780754241E+00 -0.62042027702E+01  0.67594443894E+00  0.63095055063E+01  0.00000000000E+00 0.  1.
</event>
<event>
 8    1  0.2962813E-009  0.9118800E+02  0.7816164E-02  0.1184000E+00
        -11   -1    0    0    0    0  0.00000000000E+00  0.00000000000E+00  0.45593999997E+02  0.45594000000E+02  0.51100000000E-03 0. -1.
         11   -1    0    0    0    0 -0.00000000000E+00 -0.00000000000E+00 -0.45593999997E+02  0.45594000000E+02  0.51100000000E-03 0.  1.
         23    2    1    2    0    0  0.71054273576E-14 -0.35527136788E-14  0.88817841970E-15  0.91188000000E+02  0.91188000000E+02 0.  0.
    9900012    2    3    3    0    0  0.35648070279E+02 -0.26833043452E+02 -0.61900204542E+01  0.46142317757E+02  0.99999999616E+01 0.  0.
         12    1    3    3    0    0 -0.35648070279E+02  0.26833043452E+02  0.61900204542E+01  0.45045682243E+02  0.00000000000E+00 0. -1.
         11    1    4    4    0    0  0.13204021615E+02 -0.66415925095E+01 -0.12990463913E+01  0.14837265909E+02  0.51100000000E-03 0. -1.
        -11    1    4    4    0    0  0.22068088888E+02 -0.20592086204E+02 -0.52667725417E+01  0.30639410155E+02  0.51100000000E-03 0.  1.
        -12    1    4    4    0    0  0.37595977593E+00  0.40063526142E+00  0.37579847878E+00  0.66564169225E+00  0.00000000000E+00 0.  1.
</event>
<event>
 8    1  0.2962813E-009  0.9118800E+02  0.7816164E-02  0.1184000E+00
        -11   -1    0    0    0    0  0.00000000000E+00  0.00000000000E+00  0.45593999997E+02  0.45594000000E+02  0.51100000000E-03 0. -1.
         11   -1    0    0    0    0 -0.00000000000E+00 -0.00000000000E+00 -0.45593999997E+02  0.45594000000E+02  0.51100000000E-03 0.  1.
         23    2    1    2    0    0  0.00000000000E+00  0.00000000000E+00  0.00000000000E+00  0.91188000000E+02  0.91188000000E+02 0.  0.
    9900012    2    3    3    0    0 -0.23397718554E+02  0.63637333829E+01  0.37962654528E+02  0.46142317911E+02  0.10000001365E+02 0.  0.
        -12    1    3    3    0    0  0.23397718554E+02 -0.63637333829E+01 -0.37962654528E+02  0.45045682089E+02  0.00000000000E+00 0.  1.
         11    1    4    4    0    0 -0.32545322242E+01  0.38119485417E+01  0.11368375014E+02  0.12424285991E+02  0.51100000000E-03 0.  1.
        -11    1    4    4    0    0 -0.12081735612E+02  0.24292859473E+01  0.13000535616E+02  0.17913226738E+02  0.51100000000E-03 0. -1.
        -12    1    4    4    0    0 -0.80614507182E+01  0.12249889391E+00  0.13593743898E+02  0.15804805182E+02  0.00000000000E+00 0.  1.
</event>
<event>
 8    1  0.2962813E-009  0.9118800E+02  0.7816164E-02  0.1184000E+00
        -11   -1    0    0    0    0  0.00000000000E+00  0.00000000000E+00  0.45593999997E+02  0.45594000000E+02  0.51100000000E-03 0. -1.
         11   -1    0    0    0    0 -0.00000000000E+00 -0.00000000000E+00 -0.45593999997E+02  0.45594000000E+02  0.51100000000E-03 0.  1.
         23    2    1    2    0    0  0.17763568394E-14  0.00000000000E+00  0.00000000000E+00  0.91188000000E+02  0.91188000000E+02 0.  0.
    9900012    2    3    3    0    0 -0.12828886994E+02 -0.15723578715E+02  0.40215696734E+02  0.46142317267E+02  0.99999954924E+01 0.  0.
        -12    1    3    3    0    0  0.12828886994E+02  0.15723578715E+02 -0.40215696734E+02  0.45045682733E+02  0.00000000000E+00 0.  1.
         11    1    4    4    0    0  0.94706951869E+00 -0.15248578415E+01  0.18080416523E+01  0.25477729466E+01  0.51100000000E-03 0. -1.
        -11    1    4    4    0    0 -0.49318132355E+01 -0.59351155995E+01  0.93925919738E+01  0.12156034025E+02  0.51100000000E-03 0.  1.
         12    1    4    4    0    0 -0.88441432772E+01 -0.82636052740E+01  0.29015063108E+02  0.31438510295E+02  0.00000000000E+00 0. -1.
</event>
<event>
 8    1  0.2962813E-009  0.9118800E+02  0.7816164E-02  0.1184000E+00
        -11   -1    0    0    0    0  0.00000000000E+00  0.00000000000E+00  0.45593999997E+02  0.45594000000E+02  0.51100000000E-03 0.  1.
         11   -1    0    0    0    0 -0.00000000000E+00 -0.00000000000E+00 -0.45593999997E+02  0.45594000000E+02  0.51100000000E-03 0. -1.
         23    2    1    2    0    0  0.00000000000E+00  0.00000000000E+00  0.35527136788E-14  0.91188000000E+02  0.91188000000E+02 0.  0.
    9900012    2    3    3    0    0 -0.16091143265E+02 -0.35660479073E+02  0.22327535719E+02  0.46142317514E+02  0.99999977477E+01 0.  0.
        -12    1    3    3    0    0  0.16091143265E+02  0.35660479073E+02 -0.22327535719E+02  0.45045682486E+02  0.00000000000E+00 0.  1.
         11    1    4    4    0    0 -0.90131074159E+00 -0.60540544730E+00  0.29342287475E+01  0.31286699111E+01  0.51100000000E-03 0. -1.
        -11    1    4    4    0    0 -0.59327955907E+00 -0.26189294599E+01  0.47707092757E+00  0.27273373613E+01  0.51100000000E-03 0.  1.
         12    1    4    4    0    0 -0.14596552965E+02 -0.32436144166E+02  0.18916236044E+02  0.40286310242E+02  0.00000000000E+00 0. -1.
</event>
<event>
 8    1  0.2962813E-009  0.9118800E+02  0.7816164E-02  0.1184000E+00
        -11   -1    0    0    0    0  0.00000000000E+00  0.00000000000E+00  0.45593999997E+02  0.45594000000E+02  0.51100000000E-03 0. -1.
         11   -1    0    0    0    0 -0.00000000000E+00 -0.00000000000E+00 -0.45593999997E+02  0.45594000000E+02  0.51100000000E-03 0.  1.
         23    2    1    2    0    0  0.00000000000E+00  0.00000000000E+00  0.00000000000E+00  0.91188000000E+02  0.91188000000E+02 0.  0.
    9900012    2    3    3    0    0  0.15501170366E+02 -0.22265213098E+02  0.35959525713E+02  0.46142317782E+02  0.10000000189E+02 0.  0.
        -12    1    3    3    0    0 -0.15501170366E+02  0.22265213098E+02 -0.35959525713E+02  0.45045682218E+02  0.00000000000E+00 0.  1.
         11    1    4    4    0    0  0.15353145348E+01 -0.77942562251E+00  0.24804408294E+01  0.30194837292E+01  0.51100000000E-03 0. -1.
        -11    1    4    4    0    0  0.12417833339E+02 -0.11028551348E+02  0.20374813782E+02  0.26286204872E+02  0.51100000000E-03 0.  1.
        -12    1    4    4    0    0  0.15480224923E+01 -0.10457236128E+02  0.13104271101E+02  0.16836629180E+02  0.00000000000E+00 0.  1.
</event>
<event>
 8    1  0.2962813E-009  0.9118800E+02  0.7816164E-02  0.1184000E+00
        -11   -1    0    0    0    0  0.00000000000E+00  0.00000000000E+00  0.45593999997E+02  0.45594000000E+02  0.51100000000E-03 0. -1.
         11   -1    0    0    0    0 -0.00000000000E+00 -0.00000000000E+00 -0.45593999997E+02  0.45594000000E+02  0.51100000000E-03 0.  1.
         23    2    1    2    0    0 -0.33306690739E-15 -0.17763568394E-14  0.00000000000E+00  0.91188000000E+02  0.91188000000E+02 0.  0.
    9900012    2    3    3    0    0 -0.63734894050E+00  0.13469068564E+02  0.42980129078E+02  0.46142317441E+02  0.99999970818E+01 0.  0.
        -12    1    3    3    0    0  0.63734894050E+00 -0.13469068564E+02 -0.42980129078E+02  0.45045682559E+02  0.00000000000E+00 0.  1.
         11    1    4    4    0    0  0.33747248006E+01  0.27438781748E+01  0.98197367583E+01  0.10739872680E+02  0.51100000000E-03 0. -1.
        -11    1    4    4    0    0 -0.44728317278E+01  0.74571331637E+01  0.27588360062E+02  0.28926331774E+02  0.51100000000E-03 0.  1.
        -12    1    4    4    0    0  0.46075798673E+00  0.32680572260E+01  0.55720322571E+01  0.64761129877E+01  0.00000000000E+00 0.  1.
</event>
<event>
 8    1  0.2962813E-009  0.9118800E+02  0.7816164E-02  0.1184000E+00
        -11   -1    0    0    0    0  0.00000000000E+00  0.00000000000E+00  0.45593999997E+02  0.45594000000E+02  0.51100000000E-03 0. -1.
         11   -1    0    0    0    0 -0.00000000000E+00 -0.00000000000E+00 -0.45593999997E+02  0.45594000000E+02  0.51100000000E-03 0.  1.
         23    2    1    2    0    0  0.00000000000E+00 -0.88817841970E-15  0.00000000000E+00  0.91188000000E+02  0.91188000000E+02 0.  0.
    9900012    2    3    3    0    0 -0.22437949454E+02  0.78791467329E+01 -0.38256647091E+02  0.46142316793E+02  0.99999911753E+01 0.  0.
         12    1    3    3    0    0  0.22437949454E+02 -0.78791467329E+01  0.38256647091E+02  0.45045683207E+02  0.00000000000E+00 0. -1.
         11    1    4    4    0    0 -0.42785516524E+00  0.13684032986E+01 -0.68330337057E+01  0.69818290952E+01  0.51100000000E-03 0. -1.
        -11    1    4    4    0    0 -0.10426726143E+02  0.88128125098E+00 -0.13171193086E+02  0.16821819232E+02  0.51100000000E-03 0.  1.
        -12    1    4    4    0    0 -0.11583368145E+02  0.56294621833E+01 -0.18252420299E+02  0.22338668466E+02  0.00000000000E+00 0.  1.
</event>
<event>
 8    1  0.3080847E-009  0.9118800E+02  0.7816164E-02  0.1184000E+00
        -11   -1    0    0    0    0  0.00000000000E+00  0.00000000000E+00  0.45593999997E+02  0.45594000000E+02  0.51100000000E-03 0. -1.
         11   -1    0    0    0    0 -0.00000000000E+00 -0.00000000000E+00 -0.45593999997E+02  0.45594000000E+02  0.51100000000E-03 0.  1.
         23    2    1    2    0    0  0.17763568394E-14 -0.44408920985E-15  0.00000000000E+00  0.91188000000E+02  0.91188000000E+02 0.  0.
    9900012    2    3    3    0    0 -0.66252993517E+01 -0.26051216128E+01 -0.44479571302E+02  0.46142317484E+02  0.99999974718E+01 0.  0.
         12    1    3    3    0    0  0.66252993517E+01  0.26051216128E+01  0.44479571302E+02  0.45045682516E+02  0.00000000000E+00 0. -1.
         11    1    4    4    0    0 -0.24254648912E+01  0.16806409898E+01 -0.74522300970E+01  0.80151835759E+01  0.51100000000E-03 0. -1.
        -11    1    4    4    0    0  0.20490197509E-01 -0.48260197463E+01 -0.20594868913E+02  0.21152766066E+02  0.51100000000E-03 0.  1.
        -12    1    4    4    0    0 -0.42203246581E+01  0.54025714359E+00 -0.16432472292E+02  0.16974367842E+02  0.00000000000E+00 0.  1.
</event>
<event>
 8    1  0.2962813E-009  0.9118800E+02  0.7816164E-02  0.1184000E+00
        -11   -1    0    0    0    0  0.00000000000E+00  0.00000000000E+00  0.45593999997E+02  0.45594000000E+02  0.51100000000E-03 0. -1.
         11   -1    0    0    0    0 -0.00000000000E+00 -0.00000000000E+00 -0.45593999997E+02  0.45594000000E+02  0.51100000000E-03 0.  1.
         23    2    1    2    0    0  0.00000000000E+00  0.00000000000E+00  0.00000000000E+00  0.91188000000E+02  0.91188000000E+02 0.  0.
    9900012    2    3    3    0    0  0.39458483279E+02 -0.89098476935E+01  0.19818077791E+02  0.46142317677E+02  0.99999992314E+01 0.  0.
        -12    1    3    3    0    0 -0.39458483279E+02  0.89098476935E+01 -0.19818077791E+02  0.45045682323E+02  0.00000000000E+00 0.  1.
         11    1    4    4    0    0  0.23064141363E+02 -0.89447513433E+00  0.87580955474E+01  0.24687222210E+02  0.51100000000E-03 0. -1.
        -11    1    4    4    0    0  0.49949852747E+01 -0.35982762788E+01  0.35099060005E+01  0.70863890993E+01  0.51100000000E-03 0.  1.
         12    1    4    4    0    0  0.11399356642E+02 -0.44170962804E+01  0.75500762429E+01  0.14368706367E+02  0.00000000000E+00 0. -1.
</event>
<event>
 8    1  0.3704381E-009  0.9118800E+02  0.7816164E-02  0.1184000E+00
        -11   -1    0    0    0    0  0.00000000000E+00  0.00000000000E+00  0.45593999997E+02  0.45594000000E+02  0.51100000000E-03 0. -1.
         11   -1    0    0    0    0 -0.00000000000E+00 -0.00000000000E+00 -0.45593999997E+02  0.45594000000E+02  0.51100000000E-03 0.  1.
         23    2    1    2    0    0  0.00000000000E+00  0.00000000000E+00  0.00000000000E+00  0.91188000000E+02  0.91188000000E+02 0.  0.
    9900012    2    3    3    0    0  0.48034046495E+01  0.11435474069E+02 -0.43304396183E+02  0.46142317718E+02  0.99999996097E+01 0.  0.
         12    1    3    3    0    0 -0.48034046495E+01 -0.11435474069E+02  0.43304396183E+02  0.45045682282E+02  0.00000000000E+00 0. -1.
         11    1    4    4    0    0 -0.87351034079E+00 -0.99615925938E+00 -0.53024294370E+01  0.54654470797E+01  0.51100000000E-03 0. -1.
        -11    1    4    4    0    0  0.32104010405E+01  0.50974300911E+01 -0.10482196664E+02  0.12089951015E+02  0.51100000000E-03 0.  1.
        -12    1    4    4    0    0  0.24665139498E+01  0.73342032378E+01 -0.27519770083E+02  0.28586919624E+02  0.00000000000E+00 0.  1.
</event>
<event>
 8    1  0.2962813E-009  0.9118800E+02  0.7816164E-02  0.1184000E+00
        -11   -1    0    0    0    0  0.00000000000E+00  0.00000000000E+00  0.45593999997E+02  0.45594000000E+02  0.51100000000E-03 0. -1.
         11   -1    0    0    0    0 -0.00000000000E+00 -0.00000000000E+00 -0.45593999997E+02  0.45594000000E+02  0.51100000000E-03 0.  1.
         23    2    1    2    0    0  0.00000000000E+00  0.00000000000E+00  0.00000000000E+00  0.91188000000E+02  0.91188000000E+02 0.  0.
    9900012    2    3    3    0    0  0.29382851263E+02  0.19006196394E+02  0.28364167358E+02  0.46142318302E+02  0.10000004935E+02 0.  0.
        -12    1    3    3    0    0 -0.29382851263E+02 -0.19006196394E+02 -0.28364167358E+02  0.45045681698E+02  0.00000000000E+00 0.  1.
         11    1    4    4    0    0  0.12167071206E+02  0.68714089899E+01  0.96784183248E+01  0.16997813529E+02  0.51100000000E-03 0. -1.
        -11    1    4    4    0    0  0.39118559020E+01 -0.77333966115E-01  0.14273034581E+01  0.41648280352E+01  0.51100000000E-03 0.  1.
        -12    1    4    4    0    0  0.13303924156E+02  0.12212121370E+02  0.17258445575E+02  0.24979676738E+02  0.00000000000E+00 0.  1.
</event>
<event>
 8    1  0.2962813E-009  0.9118800E+02  0.7816164E-02  0.1184000E+00
        -11   -1    0    0    0    0  0.00000000000E+00  0.00000000000E+00  0.45593999997E+02  0.45594000000E+02  0.51100000000E-03 0. -1.
         11   -1    0    0    0    0 -0.00000000000E+00 -0.00000000000E+00 -0.45593999997E+02  0.45594000000E+02  0.51100000000E-03 0.  1.
         23    2    1    2    0    0  0.00000000000E+00  0.00000000000E+00  0.00000000000E+00  0.91188000000E+02  0.91188000000E+02 0.  0.
    9900012    2    3    3    0    0 -0.23544380364E+02 -0.38346684079E+02 -0.20754249198E+01  0.46142318574E+02  0.10000007411E+02 0.  0.
         12    1    3    3    0    0  0.23544380364E+02  0.38346684079E+02  0.20754249198E+01  0.45045681426E+02  0.00000000000E+00 0. -1.
         11    1    4    4    0    0 -0.58910814431E+01 -0.59733908224E+01  0.27809342626E+01  0.88385425337E+01  0.51100000000E-03 0. -1.
        -11    1    4    4    0    0 -0.11188568823E+02 -0.17887683757E+02 -0.34497321355E+01  0.21378820233E+02  0.51100000000E-03 0.  1.
        -12    1    4    4    0    0 -0.64647300976E+01 -0.14485609499E+02 -0.14066270469E+01  0.15924955807E+02  0.00000000000E+00 0.  1.
</event>
<event>
 8    1  0.2962813E-009  0.9118800E+02  0.7816164E-02  0.1184000E+00
        -11   -1    0    0    0    0  0.00000000000E+00  0.00000000000E+00  0.45593999997E+02  0.45594000000E+02  0.51100000000E-03 0.  1.
         11   -1    0    0    0    0 -0.00000000000E+00 -0.00000000000E+00 -0.45593999997E+02  0.45594000000E+02  0.51100000000E-03 0. -1.
         23    2    1    2    0    0  0.00000000000E+00  0.00000000000E+00  0.44408920985E-15  0.91188000000E+02  0.91188000000E+02 0.  0.
    9900012    2    3    3    0    0 -0.34802502579E+02  0.28406917378E+02  0.33084983913E+01  0.46142319826E+02  0.10000018833E+02 0.  0.
        -12    1    3    3    0    0  0.34802502579E+02 -0.28406917378E+02 -0.33084983913E+01  0.45045680174E+02  0.00000000000E+00 0.  1.
         11    1    4    4    0    0 -0.22862816182E+02  0.19774756267E+02  0.10683674360E+01  0.30247161163E+02  0.51100000000E-03 0. -1.
        -11    1    4    4    0    0 -0.46238501780E+01  0.93871605764E+00 -0.94345288809E+00  0.48115779032E+01  0.51100000000E-03 0.  1.
        -12    1    4    4    0    0 -0.73158362194E+01  0.76934450537E+01  0.31835838434E+01  0.11083580760E+02  0.00000000000E+00 0.  1.
</event>
<event>
 8    1  0.2962813E-009  0.9118800E+02  0.7816164E-02  0.1184000E+00
        -11   -1    0    0    0    0  0.00000000000E+00  0.00000000000E+00  0.45593999997E+02  0.45594000000E+02  0.51100000000E-03 0. -1.
         11   -1    0    0    0    0 -0.00000000000E+00 -0.00000000000E+00 -0.45593999997E+02  0.45594000000E+02  0.51100000000E-03 0.  1.
         23    2    1    2    0    0  0.00000000000E+00  0.35527136788E-14  0.00000000000E+00  0.91188000000E+02  0.91188000000E+02 0.  0.
    9900012    2    3    3    0    0 -0.34878628899E+02  0.22946245735E+02  0.16913439485E+02  0.46142318937E+02  0.10000010722E+02 0.  0.
        -12    1    3    3    0    0  0.34878628899E+02 -0.22946245735E+02 -0.16913439485E+02  0.45045681063E+02  0.00000000000E+00 0.  1.
         11    1    4    4    0    0 -0.14017741778E+02  0.89309399805E+01  0.69568861499E+01  0.18018241830E+02  0.51100000000E-03 0. -1.
        -11    1    4    4    0    0 -0.21127686407E+02  0.12178290754E+02  0.97231139408E+01  0.26253168258E+02  0.51100000000E-03 0.  1.
        -12    1    4    4    0    0  0.26679928592E+00  0.18370149999E+01  0.23343939449E+00  0.18709088486E+01  0.00000000000E+00 0.  1.
</event>
<event>
 8    1  0.2962813E-009  0.9118800E+02  0.7816164E-02  0.1184000E+00
        -11   -1    0    0    0    0  0.00000000000E+00  0.00000000000E+00  0.45593999997E+02  0.45594000000E+02  0.51100000000E-03 0. -1.
         11   -1    0    0    0    0 -0.00000000000E+00 -0.00000000000E+00 -0.45593999997E+02  0.45594000000E+02  0.51100000000E-03 0.  1.
         23    2    1    2    0    0  0.17763568394E-14 -0.35527136788E-14  0.00000000000E+00  0.91188000000E+02  0.91188000000E+02 0.  0.
    9900012    2    3    3    0    0  0.90171302962E+01  0.27214782857E+02  0.34744214197E+02  0.46142318022E+02  0.10000002377E+02 0.  0.
        -12    1    3    3    0    0 -0.90171302962E+01 -0.27214782857E+02 -0.34744214197E+02  0.45045681978E+02  0.00000000000E+00 0.  1.
         11    1    4    4    0    0  0.90255114290E+00  0.33225252970E+01  0.79122769516E+01  0.86288991033E+01  0.51100000000E-03 0. -1.
        -11    1    4    4    0    0 -0.47934148649E+00  0.90689006055E+01  0.91819403697E+01  0.12914439812E+02  0.51100000000E-03 0.  1.
        -12    1    4    4    0    0  0.85939206398E+01  0.14823356954E+02  0.17649996876E+02  0.24598979106E+02  0.00000000000E+00 0.  1.
</event>
<event>
 8    1  0.2962813E-009  0.9118800E+02  0.7816164E-02  0.1184000E+00
        -11   -1    0    0    0    0  0.00000000000E+00  0.00000000000E+00  0.45593999997E+02  0.45594000000E+02  0.51100000000E-03 0. -1.
         11   -1    0    0    0    0 -0.00000000000E+00 -0.00000000000E+00 -0.45593999997E+02  0.45594000000E+02  0.51100000000E-03 0.  1.
         23    2    1    2    0    0  0.00000000000E+00  0.00000000000E+00  0.00000000000E+00  0.91188000000E+02  0.91188000000E+02 0.  0.
    9900012    2    3    3    0    0  0.20563741286E+02  0.43313388082E+01  0.39843262259E+02  0.46142317643E+02  0.99999989273E+01 0.  0.
        -12    1    3    3    0    0 -0.20563741286E+02 -0.43313388082E+01 -0.39843262259E+02  0.45045682357E+02  0.00000000000E+00 0.  1.
         11    1    4    4    0    0 -0.33703186563E+00  0.15977276323E+01  0.14709321585E+01  0.21977183035E+01  0.51100000000E-03 0. -1.
        -11    1    4    4    0    0  0.15920824830E+02  0.45379750160E+00  0.29205688866E+02  0.33266362258E+02  0.51100000000E-03 0.  1.
         12    1    4    4    0    0  0.49799483216E+01  0.22798136742E+01  0.91666412341E+01  0.10678237082E+02  0.00000000000E+00 0. -1.
</event>
<event>
 8    1  0.2962813E-009  0.9118800E+02  0.7816164E-02  0.1184000E+00
        -11   -1    0    0    0    0  0.00000000000E+00  0.00000000000E+00  0.45593999997E+02  0.45594000000E+02  0.51100000000E-03 0. -1.
         11   -1    0    0    0    0 -0.00000000000E+00 -0.00000000000E+00 -0.45593999997E+02  0.45594000000E+02  0.51100000000E-03 0.  1.
         23    2    1    2    0    0  0.00000000000E+00  0.35527136788E-14 -0.71054273576E-14  0.91188000000E+02  0.91188000000E+02 0.  0.
    9900012    2    3    3    0    0  0.19370185032E+02  0.25150205228E+02 -0.31958981009E+02  0.46142319205E+02  0.10000013166E+02 0.  0.
         12    1    3    3    0    0 -0.19370185032E+02 -0.25150205228E+02  0.31958981009E+02  0.45045680795E+02  0.00000000000E+00 0. -1.
         11    1    4    4    0    0  0.11541620053E+02  0.14939432296E+02 -0.17744435185E+02  0.25908697595E+02  0.51100000000E-03 0. -1.
        -11    1    4    4    0    0  0.46434190039E+01  0.19045385604E+01 -0.27513635447E+01  0.57235136752E+01  0.51100000000E-03 0.  1.
        -12    1    4    4    0    0  0.31851459756E+01  0.83062343714E+01 -0.11463182279E+02  0.14510107935E+02  0.00000000000E+00 0.  1.
</event>
<event>
 8    1  0.2962813E-009  0.9118800E+02  0.7816164E-02  0.1184000E+00
        -11   -1    0    0    0    0  0.00000000000E+00  0.00000000000E+00  0.45593999997E+02  0.45594000000E+02  0.51100000000E-03 0.  1.
         11   -1    0    0    0    0 -0.00000000000E+00 -0.00000000000E+00 -0.45593999997E+02  0.45594000000E+02  0.51100000000E-03 0. -1.
         23    2    1    2    0    0  0.00000000000E+00  0.00000000000E+00 -0.44408920985E-15  0.91188000000E+02  0.91188000000E+02 0.  0.
    9900012    2    3    3    0    0  0.43437919061E+02 -0.11443921460E+02  0.33611561566E+01  0.46142317394E+02  0.99999966552E+01 0.  0.
         12    1    3    3    0    0 -0.43437919061E+02  0.11443921460E+02 -0.33611561566E+01  0.45045682606E+02  0.00000000000E+00 0. -1.
         11    1    4    4    0    0  0.53771648847E+01 -0.28319092607E+01 -0.10057340961E-01  0.60773113849E+01  0.51100000000E-03 0. -1.
        -11    1    4    4    0    0  0.32966075890E+00 -0.12725823459E+01  0.80425321073E+00  0.15410923176E+01  0.51100000000E-03 0.  1.
        -12    1    4    4    0    0  0.37731093417E+02 -0.73394298532E+01  0.25669602868E+01  0.38523913692E+02  0.00000000000E+00 0.  1.
</event>
<event>
 8    1  0.2962813E-009  0.9118800E+02  0.7816164E-02  0.1184000E+00
        -11   -1    0    0    0    0  0.00000000000E+00  0.00000000000E+00  0.45593999997E+02  0.45594000000E+02  0.51100000000E-03 0. -1.
         11   -1    0    0    0    0 -0.00000000000E+00 -0.00000000000E+00 -0.45593999997E+02  0.45594000000E+02  0.51100000000E-03 0.  1.
         23    2    1    2    0    0 -0.71054273576E-14  0.00000000000E+00  0.35527136788E-14  0.91188000000E+02  0.91188000000E+02 0.  0.
    9900012    2    3    3    0    0  0.37826510235E+02  0.15075683305E+02 -0.19261161403E+02  0.46142318273E+02  0.10000004665E+02 0.  0.
         12    1    3    3    0    0 -0.37826510235E+02 -0.15075683305E+02  0.19261161403E+02  0.45045681727E+02  0.00000000000E+00 0. -1.
         11    1    4    4    0    0  0.16411542004E+02  0.95239915088E+01 -0.60059819552E+01  0.19902686872E+02  0.51100000000E-03 0. -1.
        -11    1    4    4    0    0  0.20147872717E+02  0.44809424891E+01 -0.13344556561E+02  0.24578299589E+02  0.51100000000E-03 0.  1.
        -12    1    4    4    0    0  0.12670955135E+01  0.10707493073E+01  0.89377113071E-01  0.16613318114E+01  0.00000000000E+00 0.  1.
</event>
<event>
 8    1  0.2962813E-009  0.9118800E+02  0.7816164E-02  0.1184000E+00
        -11   -1    0    0    0    0  0.00000000000E+00  0.00000000000E+00  0.45593999997E+02  0.45594000000E+02  0.51100000000E-03 0. -1.
         11   -1    0    0    0    0 -0.00000000000E+00 -0.00000000000E+00 -0.45593999997E+02  0.45594000000E+02  0.51100000000E-03 0.  1.
         23    2    1    2    0    0  0.00000000000E+00  0.00000000000E+00  0.00000000000E+00  0.91188000000E+02  0.91188000000E+02 0.  0.
    9900012    2    3    3    0    0  0.19810285012E+02  0.16532694399E+02 -0.36923378933E+02  0.46142319984E+02  0.10000020266E+02 0.  0.
         12    1    3    3    0    0 -0.19810285012E+02 -0.16532694399E+02  0.36923378933E+02  0.45045680016E+02  0.00000000000E+00 0. -1.
         11    1    4    4    0    0  0.50116039044E+01  0.12100546785E+01 -0.35774646748E+01  0.62752418105E+01  0.51100000000E-03 0. -1.
        -11    1    4    4    0    0  0.28394985268E+01  0.78602354472E+00 -0.34298698537E+01  0.45215696800E+01  0.51100000000E-03 0.  1.
         12    1    4    4    0    0  0.11959182581E+02  0.14536616176E+02 -0.29916044404E+02  0.35345508493E+02  0.00000000000E+00 0. -1.
</event>
<event>
 8    1  0.4363667E-009  0.9118800E+02  0.7816164E-02  0.1184000E+00
        -11   -1    0    0    0    0  0.00000000000E+00  0.00000000000E+00  0.45593999997E+02  0.45594000000E+02  0.51100000000E-03 0. -1.
         11   -1    0    0    0    0 -0.00000000000E+00 -0.00000000000E+00 -0.45593999997E+02  0.45594000000E+02  0.51100000000E-03 0.  1.
         23    2    1    2    0    0  0.00000000000E+00 -0.17763568394E-14  0.71054273576E-14  0.91188000000E+02  0.91188000000E+02 0.  0.
    9900012    2    3    3    0    0  0.17082776262E+02  0.14629101931E+02 -0.39029240972E+02  0.46142317422E+02  0.99999969036E+01 0.  0.
         12    1    3    3    0    0 -0.17082776262E+02 -0.14629101931E+02  0.39029240972E+02  0.45045682578E+02  0.00000000000E+00 0. -1.
         11    1    4    4    0    0  0.90664001873E+00 -0.28970617324E+00 -0.19928504759E+01  0.22084789043E+01  0.51100000000E-03 0. -1.
        -11    1    4    4    0    0  0.24272878392E+01  0.44474407829E+01 -0.33534731054E+01  0.60759557192E+01  0.51100000000E-03 0.  1.
        -12    1    4    4    0    0  0.13748848404E+02  0.10471367322E+02 -0.33682917390E+02  0.37857882798E+02  0.00000000000E+00 0.  1.
</event>
<event>
 8    1  0.2962813E-009  0.9118800E+02  0.7816164E-02  0.1184000E+00
        -11   -1    0    0    0    0  0.00000000000E+00  0.00000000000E+00  0.45593999997E+02  0.45594000000E+02  0.51100000000E-03 0. -1.
         11   -1    0    0    0    0 -0.00000000000E+00 -0.00000000000E+00 -0.45593999997E+02  0.45594000000E+02  0.51100000000E-03 0.  1.
         23    2    1    2    0    0 -0.71054273576E-14  0.35527136788E-14  0.00000000000E+00  0.91188000000E+02  0.91188000000E+02 0.  0.
    9900012    2    3    3    0    0  0.28304686879E+02 -0.25637763923E+02 -0.23888559327E+02  0.46142317577E+02  0.99999983177E+01 0.  0.
         12    1    3    3    0    0 -0.28304686879E+02  0.25637763923E+02  0.23888559327E+02  0.45045682423E+02  0.00000000000E+00 0. -1.
         11    1    4    4    0    0  0.37211195401E+00  0.18613153214E+00 -0.17420333044E+01  0.17910311411E+01  0.51100000000E-03 0. -1.
        -11    1    4    4    0    0  0.20916197057E+02 -0.19616405823E+02 -0.13883685384E+02  0.31859808487E+02  0.51100000000E-03 0.  1.
         12    1    4    4    0    0  0.70163778683E+01 -0.62074896318E+01 -0.82628406385E+01  0.12491477948E+02  0.00000000000E+00 0. -1.
</event>
<event>
 8    1  0.3381971E-009  0.9118800E+02  0.7816164E-02  0.1184000E+00
        -11   -1    0    0    0    0  0.00000000000E+00  0.00000000000E+00  0.45593999997E+02  0.45594000000E+02  0.51100000000E-03 0. -1.
         11   -1    0    0    0    0 -0.00000000000E+00 -0.00000000000E+00 -0.45593999997E+02  0.45594000000E+02  0.51100000000E-03 0.  1.
         23    2    1    2    0    0  0.00000000000E+00 -0.44408920985E-15  0.00000000000E+00  0.91188000000E+02  0.91188000000E+02 0.  0.
    9900012    2    3    3    0    0  0.67897966856E+01  0.32203985147E+01 -0.44414425107E+02  0.46142318041E+02  0.10000002548E+02 0.  0.
         12    1    3    3    0    0 -0.67897966856E+01 -0.32203985147E+01  0.44414425107E+02  0.45045681959E+02  0.00000000000E+00 0. -1.
         11    1    4    4    0    0  0.18204420450E+01 -0.30716961146E+01 -0.15967360145E+02  0.16361721074E+02  0.51100000000E-03 0. -1.
        -11    1    4    4    0    0  0.41579457422E+01  0.65173161980E+01 -0.22893006156E+02  0.24163063844E+02  0.51100000000E-03 0.  1.
        -12    1    4    4    0    0  0.81140889850E+00 -0.22522156866E+00 -0.55540588061E+01  0.56175331221E+01  0.00000000000E+00 0.  1.
</event>
<event>
 8    1  0.2962813E-009  0.9118800E+02  0.7816164E-02  0.1184000E+00
        -11   -1    0    0    0    0  0.00000000000E+00  0.00000000000E+00  0.45593999997E+02  0.45594000000E+02  0.51100000000E-03 0. -1.
         11   -1    0    0    0    0 -0.00000000000E+00 -0.00000000000E+00 -0.45593999997E+02  0.45594000000E+02  0.51100000000E-03 0.  1.
         23    2    1    2    0    0 -0.22204460493E-15 -0.35527136788E-14  0.00000000000E+00  0.91188000000E+02  0.91188000000E+02 0.  0.
    9900012    2    3    3    0    0  0.78080600444E+00 -0.28160631043E+02  0.35149433650E+02  0.46142317802E+02  0.10000000374E+02 0.  0.
        -12    1    3    3    0    0 -0.78080600444E+00  0.28160631043E+02 -0.35149433650E+02  0.45045682198E+02  0.00000000000E+00 0.  1.
         11    1    4    4    0    0  0.56927144811E+00 -0.39190915369E+01  0.15431216142E+01  0.42502438793E+01  0.51100000000E-03 0.  1.
        -11    1    4    4    0    0  0.30591756058E+01 -0.16032419841E+02  0.22064026045E+02  0.27444822588E+02  0.51100000000E-03 0. -1.
        -12    1    4    4    0    0 -0.28476410495E+01 -0.82091196657E+01  0.11542285991E+02  0.14447251335E+02  0.00000000000E+00 0.  1.
</event>
<event>
 8    1  0.2962813E-009  0.9118800E+02  0.7816164E-02  0.1184000E+00
        -11   -1    0    0    0    0  0.00000000000E+00  0.00000000000E+00  0.45593999997E+02  0.45594000000E+02  0.51100000000E-03 0. -1.
         11   -1    0    0    0    0 -0.00000000000E+00 -0.00000000000E+00 -0.45593999997E+02  0.45594000000E+02  0.51100000000E-03 0.  1.
         23    2    1    2    0    0 -0.11102230246E-15  0.00000000000E+00  0.00000000000E+00  0.91188000000E+02  0.91188000000E+02 0.  0.
    9900012    2    3    3    0    0 -0.66877934647E+00 -0.29034458872E+02  0.34433506896E+02  0.46142318021E+02  0.10000002369E+02 0.  0.
        -12    1    3    3    0    0  0.66877934647E+00  0.29034458872E+02 -0.34433506896E+02  0.45045681979E+02  0.00000000000E+00 0.  1.
         11    1    4    4    0    0 -0.19721114348E+01 -0.14112254255E+02  0.10187736318E+02  0.17516703891E+02  0.51100000000E-03 0.  1.
        -11    1    4    4    0    0 -0.37860874343E+00 -0.98891343715E+01  0.16367793770E+02  0.19127022674E+02  0.51100000000E-03 0. -1.
        -12    1    4    4    0    0  0.16819408317E+01 -0.50330702453E+01  0.78779768079E+01  0.94985914557E+01  0.00000000000E+00 0.  1.
</event>
<event>
 8    1  0.2962813E-009  0.9118800E+02  0.7816164E-02  0.1184000E+00
        -11   -1    0    0    0    0  0.00000000000E+00  0.00000000000E+00  0.45593999997E+02  0.45594000000E+02  0.51100000000E-03 0. -1.
         11   -1    0    0    0    0 -0.00000000000E+00 -0.00000000000E+00 -0.45593999997E+02  0.45594000000E+02  0.51100000000E-03 0.  1.
         23    2    1    2    0    0  0.00000000000E+00  0.00000000000E+00  0.00000000000E+00  0.91188000000E+02  0.91188000000E+02 0.  0.
    9900012    2    3    3    0    0 -0.10756849440E+02  0.86033775437E+01 -0.42888058232E+02  0.46142318143E+02  0.10000003481E+02 0.  0.
         12    1    3    3    0    0  0.10756849440E+02 -0.86033775437E+01  0.42888058232E+02  0.45045681857E+02  0.00000000000E+00 0. -1.
         11    1    4    4    0    0 -0.20767888647E+01  0.53378647089E+01 -0.93942793829E+01  0.11002651363E+02  0.51100000000E-03 0.  1.
        -11    1    4    4    0    0 -0.47170616126E+01  0.10777834969E+00 -0.93871504320E+01  0.10506230529E+02  0.51100000000E-03 0. -1.
         12    1    4    4    0    0 -0.39629989630E+01  0.31577344851E+01 -0.24106628417E+02  0.24633436251E+02  0.00000000000E+00 0. -1.
</event>
<event>
 8    1  0.2962813E-009  0.9118800E+02  0.7816164E-02  0.1184000E+00
        -11   -1    0    0    0    0  0.00000000000E+00  0.00000000000E+00  0.45593999997E+02  0.45594000000E+02  0.51100000000E-03 0. -1.
         11   -1    0    0    0    0 -0.00000000000E+00 -0.00000000000E+00 -0.45593999997E+02  0.45594000000E+02  0.51100000000E-03 0.  1.
         23    2    1    2    0    0  0.00000000000E+00 -0.13322676296E-14  0.00000000000E+00  0.91188000000E+02  0.91188000000E+02 0.  0.
    9900012    2    3    3    0    0  0.11547675124E+02  0.27169236161E+01  0.43455529413E+02  0.46142317506E+02  0.99999976774E+01 0.  0.
        -12    1    3    3    0    0 -0.11547675124E+02 -0.27169236161E+01 -0.43455529413E+02  0.45045682494E+02  0.00000000000E+00 0.  1.
         11    1    4    4    0    0  0.10085195926E+02  0.47718844399E+01  0.24152501909E+02  0.26604988380E+02  0.51100000000E-03 0. -1.
        -11    1    4    4    0    0 -0.14487632695E+00  0.39519773059E-01  0.18695334381E+00  0.23979736540E+00  0.51100000000E-03 0.  1.
         12    1    4    4    0    0  0.16073555255E+01 -0.20944805968E+01  0.19116074161E+02  0.19297531761E+02  0.00000000000E+00 0. -1.
</event>
<event>
 8    1  0.2962813E-009  0.9118800E+02  0.7816164E-02  0.1184000E+00
        -11   -1    0    0    0    0  0.00000000000E+00  0.00000000000E+00  0.45593999997E+02  0.45594000000E+02  0.51100000000E-03 0. -1.
         11   -1    0    0    0    0 -0.00000000000E+00 -0.00000000000E+00 -0.45593999997E+02  0.45594000000E+02  0.51100000000E-03 0.  1.
         23    2    1    2    0    0  0.00000000000E+00  0.00000000000E+00  0.00000000000E+00  0.91188000000E+02  0.91188000000E+02 0.  0.
    9900012    2    3    3    0    0 -0.19653503031E+02  0.90091753637E+01 -0.39518200221E+02  0.46142316846E+02  0.99999916550E+01 0.  0.
         12    1    3    3    0    0  0.19653503031E+02 -0.90091753637E+01  0.39518200221E+02  0.45045683154E+02  0.00000000000E+00 0. -1.
         11    1    4    4    0    0 -0.98529446702E+00  0.25341599035E+01 -0.11176041715E+02  0.11502029399E+02  0.51100000000E-03 0. -1.
        -11    1    4    4    0    0 -0.50257519719E+01  0.11358493318E+01 -0.58249943799E+01  0.77768178823E+01  0.51100000000E-03 0.  1.
         12    1    4    4    0    0 -0.13642456592E+02  0.53391661284E+01 -0.22517164126E+02  0.26863469565E+02  0.00000000000E+00 0. -1.
</event>
<event>
 8    1  0.2962813E-009  0.9118800E+02  0.7816164E-02  0.1184000E+00
        -11   -1    0    0    0    0  0.00000000000E+00  0.00000000000E+00  0.45593999997E+02  0.45594000000E+02  0.51100000000E-03 0. -1.
         11   -1    0    0    0    0 -0.00000000000E+00 -0.00000000000E+00 -0.45593999997E+02  0.45594000000E+02  0.51100000000E-03 0.  1.
         23    2    1    2    0    0  0.35527136788E-14 -0.35527136788E-14 -0.35527136788E-14  0.91188000000E+02  0.91188000000E+02 0.  0.
    9900012    2    3    3    0    0  0.30507306531E+02 -0.24147142807E+02 -0.22700942539E+02  0.46142322630E+02  0.10000044403E+02 0.  0.
         12    1    3    3    0    0 -0.30507306531E+02  0.24147142807E+02  0.22700942539E+02  0.45045677370E+02  0.00000000000E+00 0. -1.
         11    1    4    4    0    0  0.60206087705E+01 -0.61419240807E+01 -0.13961626122E+01  0.87132216592E+01  0.51100000000E-03 0. -1.
        -11    1    4    4    0    0  0.18390396889E+02 -0.15568529584E+02 -0.18017812482E+02  0.30086996826E+02  0.51100000000E-03 0.  1.
        -12    1    4    4    0    0  0.60963008715E+01 -0.24366891429E+01 -0.32869674452E+01  0.73421041454E+01  0.00000000000E+00 0.  1.
</event>
<event>
 8    1  0.2962813E-009  0.9118800E+02  0.7816164E-02  0.1184000E+00
        -11   -1    0    0    0    0  0.00000000000E+00  0.00000000000E+00  0.45593999997E+02  0.45594000000E+02  0.51100000000E-03 0. -1.
         11   -1    0    0    0    0 -0.00000000000E+00 -0.00000000000E+00 -0.45593999997E+02  0.45594000000E+02  0.51100000000E-03 0.  1.
         23    2    1    2    0    0  0.00000000000E+00  0.00000000000E+00  0.35527136788E-14  0.91188000000E+02  0.91188000000E+02 0.  0.
    9900012    2    3    3    0    0  0.20910527989E+02  0.25155656006E+02  0.30968636944E+02  0.46142315589E+02  0.99999801974E+01 0.  0.
        -12    1    3    3    0    0 -0.20910527989E+02 -0.25155656006E+02 -0.30968636944E+02  0.45045684411E+02  0.00000000000E+00 0.  1.
         11    1    4    4    0    0  0.10284475431E+02  0.12690372409E+02  0.14925180852E+02  0.22126387199E+02  0.51100000000E-03 0. -1.
        -11    1    4    4    0    0 -0.93650011033E+00  0.13872429319E+01  0.26780993336E+01  0.31581152149E+01  0.51100000000E-03 0.  1.
        -12    1    4    4    0    0  0.11562552669E+02  0.11078040665E+02  0.13365356758E+02  0.20857813175E+02  0.00000000000E+00 0.  1.
</event>
<event>
 8    1  0.2962813E-009  0.9118800E+02  0.7816164E-02  0.1184000E+00
        -11   -1    0    0    0    0  0.00000000000E+00  0.00000000000E+00  0.45593999997E+02  0.45594000000E+02  0.51100000000E-03 0. -1.
         11   -1    0    0    0    0 -0.00000000000E+00 -0.00000000000E+00 -0.45593999997E+02  0.45594000000E+02  0.51100000000E-03 0.  1.
         23    2    1    2    0    0  0.35527136788E-14  0.00000000000E+00  0.00000000000E+00  0.91188000000E+02  0.91188000000E+02 0.  0.
    9900012    2    3    3    0    0 -0.31161736221E+02  0.30189048999E+02  0.12111193813E+02  0.46142317639E+02  0.99999988879E+01 0.  0.
        -12    1    3    3    0    0  0.31161736221E+02 -0.30189048999E+02 -0.12111193813E+02  0.45045682361E+02  0.00000000000E+00 0.  1.
         11    1    4    4    0    0 -0.16546950516E+02  0.12264141664E+02  0.61937828621E+01  0.21507526323E+02  0.51100000000E-03 0. -1.
        -11    1    4    4    0    0 -0.93386978846E+01  0.12002900176E+02  0.86844162975E+00  0.15232697789E+02  0.51100000000E-03 0.  1.
         12    1    4    4    0    0 -0.52760878206E+01  0.59220071590E+01  0.50489693211E+01  0.94020935269E+01  0.00000000000E+00 0. -1.
</event>
<event>
 8    1  0.2962813E-009  0.9118800E+02  0.7816164E-02  0.1184000E+00
        -11   -1    0    0    0    0  0.00000000000E+00  0.00000000000E+00  0.45593999997E+02  0.45594000000E+02  0.51100000000E-03 0. -1.
         11   -1    0    0    0    0 -0.00000000000E+00 -0.00000000000E+00 -0.45593999997E+02  0.45594000000E+02  0.51100000000E-03 0.  1.
         23    2    1    2    0    0 -0.35527136788E-14  0.88817841970E-15  0.71054273576E-14  0.91188000000E+02  0.91188000000E+02 0.  0.
    9900012    2    3    3    0    0  0.30370350302E+02 -0.31291146791E+01 -0.33120445313E+02  0.46142318366E+02  0.10000005515E+02 0.  0.
         12    1    3    3    0    0 -0.30370350302E+02  0.31291146791E+01  0.33120445313E+02  0.45045681634E+02  0.00000000000E+00 0. -1.
         11    1    4    4    0    0  0.74255752765E+01 -0.13379691606E+00 -0.15026834640E+02  0.16761945870E+02  0.51100000000E-03 0.  1.
        -11    1    4    4    0    0  0.19211690662E+02 -0.22800071398E+01 -0.15189348249E+02  0.24596824818E+02  0.51100000000E-03 0. -1.
        -12    1    4    4    0    0  0.37330843634E+01 -0.71531062323E+00 -0.29042624243E+01  0.47835476773E+01  0.00000000000E+00 0.  1.
</event>
<event>
 8    1  0.2962813E-009  0.9118800E+02  0.7816164E-02  0.1184000E+00
        -11   -1    0    0    0    0  0.00000000000E+00  0.00000000000E+00  0.45593999997E+02  0.45594000000E+02  0.51100000000E-03 0.  1.
         11   -1    0    0    0    0 -0.00000000000E+00 -0.00000000000E+00 -0.45593999997E+02  0.45594000000E+02  0.51100000000E-03 0. -1.
         23    2    1    2    0    0  0.71054273576E-14  0.71054273576E-14  0.00000000000E+00  0.91188000000E+02  0.91188000000E+02 0.  0.
    9900012    2    3    3    0    0  0.39361759336E+02  0.19707825597E+02 -0.95586087538E+01  0.46142317753E+02  0.99999999289E+01 0.  0.
         12    1    3    3    0    0 -0.39361759336E+02 -0.19707825597E+02  0.95586087538E+01  0.45045682247E+02  0.00000000000E+00 0. -1.
         11    1    4    4    0    0  0.16816962908E+01  0.17537481538E+01 -0.24039971118E+01  0.34180312134E+01  0.51100000000E-03 0. -1.
        -11    1    4    4    0    0  0.37362443727E+02  0.18314467980E+02 -0.72441233642E+01  0.42235639716E+02  0.51100000000E-03 0.  1.
        -12    1    4    4    0    0  0.31761931790E+00 -0.36039053673E+00  0.89511722241E-01  0.48864682388E+00  0.00000000000E+00 0.  1.
</event>
<event>
 8    1  0.2962813E-009  0.9118800E+02  0.7816164E-02  0.1184000E+00
        -11   -1    0    0    0    0  0.00000000000E+00  0.00000000000E+00  0.45593999997E+02  0.45594000000E+02  0.51100000000E-03 0. -1.
         11   -1    0    0    0    0 -0.00000000000E+00 -0.00000000000E+00 -0.45593999997E+02  0.45594000000E+02  0.51100000000E-03 0.  1.
         23    2    1    2    0    0  0.00000000000E+00 -0.17763568394E-14  0.71054273576E-14  0.91188000000E+02  0.91188000000E+02 0.  0.
    9900012    2    3    3    0    0  0.11825572259E+02  0.11718372760E+02  0.41856297024E+02  0.46142311861E+02  0.99999461950E+01 0.  0.
        -12    1    3    3    0    0 -0.11825572259E+02 -0.11718372760E+02 -0.41856297024E+02  0.45045688139E+02  0.00000000000E+00 0.  1.
         11    1    4    4    0    0  0.57310354419E+01  0.40158549536E+01  0.12520272570E+02  0.14343259174E+02  0.51100000000E-03 0. -1.
        -11    1    4    4    0    0  0.45792140755E+01  0.58919331446E+01  0.28215573024E+02  0.29185658106E+02  0.51100000000E-03 0.  1.
        -12    1    4    4    0    0  0.15153227421E+01  0.18105846613E+01  0.11204514296E+01  0.26133945807E+01  0.00000000000E+00 0.  1.
</event>
<event>
 8    1  0.2962813E-009  0.9118800E+02  0.7816164E-02  0.1184000E+00
        -11   -1    0    0    0    0  0.00000000000E+00  0.00000000000E+00  0.45593999997E+02  0.45594000000E+02  0.51100000000E-03 0. -1.
         11   -1    0    0    0    0 -0.00000000000E+00 -0.00000000000E+00 -0.45593999997E+02  0.45594000000E+02  0.51100000000E-03 0.  1.
         23    2    1    2    0    0 -0.33306690739E-15  0.00000000000E+00  0.00000000000E+00  0.91188000000E+02  0.91188000000E+02 0.  0.
    9900012    2    3    3    0    0  0.49802468575E+00 -0.41882014600E+00  0.45040978605E+02  0.46142321044E+02  0.10000029934E+02 0.  0.
        -12    1    3    3    0    0 -0.49802468575E+00  0.41882014600E+00 -0.45040978605E+02  0.45045678956E+02  0.00000000000E+00 0.  1.
         11    1    4    4    0    0  0.31723090821E+01 -0.10886756323E+01  0.14475692585E+02  0.14859153261E+02  0.51100000000E-03 0. -1.
        -11    1    4    4    0    0 -0.45993447880E+01  0.49122708747E+00  0.23884382797E+02  0.24328152795E+02  0.51100000000E-03 0.  1.
        -12    1    4    4    0    0  0.19250603917E+01  0.17862839886E+00  0.66809032230E+01  0.69550149886E+01  0.00000000000E+00 0.  1.
</event>
<event>
 8    1  0.2962813E-009  0.9118800E+02  0.7816164E-02  0.1184000E+00
        -11   -1    0    0    0    0  0.00000000000E+00  0.00000000000E+00  0.45593999997E+02  0.45594000000E+02  0.51100000000E-03 0. -1.
         11   -1    0    0    0    0 -0.00000000000E+00 -0.00000000000E+00 -0.45593999997E+02  0.45594000000E+02  0.51100000000E-03 0.  1.
         23    2    1    2    0    0  0.11102230246E-15  0.00000000000E+00 -0.35527136788E-14  0.91188000000E+02  0.91188000000E+02 0.  0.
    9900012    2    3    3    0    0 -0.53541841504E+00  0.39188683578E+02 -0.22205271245E+02  0.46142315806E+02  0.99999821699E+01 0.  0.
         12    1    3    3    0    0  0.53541841504E+00 -0.39188683578E+02  0.22205271245E+02  0.45045684194E+02  0.00000000000E+00 0. -1.
         11    1    4    4    0    0  0.70209114969E+00  0.22230139915E+01 -0.46390380173E+01  0.51918587399E+01  0.51100000000E-03 0. -1.
        -11    1    4    4    0    0 -0.12896366043E+01  0.34497982285E+02 -0.16473629853E+02  0.38251201616E+02  0.51100000000E-03 0.  1.
         12    1    4    4    0    0  0.52127039520E-01  0.24676873018E+01 -0.10926033747E+01  0.26992554496E+01  0.00000000000E+00 0. -1.
</event>
<event>
 8    1  0.2962813E-009  0.9118800E+02  0.7816164E-02  0.1184000E+00
        -11   -1    0    0    0    0  0.00000000000E+00  0.00000000000E+00  0.45593999997E+02  0.45594000000E+02  0.51100000000E-03 0. -1.
         11   -1    0    0    0    0 -0.00000000000E+00 -0.00000000000E+00 -0.45593999997E+02  0.45594000000E+02  0.51100000000E-03 0.  1.
         23    2    1    2    0    0  0.71054273576E-14 -0.35527136788E-14  0.00000000000E+00  0.91188000000E+02  0.91188000000E+02 0.  0.
    9900012    2    3    3    0    0 -0.40466369814E+02  0.93858245896E+01 -0.17421044133E+02  0.46142316879E+02  0.99999919524E+01 0.  0.
        -12    1    3    3    0    0  0.40466369814E+02 -0.93858245896E+01  0.17421044133E+02  0.45045683121E+02  0.00000000000E+00 0.  1.
         11    1    4    4    0    0 -0.44252750737E+01  0.17842904657E+01  0.95803354467E+00  0.48666806427E+01  0.51100000000E-03 0. -1.
        -11    1    4    4    0    0 -0.23905686022E+02  0.64741140042E+01 -0.12580971646E+02  0.27779071694E+02  0.51100000000E-03 0.  1.
         12    1    4    4    0    0 -0.12135408718E+02  0.11274201197E+01 -0.57981060315E+01  0.13496564542E+02  0.00000000000E+00 0. -1.
</event>
<event>
 8    1  0.2962813E-009  0.9118800E+02  0.7816164E-02  0.1184000E+00
        -11   -1    0    0    0    0  0.00000000000E+00  0.00000000000E+00  0.45593999997E+02  0.45594000000E+02  0.51100000000E-03 0. -1.
         11   -1    0    0    0    0 -0.00000000000E+00 -0.00000000000E+00 -0.45593999997E+02  0.45594000000E+02  0.51100000000E-03 0.  1.
         23    2    1    2    0    0  0.00000000000E+00  0.00000000000E+00 -0.17763568394E-14  0.91188000000E+02  0.91188000000E+02 0.  0.
    9900012    2    3    3    0    0  0.26721195820E+02  0.33582074383E+02  0.13687054818E+02  0.46142317682E+02  0.99999992756E+01 0.  0.
        -12    1    3    3    0    0 -0.26721195820E+02 -0.33582074383E+02 -0.13687054818E+02  0.45045682318E+02  0.00000000000E+00 0.  1.
         11    1    4    4    0    0  0.12557104862E+02  0.20526251304E+02  0.39558948270E+01  0.24385589581E+02  0.51100000000E-03 0. -1.
        -11    1    4    4    0    0  0.27992286097E+01  0.16243951887E+01  0.25003090129E+01  0.40897293260E+01  0.51100000000E-03 0.  1.
         12    1    4    4    0    0  0.11364862349E+02  0.11431427891E+02  0.72308509776E+01  0.17666998774E+02  0.00000000000E+00 0. -1.
</event>
<event>
 8    1  0.2962813E-009  0.9118800E+02  0.7816164E-02  0.1184000E+00
        -11   -1    0    0    0    0  0.00000000000E+00  0.00000000000E+00  0.45593999997E+02  0.45594000000E+02  0.51100000000E-03 0. -1.
         11   -1    0    0    0    0 -0.00000000000E+00 -0.00000000000E+00 -0.45593999997E+02  0.45594000000E+02  0.51100000000E-03 0.  1.
         23    2    1    2    0    0  0.00000000000E+00  0.00000000000E+00 -0.71054273576E-14  0.91188000000E+02  0.91188000000E+02 0.  0.
    9900012    2    3    3    0    0  0.28506321764E+02  0.13458474616E+01  0.34852431221E+02  0.46142315990E+02  0.99999838496E+01 0.  0.
        -12    1    3    3    0    0 -0.28506321764E+02 -0.13458474616E+01 -0.34852431221E+02  0.45045684010E+02  0.00000000000E+00 0.  1.
         11    1    4    4    0    0  0.21971019968E+02 -0.19038808470E+01  0.23575134936E+02  0.32282154020E+02  0.51100000000E-03 0. -1.
        -11    1    4    4    0    0  0.50685794936E+00  0.17676951801E+01  0.28873285147E+01  0.34232028049E+01  0.51100000000E-03 0.  1.
         12    1    4    4    0    0  0.60284438465E+01  0.14820331285E+01  0.83899677711E+01  0.10436959165E+02  0.00000000000E+00 0. -1.
</event>
<event>
 8    1  0.2962813E-009  0.9118800E+02  0.7816164E-02  0.1184000E+00
        -11   -1    0    0    0    0  0.00000000000E+00  0.00000000000E+00  0.45593999997E+02  0.45594000000E+02  0.51100000000E-03 0.  1.
         11   -1    0    0    0    0 -0.00000000000E+00 -0.00000000000E+00 -0.45593999997E+02  0.45594000000E+02  0.51100000000E-03 0. -1.
         23    2    1    2    0    0  0.71054273576E-14 -0.71054273576E-14 -0.44408920985E-15  0.91188000000E+02  0.91188000000E+02 0.  0.
    9900012    2    3    3    0    0 -0.40950386157E+02  0.18613752346E+02  0.23890641983E+01  0.46142317293E+02  0.99999957322E+01 0.  0.
        -12    1    3    3    0    0  0.40950386157E+02 -0.18613752346E+02 -0.23890641983E+01  0.45045682707E+02  0.00000000000E+00 0.  1.
         11    1    4    4    0    0 -0.39542737579E+02  0.18543578530E+02  0.12856579971E+01  0.43693767481E+02  0.51100000000E-03 0. -1.
        -11    1    4    4    0    0  0.22464014025E+00 -0.35685590470E+00 -0.18988402665E-01  0.42210206098E+00  0.51100000000E-03 0.  1.
         12    1    4    4    0    0 -0.16322887184E+01  0.42702972079E+00  0.11223946038E+01  0.20264477514E+01  0.00000000000E+00 0. -1.
</event>
<event>
 8    1  0.2962813E-009  0.9118800E+02  0.7816164E-02  0.1184000E+00
        -11   -1    0    0    0    0  0.00000000000E+00  0.00000000000E+00  0.45593999997E+02  0.45594000000E+02  0.51100000000E-03 0.  1.
         11   -1    0    0    0    0 -0.00000000000E+00 -0.00000000000E+00 -0.45593999997E+02  0.45594000000E+02  0.51100000000E-03 0. -1.
         23    2    1    2    0    0  0.88817841970E-15  0.00000000000E+00  0.44408920985E-15  0.91188000000E+02  0.91188000000E+02 0.  0.
    9900012    2    3    3    0    0 -0.55067910900E+01  0.44626679095E+02 -0.26922631872E+01  0.46142317452E+02  0.99999971809E+01 0.  0.
        -12    1    3    3    0    0  0.55067910900E+01 -0.44626679095E+02  0.26922631872E+01  0.45045682548E+02  0.00000000000E+00 0.  1.
         11    1    4    4    0    0 -0.34272588806E+01  0.37914471061E+02 -0.22473684263E+01  0.38135336427E+02  0.51100000000E-03 0. -1.
        -11    1    4    4    0    0 -0.15945627646E+01  0.23311878583E+01 -0.18550835364E+01  0.33791126689E+01  0.51100000000E-03 0.  1.
         12    1    4    4    0    0 -0.48496944476E+00  0.43810201753E+01  0.14101887755E+01  0.46278683561E+01  0.00000000000E+00 0. -1.
</event>
<event>
 8    1  0.2962813E-009  0.9118800E+02  0.7816164E-02  0.1184000E+00
        -11   -1    0    0    0    0  0.00000000000E+00  0.00000000000E+00  0.45593999997E+02  0.45594000000E+02  0.51100000000E-03 0. -1.
         11   -1    0    0    0    0 -0.00000000000E+00 -0.00000000000E+00 -0.45593999997E+02  0.45594000000E+02  0.51100000000E-03 0.  1.
         23    2    1    2    0    0 -0.44408920985E-15 -0.17763568394E-14  0.00000000000E+00  0.91188000000E+02  0.91188000000E+02 0.  0.
    9900012    2    3    3    0    0  0.10323636023E+01 -0.15233542310E+02  0.42379085127E+02  0.46142318274E+02  0.10000004681E+02 0.  0.
        -12    1    3    3    0    0 -0.10323636023E+01  0.15233542310E+02 -0.42379085127E+02  0.45045681726E+02  0.00000000000E+00 0.  1.
         11    1    4    4    0    0 -0.22332970580E+01 -0.10883425028E+02  0.21897302917E+02  0.24554601023E+02  0.51100000000E-03 0. -1.
        -11    1    4    4    0    0  0.14573602021E+01  0.56594176382E+00  0.40519960423E+01  0.43431395357E+01  0.51100000000E-03 0.  1.
         12    1    4    4    0    0  0.18083004581E+01 -0.49160590464E+01  0.16429786167E+02  0.17244577716E+02  0.00000000000E+00 0. -1.
</event>
<event>
 8    1  0.2962813E-009  0.9118800E+02  0.7816164E-02  0.1184000E+00
        -11   -1    0    0    0    0  0.00000000000E+00  0.00000000000E+00  0.45593999997E+02  0.45594000000E+02  0.51100000000E-03 0. -1.
         11   -1    0    0    0    0 -0.00000000000E+00 -0.00000000000E+00 -0.45593999997E+02  0.45594000000E+02  0.51100000000E-03 0.  1.
         23    2    1    2    0    0  0.00000000000E+00  0.00000000000E+00  0.00000000000E+00  0.91188000000E+02  0.91188000000E+02 0.  0.
    9900012    2    3    3    0    0 -0.24226019560E+02 -0.24931766284E+02 -0.28646474190E+02  0.46142317884E+02  0.10000001117E+02 0.  0.
         12    1    3    3    0    0  0.24226019560E+02  0.24931766284E+02  0.28646474190E+02  0.45045682116E+02  0.00000000000E+00 0. -1.
         11    1    4    4    0    0 -0.66101916980E+01 -0.74396819464E+01 -0.46013667966E+01  0.10964309299E+02  0.51100000000E-03 0. -1.
        -11    1    4    4    0    0 -0.16022410376E+02 -0.12355881405E+02 -0.17929453131E+02  0.27034251041E+02  0.51100000000E-03 0.  1.
        -12    1    4    4    0    0 -0.15934174865E+01 -0.51362029331E+01 -0.61156542629E+01  0.81437575430E+01  0.00000000000E+00 0.  1.
</event>
<event>
 8    1  0.2962813E-009  0.9118800E+02  0.7816164E-02  0.1184000E+00
        -11   -1    0    0    0    0  0.00000000000E+00  0.00000000000E+00  0.45593999997E+02  0.45594000000E+02  0.51100000000E-03 0. -1.
         11   -1    0    0    0    0 -0.00000000000E+00 -0.00000000000E+00 -0.45593999997E+02  0.45594000000E+02  0.51100000000E-03 0.  1.
         23    2    1    2    0    0 -0.16653345369E-15  0.35527136788E-14  0.00000000000E+00  0.91188000000E+02  0.91188000000E+02 0.  0.
    9900012    2    3    3    0    0 -0.27400891372E+00 -0.20726541654E+02  0.39993109983E+02  0.46142318121E+02  0.10000003281E+02 0.  0.
        -12    1    3    3    0    0  0.27400891372E+00  0.20726541654E+02 -0.39993109983E+02  0.45045681879E+02  0.00000000000E+00 0.  1.
         11    1    4    4    0    0 -0.35260168555E+00 -0.80448861178E+01  0.74977614372E+01  0.11002769989E+02  0.51100000000E-03 0. -1.
        -11    1    4    4    0    0  0.21390972361E+01 -0.54913631940E+01  0.14245166671E+02  0.15416081877E+02  0.51100000000E-03 0.  1.
         12    1    4    4    0    0 -0.20605044643E+01 -0.71902923426E+01  0.18250181875E+02  0.19723466255E+02  0.00000000000E+00 0. -1.
</event>
<event>
 8    1  0.2962813E-009  0.9118800E+02  0.7816164E-02  0.1184000E+00
        -11   -1    0    0    0    0  0.00000000000E+00  0.00000000000E+00  0.45593999997E+02  0.45594000000E+02  0.51100000000E-03 0. -1.
         11   -1    0    0    0    0 -0.00000000000E+00 -0.00000000000E+00 -0.45593999997E+02  0.45594000000E+02  0.51100000000E-03 0.  1.
         23    2    1    2    0    0  0.44408920985E-15  0.35527136788E-14  0.00000000000E+00  0.91188000000E+02  0.91188000000E+02 0.  0.
    9900012    2    3    3    0    0 -0.13913340078E+01 -0.28984704087E+02 -0.34453802774E+02  0.46142318665E+02  0.10000008243E+02 0.  0.
         12    1    3    3    0    0  0.13913340078E+01  0.28984704087E+02  0.34453802774E+02  0.45045681335E+02  0.00000000000E+00 0. -1.
         11    1    4    4    0    0  0.10275963009E+01 -0.42576102369E+01 -0.81221231947E+01  0.92277887134E+01  0.51100000000E-03 0. -1.
        -11    1    4    4    0    0 -0.28060654056E+01 -0.17829732234E+02 -0.23023666731E+02  0.29255129201E+02  0.51100000000E-03 0.  1.
        -12    1    4    4    0    0  0.38713509693E+00 -0.68973616163E+01 -0.33080128482E+01  0.76594007503E+01  0.00000000000E+00 0.  1.
</event>
<event>
 8    1  0.2962813E-009  0.9118800E+02  0.7816164E-02  0.1184000E+00
        -11   -1    0    0    0    0  0.00000000000E+00  0.00000000000E+00  0.45593999997E+02  0.45594000000E+02  0.51100000000E-03 0. -1.
         11   -1    0    0    0    0 -0.00000000000E+00 -0.00000000000E+00 -0.45593999997E+02  0.45594000000E+02  0.51100000000E-03 0.  1.
         23    2    1    2    0    0  0.00000000000E+00  0.00000000000E+00  0.00000000000E+00  0.91188000000E+02  0.91188000000E+02 0.  0.
    9900012    2    3    3    0    0  0.18045951981E+02  0.18370988325E+02 -0.36958935279E+02  0.46142328822E+02  0.10000100865E+02 0.  0.
         12    1    3    3    0    0 -0.18045951981E+02 -0.18370988325E+02  0.36958935279E+02  0.45045671178E+02  0.00000000000E+00 0. -1.
         11    1    4    4    0    0  0.48275847112E+01  0.96324712924E+01 -0.12274689837E+02  0.16332730580E+02  0.51100000000E-03 0. -1.
        -11    1    4    4    0    0  0.70441683519E+01  0.49702009841E+01 -0.18012077487E+02  0.19968929397E+02  0.51100000000E-03 0.  1.
         12    1    4    4    0    0  0.61741989176E+01  0.37683160484E+01 -0.66721679545E+01  0.98406688455E+01  0.00000000000E+00 0. -1.
</event>
<event>
 8    1  0.2962813E-009  0.9118800E+02  0.7816164E-02  0.1184000E+00
        -11   -1    0    0    0    0  0.00000000000E+00  0.00000000000E+00  0.45593999997E+02  0.45594000000E+02  0.51100000000E-03 0.  1.
         11   -1    0    0    0    0 -0.00000000000E+00 -0.00000000000E+00 -0.45593999997E+02  0.45594000000E+02  0.51100000000E-03 0. -1.
         23    2    1    2    0    0  0.17763568394E-14  0.00000000000E+00 -0.35527136788E-14  0.91188000000E+02  0.91188000000E+02 0.  0.
    9900012    2    3    3    0    0 -0.13179998540E+02 -0.33981715724E+02 -0.26469675266E+02  0.46142322363E+02  0.10000041963E+02 0.  0.
         12    1    3    3    0    0  0.13179998540E+02  0.33981715724E+02  0.26469675266E+02  0.45045677637E+02  0.00000000000E+00 0. -1.
         11    1    4    4    0    0 -0.53684019157E+01 -0.69533586145E+01 -0.37542835695E+01  0.95531973983E+01  0.51100000000E-03 0. -1.
        -11    1    4    4    0    0 -0.75537912193E+01 -0.24646312354E+02 -0.22441085283E+02  0.34177518683E+02  0.51100000000E-03 0.  1.
        -12    1    4    4    0    0 -0.25780540535E+00 -0.23820447560E+01 -0.27430641381E+00  0.24116062812E+01  0.00000000000E+00 0.  1.
</event>
<event>
 8    1  0.2962813E-009  0.9118800E+02  0.7816164E-02  0.1184000E+00
        -11   -1    0    0    0    0  0.00000000000E+00  0.00000000000E+00  0.45593999997E+02  0.45594000000E+02  0.51100000000E-03 0. -1.
         11   -1    0    0    0    0 -0.00000000000E+00 -0.00000000000E+00 -0.45593999997E+02  0.45594000000E+02  0.51100000000E-03 0.  1.
         23    2    1    2    0    0 -0.22204460493E-15  0.00000000000E+00  0.71054273576E-14  0.91188000000E+02  0.91188000000E+02 0.  0.
    9900012    2    3    3    0    0  0.15991826014E+01  0.11488564718E+02  0.43526646942E+02  0.46142317651E+02  0.99999989950E+01 0.  0.
        -12    1    3    3    0    0 -0.15991826014E+01 -0.11488564718E+02 -0.43526646942E+02  0.45045682349E+02  0.00000000000E+00 0.  1.
         11    1    4    4    0    0  0.38591918665E+01  0.42871487452E+01  0.12673980800E+02  0.13924898413E+02  0.51100000000E-03 0. -1.
        -11    1    4    4    0    0  0.56050009367E+00  0.35629148027E+01  0.65016776750E+01  0.74350746531E+01  0.51100000000E-03 0.  1.
         12    1    4    4    0    0 -0.28205093588E+01  0.36385011705E+01  0.24350988467E+02  0.24782344585E+02  0.00000000000E+00 0. -1.
</event>
<event>
 8    1  0.2962813E-009  0.9118800E+02  0.7816164E-02  0.1184000E+00
        -11   -1    0    0    0    0  0.00000000000E+00  0.00000000000E+00  0.45593999997E+02  0.45594000000E+02  0.51100000000E-03 0. -1.
         11   -1    0    0    0    0 -0.00000000000E+00 -0.00000000000E+00 -0.45593999997E+02  0.45594000000E+02  0.51100000000E-03 0.  1.
         23    2    1    2    0    0  0.00000000000E+00  0.00000000000E+00  0.00000000000E+00  0.91188000000E+02  0.91188000000E+02 0.  0.
    9900012    2    3    3    0    0 -0.39579064360E+02 -0.48882279340E+01 -0.20945556452E+02  0.46142318264E+02  0.10000004584E+02 0.  0.
         12    1    3    3    0    0  0.39579064360E+02  0.48882279340E+01  0.20945556452E+02  0.45045681736E+02  0.00000000000E+00 0. -1.
         11    1    4    4    0    0 -0.57676054579E+01  0.16612218380E+01 -0.11167123183E+01  0.61050779992E+01  0.51100000000E-03 0. -1.
        -11    1    4    4    0    0 -0.18645345305E+02 -0.12464413421E+01 -0.11471045119E+02  0.21926864663E+02  0.51100000000E-03 0.  1.
         12    1    4    4    0    0 -0.15166113597E+02 -0.53030084300E+01 -0.83577990144E+01  0.18110375601E+02  0.00000000000E+00 0. -1.
</event>
<event>
 8    1  0.2962813E-009  0.9118800E+02  0.7816164E-02  0.1184000E+00
        -11   -1    0    0    0    0  0.00000000000E+00  0.00000000000E+00  0.45593999997E+02  0.45594000000E+02  0.51100000000E-03 0. -1.
         11   -1    0    0    0    0 -0.00000000000E+00 -0.00000000000E+00 -0.45593999997E+02  0.45594000000E+02  0.51100000000E-03 0.  1.
         23    2    1    2    0    0  0.71054273576E-14  0.00000000000E+00 -0.71054273576E-14  0.91188000000E+02  0.91188000000E+02 0.  0.
    9900012    2    3    3    0    0 -0.28312799365E+02 -0.13405518669E+02  0.32369590483E+02  0.46142323996E+02  0.10000056854E+02 0.  0.
        -12    1    3    3    0    0  0.28312799365E+02  0.13405518669E+02 -0.32369590483E+02  0.45045676004E+02  0.00000000000E+00 0.  1.
         11    1    4    4    0    0 -0.37249586093E+01 -0.42747578177E+00  0.81945243990E+01  0.90115638250E+01  0.51100000000E-03 0. -1.
        -11    1    4    4    0    0 -0.14346113499E+02 -0.50203694051E+01  0.13617254972E+02  0.20406977109E+02  0.51100000000E-03 0.  1.
        -12    1    4    4    0    0 -0.10241727257E+02 -0.79576734817E+01  0.10557811111E+02  0.16723783062E+02  0.00000000000E+00 0.  1.
</event>
<event>
 8    1  0.2962813E-009  0.9118800E+02  0.7816164E-02  0.1184000E+00
        -11   -1    0    0    0    0  0.00000000000E+00  0.00000000000E+00  0.45593999997E+02  0.45594000000E+02  0.51100000000E-03 0.  1.
         11   -1    0    0    0    0 -0.00000000000E+00 -0.00000000000E+00 -0.45593999997E+02  0.45594000000E+02  0.51100000000E-03 0. -1.
         23    2    1    2    0    0  0.17763568394E-14  0.00000000000E+00  0.35527136788E-14  0.91188000000E+02  0.91188000000E+02 0.  0.
    9900012    2    3    3    0    0  0.14429859244E+02  0.34741911520E+02 -0.24776848109E+02  0.46142318119E+02  0.10000003267E+02 0.  0.
        -12    1    3    3    0    0 -0.14429859244E+02 -0.34741911520E+02  0.24776848109E+02  0.45045681881E+02  0.00000000000E+00 0.  1.
         11    1    4    4    0    0  0.33067958178E+01  0.13536086572E+02 -0.12772223077E+02  0.18902122126E+02  0.51100000000E-03 0. -1.
        -11    1    4    4    0    0  0.24544817912E+01  0.19110947874E+01 -0.46691011296E+00  0.31455952480E+01  0.51100000000E-03 0.  1.
         12    1    4    4    0    0  0.86685816351E+01  0.19294730161E+02 -0.11537714919E+02  0.24094600746E+02  0.00000000000E+00 0. -1.
</event>
<event>
 8    1  0.2962813E-009  0.9118800E+02  0.7816164E-02  0.1184000E+00
        -11   -1    0    0    0    0  0.00000000000E+00  0.00000000000E+00  0.45593999997E+02  0.45594000000E+02  0.51100000000E-03 0. -1.
         11   -1    0    0    0    0 -0.00000000000E+00 -0.00000000000E+00 -0.45593999997E+02  0.45594000000E+02  0.51100000000E-03 0.  1.
         23    2    1    2    0    0 -0.17763568394E-14  0.00000000000E+00 -0.71054273576E-14  0.91188000000E+02  0.91188000000E+02 0.  0.
    9900012    2    3    3    0    0 -0.10488912966E+02 -0.29860935292E+01 -0.43705600918E+02  0.46142316507E+02  0.99999885648E+01 0.  0.
         12    1    3    3    0    0  0.10488912966E+02  0.29860935292E+01  0.43705600918E+02  0.45045683493E+02  0.00000000000E+00 0. -1.
         11    1    4    4    0    0 -0.52103715794E+01 -0.55207694602E+01 -0.20468611447E+02  0.21830962468E+02  0.51100000000E-03 0. -1.
        -11    1    4    4    0    0 -0.50822324234E+01  0.33783533328E+01 -0.21755392343E+02  0.22595120135E+02  0.51100000000E-03 0.  1.
        -12    1    4    4    0    0 -0.19630896323E+00 -0.84367740188E+00 -0.14815971279E+01  0.17162339050E+01  0.00000000000E+00 0.  1.
</event>
<event>
 8    1  0.2962813E-009  0.9118800E+02  0.7816164E-02  0.1184000E+00
        -11   -1    0    0    0    0  0.00000000000E+00  0.00000000000E+00  0.45593999997E+02  0.45594000000E+02  0.51100000000E-03 0. -1.
         11   -1    0    0    0    0 -0.00000000000E+00 -0.00000000000E+00 -0.45593999997E+02  0.45594000000E+02  0.51100000000E-03 0.  1.
         23    2    1    2    0    0  0.00000000000E+00  0.00000000000E+00  0.00000000000E+00  0.91188000000E+02  0.91188000000E+02 0.  0.
    9900012    2    3    3    0    0  0.22350706189E+02 -0.15617822504E+02 -0.35855866313E+02  0.46142316567E+02  0.99999891083E+01 0.  0.
         12    1    3    3    0    0 -0.22350706189E+02  0.15617822504E+02  0.35855866313E+02  0.45045683433E+02  0.00000000000E+00 0. -1.
         11    1    4    4    0    0  0.64966333452E+01 -0.43961105638E+01 -0.56459591943E+01  0.96648273857E+01  0.51100000000E-03 0. -1.
        -11    1    4    4    0    0  0.76164691701E+01 -0.16671425795E+01 -0.12543393020E+02  0.14769112219E+02  0.51100000000E-03 0.  1.
        -12    1    4    4    0    0  0.82376036741E+01 -0.95545693612E+01 -0.17666514098E+02  0.21708376962E+02  0.00000000000E+00 0.  1.
</event>
<event>
 8    1  0.4451504E-009  0.9118800E+02  0.7816164E-02  0.1184000E+00
        -11   -1    0    0    0    0  0.00000000000E+00  0.00000000000E+00  0.45593999997E+02  0.45594000000E+02  0.51100000000E-03 0. -1.
         11   -1    0    0    0    0 -0.00000000000E+00 -0.00000000000E+00 -0.45593999997E+02  0.45594000000E+02  0.51100000000E-03 0.  1.
         23    2    1    2    0    0 -0.88817841970E-15 -0.22204460493E-15 -0.71054273576E-14  0.91188000000E+02  0.91188000000E+02 0.  0.
    9900012    2    3    3    0    0 -0.44081549210E+01 -0.16345172039E+01 -0.44799663266E+02  0.46142319796E+02  0.10000018559E+02 0.  0.
         12    1    3    3    0    0  0.44081549210E+01  0.16345172039E+01  0.44799663266E+02  0.45045680204E+02  0.00000000000E+00 0. -1.
         11    1    4    4    0    0  0.85488840577E+00 -0.72067280173E+00 -0.17988164687E+01  0.21180048212E+01  0.51100000000E-03 0. -1.
        -11    1    4    4    0    0 -0.28324981042E+00 -0.13617583427E+01 -0.30898914754E+02  0.30930204485E+02  0.51100000000E-03 0.  1.
        -12    1    4    4    0    0 -0.49797935163E+01  0.44791394057E+00 -0.12101932043E+02  0.13094110491E+02  0.00000000000E+00 0.  1.
</event>
<event>
 8    1  0.2962813E-009  0.9118800E+02  0.7816164E-02  0.1184000E+00
        -11   -1    0    0    0    0  0.00000000000E+00  0.00000000000E+00  0.45593999997E+02  0.45594000000E+02  0.51100000000E-03 0. -1.
         11   -1    0    0    0    0 -0.00000000000E+00 -0.00000000000E+00 -0.45593999997E+02  0.45594000000E+02  0.51100000000E-03 0.  1.
         23    2    1    2    0    0  0.00000000000E+00 -0.27755575616E-15  0.00000000000E+00  0.91188000000E+02  0.91188000000E+02 0.  0.
    9900012    2    3    3    0    0  0.27036822263E+02 -0.35239278470E+00  0.36027760662E+02  0.46142317886E+02  0.10000001139E+02 0.  0.
        -12    1    3    3    0    0 -0.27036822263E+02  0.35239278470E+00 -0.36027760662E+02  0.45045682114E+02  0.00000000000E+00 0.  1.
         11    1    4    4    0    0  0.71167729030E+01 -0.18281588728E+01  0.77262322853E+01  0.10662330280E+02  0.51100000000E-03 0. -1.
        -11    1    4    4    0    0  0.49567365291E+01  0.37190205623E+01  0.69576177672E+01  0.93171238168E+01  0.51100000000E-03 0.  1.
        -12    1    4    4    0    0  0.14963312831E+02 -0.22432544741E+01  0.21343910610E+02  0.26162863789E+02  0.00000000000E+00 0.  1.
</event>
<event>
 8    1  0.2962813E-009  0.9118800E+02  0.7816164E-02  0.1184000E+00
        -11   -1    0    0    0    0  0.00000000000E+00  0.00000000000E+00  0.45593999997E+02  0.45594000000E+02  0.51100000000E-03 0. -1.
         11   -1    0    0    0    0 -0.00000000000E+00 -0.00000000000E+00 -0.45593999997E+02  0.45594000000E+02  0.51100000000E-03 0.  1.
         23    2    1    2    0    0  0.22204460493E-15  0.00000000000E+00 -0.71054273576E-14  0.91188000000E+02  0.91188000000E+02 0.  0.
    9900012    2    3    3    0    0 -0.14075203959E+01 -0.88124044090E+01  0.44152847086E+02  0.46142317732E+02  0.99999997381E+01 0.  0.
        -12    1    3    3    0    0  0.14075203959E+01  0.88124044090E+01 -0.44152847086E+02  0.45045682268E+02  0.00000000000E+00 0.  1.
         11    1    4    4    0    0 -0.44731230266E+00 -0.14514906934E+01  0.27602027726E+02  0.27643784987E+02  0.51100000000E-03 0. -1.
        -11    1    4    4    0    0 -0.61598890400E+00 -0.76446185011E+01  0.14538693740E+02  0.16437556092E+02  0.51100000000E-03 0.  1.
        -12    1    4    4    0    0 -0.34421918926E+00  0.28370478548E+00  0.20121256203E+01  0.20609766538E+01  0.00000000000E+00 0.  1.
</event>
<event>
 8    1  0.2962813E-009  0.9118800E+02  0.7816164E-02  0.1184000E+00
        -11   -1    0    0    0    0  0.00000000000E+00  0.00000000000E+00  0.45593999997E+02  0.45594000000E+02  0.51100000000E-03 0. -1.
         11   -1    0    0    0    0 -0.00000000000E+00 -0.00000000000E+00 -0.45593999997E+02  0.45594000000E+02  0.51100000000E-03 0.  1.
         23    2    1    2    0    0 -0.17763568394E-14  0.00000000000E+00  0.17763568394E-14  0.91188000000E+02  0.91188000000E+02 0.  0.
    9900012    2    3    3    0    0 -0.15942714429E+02 -0.40110463614E+02  0.12887749288E+02  0.46142317450E+02  0.99999971631E+01 0.  0.
        -12    1    3    3    0    0  0.15942714429E+02  0.40110463614E+02 -0.12887749288E+02  0.45045682550E+02  0.00000000000E+00 0.  1.
         11    1    4    4    0    0 -0.44681285823E+01 -0.17388773348E+02  0.73313857339E+01  0.19392855092E+02  0.51100000000E-03 0. -1.
        -11    1    4    4    0    0 -0.43235336073E+01 -0.13603891218E+02  0.50823590728E+01  0.15152200273E+02  0.51100000000E-03 0.  1.
         12    1    4    4    0    0 -0.71510522398E+01 -0.91177990485E+01  0.47400448146E+00  0.11597262085E+02  0.00000000000E+00 0. -1.
</event>
<event>
 8    1  0.2962813E-009  0.9118800E+02  0.7816164E-02  0.1184000E+00
        -11   -1    0    0    0    0  0.00000000000E+00  0.00000000000E+00  0.45593999997E+02  0.45594000000E+02  0.51100000000E-03 0. -1.
         11   -1    0    0    0    0 -0.00000000000E+00 -0.00000000000E+00 -0.45593999997E+02  0.45594000000E+02  0.51100000000E-03 0.  1.
         23    2    1    2    0    0  0.71054273576E-14  0.71054273576E-14 -0.26645352591E-14  0.91188000000E+02  0.91188000000E+02 0.  0.
    9900012    2    3    3    0    0 -0.29046174673E+02 -0.33640082231E+02  0.73333073865E+01  0.46142325481E+02  0.10000070392E+02 0.  0.
        -12    1    3    3    0    0  0.29046174673E+02  0.33640082231E+02 -0.73333073865E+01  0.45045674519E+02  0.00000000000E+00 0.  1.
         11    1    4    4    0    0 -0.14992418342E+02 -0.12951712877E+02  0.27406347412E+01  0.20000763816E+02  0.51100000000E-03 0. -1.
        -11    1    4    4    0    0 -0.23276606639E+01 -0.79844478186E+01  0.27281841742E+01  0.87528509803E+01  0.51100000000E-03 0.  1.
        -12    1    4    4    0    0 -0.11726095667E+02 -0.12703921536E+02  0.18644884711E+01  0.17388710684E+02  0.00000000000E+00 0.  1.
</event>
<event>
 8    1  0.2962813E-009  0.9118800E+02  0.7816164E-02  0.1184000E+00
        -11   -1    0    0    0    0  0.00000000000E+00  0.00000000000E+00  0.45593999997E+02  0.45594000000E+02  0.51100000000E-03 0. -1.
         11   -1    0    0    0    0 -0.00000000000E+00 -0.00000000000E+00 -0.45593999997E+02  0.45594000000E+02  0.51100000000E-03 0.  1.
         23    2    1    2    0    0  0.00000000000E+00  0.00000000000E+00  0.00000000000E+00  0.91188000000E+02  0.91188000000E+02 0.  0.
    9900012    2    3    3    0    0  0.17968201167E+02  0.21762868467E+02  0.35108898878E+02  0.46142317882E+02  0.10000001102E+02 0.  0.
        -12    1    3    3    0    0 -0.17968201167E+02 -0.21762868467E+02 -0.35108898878E+02  0.45045682118E+02  0.00000000000E+00 0.  1.
         11    1    4    4    0    0 -0.48419515861E+00  0.93281598522E+00  0.32379697645E+01  0.34042677731E+01  0.51100000000E-03 0. -1.
        -11    1    4    4    0    0  0.10328282833E+02  0.74060070568E+01  0.15804031349E+02  0.20280280421E+02  0.51100000000E-03 0.  1.
         12    1    4    4    0    0  0.81241134923E+01  0.13424045425E+02  0.16066897764E+02  0.22457769688E+02  0.00000000000E+00 0. -1.
</event>
<event>
 8    1  0.3136598E-009  0.9118800E+02  0.7816164E-02  0.1184000E+00
        -11   -1    0    0    0    0  0.00000000000E+00  0.00000000000E+00  0.45593999997E+02  0.45594000000E+02  0.51100000000E-03 0. -1.
         11   -1    0    0    0    0 -0.00000000000E+00 -0.00000000000E+00 -0.45593999997E+02  0.45594000000E+02  0.51100000000E-03 0.  1.
         23    2    1    2    0    0  0.00000000000E+00 -0.35527136788E-14  0.71054273576E-14  0.91188000000E+02  0.91188000000E+02 0.  0.
    9900012    2    3    3    0    0  0.67607264864E+01 -0.18059552010E+02 -0.40709442014E+02  0.46142317515E+02  0.99999977557E+01 0.  0.
         12    1    3    3    0    0 -0.67607264864E+01  0.18059552010E+02  0.40709442014E+02  0.45045682485E+02  0.00000000000E+00 0. -1.
         11    1    4    4    0    0  0.48365097524E+01 -0.69241057781E+01 -0.93082499715E+01  0.12568953226E+02  0.51100000000E-03 0. -1.
        -11    1    4    4    0    0  0.29607837472E+01 -0.94133155422E+01 -0.26318917688E+02  0.28108044728E+02  0.51100000000E-03 0.  1.
         12    1    4    4    0    0 -0.10365670132E+01 -0.17221306898E+01 -0.50822743548E+01  0.54653195610E+01  0.00000000000E+00 0. -1.
</event>
<event>
 8    1  0.2962813E-009  0.9118800E+02  0.7816164E-02  0.1184000E+00
        -11   -1    0    0    0    0  0.00000000000E+00  0.00000000000E+00  0.45593999997E+02  0.45594000000E+02  0.51100000000E-03 0. -1.
         11   -1    0    0    0    0 -0.00000000000E+00 -0.00000000000E+00 -0.45593999997E+02  0.45594000000E+02  0.51100000000E-03 0.  1.
         23    2    1    2    0    0  0.00000000000E+00 -0.35527136788E-14  0.00000000000E+00  0.91188000000E+02  0.91188000000E+02 0.  0.
    9900012    2    3    3    0    0 -0.32072731892E+02 -0.31077421067E+02 -0.58861695864E+01  0.46142320700E+02  0.10000026800E+02 0.  0.
        -12    1    3    3    0    0  0.32072731892E+02  0.31077421067E+02  0.58861695864E+01  0.45045679300E+02  0.00000000000E+00 0.  1.
         11    1    4    4    0    0 -0.92141835515E+01 -0.11961216944E+02  0.18484173918E+01  0.15211460693E+02  0.51100000000E-03 0. -1.
        -11    1    4    4    0    0 -0.95960969745E+01 -0.79792450260E+01 -0.17213122141E+01  0.12598267513E+02  0.51100000000E-03 0.  1.
         12    1    4    4    0    0 -0.13262451366E+02 -0.11136959097E+02 -0.60132747641E+01  0.18332592494E+02  0.00000000000E+00 0. -1.
</event>
<event>
 8    1  0.2962813E-009  0.9118800E+02  0.7816164E-02  0.1184000E+00
        -11   -1    0    0    0    0  0.00000000000E+00  0.00000000000E+00  0.45593999997E+02  0.45594000000E+02  0.51100000000E-03 0. -1.
         11   -1    0    0    0    0 -0.00000000000E+00 -0.00000000000E+00 -0.45593999997E+02  0.45594000000E+02  0.51100000000E-03 0.  1.
         23    2    1    2    0    0  0.00000000000E+00  0.00000000000E+00 -0.35527136788E-14  0.91188000000E+02  0.91188000000E+02 0.  0.
    9900012    2    3    3    0    0 -0.26902500590E+02 -0.24429656194E+02 -0.26618813238E+02  0.46142313658E+02  0.99999625881E+01 0.  0.
         12    1    3    3    0    0  0.26902500590E+02  0.24429656194E+02  0.26618813238E+02  0.45045686342E+02  0.00000000000E+00 0. -1.
         11    1    4    4    0    0 -0.52143550071E+01 -0.90481864576E+00 -0.17758950026E+01  0.55822932781E+01  0.51100000000E-03 0. -1.
        -11    1    4    4    0    0 -0.15505407486E+02 -0.18108166502E+02 -0.18677771675E+02  0.30285021221E+02  0.51100000000E-03 0.  1.
         12    1    4    4    0    0 -0.61827380971E+01 -0.54166710469E+01 -0.61651465603E+01  0.10274999159E+02  0.00000000000E+00 0. -1.
</event>
<event>
 8    1  0.2962813E-009  0.9118800E+02  0.7816164E-02  0.1184000E+00
        -11   -1    0    0    0    0  0.00000000000E+00  0.00000000000E+00  0.45593999997E+02  0.45594000000E+02  0.51100000000E-03 0. -1.
         11   -1    0    0    0    0 -0.00000000000E+00 -0.00000000000E+00 -0.45593999997E+02  0.45594000000E+02  0.51100000000E-03 0.  1.
         23    2    1    2    0    0 -0.17763568394E-14 -0.17763568394E-14  0.00000000000E+00  0.91188000000E+02  0.91188000000E+02 0.  0.
    9900012    2    3    3    0    0  0.12149170610E+02  0.10182494973E+02  0.42164297668E+02  0.46142317096E+02  0.99999939391E+01 0.  0.
        -12    1    3    3    0    0 -0.12149170610E+02 -0.10182494973E+02 -0.42164297668E+02  0.45045682904E+02  0.00000000000E+00 0.  1.
         11    1    4    4    0    0  0.58081726078E+01  0.69404383245E+01  0.32060951948E+02  0.33313798841E+02  0.51100000000E-03 0. -1.
        -11    1    4    4    0    0  0.20043074750E+01 -0.10178023780E+00  0.10946957859E+01  0.22860373566E+01  0.51100000000E-03 0.  1.
         12    1    4    4    0    0  0.43366905272E+01  0.33438368863E+01  0.90086499347E+01  0.10542480899E+02  0.00000000000E+00 0. -1.
</event>
<event>
 8    1  0.2962813E-009  0.9118800E+02  0.7816164E-02  0.1184000E+00
        -11   -1    0    0    0    0  0.00000000000E+00  0.00000000000E+00  0.45593999997E+02  0.45594000000E+02  0.51100000000E-03 0. -1.
         11   -1    0    0    0    0 -0.00000000000E+00 -0.00000000000E+00 -0.45593999997E+02  0.45594000000E+02  0.51100000000E-03 0.  1.
         23    2    1    2    0    0 -0.17763568394E-14  0.00000000000E+00  0.71054273576E-14  0.91188000000E+02  0.91188000000E+02 0.  0.
    9900012    2    3    3    0    0 -0.98241981480E+01  0.33392181784E+02  0.28593021322E+02  0.46142317168E+02  0.99999945883E+01 0.  0.
        -12    1    3    3    0    0  0.98241981480E+01 -0.33392181784E+02 -0.28593021322E+02  0.45045682832E+02  0.00000000000E+00 0.  1.
         11    1    4    4    0    0 -0.30355795559E+01  0.15525361774E+02  0.10205962077E+02  0.18825866876E+02  0.51100000000E-03 0. -1.
        -11    1    4    4    0    0 -0.18643839422E+01  0.48159418017E+01  0.93936886443E+01  0.10719636632E+02  0.51100000000E-03 0.  1.
         12    1    4    4    0    0 -0.49242346499E+01  0.13050878208E+02  0.89933706002E+01  0.16596813659E+02  0.00000000000E+00 0. -1.
</event>
<event>
 8    1  0.3727046E-009  0.9118800E+02  0.7816164E-02  0.1184000E+00
        -11   -1    0    0    0    0  0.00000000000E+00  0.00000000000E+00  0.45593999997E+02  0.45594000000E+02  0.51100000000E-03 0. -1.
         11   -1    0    0    0    0 -0.00000000000E+00 -0.00000000000E+00 -0.45593999997E+02  0.45594000000E+02  0.51100000000E-03 0.  1.
         23    2    1    2    0    0 -0.17763568394E-14  0.17763568394E-14  0.71054273576E-14  0.91188000000E+02  0.91188000000E+02 0.  0.
    9900012    2    3    3    0    0  0.10544045664E+02  0.13268049096E+02 -0.41736021423E+02  0.46142317521E+02  0.99999978111E+01 0.  0.
         12    1    3    3    0    0 -0.10544045664E+02 -0.13268049096E+02  0.41736021423E+02  0.45045682479E+02  0.00000000000E+00 0. -1.
         11    1    4    4    0    0 -0.77645576313E+00  0.34240242431E+00 -0.27671874980E+01  0.28943824700E+01  0.51100000000E-03 0. -1.
        -11    1    4    4    0    0  0.43302827792E+01  0.10436196571E+02 -0.22168215816E+02  0.24881626565E+02  0.51100000000E-03 0.  1.
        -12    1    4    4    0    0  0.69902186479E+01  0.24894501007E+01 -0.16800618109E+02  0.18366308486E+02  0.00000000000E+00 0.  1.
</event>
<event>
 8    1  0.2962813E-009  0.9118800E+02  0.7816164E-02  0.1184000E+00
        -11   -1    0    0    0    0  0.00000000000E+00  0.00000000000E+00  0.45593999997E+02  0.45594000000E+02  0.51100000000E-03 0. -1.
         11   -1    0    0    0    0 -0.00000000000E+00 -0.00000000000E+00 -0.45593999997E+02  0.45594000000E+02  0.51100000000E-03 0.  1.
         23    2    1    2    0    0  0.00000000000E+00  0.00000000000E+00  0.00000000000E+00  0.91188000000E+02  0.91188000000E+02 0.  0.
    9900012    2    3    3    0    0  0.11021031855E+02  0.19276404756E+02  0.39192734443E+02  0.46142319224E+02  0.10000013337E+02 0.  0.
        -12    1    3    3    0    0 -0.11021031855E+02 -0.19276404756E+02 -0.39192734443E+02  0.45045680776E+02  0.00000000000E+00 0.  1.
         11    1    4    4    0    0  0.53273206996E+00  0.53437267359E+01  0.44304454528E+01  0.69619010376E+01  0.51100000000E-03 0. -1.
        -11    1    4    4    0    0  0.35051663901E+01  0.15820530606E+01  0.85363885654E+01  0.93626392278E+01  0.51100000000E-03 0.  1.
         12    1    4    4    0    0  0.69831333951E+01  0.12350624960E+02  0.26225900425E+02  0.29817778958E+02  0.00000000000E+00 0. -1.
</event>
<event>
 8    1  0.2962813E-009  0.9118800E+02  0.7816164E-02  0.1184000E+00
        -11   -1    0    0    0    0  0.00000000000E+00  0.00000000000E+00  0.45593999997E+02  0.45594000000E+02  0.51100000000E-03 0. -1.
         11   -1    0    0    0    0 -0.00000000000E+00 -0.00000000000E+00 -0.45593999997E+02  0.45594000000E+02  0.51100000000E-03 0.  1.
         23    2    1    2    0    0  0.00000000000E+00  0.00000000000E+00  0.00000000000E+00  0.91188000000E+02  0.91188000000E+02 0.  0.
    9900012    2    3    3    0    0  0.41698637290E+01  0.39054208012E+02  0.22056617114E+02  0.46142320014E+02  0.10000020540E+02 0.  0.
        -12    1    3    3    0    0 -0.41698637290E+01 -0.39054208012E+02 -0.22056617114E+02  0.45045679986E+02  0.00000000000E+00 0.  1.
         11    1    4    4    0    0  0.24557252077E+01  0.23135351468E+02  0.14200226641E+02  0.27256586557E+02  0.51100000000E-03 0. -1.
        -11    1    4    4    0    0 -0.17362582887E+01  0.40976098490E+01  0.39940047801E+01  0.59797218802E+01  0.51100000000E-03 0.  1.
        -12    1    4    4    0    0  0.34503968099E+01  0.11821246695E+02  0.38623856927E+01  0.12906011576E+02  0.00000000000E+00 0.  1.
</event>
<event>
 8    1  0.2962813E-009  0.9118800E+02  0.7816164E-02  0.1184000E+00
        -11   -1    0    0    0    0  0.00000000000E+00  0.00000000000E+00  0.45593999997E+02  0.45594000000E+02  0.51100000000E-03 0.  1.
         11   -1    0    0    0    0 -0.00000000000E+00 -0.00000000000E+00 -0.45593999997E+02  0.45594000000E+02  0.51100000000E-03 0. -1.
         23    2    1    2    0    0  0.00000000000E+00  0.00000000000E+00 -0.17763568394E-14  0.91188000000E+02  0.91188000000E+02 0.  0.
    9900012    2    3    3    0    0  0.24851144831E+02 -0.34649642625E+02 -0.14523648625E+02  0.46142317601E+02  0.99999985381E+01 0.  0.
         12    1    3    3    0    0 -0.24851144831E+02  0.34649642625E+02  0.14523648625E+02  0.45045682399E+02  0.00000000000E+00 0. -1.
         11    1    4    4    0    0  0.13273719255E+02 -0.25755694694E+02 -0.87197348526E+01  0.30258572475E+02  0.51100000000E-03 0. -1.
        -11    1    4    4    0    0  0.67467377306E+01 -0.62942522554E+01 -0.43935151104E+01  0.10219542883E+02  0.51100000000E-03 0.  1.
         12    1    4    4    0    0  0.48306878450E+01 -0.25996956752E+01 -0.14103986617E+01  0.56642022425E+01  0.00000000000E+00 0. -1.
</event>
<event>
 8    1  0.2962813E-009  0.9118800E+02  0.7816164E-02  0.1184000E+00
        -11   -1    0    0    0    0  0.00000000000E+00  0.00000000000E+00  0.45593999997E+02  0.45594000000E+02  0.51100000000E-03 0. -1.
         11   -1    0    0    0    0 -0.00000000000E+00 -0.00000000000E+00 -0.45593999997E+02  0.45594000000E+02  0.51100000000E-03 0.  1.
         23    2    1    2    0    0  0.35527136788E-14  0.00000000000E+00  0.00000000000E+00  0.91188000000E+02  0.91188000000E+02 0.  0.
    9900012    2    3    3    0    0  0.18251675075E+02 -0.26537199921E+02 -0.31492330214E+02  0.46142317798E+02  0.10000000339E+02 0.  0.
         12    1    3    3    0    0 -0.18251675075E+02  0.26537199921E+02  0.31492330214E+02  0.45045682202E+02  0.00000000000E+00 0. -1.
         11    1    4    4    0    0  0.85987249569E+01 -0.54373426650E+01 -0.83543526934E+01  0.13164268887E+02  0.51100000000E-03 0. -1.
        -11    1    4    4    0    0  0.47290145122E+01 -0.86433590223E+01 -0.74641067324E+01  0.12360587487E+02  0.51100000000E-03 0.  1.
         12    1    4    4    0    0  0.49239356056E+01 -0.12456498234E+02 -0.15673870788E+02  0.20617461425E+02  0.00000000000E+00 0. -1.
</event>
<event>
 8    1  0.2962813E-009  0.9118800E+02  0.7816164E-02  0.1184000E+00
        -11   -1    0    0    0    0  0.00000000000E+00  0.00000000000E+00  0.45593999997E+02  0.45594000000E+02  0.51100000000E-03 0. -1.
         11   -1    0    0    0    0 -0.00000000000E+00 -0.00000000000E+00 -0.45593999997E+02  0.45594000000E+02  0.51100000000E-03 0.  1.
         23    2    1    2    0    0 -0.35527136788E-14  0.44408920985E-15  0.00000000000E+00  0.91188000000E+02  0.91188000000E+02 0.  0.
    9900012    2    3    3    0    0 -0.31626471603E+02  0.15633983170E+01  0.32038031932E+02  0.46142318626E+02  0.10000007888E+02 0.  0.
        -12    1    3    3    0    0  0.31626471603E+02 -0.15633983170E+01 -0.32038031932E+02  0.45045681374E+02  0.00000000000E+00 0.  1.
         11    1    4    4    0    0 -0.13064253971E+02  0.85187167802E+00  0.94702904936E+01  0.16158181193E+02  0.51100000000E-03 0.  1.
        -11    1    4    4    0    0 -0.46298170503E+01  0.26615557990E+01  0.88406410347E+01  0.10328408365E+02  0.51100000000E-03 0. -1.
        -12    1    4    4    0    0 -0.13932400583E+02 -0.19500291600E+01  0.13727100404E+02  0.19655729068E+02  0.00000000000E+00 0.  1.
</event>
<event>
 8    1  0.3056876E-009  0.9118800E+02  0.7816164E-02  0.1184000E+00
        -11   -1    0    0    0    0  0.00000000000E+00  0.00000000000E+00  0.45593999997E+02  0.45594000000E+02  0.51100000000E-03 0. -1.
         11   -1    0    0    0    0 -0.00000000000E+00 -0.00000000000E+00 -0.45593999997E+02  0.45594000000E+02  0.51100000000E-03 0.  1.
         23    2    1    2    0    0 -0.35527136788E-14  0.00000000000E+00 -0.71054273576E-14  0.91188000000E+02  0.91188000000E+02 0.  0.
    9900012    2    3    3    0    0 -0.27547370778E+02  0.80162389405E+01 -0.34727447327E+02  0.46142319614E+02  0.10000016900E+02 0.  0.
         12    1    3    3    0    0  0.27547370778E+02 -0.80162389405E+01  0.34727447327E+02  0.45045680386E+02  0.00000000000E+00 0. -1.
         11    1    4    4    0    0 -0.45421015146E+01  0.30314630047E+01 -0.98050494757E+01  0.11223165757E+02  0.51100000000E-03 0. -1.
        -11    1    4    4    0    0 -0.18298375629E+02  0.22129194305E+01 -0.15754509854E+02  0.24247312100E+02  0.51100000000E-03 0.  1.
        -12    1    4    4    0    0 -0.47068936343E+01  0.27718565053E+01 -0.91678879976E+01  0.10671841758E+02  0.00000000000E+00 0.  1.
</event>
<event>
 8    1  0.2962813E-009  0.9118800E+02  0.7816164E-02  0.1184000E+00
        -11   -1    0    0    0    0  0.00000000000E+00  0.00000000000E+00  0.45593999997E+02  0.45594000000E+02  0.51100000000E-03 0. -1.
         11   -1    0    0    0    0 -0.00000000000E+00 -0.00000000000E+00 -0.45593999997E+02  0.45594000000E+02  0.51100000000E-03 0.  1.
         23    2    1    2    0    0 -0.35527136788E-14  0.00000000000E+00  0.71054273576E-14  0.91188000000E+02  0.91188000000E+02 0.  0.
    9900012    2    3    3    0    0  0.22163156639E+02  0.18739208483E+02 -0.34449237585E+02  0.46142318554E+02  0.10000007227E+02 0.  0.
         12    1    3    3    0    0 -0.22163156639E+02 -0.18739208483E+02  0.34449237585E+02  0.45045681446E+02  0.00000000000E+00 0. -1.
         11    1    4    4    0    0  0.55959495852E+01  0.25556787031E+01 -0.12398505910E+02  0.13840848762E+02  0.51100000000E-03 0. -1.
        -11    1    4    4    0    0  0.99227495342E+01  0.73874327619E+01 -0.95045774567E+01  0.15600388265E+02  0.51100000000E-03 0.  1.
         12    1    4    4    0    0  0.66444575193E+01  0.87960970180E+01 -0.12546154218E+02  0.16701081526E+02  0.00000000000E+00 0. -1.
</event>
<event>
 8    1  0.2962813E-009  0.9118800E+02  0.7816164E-02  0.1184000E+00
        -11   -1    0    0    0    0  0.00000000000E+00  0.00000000000E+00  0.45593999997E+02  0.45594000000E+02  0.51100000000E-03 0. -1.
         11   -1    0    0    0    0 -0.00000000000E+00 -0.00000000000E+00 -0.45593999997E+02  0.45594000000E+02  0.51100000000E-03 0.  1.
         23    2    1    2    0    0  0.71054273576E-14 -0.35527136788E-14  0.35527136788E-14  0.91188000000E+02  0.91188000000E+02 0.  0.
    9900012    2    3    3    0    0 -0.34936933427E+02  0.16015107303E+02 -0.23495549397E+02  0.46142314073E+02  0.99999663678E+01 0.  0.
         12    1    3    3    0    0  0.34936933427E+02 -0.16015107303E+02  0.23495549397E+02  0.45045685927E+02  0.00000000000E+00 0. -1.
         11    1    4    4    0    0 -0.64694546985E+01  0.37935463263E+01 -0.90675362437E+01  0.11767117388E+02  0.51100000000E-03 0. -1.
        -11    1    4    4    0    0 -0.24578614469E+02  0.10986975838E+02 -0.13779159214E+02  0.30243795334E+02  0.51100000000E-03 0.  1.
         12    1    4    4    0    0 -0.38888642596E+01  0.12345851381E+01 -0.64885393894E+00  0.41314013515E+01  0.00000000000E+00 0. -1.
</event>
<event>
 8    1  0.2962813E-009  0.9118800E+02  0.7816164E-02  0.1184000E+00
        -11   -1    0    0    0    0  0.00000000000E+00  0.00000000000E+00  0.45593999997E+02  0.45594000000E+02  0.51100000000E-03 0. -1.
         11   -1    0    0    0    0 -0.00000000000E+00 -0.00000000000E+00 -0.45593999997E+02  0.45594000000E+02  0.51100000000E-03 0.  1.
         23    2    1    2    0    0  0.00000000000E+00 -0.35527136788E-14 -0.71054273576E-14  0.91188000000E+02  0.91188000000E+02 0.  0.
    9900012    2    3    3    0    0  0.11012055611E+02 -0.18014541501E+02 -0.39791009219E+02  0.46142317755E+02  0.99999999414E+01 0.  0.
         12    1    3    3    0    0 -0.11012055611E+02  0.18014541501E+02  0.39791009219E+02  0.45045682245E+02  0.00000000000E+00 0. -1.
         11    1    4    4    0    0 -0.10869845426E+01 -0.48285826986E+01 -0.12711040250E+02  0.13640648474E+02  0.51100000000E-03 0. -1.
        -11    1    4    4    0    0  0.74563482930E+00 -0.12947942174E+01 -0.28920853697E+01  0.32552452151E+01  0.51100000000E-03 0.  1.
         12    1    4    4    0    0  0.11353405324E+02 -0.11891164585E+02 -0.24187883599E+02  0.29246424066E+02  0.00000000000E+00 0. -1.
</event>
<event>
 8    1  0.2962813E-009  0.9118800E+02  0.7816164E-02  0.1184000E+00
        -11   -1    0    0    0    0  0.00000000000E+00  0.00000000000E+00  0.45593999997E+02  0.45594000000E+02  0.51100000000E-03 0. -1.
         11   -1    0    0    0    0 -0.00000000000E+00 -0.00000000000E+00 -0.45593999997E+02  0.45594000000E+02  0.51100000000E-03 0.  1.
         23    2    1    2    0    0  0.00000000000E+00  0.35527136788E-14  0.00000000000E+00  0.91188000000E+02  0.91188000000E+02 0.  0.
    9900012    2    3    3    0    0 -0.61737313935E+01  0.30706066770E+02 -0.32374924547E+02  0.46142320571E+02  0.10000025621E+02 0.  0.
         12    1    3    3    0    0  0.61737313935E+01 -0.30706066770E+02  0.32374924547E+02  0.45045679429E+02  0.00000000000E+00 0. -1.
         11    1    4    4    0    0 -0.11756822427E+01 -0.43303001625E-01 -0.22407704910E+00  0.11976287700E+01  0.51100000000E-03 0. -1.
        -11    1    4    4    0    0 -0.20746545623E+00  0.13209677479E+02 -0.14163776706E+02  0.19368820094E+02  0.51100000000E-03 0.  1.
         12    1    4    4    0    0 -0.47905836946E+01  0.17539692293E+02 -0.17987070792E+02  0.25575871706E+02  0.00000000000E+00 0. -1.
</event>
<event>
 8    1  0.2962813E-009  0.9118800E+02  0.7816164E-02  0.1184000E+00
        -11   -1    0    0    0    0  0.00000000000E+00  0.00000000000E+00  0.45593999997E+02  0.45594000000E+02  0.51100000000E-03 0. -1.
         11   -1    0    0    0    0 -0.00000000000E+00 -0.00000000000E+00 -0.45593999997E+02  0.45594000000E+02  0.51100000000E-03 0.  1.
         23    2    1    2    0    0 -0.35527136788E-14  0.00000000000E+00  0.00000000000E+00  0.91188000000E+02  0.91188000000E+02 0.  0.
    9900012    2    3    3    0    0  0.14633453951E+02 -0.27844293936E+02 -0.32243924673E+02  0.46142319212E+02  0.10000013229E+02 0.  0.
         12    1    3    3    0    0 -0.14633453951E+02  0.27844293936E+02  0.32243924673E+02  0.45045680788E+02  0.00000000000E+00 0. -1.
         11    1    4    4    0    0  0.12084197361E+02 -0.21010328987E+02 -0.23516342155E+02  0.33770994931E+02  0.51100000000E-03 0. -1.
        -11    1    4    4    0    0  0.73119928354E+00 -0.68061251951E+01 -0.76160201013E+01  0.10240202879E+02  0.51100000000E-03 0.  1.
         12    1    4    4    0    0  0.18180573068E+01 -0.27839754004E-01 -0.11115624169E+01  0.21311214019E+01  0.00000000000E+00 0. -1.
</event>
<event>
 8    1  0.2962813E-009  0.9118800E+02  0.7816164E-02  0.1184000E+00
        -11   -1    0    0    0    0  0.00000000000E+00  0.00000000000E+00  0.45593999997E+02  0.45594000000E+02  0.51100000000E-03 0. -1.
         11   -1    0    0    0    0 -0.00000000000E+00 -0.00000000000E+00 -0.45593999997E+02  0.45594000000E+02  0.51100000000E-03 0.  1.
         23    2    1    2    0    0  0.00000000000E+00 -0.17763568394E-14 -0.14210854715E-13  0.91188000000E+02  0.91188000000E+02 0.  0.
    9900012    2    3    3    0    0  0.19289429263E+02 -0.76463488801E+01 -0.39982052258E+02  0.46142320571E+02  0.10000025625E+02 0.  0.
         12    1    3    3    0    0 -0.19289429263E+02  0.76463488801E+01  0.39982052258E+02  0.45045679429E+02  0.00000000000E+00 0. -1.
         11    1    4    4    0    0  0.31843033759E+01 -0.33277890875E+01 -0.93532001806E+01  0.10425752830E+02  0.51100000000E-03 0. -1.
        -11    1    4    4    0    0  0.14584372618E+02 -0.56888742110E+01 -0.23030388488E+02  0.27847190318E+02  0.51100000000E-03 0.  1.
        -12    1    4    4    0    0  0.15207532688E+01  0.13703144184E+01 -0.75984635890E+01  0.78693774228E+01  0.00000000000E+00 0.  1.
</event>
<event>
 8    1  0.2962813E-009  0.9118800E+02  0.7816164E-02  0.1184000E+00
        -11   -1    0    0    0    0  0.00000000000E+00  0.00000000000E+00  0.45593999997E+02  0.45594000000E+02  0.51100000000E-03 0. -1.
         11   -1    0    0    0    0 -0.00000000000E+00 -0.00000000000E+00 -0.45593999997E+02  0.45594000000E+02  0.51100000000E-03 0.  1.
         23    2    1    2    0    0  0.00000000000E+00  0.00000000000E+00  0.00000000000E+00  0.91188000000E+02  0.91188000000E+02 0.  0.
    9900012    2    3    3    0    0  0.96746015800E+01  0.27769697468E+02 -0.34122702284E+02  0.46142325132E+02  0.10000067212E+02 0.  0.
         12    1    3    3    0    0 -0.96746015800E+01 -0.27769697468E+02  0.34122702284E+02  0.45045674868E+02  0.00000000000E+00 0. -1.
         11    1    4    4    0    0  0.84553896357E+00 -0.68980631624E+00 -0.55954887400E+00  0.12263213675E+01  0.51100000000E-03 0. -1.
        -11    1    4    4    0    0  0.76220411597E+01  0.22392269801E+02 -0.26154438220E+02  0.35264201354E+02  0.51100000000E-03 0.  1.
         12    1    4    4    0    0  0.12070214567E+01  0.60672339834E+01 -0.74087151894E+01  0.96518024101E+01  0.00000000000E+00 0. -1.
</event>
<event>
 8    1  0.2962813E-009  0.9118800E+02  0.7816164E-02  0.1184000E+00
        -11   -1    0    0    0    0  0.00000000000E+00  0.00000000000E+00  0.45593999997E+02  0.45594000000E+02  0.51100000000E-03 0. -1.
         11   -1    0    0    0    0 -0.00000000000E+00 -0.00000000000E+00 -0.45593999997E+02  0.45594000000E+02  0.51100000000E-03 0.  1.
         23    2    1    2    0    0 -0.17763568394E-14  0.88817841970E-15 -0.71054273576E-14  0.91188000000E+02  0.91188000000E+02 0.  0.
    9900012    2    3    3    0    0  0.50201148028E+01 -0.78126030687E+01  0.44078057843E+02  0.46142317604E+02  0.99999985679E+01 0.  0.
        -12    1    3    3    0    0 -0.50201148028E+01  0.78126030687E+01 -0.44078057843E+02  0.45045682396E+02  0.00000000000E+00 0.  1.
         11    1    4    4    0    0 -0.12983069786E+01 -0.17743377896E+01  0.62334741400E+01  0.66098468755E+01  0.51100000000E-03 0. -1.
        -11    1    4    4    0    0  0.75941495057E+01 -0.63140602167E+01  0.35509908066E+02  0.36857726927E+02  0.51100000000E-03 0.  1.
         12    1    4    4    0    0 -0.12757277243E+01  0.27579493753E+00  0.23346756366E+01  0.26747438012E+01  0.00000000000E+00 0. -1.
</event>
<event>
 8    1  0.2962813E-009  0.9118800E+02  0.7816164E-02  0.1184000E+00
        -11   -1    0    0    0    0  0.00000000000E+00  0.00000000000E+00  0.45593999997E+02  0.45594000000E+02  0.51100000000E-03 0. -1.
         11   -1    0    0    0    0 -0.00000000000E+00 -0.00000000000E+00 -0.45593999997E+02  0.45594000000E+02  0.51100000000E-03 0.  1.
         23    2    1    2    0    0  0.00000000000E+00  0.00000000000E+00 -0.71054273576E-14  0.91188000000E+02  0.91188000000E+02 0.  0.
    9900012    2    3    3    0    0  0.76277957174E+01  0.12335072817E+02  0.42647118499E+02  0.46142312024E+02  0.99999476858E+01 0.  0.
        -12    1    3    3    0    0 -0.76277957174E+01 -0.12335072817E+02 -0.42647118499E+02  0.45045687976E+02  0.00000000000E+00 0.  1.
         11    1    4    4    0    0  0.67819046103E+01  0.64455314576E+01  0.15327141571E+02  0.17957181709E+02  0.51100000000E-03 0. -1.
        -11    1    4    4    0    0  0.93942107876E+00  0.58937383157E-01  0.21251793921E+01  0.23243006019E+01  0.51100000000E-03 0.  1.
         12    1    4    4    0    0 -0.93529971655E-01  0.58306039763E+01  0.25194797536E+02  0.25860829714E+02  0.00000000000E+00 0. -1.
</event>
<event>
 8    1  0.2962813E-009  0.9118800E+02  0.7816164E-02  0.1184000E+00
        -11   -1    0    0    0    0  0.00000000000E+00  0.00000000000E+00  0.45593999997E+02  0.45594000000E+02  0.51100000000E-03 0. -1.
         11   -1    0    0    0    0 -0.00000000000E+00 -0.00000000000E+00 -0.45593999997E+02  0.45594000000E+02  0.51100000000E-03 0.  1.
         23    2    1    2    0    0  0.00000000000E+00  0.00000000000E+00  0.00000000000E+00  0.91188000000E+02  0.91188000000E+02 0.  0.
    9900012    2    3    3    0    0 -0.10259194277E+02  0.19689727795E+02 -0.39194094644E+02  0.46142317601E+02  0.99999985372E+01 0.  0.
         12    1    3    3    0    0  0.10259194277E+02 -0.19689727795E+02  0.39194094644E+02  0.45045682399E+02  0.00000000000E+00 0. -1.
         11    1    4    4    0    0 -0.87332150036E+01  0.11165300629E+02 -0.22551769281E+02  0.26636728035E+02  0.51100000000E-03 0. -1.
        -11    1    4    4    0    0 -0.10773812404E+01  0.51942911596E+01 -0.14692010963E+02  0.15620390436E+02  0.51100000000E-03 0.  1.
        -12    1    4    4    0    0 -0.44859803272E+00  0.33301360067E+01 -0.19503144003E+01  0.38851991298E+01  0.00000000000E+00 0.  1.
</event>
<event>
 8    1  0.2962813E-009  0.9118800E+02  0.7816164E-02  0.1184000E+00
        -11   -1    0    0    0    0  0.00000000000E+00  0.00000000000E+00  0.45593999997E+02  0.45594000000E+02  0.51100000000E-03 0. -1.
         11   -1    0    0    0    0 -0.00000000000E+00 -0.00000000000E+00 -0.45593999997E+02  0.45594000000E+02  0.51100000000E-03 0.  1.
         23    2    1    2    0    0  0.00000000000E+00  0.00000000000E+00  0.35527136788E-14  0.91188000000E+02  0.91188000000E+02 0.  0.
    9900012    2    3    3    0    0 -0.28042116274E+01 -0.33129064418E+02 -0.30392679177E+02  0.46142318080E+02  0.10000002909E+02 0.  0.
         12    1    3    3    0    0  0.28042116274E+01  0.33129064418E+02  0.30392679177E+02  0.45045681920E+02  0.00000000000E+00 0. -1.
         11    1    4    4    0    0 -0.26982357012E+01 -0.13005588655E+02 -0.73272723406E+01  0.15169533031E+02  0.51100000000E-03 0. -1.
        -11    1    4    4    0    0  0.19802456643E+00 -0.18454152357E+02 -0.18628193941E+02  0.26222215061E+02  0.51100000000E-03 0.  1.
         12    1    4    4    0    0 -0.30400049264E+00 -0.16693234063E+01 -0.44372128958E+01  0.47505699887E+01  0.00000000000E+00 0. -1.
</event>
<event>
 8    1  0.2962813E-009  0.9118800E+02  0.7816164E-02  0.1184000E+00
        -11   -1    0    0    0    0  0.00000000000E+00  0.00000000000E+00  0.45593999997E+02  0.45594000000E+02  0.51100000000E-03 0. -1.
         11   -1    0    0    0    0 -0.00000000000E+00 -0.00000000000E+00 -0.45593999997E+02  0.45594000000E+02  0.51100000000E-03 0.  1.
         23    2    1    2    0    0  0.00000000000E+00  0.00000000000E+00 -0.71054273576E-14  0.91188000000E+02  0.91188000000E+02 0.  0.
    9900012    2    3    3    0    0 -0.15794841082E+02  0.35463983143E+01 -0.42036407581E+02  0.46142317541E+02  0.99999979961E+01 0.  0.
         12    1    3    3    0    0  0.15794841082E+02 -0.35463983143E+01  0.42036407581E+02  0.45045682459E+02  0.00000000000E+00 0. -1.
         11    1    4    4    0    0 -0.76465059818E+01  0.56401291583E+01 -0.18774616346E+02  0.21042013446E+02  0.51100000000E-03 0. -1.
        -11    1    4    4    0    0 -0.53452989424E+01  0.78788942894E+00 -0.12880379804E+02  0.13967719022E+02  0.51100000000E-03 0.  1.
         12    1    4    4    0    0 -0.28030361578E+01 -0.28816202730E+01 -0.10381411431E+02  0.11132585073E+02  0.00000000000E+00 0. -1.
</event>
<event>
 8    1  0.2962813E-009  0.9118800E+02  0.7816164E-02  0.1184000E+00
        -11   -1    0    0    0    0  0.00000000000E+00  0.00000000000E+00  0.45593999997E+02  0.45594000000E+02  0.51100000000E-03 0.  1.
         11   -1    0    0    0    0 -0.00000000000E+00 -0.00000000000E+00 -0.45593999997E+02  0.45594000000E+02  0.51100000000E-03 0. -1.
         23    2    1    2    0    0  0.00000000000E+00  0.00000000000E+00  0.00000000000E+00  0.91188000000E+02  0.91188000000E+02 0.  0.
    9900012    2    3    3    0    0 -0.16936078375E+02 -0.40653299768E+02 -0.94653008995E+01  0.46142318144E+02  0.10000003487E+02 0.  0.
        -12    1    3    3    0    0  0.16936078375E+02  0.40653299768E+02  0.94653008995E+01  0.45045681856E+02  0.00000000000E+00 0.  1.
         11    1    4    4    0    0 -0.55219926561E+01 -0.51726458774E+01 -0.15522509638E+00  0.75678770708E+01  0.51100000000E-03 0.  1.
        -11    1    4    4    0    0 -0.11753133314E+00 -0.17898737373E+01 -0.10998030282E+01  0.21040505155E+01  0.51100000000E-03 0. -1.
         12    1    4    4    0    0 -0.11296554386E+02 -0.33690780154E+02 -0.82102727749E+01  0.36470390557E+02  0.00000000000E+00 0. -1.
</event>
<event>
 8    1  0.2962813E-009  0.9118800E+02  0.7816164E-02  0.1184000E+00
        -11   -1    0    0    0    0  0.00000000000E+00  0.00000000000E+00  0.45593999997E+02  0.45594000000E+02  0.51100000000E-03 0. -1.
         11   -1    0    0    0    0 -0.00000000000E+00 -0.00000000000E+00 -0.45593999997E+02  0.45594000000E+02  0.51100000000E-03 0.  1.
         23    2    1    2    0    0  0.00000000000E+00  0.35527136788E-14  0.00000000000E+00  0.91188000000E+02  0.91188000000E+02 0.  0.
    9900012    2    3    3    0    0  0.17111098554E+02 -0.20990938843E+02 -0.35995880362E+02  0.46142327508E+02  0.10000088876E+02 0.  0.
         12    1    3    3    0    0 -0.17111098554E+02  0.20990938843E+02  0.35995880362E+02  0.45045672492E+02  0.00000000000E+00 0. -1.
         11    1    4    4    0    0  0.12715320569E+02 -0.10399654716E+02 -0.18126334196E+02  0.24462137826E+02  0.51100000000E-03 0.  1.
        -11    1    4    4    0    0  0.23082483256E+01 -0.52163111840E+01 -0.50294697104E+01  0.76048325774E+01  0.51100000000E-03 0. -1.
         12    1    4    4    0    0  0.20875296602E+01 -0.53749729429E+01 -0.12840076456E+02  0.14075357104E+02  0.00000000000E+00 0. -1.
</event>
<event>
 8    1  0.2962813E-009  0.9118800E+02  0.7816164E-02  0.1184000E+00
        -11   -1    0    0    0    0  0.00000000000E+00  0.00000000000E+00  0.45593999997E+02  0.45594000000E+02  0.51100000000E-03 0. -1.
         11   -1    0    0    0    0 -0.00000000000E+00 -0.00000000000E+00 -0.45593999997E+02  0.45594000000E+02  0.51100000000E-03 0.  1.
         23    2    1    2    0    0  0.00000000000E+00  0.00000000000E+00  0.71054273576E-14  0.91188000000E+02  0.91188000000E+02 0.  0.
    9900012    2    3    3    0    0  0.91470224075E+01  0.27975325867E+01 -0.44018398223E+02  0.46142316637E+02  0.99999897483E+01 0.  0.
         12    1    3    3    0    0 -0.91470224075E+01 -0.27975325867E+01  0.44018398223E+02  0.45045683363E+02  0.00000000000E+00 0. -1.
         11    1    4    4    0    0  0.11417985273E+01  0.32695507679E+01 -0.16717899342E+02  0.17072838803E+02  0.51100000000E-03 0. -1.
        -11    1    4    4    0    0  0.40153790547E+01 -0.17276457608E+01 -0.21368949972E+02  0.21811466067E+02  0.51100000000E-03 0.  1.
        -12    1    4    4    0    0  0.39898448255E+01  0.12556275796E+01 -0.59315489087E+01  0.72580117668E+01  0.00000000000E+00 0.  1.
</event>
<event>
 8    1  0.2962813E-009  0.9118800E+02  0.7816164E-02  0.1184000E+00
        -11   -1    0    0    0    0  0.00000000000E+00  0.00000000000E+00  0.45593999997E+02  0.45594000000E+02  0.51100000000E-03 0.  1.
         11   -1    0    0    0    0 -0.00000000000E+00 -0.00000000000E+00 -0.45593999997E+02  0.45594000000E+02  0.51100000000E-03 0. -1.
         23    2    1    2    0    0  0.00000000000E+00  0.00000000000E+00  0.88817841970E-15  0.91188000000E+02  0.91188000000E+02 0.  0.
    9900012    2    3    3    0    0  0.19396965659E+02  0.40304690677E+02  0.53294597758E+01  0.46142317533E+02  0.99999979233E+01 0.  0.
        -12    1    3    3    0    0 -0.19396965659E+02 -0.40304690677E+02 -0.53294597758E+01  0.45045682467E+02  0.00000000000E+00 0.  1.
         11    1    4    4    0    0  0.86729518878E+00  0.64696660144E+01 -0.77049776718E+00  0.65728567878E+01  0.51100000000E-03 0. -1.
        -11    1    4    4    0    0  0.99819156840E+01  0.13259762847E+02  0.46795239082E+01  0.17244068422E+02  0.51100000000E-03 0.  1.
        -12    1    4    4    0    0  0.85477547864E+01  0.20575261816E+02  0.14204336348E+01  0.22325392323E+02  0.00000000000E+00 0.  1.
</event>
<event>
 8    1  0.2962813E-009  0.9118800E+02  0.7816164E-02  0.1184000E+00
        -11   -1    0    0    0    0  0.00000000000E+00  0.00000000000E+00  0.45593999997E+02  0.45594000000E+02  0.51100000000E-03 0. -1.
         11   -1    0    0    0    0 -0.00000000000E+00 -0.00000000000E+00 -0.45593999997E+02  0.45594000000E+02  0.51100000000E-03 0.  1.
         23    2    1    2    0    0  0.00000000000E+00  0.00000000000E+00  0.00000000000E+00  0.91188000000E+02  0.91188000000E+02 0.  0.
    9900012    2    3    3    0    0  0.99729342893E+01  0.38582127482E+02  0.21001751405E+02  0.46142317172E+02  0.99999946237E+01 0.  0.
        -12    1    3    3    0    0 -0.99729342893E+01 -0.38582127482E+02 -0.21001751405E+02  0.45045682828E+02  0.00000000000E+00 0.  1.
         11    1    4    4    0    0  0.62000741641E+00  0.10704214911E+02  0.19567649157E+01  0.10899245628E+02  0.51100000000E-03 0. -1.
        -11    1    4    4    0    0  0.25665115615E+01  0.55384483553E+01  0.56948522072E+01  0.83482173967E+01  0.51100000000E-03 0.  1.
         12    1    4    4    0    0  0.67864153114E+01  0.22339464216E+02  0.13350134282E+02  0.26894854147E+02  0.00000000000E+00 0. -1.
</event>
<event>
 8    1  0.2962813E-009  0.9118800E+02  0.7816164E-02  0.1184000E+00
        -11   -1    0    0    0    0  0.00000000000E+00  0.00000000000E+00  0.45593999997E+02  0.45594000000E+02  0.51100000000E-03 0. -1.
         11   -1    0    0    0    0 -0.00000000000E+00 -0.00000000000E+00 -0.45593999997E+02  0.45594000000E+02  0.51100000000E-03 0.  1.
         23    2    1    2    0    0  0.00000000000E+00  0.35527136788E-14 -0.35527136788E-14  0.91188000000E+02  0.91188000000E+02 0.  0.
    9900012    2    3    3    0    0  0.35768134412E+02  0.21376083346E+02 -0.17111900752E+02  0.46142317345E+02  0.99999962036E+01 0.  0.
         12    1    3    3    0    0 -0.35768134412E+02 -0.21376083346E+02  0.17111900752E+02  0.45045682655E+02  0.00000000000E+00 0. -1.
         11    1    4    4    0    0  0.25114763626E+01  0.16295794797E+01  0.23967153601E+00  0.30034123105E+01  0.51100000000E-03 0. -1.
        -11    1    4    4    0    0  0.73134619050E+01  0.79149202501E+01 -0.67614649200E+01  0.12722031902E+02  0.51100000000E-03 0.  1.
        -12    1    4    4    0    0  0.25943196144E+02  0.11831583617E+02 -0.10590107368E+02  0.30416873132E+02  0.00000000000E+00 0.  1.
</event>
<event>
 8    1  0.2962813E-009  0.9118800E+02  0.7816164E-02  0.1184000E+00
        -11   -1    0    0    0    0  0.00000000000E+00  0.00000000000E+00  0.45593999997E+02  0.45594000000E+02  0.51100000000E-03 0. -1.
         11   -1    0    0    0    0 -0.00000000000E+00 -0.00000000000E+00 -0.45593999997E+02  0.45594000000E+02  0.51100000000E-03 0.  1.
         23    2    1    2    0    0 -0.88817841970E-15  0.17763568394E-14  0.71054273576E-14  0.91188000000E+02  0.91188000000E+02 0.  0.
    9900012    2    3    3    0    0 -0.56848238755E+01  0.14918654100E+02  0.42121610802E+02  0.46142316975E+02  0.99999928279E+01 0.  0.
        -12    1    3    3    0    0  0.56848238755E+01 -0.14918654100E+02 -0.42121610802E+02  0.45045683025E+02  0.00000000000E+00 0.  1.
         11    1    4    4    0    0 -0.35268101960E+01  0.79016176118E+01  0.22381334206E+02  0.23995792801E+02  0.51100000000E-03 0. -1.
        -11    1    4    4    0    0 -0.22842640808E+01  0.77274969870E+01  0.12511737784E+02  0.14882058148E+02  0.51100000000E-03 0.  1.
        -12    1    4    4    0    0  0.12625040125E+00 -0.71046049871E+00  0.72285388122E+01  0.72644660260E+01  0.00000000000E+00 0.  1.
</event>
<event>
 8    1  0.2962813E-009  0.9118800E+02  0.7816164E-02  0.1184000E+00
        -11   -1    0    0    0    0  0.00000000000E+00  0.00000000000E+00  0.45593999997E+02  0.45594000000E+02  0.51100000000E-03 0. -1.
         11   -1    0    0    0    0 -0.00000000000E+00 -0.00000000000E+00 -0.45593999997E+02  0.45594000000E+02  0.51100000000E-03 0.  1.
         23    2    1    2    0    0  0.00000000000E+00  0.00000000000E+00  0.00000000000E+00  0.91188000000E+02  0.91188000000E+02 0.  0.
    9900012    2    3    3    0    0  0.16071032302E+02  0.10803007436E+02  0.40671002445E+02  0.46142317756E+02  0.99999999528E+01 0.  0.
        -12    1    3    3    0    0 -0.16071032302E+02 -0.10803007436E+02 -0.40671002445E+02  0.45045682244E+02  0.00000000000E+00 0.  1.
         11    1    4    4    0    0  0.11509977964E+02  0.10249714776E+02  0.31093833799E+02  0.34703929840E+02  0.51100000000E-03 0. -1.
        -11    1    4    4    0    0  0.41702473501E+00  0.56856913019E+00  0.57638370498E+01  0.58068062033E+01  0.51100000000E-03 0.  1.
         12    1    4    4    0    0  0.41440296036E+01 -0.15276470517E-01  0.38133315963E+01  0.56315817129E+01  0.00000000000E+00 0. -1.
</event>
<event>
 8    1  0.2962813E-009  0.9118800E+02  0.7816164E-02  0.1184000E+00
        -11   -1    0    0    0    0  0.00000000000E+00  0.00000000000E+00  0.45593999997E+02  0.45594000000E+02  0.51100000000E-03 0. -1.
         11   -1    0    0    0    0 -0.00000000000E+00 -0.00000000000E+00 -0.45593999997E+02  0.45594000000E+02  0.51100000000E-03 0.  1.
         23    2    1    2    0    0  0.00000000000E+00  0.71054273576E-14  0.00000000000E+00  0.91188000000E+02  0.91188000000E+02 0.  0.
    9900012    2    3    3    0    0  0.23701392011E+02 -0.37401440409E+02 -0.82758558606E+01  0.46142317430E+02  0.99999969825E+01 0.  0.
         12    1    3    3    0    0 -0.23701392011E+02  0.37401440409E+02  0.82758558606E+01  0.45045682570E+02  0.00000000000E+00 0. -1.
         11    1    4    4    0    0  0.87852972807E+01 -0.95320677194E+01  0.56757225517E+00  0.12975511622E+02  0.51100000000E-03 0. -1.
        -11    1    4    4    0    0  0.78862133298E+01 -0.17385803199E+02 -0.73482490611E+01  0.20456179460E+02  0.51100000000E-03 0.  1.
        -12    1    4    4    0    0  0.70298814009E+01 -0.10483569490E+02 -0.14951790546E+01  0.12710626349E+02  0.00000000000E+00 0.  1.
</event>
<event>
 8    1  0.2962813E-009  0.9118800E+02  0.7816164E-02  0.1184000E+00
        -11   -1    0    0    0    0  0.00000000000E+00  0.00000000000E+00  0.45593999997E+02  0.45594000000E+02  0.51100000000E-03 0.  1.
         11   -1    0    0    0    0 -0.00000000000E+00 -0.00000000000E+00 -0.45593999997E+02  0.45594000000E+02  0.51100000000E-03 0. -1.
         23    2    1    2    0    0  0.00000000000E+00  0.00000000000E+00  0.00000000000E+00  0.91188000000E+02  0.91188000000E+02 0.  0.
    9900012    2    3    3    0    0  0.40226336050E+02  0.20213919718E+02 -0.15339803591E+01  0.46142314767E+02  0.99999726933E+01 0.  0.
        -12    1    3    3    0    0 -0.40226336050E+02 -0.20213919718E+02  0.15339803591E+01  0.45045685233E+02  0.00000000000E+00 0.  1.
         11    1    4    4    0    0  0.18360553057E+02  0.94280117555E+01 -0.43783367186E+00  0.20644345783E+02  0.51100000000E-03 0. -1.
        -11    1    4    4    0    0  0.41439397284E+01  0.55495469789E+01 -0.11366119098E+01  0.70186604875E+01  0.51100000000E-03 0.  1.
        -12    1    4    4    0    0  0.17721843265E+02  0.52363609834E+01  0.40465222561E-01  0.18479308496E+02  0.00000000000E+00 0.  1.
</event>
<event>
 8    1  0.2962813E-009  0.9118800E+02  0.7816164E-02  0.1184000E+00
        -11   -1    0    0    0    0  0.00000000000E+00  0.00000000000E+00  0.45593999997E+02  0.45594000000E+02  0.51100000000E-03 0. -1.
         11   -1    0    0    0    0 -0.00000000000E+00 -0.00000000000E+00 -0.45593999997E+02  0.45594000000E+02  0.51100000000E-03 0.  1.
         23    2    1    2    0    0 -0.71054273576E-14 -0.35527136788E-14  0.35527136788E-14  0.91188000000E+02  0.91188000000E+02 0.  0.
    9900012    2    3    3    0    0 -0.35771149397E+02 -0.18714918919E+02  0.19982249434E+02  0.46142316391E+02  0.99999875090E+01 0.  0.
        -12    1    3    3    0    0  0.35771149397E+02  0.18714918919E+02 -0.19982249434E+02  0.45045683609E+02  0.00000000000E+00 0.  1.
         11    1    4    4    0    0 -0.79556668240E+01 -0.47694149106E+01  0.20608016831E+01  0.95019396463E+01  0.51100000000E-03 0. -1.
        -11    1    4    4    0    0 -0.14193582792E+02 -0.30671718135E+01  0.78340866740E+01  0.16499643926E+02  0.51100000000E-03 0.  1.
        -12    1    4    4    0    0 -0.13621899781E+02 -0.10878332195E+02  0.10087361077E+02  0.20140732819E+02  0.00000000000E+00 0.  1.
</event>
<event>
 8    1  0.2962813E-009  0.9118800E+02  0.7816164E-02  0.1184000E+00
        -11   -1    0    0    0    0  0.00000000000E+00  0.00000000000E+00  0.45593999997E+02  0.45594000000E+02  0.51100000000E-03 0. -1.
         11   -1    0    0    0    0 -0.00000000000E+00 -0.00000000000E+00 -0.45593999997E+02  0.45594000000E+02  0.51100000000E-03 0.  1.
         23    2    1    2    0    0  0.17763568394E-14  0.00000000000E+00  0.00000000000E+00  0.91188000000E+02  0.91188000000E+02 0.  0.
    9900012    2    3    3    0    0 -0.12842076914E+02 -0.38843164411E+02 -0.18852137793E+02  0.46142318073E+02  0.10000002845E+02 0.  0.
         12    1    3    3    0    0  0.12842076914E+02  0.38843164411E+02  0.18852137793E+02  0.45045681927E+02  0.00000000000E+00 0. -1.
         11    1    4    4    0    0  0.36856385086E+00 -0.45211075089E+01 -0.20045291933E+01  0.49592731289E+01  0.51100000000E-03 0. -1.
        -11    1    4    4    0    0 -0.82914677563E+01 -0.25023861127E+02 -0.15491858123E+02  0.30576784194E+02  0.51100000000E-03 0.  1.
        -12    1    4    4    0    0 -0.49191730083E+01 -0.92981957744E+01 -0.13557504766E+01  0.10606260750E+02  0.00000000000E+00 0.  1.
</event>
<event>
 8    1  0.2962813E-009  0.9118800E+02  0.7816164E-02  0.1184000E+00
        -11   -1    0    0    0    0  0.00000000000E+00  0.00000000000E+00  0.45593999997E+02  0.45594000000E+02  0.51100000000E-03 0. -1.
         11   -1    0    0    0    0 -0.00000000000E+00 -0.00000000000E+00 -0.45593999997E+02  0.45594000000E+02  0.51100000000E-03 0.  1.
         23    2    1    2    0    0 -0.88817841970E-15  0.71054273576E-14  0.00000000000E+00  0.91188000000E+02  0.91188000000E+02 0.  0.
    9900012    2    3    3    0    0 -0.42710376137E+01 -0.39216309030E+02 -0.21747478042E+02  0.46142318104E+02  0.10000003131E+02 0.  0.
         12    1    3    3    0    0  0.42710376137E+01  0.39216309030E+02  0.21747478042E+02  0.45045681896E+02  0.00000000000E+00 0. -1.
         11    1    4    4    0    0  0.14756013262E+00  0.22317084388E+00 -0.51075659776E+00  0.57658631754E+00  0.51100000000E-03 0. -1.
        -11    1    4    4    0    0 -0.43426057638E+01 -0.15161827326E+02 -0.58433861424E+01  0.16819167475E+02  0.51100000000E-03 0.  1.
        -12    1    4    4    0    0 -0.75991982496E-01 -0.24277652548E+02 -0.15393335302E+02  0.28746564312E+02  0.00000000000E+00 0.  1.
</event>
<event>
 8    1  0.3938824E-009  0.9118800E+02  0.7816164E-02  0.1184000E+00
        -11   -1    0    0    0    0  0.00000000000E+00  0.00000000000E+00  0.45593999997E+02  0.45594000000E+02  0.51100000000E-03 0. -1.
         11   -1    0    0    0    0 -0.00000000000E+00 -0.00000000000E+00 -0.45593999997E+02  0.45594000000E+02  0.51100000000E-03 0.  1.
         23    2    1    2    0    0 -0.35527136788E-14 -0.35527136788E-14  0.10658141036E-13  0.91188000000E+02  0.91188000000E+02 0.  0.
    9900012    2    3    3    0    0  0.13506739256E+02  0.28686351872E+02 -0.31996478675E+02  0.46142318335E+02  0.10000005231E+02 0.  0.
         12    1    3    3    0    0 -0.13506739256E+02 -0.28686351872E+02  0.31996478675E+02  0.45045681665E+02  0.00000000000E+00 0. -1.
         11    1    4    4    0    0  0.52765715563E+01  0.46904834630E+01 -0.53740053815E+01  0.88725856776E+01  0.51100000000E-03 0. -1.
        -11    1    4    4    0    0  0.51342409017E+01  0.21482544108E+02 -0.22237936454E+02  0.31343036691E+02  0.51100000000E-03 0.  1.
        -12    1    4    4    0    0  0.30959267983E+01  0.25133243014E+01 -0.43845368395E+01  0.59266959666E+01  0.00000000000E+00 0.  1.
</event>
<event>
 8    1  0.2962813E-009  0.9118800E+02  0.7816164E-02  0.1184000E+00
        -11   -1    0    0    0    0  0.00000000000E+00  0.00000000000E+00  0.45593999997E+02  0.45594000000E+02  0.51100000000E-03 0. -1.
         11   -1    0    0    0    0 -0.00000000000E+00 -0.00000000000E+00 -0.45593999997E+02  0.45594000000E+02  0.51100000000E-03 0.  1.
         23    2    1    2    0    0  0.17763568394E-14 -0.35527136788E-14 -0.71054273576E-14  0.91188000000E+02  0.91188000000E+02 0.  0.
    9900012    2    3    3    0    0 -0.95603040217E+01 -0.28647822168E+02 -0.33421795198E+02  0.46142317385E+02  0.99999965737E+01 0.  0.
         12    1    3    3    0    0  0.95603040217E+01  0.28647822168E+02  0.33421795198E+02  0.45045682615E+02  0.00000000000E+00 0. -1.
         11    1    4    4    0    0  0.14605345896E+01 -0.45087277639E+01 -0.30936431607E+01  0.56597186859E+01  0.51100000000E-03 0. -1.
        -11    1    4    4    0    0 -0.69526434602E+01 -0.17448594580E+02 -0.19047857068E+02  0.26750954433E+02  0.51100000000E-03 0.  1.
        -12    1    4    4    0    0 -0.40681951511E+01 -0.66904998244E+01 -0.11280294969E+02  0.13731644267E+02  0.00000000000E+00 0.  1.
</event>
<event>
 8    1  0.2962813E-009  0.9118800E+02  0.7816164E-02  0.1184000E+00
        -11   -1    0    0    0    0  0.00000000000E+00  0.00000000000E+00  0.45593999997E+02  0.45594000000E+02  0.51100000000E-03 0. -1.
         11   -1    0    0    0    0 -0.00000000000E+00 -0.00000000000E+00 -0.45593999997E+02  0.45594000000E+02  0.51100000000E-03 0.  1.
         23    2    1    2    0    0  0.00000000000E+00  0.00000000000E+00  0.00000000000E+00  0.91188000000E+02  0.91188000000E+02 0.  0.
    9900012    2    3    3    0    0  0.20274176769E+02 -0.75689875378E+00 -0.40218136562E+02  0.46142315991E+02  0.99999838543E+01 0.  0.
         12    1    3    3    0    0 -0.20274176769E+02  0.75689875378E+00  0.40218136562E+02  0.45045684009E+02  0.00000000000E+00 0. -1.
         11    1    4    4    0    0  0.66096250602E+00 -0.20918443368E+01 -0.21772965056E+01  0.30908420371E+01  0.51100000000E-03 0. -1.
        -11    1    4    4    0    0  0.77644213648E+01  0.25793760039E+01 -0.13853438229E+02  0.16089038838E+02  0.51100000000E-03 0.  1.
        -12    1    4    4    0    0  0.11848792898E+02 -0.12444304208E+01 -0.24187401827E+02  0.26962435115E+02  0.00000000000E+00 0.  1.
</event>
<event>
 8    1  0.2962813E-009  0.9118800E+02  0.7816164E-02  0.1184000E+00
        -11   -1    0    0    0    0  0.00000000000E+00  0.00000000000E+00  0.45593999997E+02  0.45594000000E+02  0.51100000000E-03 0. -1.
         11   -1    0    0    0    0 -0.00000000000E+00 -0.00000000000E+00 -0.45593999997E+02  0.45594000000E+02  0.51100000000E-03 0.  1.
         23    2    1    2    0    0  0.00000000000E+00 -0.35527136788E-14  0.00000000000E+00  0.91188000000E+02  0.91188000000E+02 0.  0.
    9900012    2    3    3    0    0 -0.18494333962E+02 -0.24960966852E+02 -0.32619368391E+02  0.46142318196E+02  0.10000003967E+02 0.  0.
         12    1    3    3    0    0  0.18494333962E+02  0.24960966852E+02  0.32619368391E+02  0.45045681804E+02  0.00000000000E+00 0. -1.
         11    1    4    4    0    0 -0.92392933839E+01 -0.13631261680E+02 -0.11683482865E+02  0.20191077469E+02  0.51100000000E-03 0. -1.
        -11    1    4    4    0    0 -0.57785256518E+01 -0.37011718220E+01 -0.10826296414E+02  0.12817906455E+02  0.51100000000E-03 0.  1.
        -12    1    4    4    0    0 -0.34765149269E+01 -0.76285333498E+01 -0.10109589112E+02  0.13133334273E+02  0.00000000000E+00 0.  1.
</event>
<event>
 8    1  0.2962813E-009  0.9118800E+02  0.7816164E-02  0.1184000E+00
        -11   -1    0    0    0    0  0.00000000000E+00  0.00000000000E+00  0.45593999997E+02  0.45594000000E+02  0.51100000000E-03 0. -1.
         11   -1    0    0    0    0 -0.00000000000E+00 -0.00000000000E+00 -0.45593999997E+02  0.45594000000E+02  0.51100000000E-03 0.  1.
         23    2    1    2    0    0  0.00000000000E+00  0.35527136788E-14  0.35527136788E-14  0.91188000000E+02  0.91188000000E+02 0.  0.
    9900012    2    3    3    0    0 -0.11658076877E+02 -0.31880532457E+02 -0.29611388412E+02  0.46142318411E+02  0.10000005922E+02 0.  0.
         12    1    3    3    0    0  0.11658076877E+02  0.31880532457E+02  0.29611388412E+02  0.45045681589E+02  0.00000000000E+00 0. -1.
         11    1    4    4    0    0 -0.19289972944E+01 -0.12348429315E+02 -0.75602792765E+01  0.14606935343E+02  0.51100000000E-03 0. -1.
        -11    1    4    4    0    0 -0.51904644502E+01 -0.15812647341E+02 -0.17038780739E+02  0.23818076885E+02  0.51100000000E-03 0.  1.
         12    1    4    4    0    0 -0.45386151325E+01 -0.37194558006E+01 -0.50123283958E+01  0.77173061830E+01  0.00000000000E+00 0. -1.
</event>
<event>
 8    1  0.2962813E-009  0.9118800E+02  0.7816164E-02  0.1184000E+00
        -11   -1    0    0    0    0  0.00000000000E+00  0.00000000000E+00  0.45593999997E+02  0.45594000000E+02  0.51100000000E-03 0. -1.
         11   -1    0    0    0    0 -0.00000000000E+00 -0.00000000000E+00 -0.45593999997E+02  0.45594000000E+02  0.51100000000E-03 0.  1.
         23    2    1    2    0    0  0.00000000000E+00  0.00000000000E+00 -0.35527136788E-14  0.91188000000E+02  0.91188000000E+02 0.  0.
    9900012    2    3    3    0    0  0.35139319127E+02  0.98444868232E+01 -0.26408857145E+02  0.46142318684E+02  0.10000008413E+02 0.  0.
         12    1    3    3    0    0 -0.35139319127E+02 -0.98444868232E+01  0.26408857145E+02  0.45045681316E+02  0.00000000000E+00 0. -1.
         11    1    4    4    0    0  0.22730882498E+02  0.80834180975E+01 -0.13463304432E+02  0.27627798207E+02  0.51100000000E-03 0. -1.
        -11    1    4    4    0    0  0.12574277559E+02  0.21579463144E+01 -0.12192452130E+02  0.17647239944E+02  0.51100000000E-03 0.  1.
         12    1    4    4    0    0 -0.16584092996E+00 -0.39687758870E+00 -0.75310058272E+00  0.86728053256E+00  0.00000000000E+00 0. -1.
</event>
<event>
 8    1  0.2962813E-009  0.9118800E+02  0.7816164E-02  0.1184000E+00
        -11   -1    0    0    0    0  0.00000000000E+00  0.00000000000E+00  0.45593999997E+02  0.45594000000E+02  0.51100000000E-03 0. -1.
         11   -1    0    0    0    0 -0.00000000000E+00 -0.00000000000E+00 -0.45593999997E+02  0.45594000000E+02  0.51100000000E-03 0.  1.
         23    2    1    2    0    0  0.35527136788E-14  0.00000000000E+00  0.00000000000E+00  0.91188000000E+02  0.91188000000E+02 0.  0.
    9900012    2    3    3    0    0 -0.21820728888E+02 -0.13842873120E+02 -0.36896398432E+02  0.46142316936E+02  0.99999924798E+01 0.  0.
         12    1    3    3    0    0  0.21820728888E+02  0.13842873120E+02  0.36896398432E+02  0.45045683064E+02  0.00000000000E+00 0. -1.
         11    1    4    4    0    0 -0.13045118529E+02 -0.10902817100E+02 -0.16535792157E+02  0.23716638899E+02  0.51100000000E-03 0. -1.
        -11    1    4    4    0    0 -0.59582596865E+01 -0.13913814058E+01 -0.12038216612E+02  0.13503905367E+02  0.51100000000E-03 0.  1.
         12    1    4    4    0    0 -0.28173506729E+01 -0.15486746134E+01 -0.83223896635E+01  0.89217726704E+01  0.00000000000E+00 0. -1.
</event>
<event>
 8    1  0.2962813E-009  0.9118800E+02  0.7816164E-02  0.1184000E+00
        -11   -1    0    0    0    0  0.00000000000E+00  0.00000000000E+00  0.45593999997E+02  0.45594000000E+02  0.51100000000E-03 0. -1.
         11   -1    0    0    0    0 -0.00000000000E+00 -0.00000000000E+00 -0.45593999997E+02  0.45594000000E+02  0.51100000000E-03 0.  1.
         23    2    1    2    0    0  0.00000000000E+00  0.00000000000E+00  0.00000000000E+00  0.91188000000E+02  0.91188000000E+02 0.  0.
    9900012    2    3    3    0    0 -0.34247818485E+02  0.80755374829E+01 -0.28124476061E+02  0.46142317295E+02  0.99999957525E+01 0.  0.
         12    1    3    3    0    0  0.34247818485E+02 -0.80755374829E+01  0.28124476061E+02  0.45045682705E+02  0.00000000000E+00 0. -1.
         11    1    4    4    0    0 -0.40032235740E+01  0.37093541833E+01 -0.41480637525E+01  0.68550376072E+01  0.51100000000E-03 0. -1.
        -11    1    4    4    0    0 -0.23209772284E+02  0.53596220693E+01 -0.20249985487E+02  0.31264692398E+02  0.51100000000E-03 0.  1.
        -12    1    4    4    0    0 -0.70348226270E+01 -0.99343876968E+00 -0.37264268208E+01  0.80225872905E+01  0.00000000000E+00 0.  1.
</event>
<event>
 8    1  0.2962813E-009  0.9118800E+02  0.7816164E-02  0.1184000E+00
        -11   -1    0    0    0    0  0.00000000000E+00  0.00000000000E+00  0.45593999997E+02  0.45594000000E+02  0.51100000000E-03 0. -1.
         11   -1    0    0    0    0 -0.00000000000E+00 -0.00000000000E+00 -0.45593999997E+02  0.45594000000E+02  0.51100000000E-03 0.  1.
         23    2    1    2    0    0 -0.44408920985E-15  0.35527136788E-14 -0.71054273576E-14  0.91188000000E+02  0.91188000000E+02 0.  0.
    9900012    2    3    3    0    0 -0.26131557527E+01 -0.24848923782E+02 -0.37480871858E+02  0.46142319282E+02  0.10000013871E+02 0.  0.
         12    1    3    3    0    0  0.26131557527E+01  0.24848923782E+02  0.37480871858E+02  0.45045680718E+02  0.00000000000E+00 0. -1.
         11    1    4    4    0    0  0.22856001611E+00 -0.17978140136E+01 -0.23712611236E+01  0.29845023849E+01  0.51100000000E-03 0. -1.
        -11    1    4    4    0    0  0.31978115276E+01 -0.44132707670E+01 -0.88761319764E+01  0.10415789771E+02  0.51100000000E-03 0.  1.
        -12    1    4    4    0    0 -0.60395272964E+01 -0.18637839002E+02 -0.26233478758E+02  0.32742027126E+02  0.00000000000E+00 0.  1.
</event>
<event>
 8    1  0.2962813E-009  0.9118800E+02  0.7816164E-02  0.1184000E+00
        -11   -1    0    0    0    0  0.00000000000E+00  0.00000000000E+00  0.45593999997E+02  0.45594000000E+02  0.51100000000E-03 0. -1.
         11   -1    0    0    0    0 -0.00000000000E+00 -0.00000000000E+00 -0.45593999997E+02  0.45594000000E+02  0.51100000000E-03 0.  1.
         23    2    1    2    0    0  0.00000000000E+00  0.00000000000E+00  0.00000000000E+00  0.91188000000E+02  0.91188000000E+02 0.  0.
    9900012    2    3    3    0    0 -0.28685489436E+02  0.51052774484E+01 -0.34353916351E+02  0.46142326171E+02  0.10000076690E+02 0.  0.
         12    1    3    3    0    0  0.28685489436E+02 -0.51052774484E+01  0.34353916351E+02  0.45045673829E+02  0.00000000000E+00 0. -1.
         11    1    4    4    0    0  0.32768306656E+00 -0.19352407524E+00 -0.16195457670E+00  0.41359074681E+00  0.51100000000E-03 0. -1.
        -11    1    4    4    0    0 -0.25395115068E+02  0.36443159992E+01 -0.32499147241E+02  0.41405162481E+02  0.51100000000E-03 0.  1.
        -12    1    4    4    0    0 -0.36180574348E+01  0.16544855245E+01 -0.16928145336E+01  0.43235729435E+01  0.00000000000E+00 0.  1.
</event>
<event>
 8    1  0.2962813E-009  0.9118800E+02  0.7816164E-02  0.1184000E+00
        -11   -1    0    0    0    0  0.00000000000E+00  0.00000000000E+00  0.45593999997E+02  0.45594000000E+02  0.51100000000E-03 0. -1.
         11   -1    0    0    0    0 -0.00000000000E+00 -0.00000000000E+00 -0.45593999997E+02  0.45594000000E+02  0.51100000000E-03 0.  1.
         23    2    1    2    0    0  0.44408920985E-15  0.00000000000E+00  0.00000000000E+00  0.91188000000E+02  0.91188000000E+02 0.  0.
    9900012    2    3    3    0    0  0.26506691534E+01 -0.38578682033E+02 -0.23103518067E+02  0.46142319836E+02  0.10000018919E+02 0.  0.
         12    1    3    3    0    0 -0.26506691534E+01  0.38578682033E+02  0.23103518067E+02  0.45045680164E+02  0.00000000000E+00 0. -1.
         11    1    4    4    0    0 -0.13355288338E+01 -0.66375456441E+01 -0.40646071914E+01  0.78969412639E+01  0.51100000000E-03 0.  1.
        -11    1    4    4    0    0 -0.17987414135E+01 -0.46853842550E+01 -0.48433705606E+01  0.69747067995E+01  0.51100000000E-03 0. -1.
        -12    1    4    4    0    0  0.57849394007E+01 -0.27255752134E+02 -0.14195540315E+02  0.31270671772E+02  0.00000000000E+00 0.  1.
</event>
<event>
 8    1  0.2962813E-009  0.9118800E+02  0.7816164E-02  0.1184000E+00
        -11   -1    0    0    0    0  0.00000000000E+00  0.00000000000E+00  0.45593999997E+02  0.45594000000E+02  0.51100000000E-03 0.  1.
         11   -1    0    0    0    0 -0.00000000000E+00 -0.00000000000E+00 -0.45593999997E+02  0.45594000000E+02  0.51100000000E-03 0. -1.
         23    2    1    2    0    0  0.00000000000E+00  0.88817841970E-15 -0.17763568394E-14  0.91188000000E+02  0.91188000000E+02 0.  0.
    9900012    2    3    3    0    0 -0.43052260333E+02 -0.57728318065E+01  0.11928572409E+02  0.46142317115E+02  0.99999941065E+01 0.  0.
        -12    1    3    3    0    0  0.43052260333E+02  0.57728318065E+01 -0.11928572409E+02  0.45045682885E+02  0.00000000000E+00 0.  1.
         11    1    4    4    0    0 -0.10580293775E+02  0.17706407311E+01  0.56380472050E+01  0.12118801983E+02  0.51100000000E-03 0. -1.
        -11    1    4    4    0    0 -0.12835711489E+02 -0.39198795995E+01  0.34259883991E+01  0.13851293884E+02  0.51100000000E-03 0.  1.
         12    1    4    4    0    0 -0.19636255070E+02 -0.36235929381E+01  0.28645368050E+01  0.20172221247E+02  0.00000000000E+00 0. -1.
</event>
<event>
 8    1  0.2962813E-009  0.9118800E+02  0.7816164E-02  0.1184000E+00
        -11   -1    0    0    0    0  0.00000000000E+00  0.00000000000E+00  0.45593999997E+02  0.45594000000E+02  0.51100000000E-03 0. -1.
         11   -1    0    0    0    0 -0.00000000000E+00 -0.00000000000E+00 -0.45593999997E+02  0.45594000000E+02  0.51100000000E-03 0.  1.
         23    2    1    2    0    0  0.00000000000E+00  0.00000000000E+00  0.00000000000E+00  0.91188000000E+02  0.91188000000E+02 0.  0.
    9900012    2    3    3    0    0  0.13675881449E+02  0.45958638962E+01  0.42672729158E+02  0.46142317497E+02  0.99999975898E+01 0.  0.
        -12    1    3    3    0    0 -0.13675881449E+02 -0.45958638962E+01 -0.42672729158E+02  0.45045682503E+02  0.00000000000E+00 0.  1.
         11    1    4    4    0    0  0.76546696471E+01  0.37038090995E+01  0.19252935815E+02  0.21047273149E+02  0.51100000000E-03 0. -1.
        -11    1    4    4    0    0  0.51467722645E+01 -0.17297500295E+01  0.19856898417E+02  0.20585862016E+02  0.51100000000E-03 0.  1.
        -12    1    4    4    0    0  0.87443953737E+00  0.26218048262E+01  0.35628949257E+01  0.45091823319E+01  0.00000000000E+00 0.  1.
</event>
<event>
 8    1  0.2962813E-009  0.9118800E+02  0.7816164E-02  0.1184000E+00
        -11   -1    0    0    0    0  0.00000000000E+00  0.00000000000E+00  0.45593999997E+02  0.45594000000E+02  0.51100000000E-03 0. -1.
         11   -1    0    0    0    0 -0.00000000000E+00 -0.00000000000E+00 -0.45593999997E+02  0.45594000000E+02  0.51100000000E-03 0.  1.
         23    2    1    2    0    0 -0.35527136788E-14  0.35527136788E-14  0.00000000000E+00  0.91188000000E+02  0.91188000000E+02 0.  0.
    9900012    2    3    3    0    0  0.30732497709E+02 -0.25908154073E+02 -0.20332107700E+02  0.46142318004E+02  0.10000002218E+02 0.  0.
         12    1    3    3    0    0 -0.30732497709E+02  0.25908154073E+02  0.20332107700E+02  0.45045681996E+02  0.00000000000E+00 0. -1.
         11    1    4    4    0    0  0.25207762282E+01 -0.10757523444E+01 -0.64858288125E+00  0.28164189876E+01  0.51100000000E-03 0. -1.
        -11    1    4    4    0    0  0.59370877351E+01 -0.27099120671E+01 -0.67003290944E+01  0.93534509364E+01  0.51100000000E-03 0.  1.
        -12    1    4    4    0    0  0.22274633746E+02 -0.22122489662E+02 -0.12983195724E+02  0.33972448080E+02  0.00000000000E+00 0.  1.
</event>
<event>
 8    1  0.2962813E-009  0.9118800E+02  0.7816164E-02  0.1184000E+00
        -11   -1    0    0    0    0  0.00000000000E+00  0.00000000000E+00  0.45593999997E+02  0.45594000000E+02  0.51100000000E-03 0. -1.
         11   -1    0    0    0    0 -0.00000000000E+00 -0.00000000000E+00 -0.45593999997E+02  0.45594000000E+02  0.51100000000E-03 0.  1.
         23    2    1    2    0    0  0.00000000000E+00  0.00000000000E+00  0.00000000000E+00  0.91188000000E+02  0.91188000000E+02 0.  0.
    9900012    2    3    3    0    0  0.11097893802E+02 -0.11079782111E+02 -0.42227819310E+02  0.46142317164E+02  0.99999945514E+01 0.  0.
         12    1    3    3    0    0 -0.11097893802E+02  0.11079782111E+02  0.42227819310E+02  0.45045682836E+02  0.00000000000E+00 0. -1.
         11    1    4    4    0    0  0.47820419482E+01 -0.45842184072E+01 -0.10390680075E+02  0.12322711401E+02  0.51100000000E-03 0. -1.
        -11    1    4    4    0    0  0.47467861807E+01 -0.71146860026E+01 -0.18561350802E+02  0.20437085894E+02  0.51100000000E-03 0.  1.
         12    1    4    4    0    0  0.15690656733E+01  0.61912229841E+00 -0.13275788433E+02  0.13382519869E+02  0.00000000000E+00 0. -1.
</event>
<event>
 8    1  0.2962813E-009  0.9118800E+02  0.7816164E-02  0.1184000E+00
        -11   -1    0    0    0    0  0.00000000000E+00  0.00000000000E+00  0.45593999997E+02  0.45594000000E+02  0.51100000000E-03 0. -1.
         11   -1    0    0    0    0 -0.00000000000E+00 -0.00000000000E+00 -0.45593999997E+02  0.45594000000E+02  0.51100000000E-03 0.  1.
         23    2    1    2    0    0 -0.55511151231E-15  0.00000000000E+00  0.00000000000E+00  0.91188000000E+02  0.91188000000E+02 0.  0.
    9900012    2    3    3    0    0 -0.54833732315E+00 -0.19496339122E+02  0.40604255461E+02  0.46142317915E+02  0.10000001401E+02 0.  0.
        -12    1    3    3    0    0  0.54833732315E+00  0.19496339122E+02 -0.40604255461E+02  0.45045682085E+02  0.00000000000E+00 0.  1.
         11    1    4    4    0    0 -0.35055800514E+01 -0.44938587728E+01  0.16317727722E+02  0.17284446662E+02  0.51100000000E-03 0. -1.
        -11    1    4    4    0    0  0.12944243803E+01 -0.29662539608E+01  0.71757073713E+01  0.78717833797E+01  0.51100000000E-03 0.  1.
         12    1    4    4    0    0  0.16628183479E+01 -0.12036226388E+02  0.17110820368E+02  0.20986087873E+02  0.00000000000E+00 0. -1.
</event>
<event>
 8    1  0.3307090E-009  0.9118800E+02  0.7816164E-02  0.1184000E+00
        -11   -1    0    0    0    0  0.00000000000E+00  0.00000000000E+00  0.45593999997E+02  0.45594000000E+02  0.51100000000E-03 0. -1.
         11   -1    0    0    0    0 -0.00000000000E+00 -0.00000000000E+00 -0.45593999997E+02  0.45594000000E+02  0.51100000000E-03 0.  1.
         23    2    1    2    0    0  0.66613381478E-15  0.00000000000E+00  0.00000000000E+00  0.91188000000E+02  0.91188000000E+02 0.  0.
    9900012    2    3    3    0    0 -0.12940105532E+01 -0.63376177704E+01 -0.44578846979E+02  0.46142318073E+02  0.10000002842E+02 0.  0.
         12    1    3    3    0    0  0.12940105532E+01  0.63376177704E+01  0.44578846979E+02  0.45045681927E+02  0.00000000000E+00 0. -1.
         11    1    4    4    0    0  0.57846110234E+00  0.69605641932E+00 -0.60577331434E+01  0.61249688068E+01  0.51100000000E-03 0. -1.
        -11    1    4    4    0    0  0.20081617751E+01 -0.66133252008E+01 -0.25909651918E+02  0.26815645558E+02  0.51100000000E-03 0.  1.
        -12    1    4    4    0    0 -0.38806334306E+01 -0.42034898893E+00 -0.12611461918E+02  0.13201703708E+02  0.00000000000E+00 0.  1.
</event>
<event>
 8    1  0.2962813E-009  0.9118800E+02  0.7816164E-02  0.1184000E+00
        -11   -1    0    0    0    0  0.00000000000E+00  0.00000000000E+00  0.45593999997E+02  0.45594000000E+02  0.51100000000E-03 0. -1.
         11   -1    0    0    0    0 -0.00000000000E+00 -0.00000000000E+00 -0.45593999997E+02  0.45594000000E+02  0.51100000000E-03 0.  1.
         23    2    1    2    0    0  0.00000000000E+00  0.00000000000E+00  0.35527136788E-14  0.91188000000E+02  0.91188000000E+02 0.  0.
    9900012    2    3    3    0    0 -0.37262353625E+02  0.13977047185E+02 -0.21101484139E+02  0.46142317869E+02  0.10000000988E+02 0.  0.
         12    1    3    3    0    0  0.37262353625E+02 -0.13977047185E+02  0.21101484139E+02  0.45045682131E+02  0.00000000000E+00 0. -1.
         11    1    4    4    0    0 -0.17669418991E+02  0.10079421515E+02 -0.10300224306E+02  0.22801265899E+02  0.51100000000E-03 0.  1.
        -11    1    4    4    0    0 -0.18338746831E+02  0.25655125305E+01 -0.10937634327E+02  0.21506355684E+02  0.51100000000E-03 0. -1.
         12    1    4    4    0    0 -0.12541878031E+01  0.13321131398E+01  0.13637449348E+00  0.18346962868E+01  0.00000000000E+00 0. -1.
</event>
<event>
 8    1  0.2962813E-009  0.9118800E+02  0.7816164E-02  0.1184000E+00
        -11   -1    0    0    0    0  0.00000000000E+00  0.00000000000E+00  0.45593999997E+02  0.45594000000E+02  0.51100000000E-03 0. -1.
         11   -1    0    0    0    0 -0.00000000000E+00 -0.00000000000E+00 -0.45593999997E+02  0.45594000000E+02  0.51100000000E-03 0.  1.
         23    2    1    2    0    0  0.26020852140E-15  0.35527136788E-14 -0.71054273576E-14  0.91188000000E+02  0.91188000000E+02 0.  0.
    9900012    2    3    3    0    0  0.29885825642E-01  0.18685347776E+02 -0.40987457570E+02  0.46142303283E+02  0.99998679792E+01 0.  0.
         12    1    3    3    0    0 -0.29885825642E-01 -0.18685347776E+02  0.40987457570E+02  0.45045696717E+02  0.00000000000E+00 0. -1.
         11    1    4    4    0    0 -0.48982029222E-01  0.89239197631E+00 -0.63143321559E+01  0.63772684995E+01  0.51100000000E-03 0. -1.
        -11    1    4    4    0    0 -0.12024549582E+01  0.16641880069E+02 -0.34076607225E+02  0.37942235443E+02  0.51100000000E-03 0.  1.
        -12    1    4    4    0    0  0.12813228131E+01  0.11510757305E+01 -0.59651818876E+00  0.18227993412E+01  0.00000000000E+00 0.  1.
</event>
<event>
 8    1  0.2962813E-009  0.9118800E+02  0.7816164E-02  0.1184000E+00
        -11   -1    0    0    0    0  0.00000000000E+00  0.00000000000E+00  0.45593999997E+02  0.45594000000E+02  0.51100000000E-03 0. -1.
         11   -1    0    0    0    0 -0.00000000000E+00 -0.00000000000E+00 -0.45593999997E+02  0.45594000000E+02  0.51100000000E-03 0.  1.
         23    2    1    2    0    0  0.88817841970E-15  0.00000000000E+00  0.00000000000E+00  0.91188000000E+02  0.91188000000E+02 0.  0.
    9900012    2    3    3    0    0 -0.47722934955E+01 -0.15767232192E+02 -0.41925324447E+02  0.46142320671E+02  0.10000026534E+02 0.  0.
         12    1    3    3    0    0  0.47722934955E+01  0.15767232192E+02  0.41925324447E+02  0.45045679329E+02  0.00000000000E+00 0. -1.
         11    1    4    4    0    0 -0.32182418099E+00 -0.11250574972E+01 -0.53108255410E+00  0.12850580204E+01  0.51100000000E-03 0. -1.
        -11    1    4    4    0    0 -0.42932436999E+01 -0.43364286566E+01 -0.90872912783E+01  0.10946022931E+02  0.51100000000E-03 0.  1.
        -12    1    4    4    0    0 -0.15722561460E+00 -0.10305746038E+02 -0.32306950615E+02  0.33911239720E+02  0.00000000000E+00 0.  1.
</event>
<event>
 8    1  0.2962813E-009  0.9118800E+02  0.7816164E-02  0.1184000E+00
        -11   -1    0    0    0    0  0.00000000000E+00  0.00000000000E+00  0.45593999997E+02  0.45594000000E+02  0.51100000000E-03 0. -1.
         11   -1    0    0    0    0 -0.00000000000E+00 -0.00000000000E+00 -0.45593999997E+02  0.45594000000E+02  0.51100000000E-03 0.  1.
         23    2    1    2    0    0 -0.35527136788E-14  0.00000000000E+00  0.00000000000E+00  0.91188000000E+02  0.91188000000E+02 0.  0.
    9900012    2    3    3    0    0 -0.28878846708E+02 -0.89616772315E+01  0.33388832860E+02  0.46142316458E+02  0.99999881187E+01 0.  0.
        -12    1    3    3    0    0  0.28878846708E+02  0.89616772315E+01 -0.33388832860E+02  0.45045683542E+02  0.00000000000E+00 0.  1.
         11    1    4    4    0    0 -0.18939579188E+02 -0.10552997303E+02  0.23081865744E+02  0.31667742868E+02  0.51100000000E-03 0. -1.
        -11    1    4    4    0    0 -0.53296440811E+01  0.93243224186E+00  0.65198893530E+01  0.84725139926E+01  0.51100000000E-03 0.  1.
         12    1    4    4    0    0 -0.46096234395E+01  0.65888783004E+00  0.37870777629E+01  0.60020595972E+01  0.00000000000E+00 0. -1.
</event>
<event>
 8    1  0.2962813E-009  0.9118800E+02  0.7816164E-02  0.1184000E+00
        -11   -1    0    0    0    0  0.00000000000E+00  0.00000000000E+00  0.45593999997E+02  0.45594000000E+02  0.51100000000E-03 0. -1.
         11   -1    0    0    0    0 -0.00000000000E+00 -0.00000000000E+00 -0.45593999997E+02  0.45594000000E+02  0.51100000000E-03 0.  1.
         23    2    1    2    0    0  0.00000000000E+00  0.00000000000E+00  0.00000000000E+00  0.91188000000E+02  0.91188000000E+02 0.  0.
    9900012    2    3    3    0    0 -0.23552465553E+02  0.44412780390E+01  0.38140134562E+02  0.46142318202E+02  0.10000004022E+02 0.  0.
        -12    1    3    3    0    0  0.23552465553E+02 -0.44412780390E+01 -0.38140134562E+02  0.45045681798E+02  0.00000000000E+00 0.  1.
         11    1    4    4    0    0 -0.15710513978E+02  0.25538460832E+01  0.25933930530E+02  0.30428787886E+02  0.51100000000E-03 0. -1.
        -11    1    4    4    0    0 -0.17652520818E+01 -0.18563064033E+01  0.47190011994E+01  0.53694469879E+01  0.51100000000E-03 0.  1.
         12    1    4    4    0    0 -0.60766994935E+01  0.37437383591E+01  0.74872028327E+01  0.10344083328E+02  0.00000000000E+00 0. -1.
</event>
<event>
 8    1  0.2962813E-009  0.9118800E+02  0.7816164E-02  0.1184000E+00
        -11   -1    0    0    0    0  0.00000000000E+00  0.00000000000E+00  0.45593999997E+02  0.45594000000E+02  0.51100000000E-03 0. -1.
         11   -1    0    0    0    0 -0.00000000000E+00 -0.00000000000E+00 -0.45593999997E+02  0.45594000000E+02  0.51100000000E-03 0.  1.
         23    2    1    2    0    0  0.44408920985E-15  0.00000000000E+00  0.71054273576E-14  0.91188000000E+02  0.91188000000E+02 0.  0.
    9900012    2    3    3    0    0  0.30640604039E+01 -0.73715683357E+01  0.44332660689E+02  0.46142319967E+02  0.10000020117E+02 0.  0.
        -12    1    3    3    0    0 -0.30640604039E+01  0.73715683357E+01 -0.44332660689E+02  0.45045680033E+02  0.00000000000E+00 0.  1.
         11    1    4    4    0    0 -0.43672818484E+00  0.72412682437E+00  0.21596019961E+02  0.21612569713E+02  0.51100000000E-03 0. -1.
        -11    1    4    4    0    0  0.30551288540E+01 -0.79102718180E+01  0.19593213719E+02  0.21349478604E+02  0.51100000000E-03 0.  1.
         12    1    4    4    0    0  0.44565973468E+00 -0.18542334204E+00  0.31434270085E+01  0.31802716508E+01  0.00000000000E+00 0. -1.
</event>
<event>
 8    1  0.2962813E-009  0.9118800E+02  0.7816164E-02  0.1184000E+00
        -11   -1    0    0    0    0  0.00000000000E+00  0.00000000000E+00  0.45593999997E+02  0.45594000000E+02  0.51100000000E-03 0. -1.
         11   -1    0    0    0    0 -0.00000000000E+00 -0.00000000000E+00 -0.45593999997E+02  0.45594000000E+02  0.51100000000E-03 0.  1.
         23    2    1    2    0    0  0.00000000000E+00 -0.88817841970E-15  0.00000000000E+00  0.91188000000E+02  0.91188000000E+02 0.  0.
    9900012    2    3    3    0    0  0.56552752740E+01 -0.78979660326E+01 -0.43985832241E+02  0.46142318256E+02  0.10000004509E+02 0.  0.
         12    1    3    3    0    0 -0.56552752740E+01  0.78979660326E+01  0.43985832241E+02  0.45045681744E+02  0.00000000000E+00 0. -1.
         11    1    4    4    0    0  0.51994947768E+00 -0.39623852857E+01 -0.45419658741E+01  0.60498180861E+01  0.51100000000E-03 0. -1.
        -11    1    4    4    0    0  0.52701240991E+01 -0.31927630248E+01 -0.30461522818E+02  0.31078486391E+02  0.51100000000E-03 0.  1.
        -12    1    4    4    0    0 -0.13479830276E+00 -0.74281772203E+00 -0.89823435495E+01  0.90140137781E+01  0.00000000000E+00 0.  1.
</event>
<event>
 8    1  0.2962813E-009  0.9118800E+02  0.7816164E-02  0.1184000E+00
        -11   -1    0    0    0    0  0.00000000000E+00  0.00000000000E+00  0.45593999997E+02  0.45594000000E+02  0.51100000000E-03 0. -1.
         11   -1    0    0    0    0 -0.00000000000E+00 -0.00000000000E+00 -0.45593999997E+02  0.45594000000E+02  0.51100000000E-03 0.  1.
         23    2    1    2    0    0  0.71054273576E-14 -0.71054273576E-14 -0.35527136788E-14  0.91188000000E+02  0.91188000000E+02 0.  0.
    9900012    2    3    3    0    0 -0.21151970787E+02  0.27135937154E+02  0.29074877604E+02  0.46142318064E+02  0.10000002761E+02 0.  0.
        -12    1    3    3    0    0  0.21151970787E+02 -0.27135937154E+02 -0.29074877604E+02  0.45045681936E+02  0.00000000000E+00 0.  1.
         11    1    4    4    0    0 -0.11438571235E+02  0.17184379930E+02  0.20078785876E+02  0.28797594830E+02  0.51100000000E-03 0.  1.
        -11    1    4    4    0    0 -0.39409954316E+01  0.65860192106E+01  0.69562921623E+01  0.10358431104E+02  0.51100000000E-03 0. -1.
        -12    1    4    4    0    0 -0.57724041204E+01  0.33655380135E+01  0.20397995653E+01  0.69862921293E+01  0.00000000000E+00 0.  1.
</event>
<event>
 8    1  0.2962813E-009  0.9118800E+02  0.7816164E-02  0.1184000E+00
        -11   -1    0    0    0    0  0.00000000000E+00  0.00000000000E+00  0.45593999997E+02  0.45594000000E+02  0.51100000000E-03 0. -1.
         11   -1    0    0    0    0 -0.00000000000E+00 -0.00000000000E+00 -0.45593999997E+02  0.45594000000E+02  0.51100000000E-03 0.  1.
         23    2    1    2    0    0  0.00000000000E+00  0.00000000000E+00  0.00000000000E+00  0.91188000000E+02  0.91188000000E+02 0.  0.
    9900012    2    3    3    0    0  0.10901264488E+02  0.52887691727E+01  0.43385536850E+02  0.46142318137E+02  0.10000003426E+02 0.  0.
        -12    1    3    3    0    0 -0.10901264488E+02 -0.52887691727E+01 -0.43385536850E+02  0.45045681863E+02  0.00000000000E+00 0.  1.
         11    1    4    4    0    0  0.98469330978E+01  0.55621793041E+00  0.21442617573E+02  0.23602061742E+02  0.51100000000E-03 0. -1.
        -11    1    4    4    0    0  0.15003365974E+01  0.32242739043E+01  0.16208569530E+02  0.16594115782E+02  0.51100000000E-03 0.  1.
         12    1    4    4    0    0 -0.44600520757E+00  0.15082773380E+01  0.57343497458E+01  0.59461406122E+01  0.00000000000E+00 0. -1.
</event>
<event>
 8    1  0.2962813E-009  0.9118800E+02  0.7816164E-02  0.1184000E+00
        -11   -1    0    0    0    0  0.00000000000E+00  0.00000000000E+00  0.45593999997E+02  0.45594000000E+02  0.51100000000E-03 0. -1.
         11   -1    0    0    0    0 -0.00000000000E+00 -0.00000000000E+00 -0.45593999997E+02  0.45594000000E+02  0.51100000000E-03 0.  1.
         23    2    1    2    0    0 -0.17763568394E-14 -0.71054273576E-14 -0.35527136788E-14  0.91188000000E+02  0.91188000000E+02 0.  0.
    9900012    2    3    3    0    0  0.11640700372E+02  0.40648650373E+02  0.15533661805E+02  0.46142319504E+02  0.10000015891E+02 0.  0.
        -12    1    3    3    0    0 -0.11640700372E+02 -0.40648650373E+02 -0.15533661805E+02  0.45045680496E+02  0.00000000000E+00 0.  1.
         11    1    4    4    0    0  0.32201634804E+01  0.17418671800E+02  0.97377182100E+01  0.20213924318E+02  0.51100000000E-03 0. -1.
        -11    1    4    4    0    0  0.13501373593E+01  0.61602376930E+01 -0.69642460145E+00  0.63447936775E+01  0.51100000000E-03 0.  1.
         12    1    4    4    0    0  0.70703995320E+01  0.17069740880E+02  0.64923681962E+01  0.19583601509E+02  0.00000000000E+00 0. -1.
</event>
<event>
 8    1  0.2962813E-009  0.9118800E+02  0.7816164E-02  0.1184000E+00
        -11   -1    0    0    0    0  0.00000000000E+00  0.00000000000E+00  0.45593999997E+02  0.45594000000E+02  0.51100000000E-03 0. -1.
         11   -1    0    0    0    0 -0.00000000000E+00 -0.00000000000E+00 -0.45593999997E+02  0.45594000000E+02  0.51100000000E-03 0.  1.
         23    2    1    2    0    0  0.00000000000E+00  0.00000000000E+00  0.00000000000E+00  0.91188000000E+02  0.91188000000E+02 0.  0.
    9900012    2    3    3    0    0 -0.21345257308E+02  0.18009455110E+02 -0.35343358367E+02  0.46142318036E+02  0.10000002511E+02 0.  0.
         12    1    3    3    0    0  0.21345257308E+02 -0.18009455110E+02  0.35343358367E+02  0.45045681964E+02  0.00000000000E+00 0. -1.
         11    1    4    4    0    0 -0.83777836008E+01  0.33871278127E+01 -0.11946181182E+02  0.14979023265E+02  0.51100000000E-03 0. -1.
        -11    1    4    4    0    0 -0.71835527551E+01  0.10524734151E+02 -0.18811311866E+02  0.22720891565E+02  0.51100000000E-03 0.  1.
         12    1    4    4    0    0 -0.57839209520E+01  0.40975931466E+01 -0.45858653188E+01  0.84424032062E+01  0.00000000000E+00 0. -1.
</event>
<event>
 8    1  0.2962813E-009  0.9118800E+02  0.7816164E-02  0.1184000E+00
        -11   -1    0    0    0    0  0.00000000000E+00  0.00000000000E+00  0.45593999997E+02  0.45594000000E+02  0.51100000000E-03 0. -1.
         11   -1    0    0    0    0 -0.00000000000E+00 -0.00000000000E+00 -0.45593999997E+02  0.45594000000E+02  0.51100000000E-03 0.  1.
         23    2    1    2    0    0  0.00000000000E+00  0.14210854715E-13  0.35527136788E-14  0.91188000000E+02  0.91188000000E+02 0.  0.
    9900012    2    3    3    0    0  0.80934441940E+01 -0.40617434653E+02  0.17715352008E+02  0.46142317261E+02  0.99999954385E+01 0.  0.
        -12    1    3    3    0    0 -0.80934441940E+01  0.40617434653E+02 -0.17715352008E+02  0.45045682739E+02  0.00000000000E+00 0.  1.
         11    1    4    4    0    0  0.61972109748E+01 -0.40147283847E+02  0.16756639079E+02  0.43943085664E+02  0.51100000000E-03 0. -1.
        -11    1    4    4    0    0  0.94705286690E+00 -0.80775828449E-01  0.40235329986E+00  0.10321445181E+01  0.51100000000E-03 0.  1.
         12    1    4    4    0    0  0.94918035228E+00 -0.38937497724E+00  0.55635962840E+00  0.11670870791E+01  0.00000000000E+00 0. -1.
</event>
<event>
 8    1  0.2962813E-009  0.9118800E+02  0.7816164E-02  0.1184000E+00
        -11   -1    0    0    0    0  0.00000000000E+00  0.00000000000E+00  0.45593999997E+02  0.45594000000E+02  0.51100000000E-03 0.  1.
         11   -1    0    0    0    0 -0.00000000000E+00 -0.00000000000E+00 -0.45593999997E+02  0.45594000000E+02  0.51100000000E-03 0. -1.
         23    2    1    2    0    0 -0.71054273576E-14 -0.35527136788E-14  0.00000000000E+00  0.91188000000E+02  0.91188000000E+02 0.  0.
    9900012    2    3    3    0    0 -0.32024880068E+02 -0.31066674376E+02 -0.61953442622E+01  0.46142317736E+02  0.99999997667E+01 0.  0.
        -12    1    3    3    0    0  0.32024880068E+02  0.31066674376E+02  0.61953442622E+01  0.45045682264E+02  0.00000000000E+00 0.  1.
         11    1    4    4    0    0 -0.30619963828E+02 -0.28581697770E+02 -0.52390561992E+01  0.42213070753E+02  0.51100000000E-03 0. -1.
        -11    1    4    4    0    0 -0.71298751708E+00 -0.73462439514E+00 -0.16344994916E+01  0.19286298376E+01  0.51100000000E-03 0.  1.
        -12    1    4    4    0    0 -0.69192872240E+00 -0.17503522111E+01  0.67821142856E+00  0.20006171452E+01  0.00000000000E+00 0.  1.
</event>
<event>
 8    1  0.2962813E-009  0.9118800E+02  0.7816164E-02  0.1184000E+00
        -11   -1    0    0    0    0  0.00000000000E+00  0.00000000000E+00  0.45593999997E+02  0.45594000000E+02  0.51100000000E-03 0. -1.
         11   -1    0    0    0    0 -0.00000000000E+00 -0.00000000000E+00 -0.45593999997E+02  0.45594000000E+02  0.51100000000E-03 0.  1.
         23    2    1    2    0    0 -0.35527136788E-14  0.00000000000E+00 -0.35527136788E-14  0.91188000000E+02  0.91188000000E+02 0.  0.
    9900012    2    3    3    0    0 -0.30295827596E+02 -0.17748312352E+02 -0.28218322328E+02  0.46142317897E+02  0.10000001244E+02 0.  0.
         12    1    3    3    0    0  0.30295827596E+02  0.17748312352E+02  0.28218322328E+02  0.45045682103E+02  0.00000000000E+00 0. -1.
         11    1    4    4    0    0 -0.41360913979E+01 -0.12796224995E-01 -0.39484161964E+01  0.57181646108E+01  0.51100000000E-03 0. -1.
        -11    1    4    4    0    0 -0.22633570068E+02 -0.17641329508E+02 -0.22567774037E+02  0.36507525609E+02  0.51100000000E-03 0.  1.
        -12    1    4    4    0    0 -0.35261661309E+01 -0.94186618944E-01 -0.17021320939E+01  0.39166276779E+01  0.00000000000E+00 0.  1.
</event>
<event>
 8    1  0.2962813E-009  0.9118800E+02  0.7816164E-02  0.1184000E+00
        -11   -1    0    0    0    0  0.00000000000E+00  0.00000000000E+00  0.45593999997E+02  0.45594000000E+02  0.51100000000E-03 0. -1.
         11   -1    0    0    0    0 -0.00000000000E+00 -0.00000000000E+00 -0.45593999997E+02  0.45594000000E+02  0.51100000000E-03 0.  1.
         23    2    1    2    0    0 -0.22204460493E-15  0.00000000000E+00  0.00000000000E+00  0.91188000000E+02  0.91188000000E+02 0.  0.
    9900012    2    3    3    0    0 -0.98745565832E+00  0.24155318777E+02  0.38008669016E+02  0.46142318584E+02  0.10000007502E+02 0.  0.
        -12    1    3    3    0    0  0.98745565832E+00 -0.24155318777E+02 -0.38008669016E+02  0.45045681416E+02  0.00000000000E+00 0.  1.
         11    1    4    4    0    0 -0.50446755128E-01  0.55499643867E+01  0.84595575158E+01  0.10117744966E+02  0.51100000000E-03 0.  1.
        -11    1    4    4    0    0 -0.16441492720E+01  0.18496356265E+02  0.29923568286E+02  0.35217018061E+02  0.51100000000E-03 0. -1.
        -12    1    4    4    0    0  0.70714036880E+00  0.10899812534E+00 -0.37445678588E+00  0.80755555661E+00  0.00000000000E+00 0.  1.
</event>
<event>
 8    1  0.2962813E-009  0.9118800E+02  0.7816164E-02  0.1184000E+00
        -11   -1    0    0    0    0  0.00000000000E+00  0.00000000000E+00  0.45593999997E+02  0.45594000000E+02  0.51100000000E-03 0.  1.
         11   -1    0    0    0    0 -0.00000000000E+00 -0.00000000000E+00 -0.45593999997E+02  0.45594000000E+02  0.51100000000E-03 0. -1.
         23    2    1    2    0    0  0.00000000000E+00  0.00000000000E+00  0.22204460493E-15  0.91188000000E+02  0.91188000000E+02 0.  0.
    9900012    2    3    3    0    0 -0.16475628060E+02 -0.41886127873E+02 -0.17942797281E+01  0.46142317988E+02  0.10000002068E+02 0.  0.
        -12    1    3    3    0    0  0.16475628060E+02  0.41886127873E+02  0.17942797281E+01  0.45045682012E+02  0.00000000000E+00 0.  1.
         11    1    4    4    0    0 -0.58838006626E+01 -0.16131454717E+02 -0.16293096936E+01  0.17248118502E+02  0.51100000000E-03 0. -1.
        -11    1    4    4    0    0 -0.30471527612E+01 -0.17267917729E+02 -0.32064268941E+00  0.17537643361E+02  0.51100000000E-03 0.  1.
        -12    1    4    4    0    0 -0.75446746364E+01 -0.84867554268E+01  0.15567265486E+00  0.11356556125E+02  0.00000000000E+00 0.  1.
</event>
<event>
 8    1  0.2962813E-009  0.9118800E+02  0.7816164E-02  0.1184000E+00
        -11   -1    0    0    0    0  0.00000000000E+00  0.00000000000E+00  0.45593999997E+02  0.45594000000E+02  0.51100000000E-03 0.  1.
         11   -1    0    0    0    0 -0.00000000000E+00 -0.00000000000E+00 -0.45593999997E+02  0.45594000000E+02  0.51100000000E-03 0. -1.
         23    2    1    2    0    0  0.00000000000E+00  0.00000000000E+00 -0.35527136788E-14  0.91188000000E+02  0.91188000000E+02 0.  0.
    9900012    2    3    3    0    0 -0.13270787046E+02  0.37470811037E+02 -0.21188154593E+02  0.46142319145E+02  0.10000012619E+02 0.  0.
         12    1    3    3    0    0  0.13270787046E+02 -0.37470811037E+02  0.21188154593E+02  0.45045680855E+02  0.00000000000E+00 0. -1.
         11    1    4    4    0    0 -0.12430360445E+01  0.89759122756E+01 -0.15920542114E+01  0.92003682894E+01  0.51100000000E-03 0. -1.
        -11    1    4    4    0    0 -0.31017654410E+01  0.38469148798E+01 -0.45451727659E+01  0.67140374348E+01  0.51100000000E-03 0.  1.
         12    1    4    4    0    0 -0.89259855606E+01  0.24647983882E+02 -0.15050927616E+02  0.30227913421E+02  0.00000000000E+00 0. -1.
</event>
<event>
 8    1  0.2962813E-009  0.9118800E+02  0.7816164E-02  0.1184000E+00
        -11   -1    0    0    0    0  0.00000000000E+00  0.00000000000E+00  0.45593999997E+02  0.45594000000E+02  0.51100000000E-03 0. -1.
         11   -1    0    0    0    0 -0.00000000000E+00 -0.00000000000E+00 -0.45593999997E+02  0.45594000000E+02  0.51100000000E-03 0.  1.
         23    2    1    2    0    0  0.00000000000E+00 -0.71054273576E-14  0.17763568394E-14  0.91188000000E+02  0.91188000000E+02 0.  0.
    9900012    2    3    3    0    0  0.55373712358E+01 -0.43386943786E+02  0.10771447169E+02  0.46142318238E+02  0.10000004351E+02 0.  0.
        -12    1    3    3    0    0 -0.55373712358E+01  0.43386943786E+02 -0.10771447169E+02  0.45045681762E+02  0.00000000000E+00 0.  1.
         11    1    4    4    0    0  0.66534434383E+01 -0.37679887687E+02  0.10153880332E+02  0.39587163725E+02  0.51100000000E-03 0. -1.
        -11    1    4    4    0    0  0.56125502922E+00 -0.16833278458E+01  0.12214478279E+01  0.21541900802E+01  0.51100000000E-03 0.  1.
         12    1    4    4    0    0 -0.16773272316E+01 -0.40237282526E+01 -0.60388099079E+00  0.44009644334E+01  0.00000000000E+00 0. -1.
</event>
<event>
 8    1  0.2962813E-009  0.9118800E+02  0.7816164E-02  0.1184000E+00
        -11   -1    0    0    0    0  0.00000000000E+00  0.00000000000E+00  0.45593999997E+02  0.45594000000E+02  0.51100000000E-03 0. -1.
         11   -1    0    0    0    0 -0.00000000000E+00 -0.00000000000E+00 -0.45593999997E+02  0.45594000000E+02  0.51100000000E-03 0.  1.
         23    2    1    2    0    0  0.17763568394E-14  0.00000000000E+00  0.71054273576E-14  0.91188000000E+02  0.91188000000E+02 0.  0.
    9900012    2    3    3    0    0  0.10310445831E+02 -0.16298116065E+02  0.40708470716E+02  0.46142317981E+02  0.10000002005E+02 0.  0.
        -12    1    3    3    0    0 -0.10310445831E+02  0.16298116065E+02 -0.40708470716E+02  0.45045682019E+02  0.00000000000E+00 0.  1.
         11    1    4    4    0    0  0.10320866021E+02 -0.15215896759E+02  0.29249976278E+02  0.34548587556E+02  0.51100000000E-03 0. -1.
        -11    1    4    4    0    0  0.60134744661E+00 -0.97315022421E+00  0.75212462634E+01  0.76077451144E+01  0.51100000000E-03 0.  1.
         12    1    4    4    0    0 -0.61176763671E+00 -0.10906908270E+00  0.39372481751E+01  0.39859853109E+01  0.00000000000E+00 0. -1.
</event>
<event>
 8    1  0.2962813E-009  0.9118800E+02  0.7816164E-02  0.1184000E+00
        -11   -1    0    0    0    0  0.00000000000E+00  0.00000000000E+00  0.45593999997E+02  0.45594000000E+02  0.51100000000E-03 0. -1.
         11   -1    0    0    0    0 -0.00000000000E+00 -0.00000000000E+00 -0.45593999997E+02  0.45594000000E+02  0.51100000000E-03 0.  1.
         23    2    1    2    0    0  0.00000000000E+00  0.00000000000E+00  0.71054273576E-14  0.91188000000E+02  0.91188000000E+02 0.  0.
    9900012    2    3    3    0    0 -0.13011506700E+02  0.12539188622E+02  0.41262366222E+02  0.46142318473E+02  0.10000006496E+02 0.  0.
        -12    1    3    3    0    0  0.13011506700E+02 -0.12539188622E+02 -0.41262366222E+02  0.45045681527E+02  0.00000000000E+00 0.  1.
         11    1    4    4    0    0 -0.34920797775E+01 -0.41870758393E-01  0.14825377131E+02  0.15231158251E+02  0.51100000000E-03 0. -1.
        -11    1    4    4    0    0 -0.14953882499E+01  0.39598775994E+01  0.65664209933E+01  0.78124708987E+01  0.51100000000E-03 0.  1.
         12    1    4    4    0    0 -0.80240386728E+01  0.86211817813E+01  0.19870568098E+02  0.23098689324E+02  0.00000000000E+00 0. -1.
</event>
<event>
 8    1  0.2962813E-009  0.9118800E+02  0.7816164E-02  0.1184000E+00
        -11   -1    0    0    0    0  0.00000000000E+00  0.00000000000E+00  0.45593999997E+02  0.45594000000E+02  0.51100000000E-03 0. -1.
         11   -1    0    0    0    0 -0.00000000000E+00 -0.00000000000E+00 -0.45593999997E+02  0.45594000000E+02  0.51100000000E-03 0.  1.
         23    2    1    2    0    0  0.00000000000E+00  0.00000000000E+00 -0.71054273576E-14  0.91188000000E+02  0.91188000000E+02 0.  0.
    9900012    2    3    3    0    0  0.29036881461E+02 -0.21712824994E+02  0.26730623837E+02  0.46142317578E+02  0.99999983275E+01 0.  0.
        -12    1    3    3    0    0 -0.29036881461E+02  0.21712824994E+02 -0.26730623837E+02  0.45045682422E+02  0.00000000000E+00 0.  1.
         11    1    4    4    0    0  0.23552018492E+02 -0.16514284647E+02  0.23210883602E+02  0.36961659734E+02  0.51100000000E-03 0. -1.
        -11    1    4    4    0    0  0.13509521587E+01  0.51958359184E-02 -0.46851696911E+00  0.14298975989E+01  0.51100000000E-03 0.  1.
         12    1    4    4    0    0  0.41339108101E+01 -0.52037361830E+01  0.39882572039E+01  0.77507602448E+01  0.00000000000E+00 0. -1.
</event>
<event>
 8    1  0.2962813E-009  0.9118800E+02  0.7816164E-02  0.1184000E+00
        -11   -1    0    0    0    0  0.00000000000E+00  0.00000000000E+00  0.45593999997E+02  0.45594000000E+02  0.51100000000E-03 0. -1.
         11   -1    0    0    0    0 -0.00000000000E+00 -0.00000000000E+00 -0.45593999997E+02  0.45594000000E+02  0.51100000000E-03 0.  1.
         23    2    1    2    0    0  0.00000000000E+00  0.00000000000E+00  0.35527136788E-14  0.91188000000E+02  0.91188000000E+02 0.  0.
    9900012    2    3    3    0    0 -0.59064708568E+01 -0.35763874226E+02 -0.26742706612E+02  0.46142318137E+02  0.10000003425E+02 0.  0.
         12    1    3    3    0    0  0.59064708568E+01  0.35763874226E+02  0.26742706612E+02  0.45045681863E+02  0.00000000000E+00 0. -1.
         11    1    4    4    0    0  0.12458116147E+01 -0.42397512896E+01 -0.16268865570E+01  0.47089593019E+01  0.51100000000E-03 0. -1.
        -11    1    4    4    0    0 -0.63336946956E+01 -0.22797099505E+02 -0.14850575452E+02  0.27934978537E+02  0.51100000000E-03 0.  1.
        -12    1    4    4    0    0 -0.81858777587E+00 -0.87270234306E+01 -0.10265244603E+02  0.13498380297E+02  0.00000000000E+00 0.  1.
</event>
<event>
 8    1  0.2962813E-009  0.9118800E+02  0.7816164E-02  0.1184000E+00
        -11   -1    0    0    0    0  0.00000000000E+00  0.00000000000E+00  0.45593999997E+02  0.45594000000E+02  0.51100000000E-03 0. -1.
         11   -1    0    0    0    0 -0.00000000000E+00 -0.00000000000E+00 -0.45593999997E+02  0.45594000000E+02  0.51100000000E-03 0.  1.
         23    2    1    2    0    0 -0.33306690739E-15  0.35527136788E-14  0.00000000000E+00  0.91188000000E+02  0.91188000000E+02 0.  0.
    9900012    2    3    3    0    0  0.17175305798E+00 -0.28710528156E+02 -0.34710077122E+02  0.46142318965E+02  0.10000010974E+02 0.  0.
         12    1    3    3    0    0 -0.17175305798E+00  0.28710528156E+02  0.34710077122E+02  0.45045681035E+02  0.00000000000E+00 0. -1.
         11    1    4    4    0    0 -0.31704985251E+01 -0.10595693466E+02 -0.90058249962E+01  0.14262736941E+02  0.51100000000E-03 0. -1.
        -11    1    4    4    0    0  0.37924043937E+01 -0.12063287696E+02 -0.19141329126E+02  0.22941136025E+02  0.51100000000E-03 0.  1.
         12    1    4    4    0    0 -0.45015281062E+00 -0.60515469948E+01 -0.65629229995E+01  0.89384459992E+01  0.00000000000E+00 0. -1.
</event>
<event>
 8    1  0.2962813E-009  0.9118800E+02  0.7816164E-02  0.1184000E+00
        -11   -1    0    0    0    0  0.00000000000E+00  0.00000000000E+00  0.45593999997E+02  0.45594000000E+02  0.51100000000E-03 0.  1.
         11   -1    0    0    0    0 -0.00000000000E+00 -0.00000000000E+00 -0.45593999997E+02  0.45594000000E+02  0.51100000000E-03 0. -1.
         23    2    1    2    0    0  0.00000000000E+00 -0.17763568394E-14  0.00000000000E+00  0.91188000000E+02  0.91188000000E+02 0.  0.
    9900012    2    3    3    0    0  0.40193618709E+02 -0.14967399901E+02  0.13768209221E+02  0.46142316190E+02  0.99999856742E+01 0.  0.
        -12    1    3    3    0    0 -0.40193618709E+02  0.14967399901E+02 -0.13768209221E+02  0.45045683810E+02  0.00000000000E+00 0.  1.
         11    1    4    4    0    0  0.50169841298E+00 -0.19671056059E+01 -0.29119903769E-01  0.20302842147E+01  0.51100000000E-03 0. -1.
        -11    1    4    4    0    0  0.30187406540E+02 -0.85987461055E+01  0.95433551154E+01  0.32806913529E+02  0.51100000000E-03 0.  1.
         12    1    4    4    0    0  0.95045137568E+01 -0.44015481893E+01  0.42539740094E+01  0.11305118446E+02  0.00000000000E+00 0. -1.
</event>
<event>
 8    1  0.2962813E-009  0.9118800E+02  0.7816164E-02  0.1184000E+00
        -11   -1    0    0    0    0  0.00000000000E+00  0.00000000000E+00  0.45593999997E+02  0.45594000000E+02  0.51100000000E-03 0. -1.
         11   -1    0    0    0    0 -0.00000000000E+00 -0.00000000000E+00 -0.45593999997E+02  0.45594000000E+02  0.51100000000E-03 0.  1.
         23    2    1    2    0    0  0.00000000000E+00  0.00000000000E+00  0.35527136788E-14  0.91188000000E+02  0.91188000000E+02 0.  0.
    9900012    2    3    3    0    0  0.35626588435E+02 -0.11162695332E+02 -0.25204246138E+02  0.46142316589E+02  0.99999893149E+01 0.  0.
         12    1    3    3    0    0 -0.35626588435E+02  0.11162695332E+02  0.25204246138E+02  0.45045683411E+02  0.00000000000E+00 0. -1.
         11    1    4    4    0    0  0.93964585447E+01 -0.54126571411E+01 -0.48884023812E+01  0.11894821084E+02  0.51100000000E-03 0. -1.
        -11    1    4    4    0    0  0.19079822777E+02 -0.21219017216E+01 -0.16728730355E+02  0.25463552849E+02  0.51100000000E-03 0.  1.
        -12    1    4    4    0    0  0.71503071131E+01 -0.36281364690E+01 -0.35871134011E+01  0.87839426570E+01  0.00000000000E+00 0.  1.
</event>
<event>
 8    1  0.2962813E-009  0.9118800E+02  0.7816164E-02  0.1184000E+00
        -11   -1    0    0    0    0  0.00000000000E+00  0.00000000000E+00  0.45593999997E+02  0.45594000000E+02  0.51100000000E-03 0. -1.
         11   -1    0    0    0    0 -0.00000000000E+00 -0.00000000000E+00 -0.45593999997E+02  0.45594000000E+02  0.51100000000E-03 0.  1.
         23    2    1    2    0    0  0.00000000000E+00  0.00000000000E+00  0.00000000000E+00  0.91188000000E+02  0.91188000000E+02 0.  0.
    9900012    2    3    3    0    0 -0.34190339921E+02  0.21866741424E+02 -0.19544301006E+02  0.46142318450E+02  0.10000006286E+02 0.  0.
         12    1    3    3    0    0  0.34190339921E+02 -0.21866741424E+02  0.19544301006E+02  0.45045681550E+02  0.00000000000E+00 0. -1.
         11    1    4    4    0    0 -0.13684721169E+02  0.43537822161E+01 -0.74103946599E+01  0.16159856507E+02  0.51100000000E-03 0. -1.
        -11    1    4    4    0    0 -0.18396314394E+02  0.16126755646E+02 -0.12430440687E+02  0.27441072991E+02  0.51100000000E-03 0.  1.
         12    1    4    4    0    0 -0.21093043587E+01  0.13862035625E+01  0.29653434092E+00  0.25413889529E+01  0.00000000000E+00 0. -1.
</event>
<event>
 8    1  0.2962813E-009  0.9118800E+02  0.7816164E-02  0.1184000E+00
        -11   -1    0    0    0    0  0.00000000000E+00  0.00000000000E+00  0.45593999997E+02  0.45594000000E+02  0.51100000000E-03 0. -1.
         11   -1    0    0    0    0 -0.00000000000E+00 -0.00000000000E+00 -0.45593999997E+02  0.45594000000E+02  0.51100000000E-03 0.  1.
         23    2    1    2    0    0  0.00000000000E+00  0.00000000000E+00  0.00000000000E+00  0.91188000000E+02  0.91188000000E+02 0.  0.
    9900012    2    3    3    0    0  0.20264415610E+02 -0.23413733477E+02 -0.32714891839E+02  0.46142316484E+02  0.99999883562E+01 0.  0.
         12    1    3    3    0    0 -0.20264415610E+02  0.23413733477E+02  0.32714891839E+02  0.45045683516E+02  0.00000000000E+00 0. -1.
         11    1    4    4    0    0  0.11650478264E+02 -0.12566697038E+02 -0.15372365188E+02  0.23020971525E+02  0.51100000000E-03 0. -1.
        -11    1    4    4    0    0  0.44885552970E+01 -0.90449320380E+01 -0.84998854259E+01  0.13198711177E+02  0.51100000000E-03 0.  1.
         12    1    4    4    0    0  0.41253820489E+01 -0.18021044004E+01 -0.88426412255E+01  0.99226337815E+01  0.00000000000E+00 0. -1.
</event>
<event>
 8    1  0.2962813E-009  0.9118800E+02  0.7816164E-02  0.1184000E+00
        -11   -1    0    0    0    0  0.00000000000E+00  0.00000000000E+00  0.45593999997E+02  0.45594000000E+02  0.51100000000E-03 0. -1.
         11   -1    0    0    0    0 -0.00000000000E+00 -0.00000000000E+00 -0.45593999997E+02  0.45594000000E+02  0.51100000000E-03 0.  1.
         23    2    1    2    0    0  0.00000000000E+00 -0.17763568394E-14 -0.71054273576E-14  0.91188000000E+02  0.91188000000E+02 0.  0.
    9900012    2    3    3    0    0  0.94422752079E+01 -0.11389960163E+02 -0.42546747717E+02  0.46142317688E+02  0.99999993372E+01 0.  0.
         12    1    3    3    0    0 -0.94422752079E+01  0.11389960163E+02  0.42546747717E+02  0.45045682312E+02  0.00000000000E+00 0. -1.
         11    1    4    4    0    0  0.13820472543E+01 -0.38446362985E+01 -0.17579308044E+02  0.18047807470E+02  0.51100000000E-03 0. -1.
        -11    1    4    4    0    0  0.61263817852E+01 -0.84294557824E+01 -0.22746220070E+02  0.25019568467E+02  0.51100000000E-03 0.  1.
        -12    1    4    4    0    0  0.19338461684E+01  0.88413191765E+00 -0.22212196027E+01  0.30749417514E+01  0.00000000000E+00 0.  1.
</event>
<event>
 8    1  0.2962813E-009  0.9118800E+02  0.7816164E-02  0.1184000E+00
        -11   -1    0    0    0    0  0.00000000000E+00  0.00000000000E+00  0.45593999997E+02  0.45594000000E+02  0.51100000000E-03 0. -1.
         11   -1    0    0    0    0 -0.00000000000E+00 -0.00000000000E+00 -0.45593999997E+02  0.45594000000E+02  0.51100000000E-03 0.  1.
         23    2    1    2    0    0  0.00000000000E+00  0.00000000000E+00  0.00000000000E+00  0.91188000000E+02  0.91188000000E+02 0.  0.
    9900012    2    3    3    0    0  0.15951114143E+02  0.16373992197E+02  0.38814531411E+02  0.46142317504E+02  0.99999976564E+01 0.  0.
        -12    1    3    3    0    0 -0.15951114143E+02 -0.16373992197E+02 -0.38814531411E+02  0.45045682496E+02  0.00000000000E+00 0.  1.
         11    1    4    4    0    0  0.49954133778E+01  0.73043643496E+01  0.86016414071E+01  0.12340831760E+02  0.51100000000E-03 0. -1.
        -11    1    4    4    0    0  0.21426925436E+00  0.71201054143E-01  0.46046771546E+01  0.46102096333E+01  0.51100000000E-03 0.  1.
        -12    1    4    4    0    0  0.10741431511E+02  0.89984267930E+01  0.25608212849E+02  0.29191276111E+02  0.00000000000E+00 0.  1.
</event>
<event>
 8    1  0.2962813E-009  0.9118800E+02  0.7816164E-02  0.1184000E+00
        -11   -1    0    0    0    0  0.00000000000E+00  0.00000000000E+00  0.45593999997E+02  0.45594000000E+02  0.51100000000E-03 0. -1.
         11   -1    0    0    0    0 -0.00000000000E+00 -0.00000000000E+00 -0.45593999997E+02  0.45594000000E+02  0.51100000000E-03 0.  1.
         23    2    1    2    0    0  0.00000000000E+00 -0.35527136788E-14  0.00000000000E+00  0.91188000000E+02  0.91188000000E+02 0.  0.
    9900012    2    3    3    0    0 -0.40825665842E+02 -0.18447678882E+02 -0.46969856767E+01  0.46142317388E+02  0.99999965954E+01 0.  0.
         12    1    3    3    0    0  0.40825665842E+02  0.18447678882E+02  0.46969856767E+01  0.45045682612E+02  0.00000000000E+00 0. -1.
         11    1    4    4    0    0 -0.13814439989E+02 -0.69109842469E+01 -0.54822879240E+01  0.16390727154E+02  0.51100000000E-03 0. -1.
        -11    1    4    4    0    0 -0.82595094810E+01 -0.32302588007E+01 -0.18925405963E+01  0.90683945082E+01  0.51100000000E-03 0.  1.
         12    1    4    4    0    0 -0.18751716371E+02 -0.83064358341E+01  0.26778428436E+01  0.20683195726E+02  0.00000000000E+00 0. -1.
</event>
<event>
 8    1  0.2962813E-009  0.9118800E+02  0.7816164E-02  0.1184000E+00
        -11   -1    0    0    0    0  0.00000000000E+00  0.00000000000E+00  0.45593999997E+02  0.45594000000E+02  0.51100000000E-03 0. -1.
         11   -1    0    0    0    0 -0.00000000000E+00 -0.00000000000E+00 -0.45593999997E+02  0.45594000000E+02  0.51100000000E-03 0.  1.
         23    2    1    2    0    0  0.35527136788E-14  0.17763568394E-14 -0.71054273576E-14  0.91188000000E+02  0.91188000000E+02 0.  0.
    9900012    2    3    3    0    0  0.15430161714E+02  0.15158230161E+02 -0.39512677180E+02  0.46142317742E+02  0.99999998254E+01 0.  0.
         12    1    3    3    0    0 -0.15430161714E+02 -0.15158230161E+02  0.39512677180E+02  0.45045682258E+02  0.00000000000E+00 0. -1.
         11    1    4    4    0    0  0.62700060588E+01  0.34353760042E+01 -0.19008875828E+02  0.20308917863E+02  0.51100000000E-03 0. -1.
        -11    1    4    4    0    0  0.51017023780E+01  0.66787511020E+01 -0.73176573751E+01  0.11143661569E+02  0.51100000000E-03 0.  1.
        -12    1    4    4    0    0  0.40584532772E+01  0.50441030546E+01 -0.13186143977E+02  0.14689738310E+02  0.00000000000E+00 0.  1.
</event>
<event>
 8    1  0.2962813E-009  0.9118800E+02  0.7816164E-02  0.1184000E+00
        -11   -1    0    0    0    0  0.00000000000E+00  0.00000000000E+00  0.45593999997E+02  0.45594000000E+02  0.51100000000E-03 0. -1.
         11   -1    0    0    0    0 -0.00000000000E+00 -0.00000000000E+00 -0.45593999997E+02  0.45594000000E+02  0.51100000000E-03 0.  1.
         23    2    1    2    0    0  0.71054273576E-14 -0.44408920985E-15  0.00000000000E+00  0.91188000000E+02  0.91188000000E+02 0.  0.
    9900012    2    3    3    0    0 -0.34207901592E+02  0.23472725138E+01 -0.29213409751E+02  0.46142317312E+02  0.99999959020E+01 0.  0.
         12    1    3    3    0    0  0.34207901592E+02 -0.23472725138E+01  0.29213409751E+02  0.45045682688E+02  0.00000000000E+00 0. -1.
         11    1    4    4    0    0 -0.65694281577E+01  0.30186147914E+01 -0.32210402756E+01  0.79148292651E+01  0.51100000000E-03 0. -1.
        -11    1    4    4    0    0 -0.26069364804E+02 -0.12698388892E+01 -0.22963289348E+02  0.34764017749E+02  0.51100000000E-03 0.  1.
        -12    1    4    4    0    0 -0.15691086303E+01  0.59849661152E+00 -0.30290801269E+01  0.34634702977E+01  0.00000000000E+00 0.  1.
</event>
<event>
 8    1  0.2962813E-009  0.9118800E+02  0.7816164E-02  0.1184000E+00
        -11   -1    0    0    0    0  0.00000000000E+00  0.00000000000E+00  0.45593999997E+02  0.45594000000E+02  0.51100000000E-03 0.  1.
         11   -1    0    0    0    0 -0.00000000000E+00 -0.00000000000E+00 -0.45593999997E+02  0.45594000000E+02  0.51100000000E-03 0. -1.
         23    2    1    2    0    0 -0.35527136788E-14  0.71054273576E-14  0.00000000000E+00  0.91188000000E+02  0.91188000000E+02 0.  0.
    9900012    2    3    3    0    0  0.22626957664E+02 -0.38413914039E+02 -0.64424729542E+01  0.46142318046E+02  0.10000002599E+02 0.  0.
         12    1    3    3    0    0 -0.22626957664E+02  0.38413914039E+02  0.64424729542E+01  0.45045681954E+02  0.00000000000E+00 0. -1.
         11    1    4    4    0    0  0.93127761024E+01 -0.11522594785E+02  0.17133042450E+01  0.14914201320E+02  0.51100000000E-03 0. -1.
        -11    1    4    4    0    0  0.60864386406E+01 -0.14858412279E+02 -0.34463204984E+01  0.16422371206E+02  0.51100000000E-03 0.  1.
         12    1    4    4    0    0  0.72277429206E+01 -0.12032906975E+02 -0.47094567007E+01  0.14805745520E+02  0.00000000000E+00 0. -1.
</event>
<event>
 8    1  0.2962813E-009  0.9118800E+02  0.7816164E-02  0.1184000E+00
        -11   -1    0    0    0    0  0.00000000000E+00  0.00000000000E+00  0.45593999997E+02  0.45594000000E+02  0.51100000000E-03 0. -1.
         11   -1    0    0    0    0 -0.00000000000E+00 -0.00000000000E+00 -0.45593999997E+02  0.45594000000E+02  0.51100000000E-03 0.  1.
         23    2    1    2    0    0  0.35527136788E-14 -0.35527136788E-14  0.00000000000E+00  0.91188000000E+02  0.91188000000E+02 0.  0.
    9900012    2    3    3    0    0 -0.21769970340E+02  0.29854295514E+02  0.25766314819E+02  0.46142317092E+02  0.99999939020E+01 0.  0.
        -12    1    3    3    0    0  0.21769970340E+02 -0.29854295514E+02 -0.25766314819E+02  0.45045682908E+02  0.00000000000E+00 0.  1.
         11    1    4    4    0    0 -0.39419020157E+01  0.93046829309E+01  0.91700582571E+01  0.13645720378E+02  0.51100000000E-03 0. -1.
        -11    1    4    4    0    0 -0.61943671169E+01  0.11972335206E+02  0.76893838969E+01  0.15518815008E+02  0.51100000000E-03 0.  1.
        -12    1    4    4    0    0 -0.11633701208E+02  0.85772773766E+01  0.89068726652E+01  0.16977781706E+02  0.00000000000E+00 0.  1.
</event>
<event>
 8    1  0.2962813E-009  0.9118800E+02  0.7816164E-02  0.1184000E+00
        -11   -1    0    0    0    0  0.00000000000E+00  0.00000000000E+00  0.45593999997E+02  0.45594000000E+02  0.51100000000E-03 0. -1.
         11   -1    0    0    0    0 -0.00000000000E+00 -0.00000000000E+00 -0.45593999997E+02  0.45594000000E+02  0.51100000000E-03 0.  1.
         23    2    1    2    0    0  0.00000000000E+00  0.00000000000E+00  0.71054273576E-14  0.91188000000E+02  0.91188000000E+02 0.  0.
    9900012    2    3    3    0    0 -0.18631105314E+02 -0.12457765993E+02 -0.39074282528E+02  0.46142316812E+02  0.99999913454E+01 0.  0.
         12    1    3    3    0    0  0.18631105314E+02  0.12457765993E+02  0.39074282528E+02  0.45045683188E+02  0.00000000000E+00 0. -1.
         11    1    4    4    0    0 -0.19022306336E+01 -0.27205582814E+01 -0.15230472655E+01  0.36523406166E+01  0.51100000000E-03 0. -1.
        -11    1    4    4    0    0 -0.24681394575E+01 -0.31851940430E+01 -0.10018754948E+02  0.10798732539E+02  0.51100000000E-03 0.  1.
         12    1    4    4    0    0 -0.14260735223E+02 -0.65520136690E+01 -0.27532480314E+02  0.31691243656E+02  0.00000000000E+00 0. -1.
</event>
<event>
 8    1  0.2962813E-009  0.9118800E+02  0.7816164E-02  0.1184000E+00
        -11   -1    0    0    0    0  0.00000000000E+00  0.00000000000E+00  0.45593999997E+02  0.45594000000E+02  0.51100000000E-03 0. -1.
         11   -1    0    0    0    0 -0.00000000000E+00 -0.00000000000E+00 -0.45593999997E+02  0.45594000000E+02  0.51100000000E-03 0.  1.
         23    2    1    2    0    0  0.17763568394E-14  0.00000000000E+00  0.00000000000E+00  0.91188000000E+02  0.91188000000E+02 0.  0.
    9900012    2    3    3    0    0 -0.13668626540E+02 -0.42284233894E+02 -0.73705985493E+01  0.46142317516E+02  0.99999977663E+01 0.  0.
         12    1    3    3    0    0  0.13668626540E+02  0.42284233894E+02  0.73705985493E+01  0.45045682484E+02  0.00000000000E+00 0. -1.
         11    1    4    4    0    0 -0.64198057953E+01 -0.17854149822E+02 -0.71052787698E+01  0.20260048346E+02  0.51100000000E-03 0. -1.
        -11    1    4    4    0    0 -0.11834176706E+01 -0.10491735722E+02 -0.13424929088E+01  0.10643274088E+02  0.51100000000E-03 0.  1.
        -12    1    4    4    0    0 -0.60654030743E+01 -0.13938348349E+02  0.10771731293E+01  0.15238995082E+02  0.00000000000E+00 0.  1.
</event>
<event>
 8    1  0.2962813E-009  0.9118800E+02  0.7816164E-02  0.1184000E+00
        -11   -1    0    0    0    0  0.00000000000E+00  0.00000000000E+00  0.45593999997E+02  0.45594000000E+02  0.51100000000E-03 0. -1.
         11   -1    0    0    0    0 -0.00000000000E+00 -0.00000000000E+00 -0.45593999997E+02  0.45594000000E+02  0.51100000000E-03 0.  1.
         23    2    1    2    0    0  0.00000000000E+00  0.17763568394E-14  0.71054273576E-14  0.91188000000E+02  0.91188000000E+02 0.  0.
    9900012    2    3    3    0    0 -0.22722712258E+02 -0.11988136254E+02 -0.37001032984E+02  0.46142317575E+02  0.99999983062E+01 0.  0.
         12    1    3    3    0    0  0.22722712258E+02  0.11988136254E+02  0.37001032984E+02  0.45045682425E+02  0.00000000000E+00 0. -1.
         11    1    4    4    0    0 -0.73898034039E+01 -0.65414079932E+01 -0.17485578006E+02  0.20078462375E+02  0.51100000000E-03 0.  1.
        -11    1    4    4    0    0  0.21979400331E+00 -0.92439193248E+00 -0.19592410768E+01  0.21774838018E+01  0.51100000000E-03 0. -1.
         12    1    4    4    0    0 -0.15552702858E+02 -0.45223363285E+01 -0.17556213901E+02  0.23886371399E+02  0.00000000000E+00 0. -1.
</event>
<event>
 8    1  0.2962813E-009  0.9118800E+02  0.7816164E-02  0.1184000E+00
        -11   -1    0    0    0    0  0.00000000000E+00  0.00000000000E+00  0.45593999997E+02  0.45594000000E+02  0.51100000000E-03 0. -1.
         11   -1    0    0    0    0 -0.00000000000E+00 -0.00000000000E+00 -0.45593999997E+02  0.45594000000E+02  0.51100000000E-03 0.  1.
         23    2    1    2    0    0  0.17763568394E-14  0.00000000000E+00 -0.35527136788E-14  0.91188000000E+02  0.91188000000E+02 0.  0.
    9900012    2    3    3    0    0 -0.90504205762E+01 -0.34289067256E+02  0.27775224640E+02  0.46142319300E+02  0.10000014036E+02 0.  0.
        -12    1    3    3    0    0  0.90504205762E+01  0.34289067256E+02 -0.27775224640E+02  0.45045680700E+02  0.00000000000E+00 0.  1.
         11    1    4    4    0    0 -0.22721924290E+01 -0.91051204585E+01  0.40717544976E+01  0.10229626677E+02  0.51100000000E-03 0. -1.
        -11    1    4    4    0    0 -0.72871914480E+01 -0.14031071079E+02  0.13589480699E+02  0.20848215769E+02  0.51100000000E-03 0.  1.
        -12    1    4    4    0    0  0.50896330075E+00 -0.11152875719E+02  0.10113989443E+02  0.15064476854E+02  0.00000000000E+00 0.  1.
</event>
<event>
 8    1  0.2962813E-009  0.9118800E+02  0.7816164E-02  0.1184000E+00
        -11   -1    0    0    0    0  0.00000000000E+00  0.00000000000E+00  0.45593999997E+02  0.45594000000E+02  0.51100000000E-03 0. -1.
         11   -1    0    0    0    0 -0.00000000000E+00 -0.00000000000E+00 -0.45593999997E+02  0.45594000000E+02  0.51100000000E-03 0.  1.
         23    2    1    2    0    0 -0.22204460493E-15  0.00000000000E+00  0.00000000000E+00  0.91188000000E+02  0.91188000000E+02 0.  0.
    9900012    2    3    3    0    0  0.18554872423E+01 -0.15706799172E+02 -0.42177802742E+02  0.46142318551E+02  0.10000007200E+02 0.  0.
         12    1    3    3    0    0 -0.18554872423E+01  0.15706799172E+02  0.42177802742E+02  0.45045681449E+02  0.00000000000E+00 0. -1.
         11    1    4    4    0    0 -0.35756157533E+00  0.87946978389E+00 -0.36767569193E+00  0.10180879414E+01  0.51100000000E-03 0. -1.
        -11    1    4    4    0    0  0.13477244113E+01 -0.13334433640E+02 -0.30287939695E+02  0.33120730258E+02  0.51100000000E-03 0.  1.
         12    1    4    4    0    0  0.86532440633E+00 -0.32518353159E+01 -0.11522187355E+02  0.12003500352E+02  0.00000000000E+00 0. -1.
</event>
<event>
 8    1  0.2962813E-009  0.9118800E+02  0.7816164E-02  0.1184000E+00
        -11   -1    0    0    0    0  0.00000000000E+00  0.00000000000E+00  0.45593999997E+02  0.45594000000E+02  0.51100000000E-03 0. -1.
         11   -1    0    0    0    0 -0.00000000000E+00 -0.00000000000E+00 -0.45593999997E+02  0.45594000000E+02  0.51100000000E-03 0.  1.
         23    2    1    2    0    0  0.00000000000E+00 -0.35527136788E-14  0.00000000000E+00  0.91188000000E+02  0.91188000000E+02 0.  0.
    9900012    2    3    3    0    0 -0.12057004692E+02  0.28125852412E+02  0.33055686980E+02  0.46142318989E+02  0.10000011195E+02 0.  0.
        -12    1    3    3    0    0  0.12057004692E+02 -0.28125852412E+02 -0.33055686980E+02  0.45045681011E+02  0.00000000000E+00 0.  1.
         11    1    4    4    0    0 -0.44644921717E+01  0.23231084865E+01  0.52904151179E+01  0.73018501609E+01  0.51100000000E-03 0.  1.
        -11    1    4    4    0    0 -0.49768112297E+01  0.21747862131E+02  0.23445544950E+02  0.32364050049E+02  0.51100000000E-03 0. -1.
        -12    1    4    4    0    0 -0.26157012910E+01  0.40548817943E+01  0.43197269118E+01  0.64764187791E+01  0.00000000000E+00 0.  1.
</event>
<event>
 8    1  0.2962813E-009  0.9118800E+02  0.7816164E-02  0.1184000E+00
        -11   -1    0    0    0    0  0.00000000000E+00  0.00000000000E+00  0.45593999997E+02  0.45594000000E+02  0.51100000000E-03 0. -1.
         11   -1    0    0    0    0 -0.00000000000E+00 -0.00000000000E+00 -0.45593999997E+02  0.45594000000E+02  0.51100000000E-03 0.  1.
         23    2    1    2    0    0  0.35527136788E-14  0.35527136788E-14  0.00000000000E+00  0.91188000000E+02  0.91188000000E+02 0.  0.
    9900012    2    3    3    0    0  0.30962732067E+02  0.17879747575E+02  0.27399585646E+02  0.46142318254E+02  0.10000004495E+02 0.  0.
        -12    1    3    3    0    0 -0.30962732067E+02 -0.17879747575E+02 -0.27399585646E+02  0.45045681746E+02  0.00000000000E+00 0.  1.
         11    1    4    4    0    0  0.17257968819E+02  0.88814472079E+01  0.13357979177E+02  0.23561689247E+02  0.51100000000E-03 0. -1.
        -11    1    4    4    0    0  0.10965424245E+02  0.79980549284E+01  0.77092626045E+01  0.15609040383E+02  0.51100000000E-03 0.  1.
         12    1    4    4    0    0  0.27393390031E+01  0.10002454386E+01  0.63323438649E+01  0.69715886234E+01  0.00000000000E+00 0. -1.
</event>
<event>
 8    1  0.2962813E-009  0.9118800E+02  0.7816164E-02  0.1184000E+00
        -11   -1    0    0    0    0  0.00000000000E+00  0.00000000000E+00  0.45593999997E+02  0.45594000000E+02  0.51100000000E-03 0.  1.
         11   -1    0    0    0    0 -0.00000000000E+00 -0.00000000000E+00 -0.45593999997E+02  0.45594000000E+02  0.51100000000E-03 0. -1.
         23    2    1    2    0    0  0.00000000000E+00  0.00000000000E+00  0.00000000000E+00  0.91188000000E+02  0.91188000000E+02 0.  0.
    9900012    2    3    3    0    0 -0.41971650300E+02  0.72027292937E+01 -0.14683834859E+02  0.46142314920E+02  0.99999740926E+01 0.  0.
         12    1    3    3    0    0  0.41971650300E+02 -0.72027292937E+01  0.14683834859E+02  0.45045685080E+02  0.00000000000E+00 0. -1.
         11    1    4    4    0    0 -0.38866313649E+01  0.36436821754E+01 -0.11272057330E+01  0.54454491263E+01  0.51100000000E-03 0. -1.
        -11    1    4    4    0    0 -0.23108565481E+02  0.34640195383E+01 -0.90316145099E+01  0.25051452869E+02  0.51100000000E-03 0.  1.
         12    1    4    4    0    0 -0.14976453454E+02  0.95027580041E-01 -0.45250146156E+01  0.15645412924E+02  0.00000000000E+00 0. -1.
</event>
<event>
 8    1  0.2962813E-009  0.9118800E+02  0.7816164E-02  0.1184000E+00
        -11   -1    0    0    0    0  0.00000000000E+00  0.00000000000E+00  0.45593999997E+02  0.45594000000E+02  0.51100000000E-03 0. -1.
         11   -1    0    0    0    0 -0.00000000000E+00 -0.00000000000E+00 -0.45593999997E+02  0.45594000000E+02  0.51100000000E-03 0.  1.
         23    2    1    2    0    0  0.35527136788E-14  0.35527136788E-14  0.35527136788E-14  0.91188000000E+02  0.91188000000E+02 0.  0.
    9900012    2    3    3    0    0 -0.23771414583E+02 -0.23142096347E+02 -0.30470915738E+02  0.46142317848E+02  0.10000000795E+02 0.  0.
         12    1    3    3    0    0  0.23771414583E+02  0.23142096347E+02  0.30470915738E+02  0.45045682152E+02  0.00000000000E+00 0. -1.
         11    1    4    4    0    0 -0.11606678925E+02 -0.13329023433E+02 -0.16366111773E+02  0.24087911411E+02  0.51100000000E-03 0. -1.
        -11    1    4    4    0    0 -0.64016564367E+01 -0.11970614580E+01 -0.44410029133E+01  0.78826815491E+01  0.51100000000E-03 0.  1.
        -12    1    4    4    0    0 -0.57630792210E+01 -0.86160114563E+01 -0.96638010518E+01  0.14171724888E+02  0.00000000000E+00 0.  1.
</event>
<event>
 8    1  0.2962813E-009  0.9118800E+02  0.7816164E-02  0.1184000E+00
        -11   -1    0    0    0    0  0.00000000000E+00  0.00000000000E+00  0.45593999997E+02  0.45594000000E+02  0.51100000000E-03 0. -1.
         11   -1    0    0    0    0 -0.00000000000E+00 -0.00000000000E+00 -0.45593999997E+02  0.45594000000E+02  0.51100000000E-03 0.  1.
         23    2    1    2    0    0  0.00000000000E+00  0.00000000000E+00  0.00000000000E+00  0.91188000000E+02  0.91188000000E+02 0.  0.
    9900012    2    3    3    0    0  0.32754662475E+02  0.27404569358E+02  0.14326028018E+02  0.46142318583E+02  0.10000007498E+02 0.  0.
        -12    1    3    3    0    0 -0.32754662475E+02 -0.27404569358E+02 -0.14326028018E+02  0.45045681417E+02  0.00000000000E+00 0.  1.
         11    1    4    4    0    0  0.62541324755E+01  0.43007473574E+01  0.14754979019E+01  0.77322503304E+01  0.51100000000E-03 0. -1.
        -11    1    4    4    0    0  0.10024161484E+02  0.56430896954E+01  0.77399491098E+01  0.13864886846E+02  0.51100000000E-03 0.  1.
        -12    1    4    4    0    0  0.16476368515E+02  0.17460732305E+02  0.51105810058E+01  0.24545181407E+02  0.00000000000E+00 0.  1.
</event>
<event>
 8    1  0.2962813E-009  0.9118800E+02  0.7816164E-02  0.1184000E+00
        -11   -1    0    0    0    0  0.00000000000E+00  0.00000000000E+00  0.45593999997E+02  0.45594000000E+02  0.51100000000E-03 0. -1.
         11   -1    0    0    0    0 -0.00000000000E+00 -0.00000000000E+00 -0.45593999997E+02  0.45594000000E+02  0.51100000000E-03 0.  1.
         23    2    1    2    0    0  0.17763568394E-14  0.00000000000E+00 -0.71054273576E-14  0.91188000000E+02  0.91188000000E+02 0.  0.
    9900012    2    3    3    0    0 -0.79907400015E+01  0.21427315255E+02  0.38808911706E+02  0.46142318824E+02  0.10000009695E+02 0.  0.
        -12    1    3    3    0    0  0.79907400015E+01 -0.21427315255E+02 -0.38808911706E+02  0.45045681176E+02  0.00000000000E+00 0.  1.
         11    1    4    4    0    0  0.94239925755E+00  0.48215237817E+01  0.62255404132E+01  0.79304830645E+01  0.51100000000E-03 0. -1.
        -11    1    4    4    0    0 -0.72148464276E+01  0.12450170418E+02  0.18557935123E+02  0.23483136688E+02  0.51100000000E-03 0.  1.
         12    1    4    4    0    0 -0.17182928315E+01  0.41556210549E+01  0.14025436170E+02  0.14728699072E+02  0.00000000000E+00 0. -1.
</event>
<event>
 8    1  0.2962813E-009  0.9118800E+02  0.7816164E-02  0.1184000E+00
        -11   -1    0    0    0    0  0.00000000000E+00  0.00000000000E+00  0.45593999997E+02  0.45594000000E+02  0.51100000000E-03 0. -1.
         11   -1    0    0    0    0 -0.00000000000E+00 -0.00000000000E+00 -0.45593999997E+02  0.45594000000E+02  0.51100000000E-03 0.  1.
         23    2    1    2    0    0  0.35527136788E-14  0.11102230246E-15 -0.71054273576E-14  0.91188000000E+02  0.91188000000E+02 0.  0.
    9900012    2    3    3    0    0 -0.17678530110E+02 -0.72532662985E+00  0.41425316890E+02  0.46142318686E+02  0.10000008438E+02 0.  0.
        -12    1    3    3    0    0  0.17678530110E+02  0.72532662985E+00 -0.41425316890E+02  0.45045681314E+02  0.00000000000E+00 0.  1.
         11    1    4    4    0    0 -0.37660528840E+01 -0.30232588087E+01  0.92787456625E+01  0.10460323584E+02  0.51100000000E-03 0. -1.
        -11    1    4    4    0    0 -0.61103136756E+01  0.13019809425E+01  0.72394962947E+01  0.95624993831E+01  0.51100000000E-03 0.  1.
         12    1    4    4    0    0 -0.78021635507E+01  0.99595123632E+00  0.24907074933E+02  0.26119495719E+02  0.00000000000E+00 0. -1.
</event>
<event>
 8    1  0.2962813E-009  0.9118800E+02  0.7816164E-02  0.1184000E+00
        -11   -1    0    0    0    0  0.00000000000E+00  0.00000000000E+00  0.45593999997E+02  0.45594000000E+02  0.51100000000E-03 0. -1.
         11   -1    0    0    0    0 -0.00000000000E+00 -0.00000000000E+00 -0.45593999997E+02  0.45594000000E+02  0.51100000000E-03 0.  1.
         23    2    1    2    0    0  0.00000000000E+00  0.35527136788E-14  0.00000000000E+00  0.91188000000E+02  0.91188000000E+02 0.  0.
    9900012    2    3    3    0    0  0.19839750036E+02  0.28871513397E+02  0.28318426066E+02  0.46142320716E+02  0.10000026943E+02 0.  0.
        -12    1    3    3    0    0 -0.19839750036E+02 -0.28871513397E+02 -0.28318426066E+02  0.45045679284E+02  0.00000000000E+00 0.  1.
         11    1    4    4    0    0  0.51363763727E+01  0.67173791862E+01  0.10289884573E+02  0.13318681247E+02  0.51100000000E-03 0. -1.
        -11    1    4    4    0    0  0.84097686481E+01  0.15306862245E+02  0.15059210683E+02  0.23060877415E+02  0.51100000000E-03 0.  1.
         12    1    4    4    0    0  0.62936050155E+01  0.68472719650E+01  0.29693308107E+01  0.97627620537E+01  0.00000000000E+00 0. -1.
</event>
<event>
 8    1  0.2962813E-009  0.9118800E+02  0.7816164E-02  0.1184000E+00
        -11   -1    0    0    0    0  0.00000000000E+00  0.00000000000E+00  0.45593999997E+02  0.45594000000E+02  0.51100000000E-03 0. -1.
         11   -1    0    0    0    0 -0.00000000000E+00 -0.00000000000E+00 -0.45593999997E+02  0.45594000000E+02  0.51100000000E-03 0.  1.
         23    2    1    2    0    0  0.00000000000E+00  0.55511151231E-16  0.00000000000E+00  0.91188000000E+02  0.91188000000E+02 0.  0.
    9900012    2    3    3    0    0 -0.21852585887E+02  0.32190619833E+00  0.39388759092E+02  0.46142317895E+02  0.10000001220E+02 0.  0.
        -12    1    3    3    0    0  0.21852585887E+02 -0.32190619833E+00 -0.39388759092E+02  0.45045682105E+02  0.00000000000E+00 0.  1.
         11    1    4    4    0    0 -0.89728336281E+01  0.31922214897E+01  0.23715552279E+02  0.25556397272E+02  0.51100000000E-03 0. -1.
        -11    1    4    4    0    0 -0.90192292401E+01 -0.27976733989E+01  0.11846534639E+02  0.15149714708E+02  0.51100000000E-03 0.  1.
         12    1    4    4    0    0 -0.38605230185E+01 -0.72641892460E-01  0.38266721737E+01  0.54362059146E+01  0.00000000000E+00 0. -1.
</event>
<event>
 8    1  0.2962813E-009  0.9118800E+02  0.7816164E-02  0.1184000E+00
        -11   -1    0    0    0    0  0.00000000000E+00  0.00000000000E+00  0.45593999997E+02  0.45594000000E+02  0.51100000000E-03 0. -1.
         11   -1    0    0    0    0 -0.00000000000E+00 -0.00000000000E+00 -0.45593999997E+02  0.45594000000E+02  0.51100000000E-03 0.  1.
         23    2    1    2    0    0 -0.88817841970E-15  0.35527136788E-14  0.71054273576E-14  0.91188000000E+02  0.91188000000E+02 0.  0.
    9900012    2    3    3    0    0  0.39836870758E+01 -0.29905826704E+02 -0.33449742749E+02  0.46142317371E+02  0.99999964404E+01 0.  0.
         12    1    3    3    0    0 -0.39836870758E+01  0.29905826704E+02  0.33449742749E+02  0.45045682629E+02  0.00000000000E+00 0. -1.
         11    1    4    4    0    0  0.25492763223E+01 -0.18303996298E+01 -0.19513608009E+01  0.36955353887E+01  0.51100000000E-03 0. -1.
        -11    1    4    4    0    0 -0.77691720449E+00 -0.20845250869E+02 -0.24000268589E+02  0.31798442992E+02  0.51100000000E-03 0.  1.
        -12    1    4    4    0    0  0.22113279581E+01 -0.72301762055E+01 -0.74981133587E+01  0.10648338990E+02  0.00000000000E+00 0.  1.
</event>
<event>
 8    1  0.2962813E-009  0.9118800E+02  0.7816164E-02  0.1184000E+00
        -11   -1    0    0    0    0  0.00000000000E+00  0.00000000000E+00  0.45593999997E+02  0.45594000000E+02  0.51100000000E-03 0. -1.
         11   -1    0    0    0    0 -0.00000000000E+00 -0.00000000000E+00 -0.45593999997E+02  0.45594000000E+02  0.51100000000E-03 0.  1.
         23    2    1    2    0    0  0.00000000000E+00 -0.35527136788E-14  0.00000000000E+00  0.91188000000E+02  0.91188000000E+02 0.  0.
    9900012    2    3    3    0    0 -0.20669226392E+02  0.24030755054E+02  0.32006550976E+02  0.46142318592E+02  0.10000007579E+02 0.  0.
        -12    1    3    3    0    0  0.20669226392E+02 -0.24030755054E+02 -0.32006550976E+02  0.45045681408E+02  0.00000000000E+00 0.  1.
         11    1    4    4    0    0 -0.11248758228E+02  0.19548918198E+02  0.20559545009E+02  0.30518677160E+02  0.51100000000E-03 0. -1.
        -11    1    4    4    0    0 -0.42474434848E+01  0.90223992726E+00  0.46287187590E+01  0.63466408953E+01  0.51100000000E-03 0.  1.
         12    1    4    4    0    0 -0.51730246797E+01  0.35795969289E+01  0.68182872078E+01  0.92770005367E+01  0.00000000000E+00 0. -1.
</event>
<event>
 8    1  0.2962813E-009  0.9118800E+02  0.7816164E-02  0.1184000E+00
        -11   -1    0    0    0    0  0.00000000000E+00  0.00000000000E+00  0.45593999997E+02  0.45594000000E+02  0.51100000000E-03 0.  1.
         11   -1    0    0    0    0 -0.00000000000E+00 -0.00000000000E+00 -0.45593999997E+02  0.45594000000E+02  0.51100000000E-03 0. -1.
         23    2    1    2    0    0  0.00000000000E+00  0.00000000000E+00  0.22204460493E-15  0.91188000000E+02  0.91188000000E+02 0.  0.
    9900012    2    3    3    0    0 -0.16646752061E+02  0.41825262121E+02 -0.16267905428E+01  0.46142319262E+02  0.10000013690E+02 0.  0.
        -12    1    3    3    0    0  0.16646752061E+02 -0.41825262121E+02  0.16267905428E+01  0.45045680738E+02  0.00000000000E+00 0.  1.
         11    1    4    4    0    0 -0.76868856239E+01  0.23479297624E+02  0.19595495788E+01  0.24783168932E+02  0.51100000000E-03 0. -1.
        -11    1    4    4    0    0 -0.25249542243E+01  0.68839362269E+01 -0.37017553763E+01  0.82138276667E+01  0.51100000000E-03 0.  1.
         12    1    4    4    0    0 -0.64349122130E+01  0.11462028270E+02  0.11541525469E+00  0.13145322664E+02  0.00000000000E+00 0. -1.
</event>
<event>
 8    1  0.2962813E-009  0.9118800E+02  0.7816164E-02  0.1184000E+00
        -11   -1    0    0    0    0  0.00000000000E+00  0.00000000000E+00  0.45593999997E+02  0.45594000000E+02  0.51100000000E-03 0. -1.
         11   -1    0    0    0    0 -0.00000000000E+00 -0.00000000000E+00 -0.45593999997E+02  0.45594000000E+02  0.51100000000E-03 0.  1.
         23    2    1    2    0    0  0.44408920985E-15 -0.44408920985E-15  0.71054273576E-14  0.91188000000E+02  0.91188000000E+02 0.  0.
    9900012    2    3    3    0    0 -0.31702522852E+01  0.34173626892E+01 -0.44803846128E+02  0.46142317685E+02  0.99999993079E+01 0.  0.
         12    1    3    3    0    0  0.31702522852E+01 -0.34173626892E+01  0.44803846128E+02  0.45045682315E+02  0.00000000000E+00 0. -1.
         11    1    4    4    0    0  0.74717058288E+00 -0.21285386834E+00 -0.24023142984E+02  0.24035701981E+02  0.51100000000E-03 0. -1.
        -11    1    4    4    0    0 -0.27038081917E+01 -0.61342864850E+00 -0.11504533969E+02  0.11833899423E+02  0.51100000000E-03 0.  1.
        -12    1    4    4    0    0 -0.12136146764E+01  0.42436452060E+01 -0.92761691755E+01  0.10272716281E+02  0.00000000000E+00 0.  1.
</event>
<event>
 8    1  0.2962813E-009  0.9118800E+02  0.7816164E-02  0.1184000E+00
        -11   -1    0    0    0    0  0.00000000000E+00  0.00000000000E+00  0.45593999997E+02  0.45594000000E+02  0.51100000000E-03 0. -1.
         11   -1    0    0    0    0 -0.00000000000E+00 -0.00000000000E+00 -0.45593999997E+02  0.45594000000E+02  0.51100000000E-03 0.  1.
         23    2    1    2    0    0  0.00000000000E+00  0.00000000000E+00  0.00000000000E+00  0.91188000000E+02  0.91188000000E+02 0.  0.
    9900012    2    3    3    0    0 -0.25916171693E+02  0.29179096190E+02 -0.22495463891E+02  0.46142317573E+02  0.99999982831E+01 0.  0.
         12    1    3    3    0    0  0.25916171693E+02 -0.29179096190E+02  0.22495463891E+02  0.45045682427E+02  0.00000000000E+00 0. -1.
         11    1    4    4    0    0 -0.46119028520E+00  0.28411598287E+01 -0.14352954375E+00  0.28819241216E+01  0.51100000000E-03 0. -1.
        -11    1    4    4    0    0 -0.19964335803E+02  0.22140509216E+02 -0.15815288051E+02  0.33747595304E+02  0.51100000000E-03 0.  1.
         12    1    4    4    0    0 -0.54906456055E+01  0.41974271448E+01 -0.65366462954E+01  0.95127981473E+01  0.00000000000E+00 0. -1.
</event>
<event>
 8    1  0.2962813E-009  0.9118800E+02  0.7816164E-02  0.1184000E+00
        -11   -1    0    0    0    0  0.00000000000E+00  0.00000000000E+00  0.45593999997E+02  0.45594000000E+02  0.51100000000E-03 0. -1.
         11   -1    0    0    0    0 -0.00000000000E+00 -0.00000000000E+00 -0.45593999997E+02  0.45594000000E+02  0.51100000000E-03 0.  1.
         23    2    1    2    0    0  0.00000000000E+00 -0.71054273576E-14 -0.35527136788E-14  0.91188000000E+02  0.91188000000E+02 0.  0.
    9900012    2    3    3    0    0  0.86256020876E+01 -0.37497124400E+02 -0.23423879298E+02  0.46142317954E+02  0.10000001756E+02 0.  0.
         12    1    3    3    0    0 -0.86256020876E+01  0.37497124400E+02  0.23423879298E+02  0.45045682046E+02  0.00000000000E+00 0. -1.
         11    1    4    4    0    0  0.31488107208E+01 -0.45371904329E+01 -0.41118917162E+01  0.68854019292E+01  0.51100000000E-03 0. -1.
        -11    1    4    4    0    0  0.28426930581E+01 -0.14553435696E+02 -0.12695601366E+02  0.19520801436E+02  0.51100000000E-03 0.  1.
        -12    1    4    4    0    0  0.26340983086E+01 -0.18406498271E+02 -0.66163862157E+01  0.19736114589E+02  0.00000000000E+00 0.  1.
</event>
<event>
 8    1  0.2962813E-009  0.9118800E+02  0.7816164E-02  0.1184000E+00
        -11   -1    0    0    0    0  0.00000000000E+00  0.00000000000E+00  0.45593999997E+02  0.45594000000E+02  0.51100000000E-03 0. -1.
         11   -1    0    0    0    0 -0.00000000000E+00 -0.00000000000E+00 -0.45593999997E+02  0.45594000000E+02  0.51100000000E-03 0.  1.
         23    2    1    2    0    0  0.35527136788E-14  0.00000000000E+00  0.00000000000E+00  0.91188000000E+02  0.91188000000E+02 0.  0.
    9900012    2    3    3    0    0  0.27134245231E+02 -0.28313232366E+02  0.22163194225E+02  0.46142316861E+02  0.99999917926E+01 0.  0.
        -12    1    3    3    0    0 -0.27134245231E+02  0.28313232366E+02 -0.22163194225E+02  0.45045683139E+02  0.00000000000E+00 0.  1.
         11    1    4    4    0    0  0.36470595154E+01 -0.40199049251E+01  0.45176110118E+01  0.70618332061E+01  0.51100000000E-03 0. -1.
        -11    1    4    4    0    0  0.12377382847E+02 -0.18163307558E+02  0.13182191807E+02  0.25629583077E+02  0.51100000000E-03 0.  1.
        -12    1    4    4    0    0  0.11109802868E+02 -0.61300198826E+01  0.44633914060E+01  0.13450900578E+02  0.00000000000E+00 0.  1.
</event>
<event>
 8    1  0.2962813E-009  0.9118800E+02  0.7816164E-02  0.1184000E+00
        -11   -1    0    0    0    0  0.00000000000E+00  0.00000000000E+00  0.45593999997E+02  0.45594000000E+02  0.51100000000E-03 0. -1.
         11   -1    0    0    0    0 -0.00000000000E+00 -0.00000000000E+00 -0.45593999997E+02  0.45594000000E+02  0.51100000000E-03 0.  1.
         23    2    1    2    0    0  0.00000000000E+00  0.00000000000E+00  0.00000000000E+00  0.91188000000E+02  0.91188000000E+02 0.  0.
    9900012    2    3    3    0    0 -0.29120024368E+02  0.26839056648E+02 -0.21466315652E+02  0.46142317758E+02  0.99999999749E+01 0.  0.
         12    1    3    3    0    0  0.29120024368E+02 -0.26839056648E+02  0.21466315652E+02  0.45045682242E+02  0.00000000000E+00 0. -1.
         11    1    4    4    0    0 -0.94113019685E+01  0.13269499997E+02 -0.12725929564E+02  0.20654334132E+02  0.51100000000E-03 0. -1.
        -11    1    4    4    0    0 -0.10216134575E+02  0.74547502250E+01 -0.43834005276E+01  0.13384950766E+02  0.51100000000E-03 0.  1.
         12    1    4    4    0    0 -0.94925878249E+01  0.61148064264E+01 -0.43569855599E+01  0.12103032860E+02  0.00000000000E+00 0. -1.
</event>
<event>
 8    1  0.2962813E-009  0.9118800E+02  0.7816164E-02  0.1184000E+00
        -11   -1    0    0    0    0  0.00000000000E+00  0.00000000000E+00  0.45593999997E+02  0.45594000000E+02  0.51100000000E-03 0.  1.
         11   -1    0    0    0    0 -0.00000000000E+00 -0.00000000000E+00 -0.45593999997E+02  0.45594000000E+02  0.51100000000E-03 0. -1.
         23    2    1    2    0    0  0.00000000000E+00 -0.35527136788E-14  0.00000000000E+00  0.91188000000E+02  0.91188000000E+02 0.  0.
    9900012    2    3    3    0    0 -0.43670069274E+01  0.30890002688E+02 -0.32493853104E+02  0.46142317575E+02  0.99999983031E+01 0.  0.
         12    1    3    3    0    0  0.43670069274E+01 -0.30890002688E+02  0.32493853104E+02  0.45045682425E+02  0.00000000000E+00 0. -1.
         11    1    4    4    0    0 -0.23219122694E+01  0.11544918108E+02 -0.11881674100E+02  0.16728735469E+02  0.51100000000E-03 0.  1.
        -11    1    4    4    0    0  0.14600361393E+01  0.16205664923E+02 -0.16288791985E+02  0.23023466848E+02  0.51100000000E-03 0. -1.
         12    1    4    4    0    0 -0.35051307973E+01  0.31394196567E+01 -0.43233870192E+01  0.63901152575E+01  0.00000000000E+00 0. -1.
</event>
<event>
 8    1  0.2962813E-009  0.9118800E+02  0.7816164E-02  0.1184000E+00
        -11   -1    0    0    0    0  0.00000000000E+00  0.00000000000E+00  0.45593999997E+02  0.45594000000E+02  0.51100000000E-03 0. -1.
         11   -1    0    0    0    0 -0.00000000000E+00 -0.00000000000E+00 -0.45593999997E+02  0.45594000000E+02  0.51100000000E-03 0.  1.
         23    2    1    2    0    0  0.00000000000E+00  0.00000000000E+00 -0.35527136788E-14  0.91188000000E+02  0.91188000000E+02 0.  0.
    9900012    2    3    3    0    0  0.15543427134E+02  0.37939094476E+02  0.18658525647E+02  0.46142316566E+02  0.99999890991E+01 0.  0.
        -12    1    3    3    0    0 -0.15543427134E+02 -0.37939094476E+02 -0.18658525647E+02  0.45045683434E+02  0.00000000000E+00 0.  1.
         11    1    4    4    0    0  0.58343498284E+01  0.12495500776E+02  0.28510108426E+01  0.14082096458E+02  0.51100000000E-03 0. -1.
        -11    1    4    4    0    0  0.10428810688E+02  0.24124360177E+02  0.15543740875E+02  0.30534451477E+02  0.51100000000E-03 0.  1.
        -12    1    4    4    0    0 -0.71973338237E+00  0.13192335232E+01  0.26377392922E+00  0.15257686313E+01  0.00000000000E+00 0.  1.
</event>
<event>
 8    1  0.2962813E-009  0.9118800E+02  0.7816164E-02  0.1184000E+00
        -11   -1    0    0    0    0  0.00000000000E+00  0.00000000000E+00  0.45593999997E+02  0.45594000000E+02  0.51100000000E-03 0. -1.
         11   -1    0    0    0    0 -0.00000000000E+00 -0.00000000000E+00 -0.45593999997E+02  0.45594000000E+02  0.51100000000E-03 0.  1.
         23    2    1    2    0    0  0.00000000000E+00  0.00000000000E+00  0.35527136788E-14  0.91188000000E+02  0.91188000000E+02 0.  0.
    9900012    2    3    3    0    0 -0.28123336500E+02  0.22322613945E+02 -0.27200962714E+02  0.46142317390E+02  0.99999966141E+01 0.  0.
         12    1    3    3    0    0  0.28123336500E+02 -0.22322613945E+02  0.27200962714E+02  0.45045682610E+02  0.00000000000E+00 0. -1.
         11    1    4    4    0    0 -0.11158913722E+01 -0.63946535036E+00 -0.22613590652E+01  0.26015138999E+01  0.51100000000E-03 0. -1.
        -11    1    4    4    0    0 -0.17736998129E+02  0.14720032378E+02 -0.18552682447E+02  0.29588553227E+02  0.51100000000E-03 0.  1.
         12    1    4    4    0    0 -0.92704469989E+01  0.82420469175E+01 -0.63869212015E+01  0.13952250262E+02  0.00000000000E+00 0. -1.
</event>
<event>
 8    1  0.2962813E-009  0.9118800E+02  0.7816164E-02  0.1184000E+00
        -11   -1    0    0    0    0  0.00000000000E+00  0.00000000000E+00  0.45593999997E+02  0.45594000000E+02  0.51100000000E-03 0. -1.
         11   -1    0    0    0    0 -0.00000000000E+00 -0.00000000000E+00 -0.45593999997E+02  0.45594000000E+02  0.51100000000E-03 0.  1.
         23    2    1    2    0    0 -0.71054273576E-14 -0.17763568394E-14  0.44408920985E-15  0.91188000000E+02  0.91188000000E+02 0.  0.
    9900012    2    3    3    0    0 -0.43526396549E+02 -0.11174473977E+02 -0.31140668751E+01  0.46142317879E+02  0.10000001078E+02 0.  0.
         12    1    3    3    0    0  0.43526396549E+02  0.11174473977E+02  0.31140668751E+01  0.45045682121E+02  0.00000000000E+00 0. -1.
         11    1    4    4    0    0 -0.20996720800E+00 -0.20640635642E+00 -0.31534691786E+00  0.43143221035E+00  0.51100000000E-03 0. -1.
        -11    1    4    4    0    0 -0.20859514375E+02 -0.86188041673E+01 -0.46908956030E+01  0.23052280300E+02  0.51100000000E-03 0.  1.
        -12    1    4    4    0    0 -0.22456914966E+02 -0.23492634530E+01  0.18921756457E+01  0.22658605369E+02  0.00000000000E+00 0.  1.
</event>
<event>
 8    1  0.2962813E-009  0.9118800E+02  0.7816164E-02  0.1184000E+00
        -11   -1    0    0    0    0  0.00000000000E+00  0.00000000000E+00  0.45593999997E+02  0.45594000000E+02  0.51100000000E-03 0.  1.
         11   -1    0    0    0    0 -0.00000000000E+00 -0.00000000000E+00 -0.45593999997E+02  0.45594000000E+02  0.51100000000E-03 0. -1.
         23    2    1    2    0    0  0.00000000000E+00  0.33306690739E-15  0.00000000000E+00  0.91188000000E+02  0.91188000000E+02 0.  0.
    9900012    2    3    3    0    0  0.43812089995E+02  0.63577826207E+00 -0.10450373312E+02  0.46142314900E+02  0.99999739110E+01 0.  0.
         12    1    3    3    0    0 -0.43812089995E+02 -0.63577826207E+00  0.10450373312E+02  0.45045685100E+02  0.00000000000E+00 0. -1.
         11    1    4    4    0    0  0.23877811165E+02  0.47445351952E+01 -0.49923445518E+01  0.24851237084E+02  0.51100000000E-03 0. -1.
        -11    1    4    4    0    0  0.13656489679E+02 -0.38803681089E+01 -0.47438468288E+01  0.14968668945E+02  0.51100000000E-03 0.  1.
        -12    1    4    4    0    0  0.62777891522E+01 -0.22838882426E+00 -0.71418193153E+00  0.63224088705E+01  0.00000000000E+00 0.  1.
</event>
<event>
 8    1  0.2962813E-009  0.9118800E+02  0.7816164E-02  0.1184000E+00
        -11   -1    0    0    0    0  0.00000000000E+00  0.00000000000E+00  0.45593999997E+02  0.45594000000E+02  0.51100000000E-03 0.  1.
         11   -1    0    0    0    0 -0.00000000000E+00 -0.00000000000E+00 -0.45593999997E+02  0.45594000000E+02  0.51100000000E-03 0. -1.
         23    2    1    2    0    0  0.00000000000E+00  0.35527136788E-14 -0.17763568394E-14  0.91188000000E+02  0.91188000000E+02 0.  0.
    9900012    2    3    3    0    0  0.37224620900E+02 -0.20727477978E+02  0.14622340064E+02  0.46142316817E+02  0.99999913943E+01 0.  0.
         12    1    3    3    0    0 -0.37224620900E+02  0.20727477978E+02 -0.14622340064E+02  0.45045683183E+02  0.00000000000E+00 0. -1.
         11    1    4    4    0    0  0.72708448317E+00 -0.28785603207E+01  0.13259138276E+01  0.32515856293E+01  0.51100000000E-03 0. -1.
        -11    1    4    4    0    0  0.23089461335E+02 -0.12522392563E+02  0.72598531452E+01  0.27251403784E+02  0.51100000000E-03 0.  1.
        -12    1    4    4    0    0  0.13408075082E+02 -0.53265250941E+01  0.60365730913E+01  0.15639327404E+02  0.00000000000E+00 0.  1.
</event>
<event>
 8    1  0.2962813E-009  0.9118800E+02  0.7816164E-02  0.1184000E+00
        -11   -1    0    0    0    0  0.00000000000E+00  0.00000000000E+00  0.45593999997E+02  0.45594000000E+02  0.51100000000E-03 0. -1.
         11   -1    0    0    0    0 -0.00000000000E+00 -0.00000000000E+00 -0.45593999997E+02  0.45594000000E+02  0.51100000000E-03 0.  1.
         23    2    1    2    0    0  0.00000000000E+00  0.00000000000E+00  0.00000000000E+00  0.91188000000E+02  0.91188000000E+02 0.  0.
    9900012    2    3    3    0    0  0.36429135207E+01  0.10007070923E+02  0.43768724122E+02  0.46142317647E+02  0.99999989565E+01 0.  0.
        -12    1    3    3    0    0 -0.36429135207E+01 -0.10007070923E+02 -0.43768724122E+02  0.45045682353E+02  0.00000000000E+00 0.  1.
         11    1    4    4    0    0 -0.20343260527E+01  0.33440385166E+01  0.84009861716E+01  0.92680982411E+01  0.51100000000E-03 0. -1.
        -11    1    4    4    0    0  0.23791685079E+01 -0.49118569301E+00  0.61316121727E+01  0.65953297318E+01  0.51100000000E-03 0.  1.
         12    1    4    4    0    0  0.32980710655E+01  0.71542180990E+01  0.29236125778E+02  0.30278889674E+02  0.00000000000E+00 0. -1.
</event>
<event>
 8    1  0.2962813E-009  0.9118800E+02  0.7816164E-02  0.1184000E+00
        -11   -1    0    0    0    0  0.00000000000E+00  0.00000000000E+00  0.45593999997E+02  0.45594000000E+02  0.51100000000E-03 0. -1.
         11   -1    0    0    0    0 -0.00000000000E+00 -0.00000000000E+00 -0.45593999997E+02  0.45594000000E+02  0.51100000000E-03 0.  1.
         23    2    1    2    0    0  0.17763568394E-14  0.00000000000E+00  0.35527136788E-14  0.91188000000E+02  0.91188000000E+02 0.  0.
    9900012    2    3    3    0    0 -0.12325205669E+02 -0.34911709718E+02  0.25658825429E+02  0.46142317714E+02  0.99999995699E+01 0.  0.
        -12    1    3    3    0    0  0.12325205669E+02  0.34911709718E+02 -0.25658825429E+02  0.45045682286E+02  0.00000000000E+00 0.  1.
         11    1    4    4    0    0 -0.60140097210E+01 -0.95207545123E+01  0.44192467228E+01  0.12097223701E+02  0.51100000000E-03 0. -1.
        -11    1    4    4    0    0 -0.67128810728E+01 -0.19132426561E+02  0.15225424193E+02  0.25355986680E+02  0.51100000000E-03 0.  1.
        -12    1    4    4    0    0  0.40168512458E+00 -0.62585286453E+01  0.60141545133E+01  0.86891073335E+01  0.00000000000E+00 0.  1.
</event>
<event>
 8    1  0.2962813E-009  0.9118800E+02  0.7816164E-02  0.1184000E+00
        -11   -1    0    0    0    0  0.00000000000E+00  0.00000000000E+00  0.45593999997E+02  0.45594000000E+02  0.51100000000E-03 0. -1.
         11   -1    0    0    0    0 -0.00000000000E+00 -0.00000000000E+00 -0.45593999997E+02  0.45594000000E+02  0.51100000000E-03 0.  1.
         23    2    1    2    0    0  0.35527136788E-14  0.00000000000E+00  0.00000000000E+00  0.91188000000E+02  0.91188000000E+02 0.  0.
    9900012    2    3    3    0    0  0.17560760417E+02  0.11122478656E+02 -0.39962778027E+02  0.46142318015E+02  0.10000002314E+02 0.  0.
         12    1    3    3    0    0 -0.17560760417E+02 -0.11122478656E+02  0.39962778027E+02  0.45045681985E+02  0.00000000000E+00 0. -1.
         11    1    4    4    0    0  0.20985852303E+01  0.31506450311E+01 -0.42640423324E+01  0.57019892454E+01  0.51100000000E-03 0. -1.
        -11    1    4    4    0    0  0.13118812691E+02  0.40361751810E+01 -0.30874308486E+02  0.33787821493E+02  0.51100000000E-03 0.  1.
        -12    1    4    4    0    0  0.23433624964E+01  0.39356584435E+01 -0.48244272087E+01  0.66525072767E+01  0.00000000000E+00 0.  1.
</event>
<event>
 8    1  0.2962813E-009  0.9118800E+02  0.7816164E-02  0.1184000E+00
        -11   -1    0    0    0    0  0.00000000000E+00  0.00000000000E+00  0.45593999997E+02  0.45594000000E+02  0.51100000000E-03 0.  1.
         11   -1    0    0    0    0 -0.00000000000E+00 -0.00000000000E+00 -0.45593999997E+02  0.45594000000E+02  0.51100000000E-03 0. -1.
         23    2    1    2    0    0  0.35527136788E-14  0.35527136788E-14  0.17763568394E-14  0.91188000000E+02  0.91188000000E+02 0.  0.
    9900012    2    3    3    0    0  0.31098686520E+02  0.29878787069E+02  0.13009356682E+02  0.46142316730E+02  0.99999905943E+01 0.  0.
        -12    1    3    3    0    0 -0.31098686520E+02 -0.29878787069E+02 -0.13009356682E+02  0.45045683270E+02  0.00000000000E+00 0.  1.
         11    1    4    4    0    0  0.14937117595E+02  0.14210097962E+02  0.65729763461E+01  0.21639047679E+02  0.51100000000E-03 0. -1.
        -11    1    4    4    0    0  0.12187497462E+02  0.91447335063E+01  0.12878260001E+01  0.15291165468E+02  0.51100000000E-03 0.  1.
         12    1    4    4    0    0  0.39740714629E+01  0.65239556007E+01  0.51485543361E+01  0.92121035830E+01  0.00000000000E+00 0. -1.
</event>
<event>
 8    1  0.2962813E-009  0.9118800E+02  0.7816164E-02  0.1184000E+00
        -11   -1    0    0    0    0  0.00000000000E+00  0.00000000000E+00  0.45593999997E+02  0.45594000000E+02  0.51100000000E-03 0. -1.
         11   -1    0    0    0    0 -0.00000000000E+00 -0.00000000000E+00 -0.45593999997E+02  0.45594000000E+02  0.51100000000E-03 0.  1.
         23    2    1    2    0    0  0.71054273576E-14 -0.88817841970E-15  0.00000000000E+00  0.91188000000E+02  0.91188000000E+02 0.  0.
    9900012    2    3    3    0    0  0.41574866953E+02 -0.61061984519E+01  0.16228317136E+02  0.46142317646E+02  0.99999989479E+01 0.  0.
        -12    1    3    3    0    0 -0.41574866953E+02  0.61061984519E+01 -0.16228317136E+02  0.45045682354E+02  0.00000000000E+00 0.  1.
         11    1    4    4    0    0  0.26214765448E+02 -0.57555737815E-01  0.74342348438E+01  0.27248579561E+02  0.51100000000E-03 0.  1.
        -11    1    4    4    0    0  0.13695721550E+02 -0.45407940508E+01  0.71030154727E+01  0.16082426075E+02  0.51100000000E-03 0. -1.
        -12    1    4    4    0    0  0.16643799556E+01 -0.15078486633E+01  0.16910668194E+01  0.28113120097E+01  0.00000000000E+00 0.  1.
</event>
<event>
 8    1  0.2962813E-009  0.9118800E+02  0.7816164E-02  0.1184000E+00
        -11   -1    0    0    0    0  0.00000000000E+00  0.00000000000E+00  0.45593999997E+02  0.45594000000E+02  0.51100000000E-03 0. -1.
         11   -1    0    0    0    0 -0.00000000000E+00 -0.00000000000E+00 -0.45593999997E+02  0.45594000000E+02  0.51100000000E-03 0.  1.
         23    2    1    2    0    0  0.00000000000E+00  0.00000000000E+00  0.00000000000E+00  0.91188000000E+02  0.91188000000E+02 0.  0.
    9900012    2    3    3    0    0  0.13128730009E+02  0.24951925617E+02 -0.35130490394E+02  0.46142317644E+02  0.99999989302E+01 0.  0.
         12    1    3    3    0    0 -0.13128730009E+02 -0.24951925617E+02  0.35130490394E+02  0.45045682356E+02  0.00000000000E+00 0. -1.
         11    1    4    4    0    0  0.16758152133E+01 -0.40580333715E+00 -0.69838170600E+00  0.18603145556E+01  0.51100000000E-03 0. -1.
        -11    1    4    4    0    0  0.89665086558E+00  0.26377899105E+01 -0.37301152912E+01  0.46557146319E+01  0.51100000000E-03 0.  1.
         12    1    4    4    0    0  0.10556263930E+02  0.22719939044E+02 -0.30701993396E+02  0.39626288456E+02  0.00000000000E+00 0. -1.
</event>
<event>
 8    1  0.2962813E-009  0.9118800E+02  0.7816164E-02  0.1184000E+00
        -11   -1    0    0    0    0  0.00000000000E+00  0.00000000000E+00  0.45593999997E+02  0.45594000000E+02  0.51100000000E-03 0. -1.
         11   -1    0    0    0    0 -0.00000000000E+00 -0.00000000000E+00 -0.45593999997E+02  0.45594000000E+02  0.51100000000E-03 0.  1.
         23    2    1    2    0    0  0.17763568394E-14  0.00000000000E+00  0.00000000000E+00  0.91188000000E+02  0.91188000000E+02 0.  0.
    9900012    2    3    3    0    0  0.11031588802E+02  0.29405871321E+02  0.32291053942E+02  0.46142318916E+02  0.10000010530E+02 0.  0.
        -12    1    3    3    0    0 -0.11031588802E+02 -0.29405871321E+02 -0.32291053942E+02  0.45045681084E+02  0.00000000000E+00 0.  1.
         11    1    4    4    0    0  0.66457621711E+01  0.18264900073E+02  0.17153058163E+02  0.25922965380E+02  0.51100000000E-03 0. -1.
        -11    1    4    4    0    0  0.13670456942E+01  0.17471052805E+01  0.84089660651E-01  0.22199689464E+01  0.51100000000E-03 0.  1.
         12    1    4    4    0    0  0.30187809370E+01  0.93938659676E+01  0.15053906118E+02  0.17999384589E+02  0.00000000000E+00 0. -1.
</event>
<event>
 8    1  0.2962813E-009  0.9118800E+02  0.7816164E-02  0.1184000E+00
        -11   -1    0    0    0    0  0.00000000000E+00  0.00000000000E+00  0.45593999997E+02  0.45594000000E+02  0.51100000000E-03 0. -1.
         11   -1    0    0    0    0 -0.00000000000E+00 -0.00000000000E+00 -0.45593999997E+02  0.45594000000E+02  0.51100000000E-03 0.  1.
         23    2    1    2    0    0  0.00000000000E+00  0.00000000000E+00 -0.71054273576E-14  0.91188000000E+02  0.91188000000E+02 0.  0.
    9900012    2    3    3    0    0 -0.19801241625E+02  0.23197395401E+02  0.33149738756E+02  0.46142317601E+02  0.99999985355E+01 0.  0.
        -12    1    3    3    0    0  0.19801241625E+02 -0.23197395401E+02 -0.33149738756E+02  0.45045682399E+02  0.00000000000E+00 0.  1.
         11    1    4    4    0    0 -0.18005611536E+02  0.23718523538E+02  0.31553259862E+02  0.43386387425E+02  0.51100000000E-03 0. -1.
        -11    1    4    4    0    0 -0.19068142582E+01 -0.70229066883E+00  0.14116353600E+01  0.24742407825E+01  0.51100000000E-03 0.  1.
         12    1    4    4    0    0  0.11118416908E+00  0.18116253163E+00  0.18484353365E+00  0.28168939322E+00  0.00000000000E+00 0. -1.
</event>
<event>
 8    1  0.2962813E-009  0.9118800E+02  0.7816164E-02  0.1184000E+00
        -11   -1    0    0    0    0  0.00000000000E+00  0.00000000000E+00  0.45593999997E+02  0.45594000000E+02  0.51100000000E-03 0. -1.
         11   -1    0    0    0    0 -0.00000000000E+00 -0.00000000000E+00 -0.45593999997E+02  0.45594000000E+02  0.51100000000E-03 0.  1.
         23    2    1    2    0    0  0.00000000000E+00 -0.35527136788E-14  0.00000000000E+00  0.91188000000E+02  0.91188000000E+02 0.  0.
    9900012    2    3    3    0    0  0.16058835179E+02 -0.20911813622E+02  0.36522915901E+02  0.46142317386E+02  0.99999965796E+01 0.  0.
        -12    1    3    3    0    0 -0.16058835179E+02  0.20911813622E+02 -0.36522915901E+02  0.45045682614E+02  0.00000000000E+00 0.  1.
         11    1    4    4    0    0  0.46849408574E+01 -0.96554136151E+01  0.21264541076E+02  0.23819244118E+02  0.51100000000E-03 0. -1.
        -11    1    4    4    0    0  0.92689371779E+01 -0.88682327804E+01  0.10397904361E+02  0.16512878744E+02  0.51100000000E-03 0.  1.
        -12    1    4    4    0    0  0.21049571435E+01 -0.23881672265E+01  0.48604704640E+01  0.58101945242E+01  0.00000000000E+00 0.  1.
</event>
<event>
 8    1  0.2962813E-009  0.9118800E+02  0.7816164E-02  0.1184000E+00
        -11   -1    0    0    0    0  0.00000000000E+00  0.00000000000E+00  0.45593999997E+02  0.45594000000E+02  0.51100000000E-03 0. -1.
         11   -1    0    0    0    0 -0.00000000000E+00 -0.00000000000E+00 -0.45593999997E+02  0.45594000000E+02  0.51100000000E-03 0.  1.
         23    2    1    2    0    0 -0.17763568394E-14  0.00000000000E+00 -0.71054273576E-14  0.91188000000E+02  0.91188000000E+02 0.  0.
    9900012    2    3    3    0    0 -0.12184842448E+02  0.51276754279E+01 -0.43062164802E+02  0.46142317874E+02  0.10000001026E+02 0.  0.
         12    1    3    3    0    0  0.12184842448E+02 -0.51276754279E+01  0.43062164802E+02  0.45045682126E+02  0.00000000000E+00 0. -1.
         11    1    4    4    0    0 -0.88297059265E+01  0.20665776192E+01 -0.26250493084E+02  0.27772699495E+02  0.51100000000E-03 0. -1.
        -11    1    4    4    0    0  0.23234003881E+00  0.27222286541E+01 -0.28403339919E+01  0.39410668842E+01  0.51100000000E-03 0.  1.
        -12    1    4    4    0    0 -0.35874765599E+01  0.33886915461E+00 -0.13971337726E+02  0.14428551495E+02  0.00000000000E+00 0.  1.
</event>
<event>
 8    1  0.2962813E-009  0.9118800E+02  0.7816164E-02  0.1184000E+00
        -11   -1    0    0    0    0  0.00000000000E+00  0.00000000000E+00  0.45593999997E+02  0.45594000000E+02  0.51100000000E-03 0. -1.
         11   -1    0    0    0    0 -0.00000000000E+00 -0.00000000000E+00 -0.45593999997E+02  0.45594000000E+02  0.51100000000E-03 0.  1.
         23    2    1    2    0    0  0.35527136788E-14 -0.71054273576E-14 -0.88817841970E-15  0.91188000000E+02  0.91188000000E+02 0.  0.
    9900012    2    3    3    0    0  0.20099673277E+02 -0.39568105923E+02  0.77124342420E+01  0.46142317475E+02  0.99999973912E+01 0.  0.
        -12    1    3    3    0    0 -0.20099673277E+02  0.39568105923E+02 -0.77124342420E+01  0.45045682525E+02  0.00000000000E+00 0.  1.
         11    1    4    4    0    0  0.11703796992E+02 -0.25786508884E+02  0.46944343628E+01  0.28704714225E+02  0.51100000000E-03 0. -1.
        -11    1    4    4    0    0  0.80945877497E+01 -0.12729106188E+02  0.43632362792E+01  0.15703194779E+02  0.51100000000E-03 0.  1.
         12    1    4    4    0    0  0.30128853492E+00 -0.10524908513E+01 -0.13452364000E+01  0.17344084713E+01  0.00000000000E+00 0. -1.
</event>
<event>
 8    1  0.2962813E-009  0.9118800E+02  0.7816164E-02  0.1184000E+00
        -11   -1    0    0    0    0  0.00000000000E+00  0.00000000000E+00  0.45593999997E+02  0.45594000000E+02  0.51100000000E-03 0.  1.
         11   -1    0    0    0    0 -0.00000000000E+00 -0.00000000000E+00 -0.45593999997E+02  0.45594000000E+02  0.51100000000E-03 0. -1.
         23    2    1    2    0    0  0.00000000000E+00  0.00000000000E+00  0.17763568394E-14  0.91188000000E+02  0.91188000000E+02 0.  0.
    9900012    2    3    3    0    0 -0.22568164171E+02  0.36884498529E+02  0.12622391675E+02  0.46142322767E+02  0.10000045648E+02 0.  0.
        -12    1    3    3    0    0  0.22568164171E+02 -0.36884498529E+02 -0.12622391675E+02  0.45045677233E+02  0.00000000000E+00 0.  1.
         11    1    4    4    0    0 -0.14239961160E+02  0.27837104801E+02  0.76107735547E+01  0.32180813723E+02  0.51100000000E-03 0. -1.
        -11    1    4    4    0    0 -0.65266686505E+01  0.71176032596E+01  0.57254710753E+01  0.11226695824E+02  0.51100000000E-03 0.  1.
        -12    1    4    4    0    0 -0.18015343608E+01  0.19297904681E+01 -0.71385295487E+00  0.27348132194E+01  0.00000000000E+00 0.  1.
</event>
<event>
 8    1  0.2962813E-009  0.9118800E+02  0.7816164E-02  0.1184000E+00
        -11   -1    0    0    0    0  0.00000000000E+00  0.00000000000E+00  0.45593999997E+02  0.45594000000E+02  0.51100000000E-03 0. -1.
         11   -1    0    0    0    0 -0.00000000000E+00 -0.00000000000E+00 -0.45593999997E+02  0.45594000000E+02  0.51100000000E-03 0.  1.
         23    2    1    2    0    0  0.17763568394E-14 -0.88817841970E-15  0.00000000000E+00  0.91188000000E+02  0.91188000000E+02 0.  0.
    9900012    2    3    3    0    0 -0.12967699999E+02  0.69042481885E+01  0.42582667179E+02  0.46142318405E+02  0.10000005871E+02 0.  0.
        -12    1    3    3    0    0  0.12967699999E+02 -0.69042481885E+01 -0.42582667179E+02  0.45045681595E+02  0.00000000000E+00 0.  1.
         11    1    4    4    0    0 -0.12108519507E+01  0.13080467301E+01  0.13568357991E+02  0.13684936519E+02  0.51100000000E-03 0.  1.
        -11    1    4    4    0    0 -0.12252791895E+02  0.40355244432E+01  0.26118676304E+02  0.29130767564E+02  0.51100000000E-03 0. -1.
        -12    1    4    4    0    0  0.49594384757E+00  0.15606770152E+01  0.28956328845E+01  0.33266143221E+01  0.00000000000E+00 0.  1.
</event>
<event>
 8    1  0.2962813E-009  0.9118800E+02  0.7816164E-02  0.1184000E+00
        -11   -1    0    0    0    0  0.00000000000E+00  0.00000000000E+00  0.45593999997E+02  0.45594000000E+02  0.51100000000E-03 0. -1.
         11   -1    0    0    0    0 -0.00000000000E+00 -0.00000000000E+00 -0.45593999997E+02  0.45594000000E+02  0.51100000000E-03 0.  1.
         23    2    1    2    0    0  0.00000000000E+00 -0.22204460493E-15  0.00000000000E+00  0.91188000000E+02  0.91188000000E+02 0.  0.
    9900012    2    3    3    0    0 -0.38196796197E+02 -0.19996975458E+01 -0.23793265019E+02  0.46142317740E+02  0.99999998081E+01 0.  0.
         12    1    3    3    0    0  0.38196796197E+02  0.19996975458E+01  0.23793265019E+02  0.45045682260E+02  0.00000000000E+00 0. -1.
         11    1    4    4    0    0 -0.11100700084E+02 -0.32764089339E+00 -0.26999598539E+01  0.11429027710E+02  0.51100000000E-03 0. -1.
        -11    1    4    4    0    0 -0.23354893285E+02 -0.74760852625E+00 -0.15971864420E+02  0.28303893940E+02  0.51100000000E-03 0.  1.
        -12    1    4    4    0    0 -0.37412028280E+01 -0.92444812620E+00 -0.51214407448E+01  0.64093960902E+01  0.00000000000E+00 0.  1.
</event>
<event>
 8    1  0.2962813E-009  0.9118800E+02  0.7816164E-02  0.1184000E+00
        -11   -1    0    0    0    0  0.00000000000E+00  0.00000000000E+00  0.45593999997E+02  0.45594000000E+02  0.51100000000E-03 0. -1.
         11   -1    0    0    0    0 -0.00000000000E+00 -0.00000000000E+00 -0.45593999997E+02  0.45594000000E+02  0.51100000000E-03 0.  1.
         23    2    1    2    0    0  0.00000000000E+00 -0.35527136788E-14  0.00000000000E+00  0.91188000000E+02  0.91188000000E+02 0.  0.
    9900012    2    3    3    0    0 -0.24113455657E+02 -0.31456871242E+02 -0.21403737686E+02  0.46142317865E+02  0.10000000950E+02 0.  0.
         12    1    3    3    0    0  0.24113455657E+02  0.31456871242E+02  0.21403737686E+02  0.45045682135E+02  0.00000000000E+00 0. -1.
         11    1    4    4    0    0 -0.20290015371E+02 -0.25506981423E+02 -0.20018182533E+02  0.38249424274E+02  0.51100000000E-03 0. -1.
        -11    1    4    4    0    0 -0.19439732093E+01 -0.46091977572E+01 -0.21725686329E+01  0.54537868063E+01  0.51100000000E-03 0.  1.
         12    1    4    4    0    0 -0.18794670758E+01 -0.13406920617E+01  0.78701347929E+00  0.24391067853E+01  0.00000000000E+00 0. -1.
</event>
<event>
 8    1  0.2962813E-009  0.9118800E+02  0.7816164E-02  0.1184000E+00
        -11   -1    0    0    0    0  0.00000000000E+00  0.00000000000E+00  0.45593999997E+02  0.45594000000E+02  0.51100000000E-03 0. -1.
         11   -1    0    0    0    0 -0.00000000000E+00 -0.00000000000E+00 -0.45593999997E+02  0.45594000000E+02  0.51100000000E-03 0.  1.
         23    2    1    2    0    0  0.00000000000E+00  0.00000000000E+00  0.00000000000E+00  0.91188000000E+02  0.91188000000E+02 0.  0.
    9900012    2    3    3    0    0 -0.21495978341E+02  0.38327899343E+02 -0.98999299169E+01  0.46142316908E+02  0.99999922169E+01 0.  0.
         12    1    3    3    0    0  0.21495978341E+02 -0.38327899343E+02  0.98999299169E+01  0.45045683092E+02  0.00000000000E+00 0. -1.
         11    1    4    4    0    0 -0.27528720537E+01  0.22283536575E+01 -0.71922904196E+00  0.36140220313E+01  0.51100000000E-03 0. -1.
        -11    1    4    4    0    0 -0.13220513710E+02  0.17730107780E+02 -0.26961367428E+01  0.22280212258E+02  0.51100000000E-03 0.  1.
        -12    1    4    4    0    0 -0.55225925771E+01  0.18369437906E+02 -0.64845641321E+01  0.20248082619E+02  0.00000000000E+00 0.  1.
</event>
<event>
 8    1  0.2962813E-009  0.9118800E+02  0.7816164E-02  0.1184000E+00
        -11   -1    0    0    0    0  0.00000000000E+00  0.00000000000E+00  0.45593999997E+02  0.45594000000E+02  0.51100000000E-03 0.  1.
         11   -1    0    0    0    0 -0.00000000000E+00 -0.00000000000E+00 -0.45593999997E+02  0.45594000000E+02  0.51100000000E-03 0. -1.
         23    2    1    2    0    0  0.00000000000E+00  0.00000000000E+00 -0.44408920985E-15  0.91188000000E+02  0.91188000000E+02 0.  0.
    9900012    2    3    3    0    0 -0.31499641054E+02 -0.32082146698E+02  0.27609206681E+01  0.46142309793E+02  0.99999273428E+01 0.  0.
        -12    1    3    3    0    0  0.31499641054E+02  0.32082146698E+02 -0.27609206681E+01  0.45045690207E+02  0.00000000000E+00 0.  1.
         11    1    4    4    0    0 -0.22019378098E+02 -0.17125240753E+02  0.26809626085E+01  0.28023462375E+02  0.51100000000E-03 0. -1.
        -11    1    4    4    0    0 -0.29559785331E+01 -0.80651865107E+01 -0.55341213525E+00  0.86076307886E+01  0.51100000000E-03 0.  1.
        -12    1    4    4    0    0 -0.65242844226E+01 -0.68917194337E+01  0.63337019489E+00  0.95112166300E+01  0.00000000000E+00 0.  1.
</event>
<event>
 8    1  0.2962813E-009  0.9118800E+02  0.7816164E-02  0.1184000E+00
        -11   -1    0    0    0    0  0.00000000000E+00  0.00000000000E+00  0.45593999997E+02  0.45594000000E+02  0.51100000000E-03 0.  1.
         11   -1    0    0    0    0 -0.00000000000E+00 -0.00000000000E+00 -0.45593999997E+02  0.45594000000E+02  0.51100000000E-03 0. -1.
         23    2    1    2    0    0  0.35527136788E-14  0.00000000000E+00  0.00000000000E+00  0.91188000000E+02  0.91188000000E+02 0.  0.
    9900012    2    3    3    0    0 -0.22866328954E+02 -0.23015319448E+02 -0.31249633229E+02  0.46142317564E+02  0.99999982053E+01 0.  0.
         12    1    3    3    0    0  0.22866328954E+02  0.23015319448E+02  0.31249633229E+02  0.45045682436E+02  0.00000000000E+00 0. -1.
         11    1    4    4    0    0 -0.10469259818E+02 -0.79701704624E+01 -0.18101848016E+02  0.22378693442E+02  0.51100000000E-03 0. -1.
        -11    1    4    4    0    0 -0.78577977180E+01 -0.68390615010E+01 -0.69324069541E+01  0.12513033750E+02  0.51100000000E-03 0.  1.
         12    1    4    4    0    0 -0.45392714187E+01 -0.82060874844E+01 -0.62153782596E+01  0.11250590372E+02  0.00000000000E+00 0. -1.
</event>
<event>
 8    1  0.7226609E-009  0.9118800E+02  0.7816164E-02  0.1184000E+00
        -11   -1    0    0    0    0  0.00000000000E+00  0.00000000000E+00  0.45593999997E+02  0.45594000000E+02  0.51100000000E-03 0. -1.
         11   -1    0    0    0    0 -0.00000000000E+00 -0.00000000000E+00 -0.45593999997E+02  0.45594000000E+02  0.51100000000E-03 0.  1.
         23    2    1    2    0    0  0.00000000000E+00  0.00000000000E+00 -0.71054273576E-14  0.91188000000E+02  0.91188000000E+02 0.  0.
    9900012    2    3    3    0    0  0.62765281113E+01  0.15221795272E+01 -0.44580283474E+02  0.46142317518E+02  0.99999977857E+01 0.  0.
         12    1    3    3    0    0 -0.62765281113E+01 -0.15221795272E+01  0.44580283474E+02  0.45045682482E+02  0.00000000000E+00 0. -1.
         11    1    4    4    0    0  0.18463475006E+00  0.89827217283E+00 -0.44159859059E+00  0.10178371499E+01  0.51100000000E-03 0. -1.
        -11    1    4    4    0    0  0.50969143881E+01  0.98226917136E+00 -0.43653369246E+02  0.43960892118E+02  0.51100000000E-03 0.  1.
        -12    1    4    4    0    0  0.99497897311E+00 -0.35836181703E+00 -0.48531563690E+00  0.11635882503E+01  0.00000000000E+00 0.  1.
</event>
<event>
 8    1  0.2962813E-009  0.9118800E+02  0.7816164E-02  0.1184000E+00
        -11   -1    0    0    0    0  0.00000000000E+00  0.00000000000E+00  0.45593999997E+02  0.45594000000E+02  0.51100000000E-03 0. -1.
         11   -1    0    0    0    0 -0.00000000000E+00 -0.00000000000E+00 -0.45593999997E+02  0.45594000000E+02  0.51100000000E-03 0.  1.
         23    2    1    2    0    0  0.00000000000E+00 -0.71054273576E-14  0.00000000000E+00  0.91188000000E+02  0.91188000000E+02 0.  0.
    9900012    2    3    3    0    0 -0.19956282358E+02  0.40247627962E+02  0.33149171186E+01  0.46142318324E+02  0.10000005136E+02 0.  0.
        -12    1    3    3    0    0  0.19956282358E+02 -0.40247627962E+02 -0.33149171186E+01  0.45045681676E+02  0.00000000000E+00 0.  1.
         11    1    4    4    0    0 -0.13956603543E+02  0.19153471632E+02 -0.68999466005E+00  0.23709035217E+02  0.51100000000E-03 0. -1.
        -11    1    4    4    0    0 -0.15727907824E+01  0.55164569003E+01 -0.59256264217E-01  0.57365912478E+01  0.51100000000E-03 0.  1.
         12    1    4    4    0    0 -0.44268880321E+01  0.15577699430E+02  0.40641680428E+01  0.16696691860E+02  0.00000000000E+00 0. -1.
</event>
<event>
 8    1  0.2962813E-009  0.9118800E+02  0.7816164E-02  0.1184000E+00
        -11   -1    0    0    0    0  0.00000000000E+00  0.00000000000E+00  0.45593999997E+02  0.45594000000E+02  0.51100000000E-03 0. -1.
         11   -1    0    0    0    0 -0.00000000000E+00 -0.00000000000E+00 -0.45593999997E+02  0.45594000000E+02  0.51100000000E-03 0.  1.
         23    2    1    2    0    0  0.00000000000E+00  0.00000000000E+00  0.00000000000E+00  0.91188000000E+02  0.91188000000E+02 0.  0.
    9900012    2    3    3    0    0  0.48663552517E+01 -0.20444277666E+02 -0.39842978874E+02  0.46142324645E+02  0.10000062769E+02 0.  0.
         12    1    3    3    0    0 -0.48663552517E+01  0.20444277666E+02  0.39842978874E+02  0.45045675355E+02  0.00000000000E+00 0. -1.
         11    1    4    4    0    0  0.13227399678E+01 -0.13175752202E+02 -0.16069002023E+02  0.20822173599E+02  0.51100000000E-03 0. -1.
        -11    1    4    4    0    0  0.33666886233E+01 -0.67835075381E+01 -0.18068414034E+02  0.19591277467E+02  0.51100000000E-03 0.  1.
         12    1    4    4    0    0  0.17692666058E+00 -0.48501792532E+00 -0.57055628161E+01  0.57288735786E+01  0.00000000000E+00 0. -1.
</event>
<event>
 8    1  0.2962813E-009  0.9118800E+02  0.7816164E-02  0.1184000E+00
        -11   -1    0    0    0    0  0.00000000000E+00  0.00000000000E+00  0.45593999997E+02  0.45594000000E+02  0.51100000000E-03 0. -1.
         11   -1    0    0    0    0 -0.00000000000E+00 -0.00000000000E+00 -0.45593999997E+02  0.45594000000E+02  0.51100000000E-03 0.  1.
         23    2    1    2    0    0  0.00000000000E+00 -0.17763568394E-14  0.00000000000E+00  0.91188000000E+02  0.91188000000E+02 0.  0.
    9900012    2    3    3    0    0  0.75859893820E+01  0.12491460650E+02 -0.42609032671E+02  0.46142317751E+02  0.99999999088E+01 0.  0.
         12    1    3    3    0    0 -0.75859893820E+01 -0.12491460650E+02  0.42609032671E+02  0.45045682249E+02  0.00000000000E+00 0. -1.
         11    1    4    4    0    0  0.28719398417E+01  0.67255426492E+01 -0.92217455107E+01  0.11769517956E+02  0.51100000000E-03 0.  1.
        -11    1    4    4    0    0  0.21505160307E+01  0.44021999790E+01 -0.25536287053E+02  0.26002039162E+02  0.51100000000E-03 0. -1.
         12    1    4    4    0    0  0.25635335096E+01  0.13637180218E+01 -0.78510001076E+01  0.83707606338E+01  0.00000000000E+00 0. -1.
</event>
<event>
 8    1  0.2962813E-009  0.9118800E+02  0.7816164E-02  0.1184000E+00
        -11   -1    0    0    0    0  0.00000000000E+00  0.00000000000E+00  0.45593999997E+02  0.45594000000E+02  0.51100000000E-03 0. -1.
         11   -1    0    0    0    0 -0.00000000000E+00 -0.00000000000E+00 -0.45593999997E+02  0.45594000000E+02  0.51100000000E-03 0.  1.
         23    2    1    2    0    0 -0.71054273576E-14 -0.22204460493E-15  0.00000000000E+00  0.91188000000E+02  0.91188000000E+02 0.  0.
    9900012    2    3    3    0    0  0.38863506862E+02  0.11640018376E+01  0.22746128612E+02  0.46142318378E+02  0.10000005628E+02 0.  0.
        -12    1    3    3    0    0 -0.38863506862E+02 -0.11640018376E+01 -0.22746128612E+02  0.45045681622E+02  0.00000000000E+00 0.  1.
         11    1    4    4    0    0  0.12300306210E+02  0.11304584141E+01  0.63478205049E+01  0.13887775002E+02  0.51100000000E-03 0. -1.
        -11    1    4    4    0    0  0.20388772638E+02  0.32473627589E+01  0.10671012931E+02  0.23240437428E+02  0.51100000000E-03 0.  1.
        -12    1    4    4    0    0  0.61744280142E+01 -0.32138193354E+01  0.57272951760E+01  0.90141059488E+01  0.00000000000E+00 0.  1.
</event>
<event>
 8    1  0.2962813E-009  0.9118800E+02  0.7816164E-02  0.1184000E+00
        -11   -1    0    0    0    0  0.00000000000E+00  0.00000000000E+00  0.45593999997E+02  0.45594000000E+02  0.51100000000E-03 0. -1.
         11   -1    0    0    0    0 -0.00000000000E+00 -0.00000000000E+00 -0.45593999997E+02  0.45594000000E+02  0.51100000000E-03 0.  1.
         23    2    1    2    0    0  0.00000000000E+00  0.00000000000E+00  0.00000000000E+00  0.91188000000E+02  0.91188000000E+02 0.  0.
    9900012    2    3    3    0    0 -0.11143032832E+02  0.72661413711E+01 -0.43036607084E+02  0.46142317183E+02  0.99999947312E+01 0.  0.
         12    1    3    3    0    0  0.11143032832E+02 -0.72661413711E+01  0.43036607084E+02  0.45045682817E+02  0.00000000000E+00 0. -1.
         11    1    4    4    0    0 -0.39226124435E+01 -0.14223428174E+01 -0.77659164622E+01  0.88158610601E+01  0.51100000000E-03 0. -1.
        -11    1    4    4    0    0 -0.36585362485E+01  0.62540592422E+01 -0.27499229806E+02  0.28437752806E+02  0.51100000000E-03 0.  1.
         12    1    4    4    0    0 -0.35618841399E+01  0.24344249464E+01 -0.77714608163E+01  0.88887033174E+01  0.00000000000E+00 0. -1.
</event>
<event>
 8    1  0.2962813E-009  0.9118800E+02  0.7816164E-02  0.1184000E+00
        -11   -1    0    0    0    0  0.00000000000E+00  0.00000000000E+00  0.45593999997E+02  0.45594000000E+02  0.51100000000E-03 0. -1.
         11   -1    0    0    0    0 -0.00000000000E+00 -0.00000000000E+00 -0.45593999997E+02  0.45594000000E+02  0.51100000000E-03 0.  1.
         23    2    1    2    0    0  0.35527136788E-14  0.00000000000E+00 -0.35527136788E-14  0.91188000000E+02  0.91188000000E+02 0.  0.
    9900012    2    3    3    0    0  0.29126312312E+02 -0.27464170098E+02 -0.20651652165E+02  0.46142318240E+02  0.10000004368E+02 0.  0.
         12    1    3    3    0    0 -0.29126312312E+02  0.27464170098E+02  0.20651652165E+02  0.45045681760E+02  0.00000000000E+00 0. -1.
         11    1    4    4    0    0  0.89108589130E+01 -0.69290839919E+01 -0.96788916105E+01  0.14869315875E+02  0.51100000000E-03 0. -1.
        -11    1    4    4    0    0  0.10426893741E+02 -0.69366249182E+01 -0.43748465586E+01  0.13265600666E+02  0.51100000000E-03 0.  1.
        -12    1    4    4    0    0  0.97885596574E+01 -0.13598461188E+02 -0.65979139957E+01  0.18007401699E+02  0.00000000000E+00 0.  1.
</event>
<event>
 8    1  0.2962813E-009  0.9118800E+02  0.7816164E-02  0.1184000E+00
        -11   -1    0    0    0    0  0.00000000000E+00  0.00000000000E+00  0.45593999997E+02  0.45594000000E+02  0.51100000000E-03 0. -1.
         11   -1    0    0    0    0 -0.00000000000E+00 -0.00000000000E+00 -0.45593999997E+02  0.45594000000E+02  0.51100000000E-03 0.  1.
         23    2    1    2    0    0  0.00000000000E+00 -0.17763568394E-14  0.00000000000E+00  0.91188000000E+02  0.91188000000E+02 0.  0.
    9900012    2    3    3    0    0 -0.96437795342E+01  0.11945788129E+02  0.42348661967E+02  0.46142317542E+02  0.99999980023E+01 0.  0.
        -12    1    3    3    0    0  0.96437795342E+01 -0.11945788129E+02 -0.42348661967E+02  0.45045682458E+02  0.00000000000E+00 0.  1.
         11    1    4    4    0    0 -0.21822301082E+01  0.42129435682E+01  0.20341314507E+02  0.20887319069E+02  0.51100000000E-03 0. -1.
        -11    1    4    4    0    0 -0.27159171460E+01  0.32223016434E+01  0.30589516393E+01  0.52073620209E+01  0.51100000000E-03 0.  1.
        -12    1    4    4    0    0 -0.47456322801E+01  0.45105429174E+01  0.18948395821E+02  0.20047636452E+02  0.00000000000E+00 0.  1.
</event>
<event>
 8    1  0.2962813E-009  0.9118800E+02  0.7816164E-02  0.1184000E+00
        -11   -1    0    0    0    0  0.00000000000E+00  0.00000000000E+00  0.45593999997E+02  0.45594000000E+02  0.51100000000E-03 0. -1.
         11   -1    0    0    0    0 -0.00000000000E+00 -0.00000000000E+00 -0.45593999997E+02  0.45594000000E+02  0.51100000000E-03 0.  1.
         23    2    1    2    0    0 -0.35527136788E-14 -0.22204460493E-15  0.00000000000E+00  0.91188000000E+02  0.91188000000E+02 0.  0.
    9900012    2    3    3    0    0 -0.22978851559E+02 -0.14069256851E+01  0.38718295805E+02  0.46142317756E+02  0.99999999494E+01 0.  0.
        -12    1    3    3    0    0  0.22978851559E+02  0.14069256851E+01 -0.38718295805E+02  0.45045682244E+02  0.00000000000E+00 0.  1.
         11    1    4    4    0    0  0.73725674657E-01  0.33354386924E+00  0.51765291172E+01  0.51877876740E+01  0.51100000000E-03 0. -1.
        -11    1    4    4    0    0 -0.12947698440E+02 -0.13586087613E+01  0.15228055879E+02  0.20034530161E+02  0.51100000000E-03 0.  1.
         12    1    4    4    0    0 -0.10104878793E+02 -0.38186079299E+00  0.18313710809E+02  0.20919999920E+02  0.00000000000E+00 0. -1.
</event>
<event>
 8    1  0.2962813E-009  0.9118800E+02  0.7816164E-02  0.1184000E+00
        -11   -1    0    0    0    0  0.00000000000E+00  0.00000000000E+00  0.45593999997E+02  0.45594000000E+02  0.51100000000E-03 0. -1.
         11   -1    0    0    0    0 -0.00000000000E+00 -0.00000000000E+00 -0.45593999997E+02  0.45594000000E+02  0.51100000000E-03 0.  1.
         23    2    1    2    0    0  0.00000000000E+00  0.00000000000E+00  0.35527136788E-14  0.91188000000E+02  0.91188000000E+02 0.  0.
    9900012    2    3    3    0    0 -0.37420323446E+02 -0.29707173217E+01  0.24899952826E+02  0.46142318531E+02  0.10000007024E+02 0.  0.
        -12    1    3    3    0    0  0.37420323446E+02  0.29707173217E+01 -0.24899952826E+02  0.45045681469E+02  0.00000000000E+00 0.  1.
         11    1    4    4    0    0 -0.14456251780E+02 -0.16892003716E+01  0.14122434378E+02  0.20280033689E+02  0.51100000000E-03 0. -1.
        -11    1    4    4    0    0 -0.21985590965E+02 -0.18204853608E+01  0.11104954685E+02  0.24698186084E+02  0.51100000000E-03 0.  1.
        -12    1    4    4    0    0 -0.97848070080E+00  0.53896841064E+00 -0.32743623607E+00  0.11640987579E+01  0.00000000000E+00 0.  1.
</event>
<event>
 8    1  0.2962813E-009  0.9118800E+02  0.7816164E-02  0.1184000E+00
        -11   -1    0    0    0    0  0.00000000000E+00  0.00000000000E+00  0.45593999997E+02  0.45594000000E+02  0.51100000000E-03 0. -1.
         11   -1    0    0    0    0 -0.00000000000E+00 -0.00000000000E+00 -0.45593999997E+02  0.45594000000E+02  0.51100000000E-03 0.  1.
         23    2    1    2    0    0  0.00000000000E+00  0.00000000000E+00  0.71054273576E-14  0.91188000000E+02  0.91188000000E+02 0.  0.
    9900012    2    3    3    0    0  0.16653178450E+01  0.11224546710E+02 -0.43593000150E+02  0.46142318804E+02  0.10000009506E+02 0.  0.
         12    1    3    3    0    0 -0.16653178450E+01 -0.11224546710E+02  0.43593000150E+02  0.45045681196E+02  0.00000000000E+00 0. -1.
         11    1    4    4    0    0  0.81911727151E+00  0.60330480168E+01 -0.75889141479E+01  0.97293493967E+01  0.51100000000E-03 0. -1.
        -11    1    4    4    0    0  0.73866867877E+00  0.52284617884E+01 -0.34193186861E+02  0.34598503899E+02  0.51100000000E-03 0.  1.
         12    1    4    4    0    0  0.10753189470E+00 -0.36963095570E-01 -0.18108991416E+01  0.18144655080E+01  0.00000000000E+00 0. -1.
</event>
<event>
 8    1  0.2962813E-009  0.9118800E+02  0.7816164E-02  0.1184000E+00
        -11   -1    0    0    0    0  0.00000000000E+00  0.00000000000E+00  0.45593999997E+02  0.45594000000E+02  0.51100000000E-03 0. -1.
         11   -1    0    0    0    0 -0.00000000000E+00 -0.00000000000E+00 -0.45593999997E+02  0.45594000000E+02  0.51100000000E-03 0.  1.
         23    2    1    2    0    0 -0.44408920985E-15  0.88817841970E-15  0.00000000000E+00  0.91188000000E+02  0.91188000000E+02 0.  0.
    9900012    2    3    3    0    0  0.51336370604E+00 -0.78646527611E+01  0.44350841507E+02  0.46142318212E+02  0.10000004116E+02 0.  0.
        -12    1    3    3    0    0 -0.51336370604E+00  0.78646527611E+01 -0.44350841507E+02  0.45045681788E+02  0.00000000000E+00 0.  1.
         11    1    4    4    0    0 -0.27356088131E+00 -0.31300290252E+01  0.16086370290E+02  0.16390339430E+02  0.51100000000E-03 0. -1.
        -11    1    4    4    0    0  0.35241443600E+01 -0.15323041684E+01  0.62411536661E+01  0.73293621059E+01  0.51100000000E-03 0.  1.
        -12    1    4    4    0    0 -0.27372197727E+01 -0.32023195675E+01  0.22023317551E+02  0.22422616677E+02  0.00000000000E+00 0.  1.
</event>
<event>
 8    1  0.2962813E-009  0.9118800E+02  0.7816164E-02  0.1184000E+00
        -11   -1    0    0    0    0  0.00000000000E+00  0.00000000000E+00  0.45593999997E+02  0.45594000000E+02  0.51100000000E-03 0. -1.
         11   -1    0    0    0    0 -0.00000000000E+00 -0.00000000000E+00 -0.45593999997E+02  0.45594000000E+02  0.51100000000E-03 0.  1.
         23    2    1    2    0    0  0.00000000000E+00 -0.27755575616E-16  0.00000000000E+00  0.91188000000E+02  0.91188000000E+02 0.  0.
    9900012    2    3    3    0    0  0.19391895522E+02  0.20091056177E+00 -0.40657441008E+02  0.46142317783E+02  0.10000000204E+02 0.  0.
         12    1    3    3    0    0 -0.19391895522E+02 -0.20091056177E+00  0.40657441008E+02  0.45045682217E+02  0.00000000000E+00 0. -1.
         11    1    4    4    0    0  0.76995599809E+01  0.21319022003E+01 -0.16145889853E+02  0.18014382873E+02  0.51100000000E-03 0. -1.
        -11    1    4    4    0    0  0.36825710558E+01  0.44702248561E+00 -0.22228018770E+01  0.43245817288E+01  0.51100000000E-03 0.  1.
        -12    1    4    4    0    0  0.80097644857E+01 -0.23780141241E+01 -0.22288749279E+02  0.23803353182E+02  0.00000000000E+00 0.  1.
</event>
<event>
 8    1  0.2962813E-009  0.9118800E+02  0.7816164E-02  0.1184000E+00
        -11   -1    0    0    0    0  0.00000000000E+00  0.00000000000E+00  0.45593999997E+02  0.45594000000E+02  0.51100000000E-03 0. -1.
         11   -1    0    0    0    0 -0.00000000000E+00 -0.00000000000E+00 -0.45593999997E+02  0.45594000000E+02  0.51100000000E-03 0.  1.
         23    2    1    2    0    0  0.00000000000E+00  0.00000000000E+00  0.00000000000E+00  0.91188000000E+02  0.91188000000E+02 0.  0.
    9900012    2    3    3    0    0 -0.84488498997E+01 -0.26715406724E+02 -0.35270631733E+02  0.46142317810E+02  0.10000000447E+02 0.  0.
         12    1    3    3    0    0  0.84488498997E+01  0.26715406724E+02  0.35270631733E+02  0.45045682190E+02  0.00000000000E+00 0. -1.
         11    1    4    4    0    0 -0.94772145842E+00 -0.31282041930E+01 -0.64751112453E+01  0.72533373929E+01  0.51100000000E-03 0. -1.
        -11    1    4    4    0    0  0.12066350520E+01 -0.62627002310E+01 -0.10158619106E+02  0.11994787398E+02  0.51100000000E-03 0.  1.
        -12    1    4    4    0    0 -0.87077634932E+01 -0.17324502300E+02 -0.18636901383E+02  0.26894193019E+02  0.00000000000E+00 0.  1.
</event>
<event>
 8    1  0.2962813E-009  0.9118800E+02  0.7816164E-02  0.1184000E+00
        -11   -1    0    0    0    0  0.00000000000E+00  0.00000000000E+00  0.45593999997E+02  0.45594000000E+02  0.51100000000E-03 0. -1.
         11   -1    0    0    0    0 -0.00000000000E+00 -0.00000000000E+00 -0.45593999997E+02  0.45594000000E+02  0.51100000000E-03 0.  1.
         23    2    1    2    0    0  0.00000000000E+00  0.00000000000E+00 -0.17763568394E-14  0.91188000000E+02  0.91188000000E+02 0.  0.
    9900012    2    3    3    0    0  0.14366997234E+02  0.39918958051E+02 -0.15138694105E+02  0.46142313407E+02  0.99999602999E+01 0.  0.
         12    1    3    3    0    0 -0.14366997234E+02 -0.39918958051E+02  0.15138694105E+02  0.45045686593E+02  0.00000000000E+00 0. -1.
         11    1    4    4    0    0 -0.80375952007E+00  0.32330384668E+01 -0.33307788919E+00  0.33480603691E+01  0.51100000000E-03 0. -1.
        -11    1    4    4    0    0  0.50581607822E+01  0.18877873022E+02 -0.89420997935E+01  0.21492329546E+02  0.51100000000E-03 0.  1.
         12    1    4    4    0    0  0.10112595971E+02  0.17808046563E+02 -0.58635164224E+01  0.21301923493E+02  0.00000000000E+00 0. -1.
</event>
<event>
 8    1  0.2962813E-009  0.9118800E+02  0.7816164E-02  0.1184000E+00
        -11   -1    0    0    0    0  0.00000000000E+00  0.00000000000E+00  0.45593999997E+02  0.45594000000E+02  0.51100000000E-03 0. -1.
         11   -1    0    0    0    0 -0.00000000000E+00 -0.00000000000E+00 -0.45593999997E+02  0.45594000000E+02  0.51100000000E-03 0.  1.
         23    2    1    2    0    0  0.35527136788E-14  0.00000000000E+00  0.00000000000E+00  0.91188000000E+02  0.91188000000E+02 0.  0.
    9900012    2    3    3    0    0 -0.18148596020E+02  0.18620677804E+02 -0.36783315775E+02  0.46142317646E+02  0.99999989470E+01 0.  0.
         12    1    3    3    0    0  0.18148596020E+02 -0.18620677804E+02  0.36783315775E+02  0.45045682354E+02  0.00000000000E+00 0. -1.
         11    1    4    4    0    0 -0.23774870571E+01  0.46460246664E+01 -0.55043913808E+01  0.75852695827E+01  0.51100000000E-03 0. -1.
        -11    1    4    4    0    0 -0.90966486858E+00  0.47696749299E+01 -0.47970232199E+01  0.68255930983E+01  0.51100000000E-03 0.  1.
        -12    1    4    4    0    0 -0.14861444095E+02  0.92049782074E+01 -0.26481901174E+02  0.31731454965E+02  0.00000000000E+00 0.  1.
</event>
<event>
 8    1  0.2962813E-009  0.9118800E+02  0.7816164E-02  0.1184000E+00
        -11   -1    0    0    0    0  0.00000000000E+00  0.00000000000E+00  0.45593999997E+02  0.45594000000E+02  0.51100000000E-03 0. -1.
         11   -1    0    0    0    0 -0.00000000000E+00 -0.00000000000E+00 -0.45593999997E+02  0.45594000000E+02  0.51100000000E-03 0.  1.
         23    2    1    2    0    0  0.00000000000E+00  0.00000000000E+00  0.00000000000E+00  0.91188000000E+02  0.91188000000E+02 0.  0.
    9900012    2    3    3    0    0 -0.82302322706E+01 -0.25358614228E+02 -0.36308642225E+02  0.46142317198E+02  0.99999948689E+01 0.  0.
         12    1    3    3    0    0  0.82302322706E+01  0.25358614228E+02  0.36308642225E+02  0.45045682802E+02  0.00000000000E+00 0. -1.
         11    1    4    4    0    0 -0.11442564898E+01 -0.13843249385E+01 -0.73576761112E+01  0.75737095579E+01  0.51100000000E-03 0.  1.
        -11    1    4    4    0    0 -0.54165601673E+01 -0.19692094757E+02 -0.20433637111E+02  0.28890331355E+02  0.51100000000E-03 0. -1.
         12    1    4    4    0    0 -0.16694156136E+01 -0.42821945328E+01 -0.85173290028E+01  0.96782762850E+01  0.00000000000E+00 0. -1.
</event>
<event>
 8    1  0.2962813E-009  0.9118800E+02  0.7816164E-02  0.1184000E+00
        -11   -1    0    0    0    0  0.00000000000E+00  0.00000000000E+00  0.45593999997E+02  0.45594000000E+02  0.51100000000E-03 0. -1.
         11   -1    0    0    0    0 -0.00000000000E+00 -0.00000000000E+00 -0.45593999997E+02  0.45594000000E+02  0.51100000000E-03 0.  1.
         23    2    1    2    0    0  0.00000000000E+00  0.35527136788E-14 -0.35527136788E-14  0.91188000000E+02  0.91188000000E+02 0.  0.
    9900012    2    3    3    0    0 -0.29601196339E+02 -0.19182107099E+02  0.28016592123E+02  0.46142317724E+02  0.99999996658E+01 0.  0.
        -12    1    3    3    0    0  0.29601196339E+02  0.19182107099E+02 -0.28016592123E+02  0.45045682276E+02  0.00000000000E+00 0.  1.
         11    1    4    4    0    0 -0.10459062671E+02 -0.43660597768E+01  0.71654963875E+01  0.13408907810E+02  0.51100000000E-03 0. -1.
        -11    1    4    4    0    0 -0.11447538200E+02 -0.81407398567E+01  0.16464459205E+02  0.21642462739E+02  0.51100000000E-03 0.  1.
        -12    1    4    4    0    0 -0.76945954683E+01 -0.66753074656E+01  0.43866365311E+01  0.11090947175E+02  0.00000000000E+00 0.  1.
</event>
<event>
 8    1  0.2962813E-009  0.9118800E+02  0.7816164E-02  0.1184000E+00
        -11   -1    0    0    0    0  0.00000000000E+00  0.00000000000E+00  0.45593999997E+02  0.45594000000E+02  0.51100000000E-03 0. -1.
         11   -1    0    0    0    0 -0.00000000000E+00 -0.00000000000E+00 -0.45593999997E+02  0.45594000000E+02  0.51100000000E-03 0.  1.
         23    2    1    2    0    0  0.00000000000E+00  0.00000000000E+00 -0.71054273576E-14  0.91188000000E+02  0.91188000000E+02 0.  0.
    9900012    2    3    3    0    0 -0.32132761948E+02  0.74668972257E+01 -0.30673189126E+02  0.46142317901E+02  0.10000001273E+02 0.  0.
         12    1    3    3    0    0  0.32132761948E+02 -0.74668972257E+01  0.30673189126E+02  0.45045682099E+02  0.00000000000E+00 0. -1.
         11    1    4    4    0    0 -0.48869617271E+00  0.54568095140E+00 -0.15043462631E+01  0.16732153449E+01  0.51100000000E-03 0. -1.
        -11    1    4    4    0    0 -0.11119229928E+02 -0.90513987786E+00 -0.13360658553E+02  0.17405853889E+02  0.51100000000E-03 0.  1.
        -12    1    4    4    0    0 -0.20524835848E+02  0.78263561521E+01 -0.15808184311E+02  0.27063248667E+02  0.00000000000E+00 0.  1.
</event>
<event>
 8    1  0.2962813E-009  0.9118800E+02  0.7816164E-02  0.1184000E+00
        -11   -1    0    0    0    0  0.00000000000E+00  0.00000000000E+00  0.45593999997E+02  0.45594000000E+02  0.51100000000E-03 0. -1.
         11   -1    0    0    0    0 -0.00000000000E+00 -0.00000000000E+00 -0.45593999997E+02  0.45594000000E+02  0.51100000000E-03 0.  1.
         23    2    1    2    0    0  0.22204460493E-15  0.00000000000E+00  0.71054273576E-14  0.91188000000E+02  0.91188000000E+02 0.  0.
    9900012    2    3    3    0    0 -0.15495521449E+01 -0.37382545537E+02 -0.25085003082E+02  0.46142320936E+02  0.10000028951E+02 0.  0.
         12    1    3    3    0    0  0.15495521449E+01  0.37382545537E+02  0.25085003082E+02  0.45045679064E+02  0.00000000000E+00 0. -1.
         11    1    4    4    0    0  0.17072607529E+01 -0.29092166087E+02 -0.17869785692E+02  0.34184764265E+02  0.51100000000E-03 0. -1.
        -11    1    4    4    0    0 -0.28057068394E+01 -0.84944832785E+01 -0.63844232474E+01  0.10990409342E+02  0.51100000000E-03 0.  1.
         12    1    4    4    0    0 -0.45110605835E+00  0.20410382812E+00 -0.83079414319E+00  0.96714732947E+00  0.00000000000E+00 0. -1.
</event>
<event>
 8    1  0.2962813E-009  0.9118800E+02  0.7816164E-02  0.1184000E+00
        -11   -1    0    0    0    0  0.00000000000E+00  0.00000000000E+00  0.45593999997E+02  0.45594000000E+02  0.51100000000E-03 0. -1.
         11   -1    0    0    0    0 -0.00000000000E+00 -0.00000000000E+00 -0.45593999997E+02  0.45594000000E+02  0.51100000000E-03 0.  1.
         23    2    1    2    0    0  0.00000000000E+00  0.00000000000E+00  0.35527136788E-14  0.91188000000E+02  0.91188000000E+02 0.  0.
    9900012    2    3    3    0    0 -0.34179156382E+02 -0.19626408370E+02 -0.21810617922E+02  0.46142315516E+02  0.99999795275E+01 0.  0.
         12    1    3    3    0    0  0.34179156382E+02  0.19626408370E+02  0.21810617922E+02  0.45045684484E+02  0.00000000000E+00 0. -1.
         11    1    4    4    0    0 -0.39951372938E+00 -0.29649599140E+00  0.73226121649E+00  0.88528404660E+00  0.51100000000E-03 0. -1.
        -11    1    4    4    0    0 -0.23256494196E+02 -0.12057029433E+02 -0.17517375726E+02  0.31513408791E+02  0.51100000000E-03 0.  1.
         12    1    4    4    0    0 -0.10523148457E+02 -0.72728829454E+01 -0.50255034127E+01  0.13743622679E+02  0.00000000000E+00 0. -1.
</event>
<event>
 8    1  0.2962813E-009  0.9118800E+02  0.7816164E-02  0.1184000E+00
        -11   -1    0    0    0    0  0.00000000000E+00  0.00000000000E+00  0.45593999997E+02  0.45594000000E+02  0.51100000000E-03 0. -1.
         11   -1    0    0    0    0 -0.00000000000E+00 -0.00000000000E+00 -0.45593999997E+02  0.45594000000E+02  0.51100000000E-03 0.  1.
         23    2    1    2    0    0  0.00000000000E+00 -0.35527136788E-14  0.00000000000E+00  0.91188000000E+02  0.91188000000E+02 0.  0.
    9900012    2    3    3    0    0  0.32274333382E+02 -0.29108054466E+02 -0.11840698933E+02  0.46142316730E+02  0.99999905985E+01 0.  0.
         12    1    3    3    0    0 -0.32274333382E+02  0.29108054466E+02  0.11840698933E+02  0.45045683270E+02  0.00000000000E+00 0. -1.
         11    1    4    4    0    0  0.25473598400E+01 -0.34059552921E+01 -0.46330055194E+00  0.42783432855E+01  0.51100000000E-03 0. -1.
        -11    1    4    4    0    0  0.23640725535E+02 -0.24569189122E+02 -0.94929599606E+01  0.35392728730E+02  0.51100000000E-03 0.  1.
        -12    1    4    4    0    0  0.60862480073E+01 -0.11329100521E+01 -0.18844384210E+01  0.64712447145E+01  0.00000000000E+00 0.  1.
</event>
<event>
 8    1  0.2962813E-009  0.9118800E+02  0.7816164E-02  0.1184000E+00
        -11   -1    0    0    0    0  0.00000000000E+00  0.00000000000E+00  0.45593999997E+02  0.45594000000E+02  0.51100000000E-03 0. -1.
         11   -1    0    0    0    0 -0.00000000000E+00 -0.00000000000E+00 -0.45593999997E+02  0.45594000000E+02  0.51100000000E-03 0.  1.
         23    2    1    2    0    0  0.00000000000E+00  0.00000000000E+00  0.00000000000E+00  0.91188000000E+02  0.91188000000E+02 0.  0.
    9900012    2    3    3    0    0  0.98534227384E+01 -0.44544240002E+01  0.43728495789E+02  0.46142321220E+02  0.10000031538E+02 0.  0.
        -12    1    3    3    0    0 -0.98534227384E+01  0.44544240002E+01 -0.43728495789E+02  0.45045678780E+02  0.00000000000E+00 0.  1.
         11    1    4    4    0    0  0.45241545158E+01 -0.19154442434E+01  0.33496668298E+02  0.33855039331E+02  0.51100000000E-03 0. -1.
        -11    1    4    4    0    0 -0.42812765776E+00  0.12873431552E+00  0.86159854800E+00  0.97067921291E+00  0.51100000000E-03 0.  1.
         12    1    4    4    0    0  0.57573958804E+01 -0.26677140723E+01  0.93702289423E+01  0.11316602676E+02  0.00000000000E+00 0. -1.
</event>
<event>
 8    1  0.3365771E-009  0.9118800E+02  0.7816164E-02  0.1184000E+00
        -11   -1    0    0    0    0  0.00000000000E+00  0.00000000000E+00  0.45593999997E+02  0.45594000000E+02  0.51100000000E-03 0. -1.
         11   -1    0    0    0    0 -0.00000000000E+00 -0.00000000000E+00 -0.45593999997E+02  0.45594000000E+02  0.51100000000E-03 0.  1.
         23    2    1    2    0    0 -0.35527136788E-14 -0.44408920985E-15  0.00000000000E+00  0.91188000000E+02  0.91188000000E+02 0.  0.
    9900012    2    3    3    0    0 -0.21427986550E+02 -0.30128755891E+01 -0.39507942335E+02  0.46142317249E+02  0.99999953314E+01 0.  0.
         12    1    3    3    0    0  0.21427986550E+02  0.30128755891E+01  0.39507942335E+02  0.45045682751E+02  0.00000000000E+00 0. -1.
         11    1    4    4    0    0 -0.40762662545E+01  0.17421280350E+01 -0.75493006013E+01  0.87545928802E+01  0.51100000000E-03 0. -1.
        -11    1    4    4    0    0 -0.12230788140E+01 -0.23297857154E+01 -0.78586913620E+01  0.82875118974E+01  0.51100000000E-03 0.  1.
        -12    1    4    4    0    0 -0.16128641482E+02 -0.24252179087E+01 -0.24099950372E+02  0.29100212472E+02  0.00000000000E+00 0.  1.
</event>
<event>
 8    1  0.2962813E-009  0.9118800E+02  0.7816164E-02  0.1184000E+00
        -11   -1    0    0    0    0  0.00000000000E+00  0.00000000000E+00  0.45593999997E+02  0.45594000000E+02  0.51100000000E-03 0. -1.
         11   -1    0    0    0    0 -0.00000000000E+00 -0.00000000000E+00 -0.45593999997E+02  0.45594000000E+02  0.51100000000E-03 0.  1.
         23    2    1    2    0    0  0.00000000000E+00  0.00000000000E+00 -0.71054273576E-14  0.91188000000E+02  0.91188000000E+02 0.  0.
    9900012    2    3    3    0    0 -0.19869507417E+02  0.20690734841E+02 -0.34730528031E+02  0.46142318624E+02  0.10000007873E+02 0.  0.
         12    1    3    3    0    0  0.19869507417E+02 -0.20690734841E+02  0.34730528031E+02  0.45045681376E+02  0.00000000000E+00 0. -1.
         11    1    4    4    0    0 -0.19537261546E+02  0.16365974666E+02 -0.29389598892E+02  0.38901134158E+02  0.51100000000E-03 0.  1.
        -11    1    4    4    0    0 -0.64355731768E+00  0.41338978230E+01 -0.37809874244E+01  0.56390729200E+01  0.51100000000E-03 0. -1.
        -12    1    4    4    0    0  0.31131144629E+00  0.19086235175E+00 -0.15599417150E+01  0.16021115467E+01  0.00000000000E+00 0.  1.
</event>
<event>
 8    1  0.2962813E-009  0.9118800E+02  0.7816164E-02  0.1184000E+00
        -11   -1    0    0    0    0  0.00000000000E+00  0.00000000000E+00  0.45593999997E+02  0.45594000000E+02  0.51100000000E-03 0. -1.
         11   -1    0    0    0    0 -0.00000000000E+00 -0.00000000000E+00 -0.45593999997E+02  0.45594000000E+02  0.51100000000E-03 0.  1.
         23    2    1    2    0    0  0.00000000000E+00  0.00000000000E+00  0.00000000000E+00  0.91188000000E+02  0.91188000000E+02 0.  0.
    9900012    2    3    3    0    0 -0.18133915953E+02  0.33966233812E+02 -0.23378826352E+02  0.46142317979E+02  0.10000001984E+02 0.  0.
         12    1    3    3    0    0  0.18133915953E+02 -0.33966233812E+02  0.23378826352E+02  0.45045682021E+02  0.00000000000E+00 0. -1.
         11    1    4    4    0    0 -0.10868039744E+01  0.90884104962E-01 -0.63518557184E+00  0.12620870695E+01  0.51100000000E-03 0. -1.
        -11    1    4    4    0    0 -0.14853282439E+02  0.30213798534E+02 -0.16976731746E+02  0.37705477614E+02  0.51100000000E-03 0.  1.
        -12    1    4    4    0    0 -0.21938295399E+01  0.36615511736E+01 -0.57669090337E+01  0.71747532954E+01  0.00000000000E+00 0.  1.
</event>
<event>
 8    1  0.2962813E-009  0.9118800E+02  0.7816164E-02  0.1184000E+00
        -11   -1    0    0    0    0  0.00000000000E+00  0.00000000000E+00  0.45593999997E+02  0.45594000000E+02  0.51100000000E-03 0. -1.
         11   -1    0    0    0    0 -0.00000000000E+00 -0.00000000000E+00 -0.45593999997E+02  0.45594000000E+02  0.51100000000E-03 0.  1.
         23    2    1    2    0    0  0.00000000000E+00  0.00000000000E+00  0.00000000000E+00  0.91188000000E+02  0.91188000000E+02 0.  0.
    9900012    2    3    3    0    0  0.40243270549E+02 -0.13792419609E+02 -0.14810867887E+02  0.46142317957E+02  0.10000001785E+02 0.  0.
         12    1    3    3    0    0 -0.40243270549E+02  0.13792419609E+02  0.14810867887E+02  0.45045682043E+02  0.00000000000E+00 0. -1.
         11    1    4    4    0    0  0.91997873066E+01 -0.38596423375E+01 -0.24074198528E+00  0.99795231562E+01  0.51100000000E-03 0. -1.
        -11    1    4    4    0    0  0.17984629224E+02 -0.55887697386E+01 -0.52830052880E+01  0.19559943268E+02  0.51100000000E-03 0.  1.
         12    1    4    4    0    0  0.13058854019E+02 -0.43440075326E+01 -0.92871206134E+01  0.16602851533E+02  0.00000000000E+00 0. -1.
</event>
<event>
 8    1  0.2962813E-009  0.9118800E+02  0.7816164E-02  0.1184000E+00
        -11   -1    0    0    0    0  0.00000000000E+00  0.00000000000E+00  0.45593999997E+02  0.45594000000E+02  0.51100000000E-03 0. -1.
         11   -1    0    0    0    0 -0.00000000000E+00 -0.00000000000E+00 -0.45593999997E+02  0.45594000000E+02  0.51100000000E-03 0.  1.
         23    2    1    2    0    0  0.00000000000E+00 -0.88817841970E-15  0.00000000000E+00  0.91188000000E+02  0.91188000000E+02 0.  0.
    9900012    2    3    3    0    0 -0.13698044861E+02  0.45682065592E+01 -0.42668588226E+02  0.46142319126E+02  0.10000012444E+02 0.  0.
         12    1    3    3    0    0  0.13698044861E+02 -0.45682065592E+01  0.42668588226E+02  0.45045680874E+02  0.00000000000E+00 0. -1.
         11    1    4    4    0    0 -0.29880902635E+00  0.38320563504E+01 -0.11615865619E+02  0.12235288188E+02  0.51100000000E-03 0. -1.
        -11    1    4    4    0    0 -0.10532626405E+02  0.27419415108E+00 -0.21860329668E+02  0.24266961385E+02  0.51100000000E-03 0.  1.
        -12    1    4    4    0    0 -0.28666094298E+01  0.46195605769E+00 -0.91923929395E+01  0.96400695525E+01  0.00000000000E+00 0.  1.
</event>
<event>
 8    1  0.2962813E-009  0.9118800E+02  0.7816164E-02  0.1184000E+00
        -11   -1    0    0    0    0  0.00000000000E+00  0.00000000000E+00  0.45593999997E+02  0.45594000000E+02  0.51100000000E-03 0. -1.
         11   -1    0    0    0    0 -0.00000000000E+00 -0.00000000000E+00 -0.45593999997E+02  0.45594000000E+02  0.51100000000E-03 0.  1.
         23    2    1    2    0    0  0.35527136788E-14  0.88817841970E-15  0.00000000000E+00  0.91188000000E+02  0.91188000000E+02 0.  0.
    9900012    2    3    3    0    0 -0.19908432598E+02 -0.45773652488E+01 -0.40147421198E+02  0.46142318854E+02  0.10000009962E+02 0.  0.
         12    1    3    3    0    0  0.19908432598E+02  0.45773652488E+01  0.40147421198E+02  0.45045681146E+02  0.00000000000E+00 0. -1.
         11    1    4    4    0    0 -0.46397754711E+01  0.14805287628E+01 -0.79785505798E+01  0.93475532336E+01  0.51100000000E-03 0. -1.
        -11    1    4    4    0    0 -0.14164966197E+02 -0.41650383530E+01 -0.30940590954E+02  0.34282852575E+02  0.51100000000E-03 0.  1.
        -12    1    4    4    0    0 -0.11036909293E+01 -0.18928556586E+01 -0.12282796639E+01  0.25119130448E+01  0.00000000000E+00 0.  1.
</event>
<event>
 8    1  0.2962813E-009  0.9118800E+02  0.7816164E-02  0.1184000E+00
        -11   -1    0    0    0    0  0.00000000000E+00  0.00000000000E+00  0.45593999997E+02  0.45594000000E+02  0.51100000000E-03 0.  1.
         11   -1    0    0    0    0 -0.00000000000E+00 -0.00000000000E+00 -0.45593999997E+02  0.45594000000E+02  0.51100000000E-03 0. -1.
         23    2    1    2    0    0  0.00000000000E+00  0.00000000000E+00  0.35527136788E-14  0.91188000000E+02  0.91188000000E+02 0.  0.
    9900012    2    3    3    0    0  0.10562996743E+01 -0.32845695190E+02 -0.30808408570E+02  0.46142317630E+02  0.99999988057E+01 0.  0.
        -12    1    3    3    0    0 -0.10562996743E+01  0.32845695190E+02  0.30808408570E+02  0.45045682370E+02  0.00000000000E+00 0.  1.
         11    1    4    4    0    0 -0.32115801747E+01 -0.10583334691E+02 -0.14200499404E+02  0.17999316764E+02  0.51100000000E-03 0. -1.
        -11    1    4    4    0    0  0.32733287237E+01 -0.13123470209E+02 -0.97145060989E+01  0.16652680873E+02  0.51100000000E-03 0.  1.
         12    1    4    4    0    0  0.99455112524E+00 -0.91388902906E+01 -0.68934030674E+01  0.11490319993E+02  0.00000000000E+00 0. -1.
</event>
<event>
 8    1  0.2962813E-009  0.9118800E+02  0.7816164E-02  0.1184000E+00
        -11   -1    0    0    0    0  0.00000000000E+00  0.00000000000E+00  0.45593999997E+02  0.45594000000E+02  0.51100000000E-03 0. -1.
         11   -1    0    0    0    0 -0.00000000000E+00 -0.00000000000E+00 -0.45593999997E+02  0.45594000000E+02  0.51100000000E-03 0.  1.
         23    2    1    2    0    0  0.00000000000E+00  0.44408920985E-15  0.00000000000E+00  0.91188000000E+02  0.91188000000E+02 0.  0.
    9900012    2    3    3    0    0 -0.17173840073E+02  0.30917784007E+01  0.41528468725E+02  0.46142316620E+02  0.99999895981E+01 0.  0.
        -12    1    3    3    0    0  0.17173840073E+02 -0.30917784007E+01 -0.41528468725E+02  0.45045683380E+02  0.00000000000E+00 0.  1.
         11    1    4    4    0    0 -0.59961101614E+01  0.73590494353E+00  0.18144979969E+02  0.19124204336E+02  0.51100000000E-03 0. -1.
        -11    1    4    4    0    0  0.11813560885E+00 -0.15114716022E+01  0.36709941643E+01  0.39717377610E+01  0.51100000000E-03 0.  1.
        -12    1    4    4    0    0 -0.11295865520E+02  0.38673450594E+01  0.19712494592E+02  0.23046374524E+02  0.00000000000E+00 0.  1.
</event>
<event>
 8    1  0.2962813E-009  0.9118800E+02  0.7816164E-02  0.1184000E+00
        -11   -1    0    0    0    0  0.00000000000E+00  0.00000000000E+00  0.45593999997E+02  0.45594000000E+02  0.51100000000E-03 0. -1.
         11   -1    0    0    0    0 -0.00000000000E+00 -0.00000000000E+00 -0.45593999997E+02  0.45594000000E+02  0.51100000000E-03 0.  1.
         23    2    1    2    0    0  0.35527136788E-14 -0.35527136788E-14 -0.14210854715E-13  0.91188000000E+02  0.91188000000E+02 0.  0.
    9900012    2    3    3    0    0 -0.17275456638E+02  0.25740775565E+02  0.32681562001E+02  0.46142318480E+02  0.10000006559E+02 0.  0.
        -12    1    3    3    0    0  0.17275456638E+02 -0.25740775565E+02 -0.32681562001E+02  0.45045681520E+02  0.00000000000E+00 0.  1.
         11    1    4    4    0    0 -0.98522883686E+01  0.17084167857E+02  0.23900436410E+02  0.30986565449E+02  0.51100000000E-03 0. -1.
        -11    1    4    4    0    0 -0.32449329273E+01  0.45203308845E+01  0.71389688738E+01  0.90514008778E+01  0.51100000000E-03 0.  1.
         12    1    4    4    0    0 -0.41782353419E+01  0.41362768231E+01  0.16421567172E+01  0.61043521535E+01  0.00000000000E+00 0. -1.
</event>
<event>
 8    1  0.2962813E-009  0.9118800E+02  0.7816164E-02  0.1184000E+00
        -11   -1    0    0    0    0  0.00000000000E+00  0.00000000000E+00  0.45593999997E+02  0.45594000000E+02  0.51100000000E-03 0. -1.
         11   -1    0    0    0    0 -0.00000000000E+00 -0.00000000000E+00 -0.45593999997E+02  0.45594000000E+02  0.51100000000E-03 0.  1.
         23    2    1    2    0    0 -0.66613381478E-15 -0.30531133177E-15  0.00000000000E+00  0.91188000000E+02  0.91188000000E+02 0.  0.
    9900012    2    3    3    0    0 -0.12493369201E+01  0.22950350442E+00 -0.45027768405E+02  0.46142318274E+02  0.10000004681E+02 0.  0.
         12    1    3    3    0    0  0.12493369201E+01 -0.22950350442E+00  0.45027768405E+02  0.45045681726E+02  0.00000000000E+00 0. -1.
         11    1    4    4    0    0 -0.32554246425E+01  0.14424307036E+00 -0.93291583547E+01  0.98818921030E+01  0.51100000000E-03 0. -1.
        -11    1    4    4    0    0  0.21476521993E+00  0.28985285176E+01 -0.13218972370E+02  0.13534726538E+02  0.51100000000E-03 0.  1.
        -12    1    4    4    0    0  0.17913225025E+01 -0.28132680835E+01 -0.22479637680E+02  0.22725699634E+02  0.00000000000E+00 0.  1.
</event>
<event>
 8    1  0.2962813E-009  0.9118800E+02  0.7816164E-02  0.1184000E+00
        -11   -1    0    0    0    0  0.00000000000E+00  0.00000000000E+00  0.45593999997E+02  0.45594000000E+02  0.51100000000E-03 0. -1.
         11   -1    0    0    0    0 -0.00000000000E+00 -0.00000000000E+00 -0.45593999997E+02  0.45594000000E+02  0.51100000000E-03 0.  1.
         23    2    1    2    0    0  0.00000000000E+00 -0.35527136788E-14  0.35527136788E-14  0.91188000000E+02  0.91188000000E+02 0.  0.
    9900012    2    3    3    0    0  0.23674124008E+02 -0.26023269031E+02  0.28132523156E+02  0.46142317213E+02  0.99999950021E+01 0.  0.
        -12    1    3    3    0    0 -0.23674124008E+02  0.26023269031E+02 -0.28132523156E+02  0.45045682787E+02  0.00000000000E+00 0.  1.
         11    1    4    4    0    0  0.19392870069E+02 -0.18552245011E+02  0.16867866231E+02  0.31698487597E+02  0.51100000000E-03 0. -1.
        -11    1    4    4    0    0  0.44680440807E+01 -0.72526351688E+01  0.11303423683E+02  0.14153851844E+02  0.51100000000E-03 0.  1.
         12    1    4    4    0    0 -0.18679014137E+00 -0.21838885106E+00 -0.38766757864E-01  0.28997777276E+00  0.00000000000E+00 0. -1.
</event>
<event>
 8    1  0.2962813E-009  0.9118800E+02  0.7816164E-02  0.1184000E+00
        -11   -1    0    0    0    0  0.00000000000E+00  0.00000000000E+00  0.45593999997E+02  0.45594000000E+02  0.51100000000E-03 0. -1.
         11   -1    0    0    0    0 -0.00000000000E+00 -0.00000000000E+00 -0.45593999997E+02  0.45594000000E+02  0.51100000000E-03 0.  1.
         23    2    1    2    0    0  0.00000000000E+00  0.00000000000E+00  0.00000000000E+00  0.91188000000E+02  0.91188000000E+02 0.  0.
    9900012    2    3    3    0    0  0.10905405528E+02  0.27325101410E+02 -0.34110474450E+02  0.46142317587E+02  0.99999984140E+01 0.  0.
         12    1    3    3    0    0 -0.10905405528E+02 -0.27325101410E+02  0.34110474450E+02  0.45045682413E+02  0.00000000000E+00 0. -1.
         11    1    4    4    0    0  0.56817780525E+00  0.85571990539E+01 -0.14336951967E+02  0.16706186687E+02  0.51100000000E-03 0. -1.
        -11    1    4    4    0    0  0.88857002561E+01  0.12525981560E+02 -0.13126933083E+02  0.20203273386E+02  0.51100000000E-03 0.  1.
         12    1    4    4    0    0  0.14515274663E+01  0.62419207966E+01 -0.66465894007E+01  0.92328575142E+01  0.00000000000E+00 0. -1.
</event>
<event>
 8    1  0.4447004E-009  0.9118800E+02  0.7816164E-02  0.1184000E+00
        -11   -1    0    0    0    0  0.00000000000E+00  0.00000000000E+00  0.45593999997E+02  0.45594000000E+02  0.51100000000E-03 0. -1.
         11   -1    0    0    0    0 -0.00000000000E+00 -0.00000000000E+00 -0.45593999997E+02  0.45594000000E+02  0.51100000000E-03 0.  1.
         23    2    1    2    0    0  0.00000000000E+00  0.00000000000E+00  0.00000000000E+00  0.91188000000E+02  0.91188000000E+02 0.  0.
    9900012    2    3    3    0    0 -0.18447719991E+02  0.14293230617E+02 -0.38529192221E+02  0.46142317992E+02  0.10000002109E+02 0.  0.
         12    1    3    3    0    0  0.18447719991E+02 -0.14293230617E+02  0.38529192221E+02  0.45045682008E+02  0.00000000000E+00 0. -1.
         11    1    4    4    0    0 -0.15732774745E+01  0.15654164007E+01 -0.94464009870E+00  0.24120687587E+01  0.51100000000E-03 0. -1.
        -11    1    4    4    0    0 -0.15764889799E+02  0.10278593932E+02 -0.27713532105E+02  0.33499568737E+02  0.51100000000E-03 0.  1.
        -12    1    4    4    0    0 -0.11095527174E+01  0.24492202836E+01 -0.98710200181E+01  0.10230680497E+02  0.00000000000E+00 0.  1.
</event>
<event>
 8    1  0.2962813E-009  0.9118800E+02  0.7816164E-02  0.1184000E+00
        -11   -1    0    0    0    0  0.00000000000E+00  0.00000000000E+00  0.45593999997E+02  0.45594000000E+02  0.51100000000E-03 0. -1.
         11   -1    0    0    0    0 -0.00000000000E+00 -0.00000000000E+00 -0.45593999997E+02  0.45594000000E+02  0.51100000000E-03 0.  1.
         23    2    1    2    0    0  0.35527136788E-14 -0.71054273576E-14 -0.35527136788E-14  0.91188000000E+02  0.91188000000E+02 0.  0.
    9900012    2    3    3    0    0 -0.19562809422E+02  0.30139806882E+02  0.27166190843E+02  0.46142318784E+02  0.10000009323E+02 0.  0.
        -12    1    3    3    0    0  0.19562809422E+02 -0.30139806882E+02 -0.27166190843E+02  0.45045681216E+02  0.00000000000E+00 0.  1.
         11    1    4    4    0    0 -0.12825360787E+01  0.24148516370E+00  0.13803603119E+01  0.18996338409E+01  0.51100000000E-03 0. -1.
        -11    1    4    4    0    0 -0.11129890975E+02  0.20605461768E+02  0.21399242080E+02  0.31723604613E+02  0.51100000000E-03 0.  1.
         12    1    4    4    0    0 -0.71503823677E+01  0.92928599505E+01  0.43865884510E+01  0.12519080330E+02  0.00000000000E+00 0. -1.
</event>
<event>
 8    1  0.2962813E-009  0.9118800E+02  0.7816164E-02  0.1184000E+00
        -11   -1    0    0    0    0  0.00000000000E+00  0.00000000000E+00  0.45593999997E+02  0.45594000000E+02  0.51100000000E-03 0. -1.
         11   -1    0    0    0    0 -0.00000000000E+00 -0.00000000000E+00 -0.45593999997E+02  0.45594000000E+02  0.51100000000E-03 0.  1.
         23    2    1    2    0    0  0.00000000000E+00  0.00000000000E+00  0.00000000000E+00  0.91188000000E+02  0.91188000000E+02 0.  0.
    9900012    2    3    3    0    0  0.56462195020E+01 -0.25719732055E+02  0.36547627757E+02  0.46142317562E+02  0.99999981868E+01 0.  0.
        -12    1    3    3    0    0 -0.56462195020E+01  0.25719732055E+02 -0.36547627757E+02  0.45045682438E+02  0.00000000000E+00 0.  1.
         11    1    4    4    0    0 -0.11833846650E+01 -0.68684458888E+01  0.13808354710E+02  0.15467598658E+02  0.51100000000E-03 0. -1.
        -11    1    4    4    0    0  0.21374991459E+01 -0.63242725509E+01  0.44796400524E+01  0.80394341316E+01  0.51100000000E-03 0.  1.
        -12    1    4    4    0    0  0.46921050211E+01 -0.12527013615E+02  0.18259632994E+02  0.22635284773E+02  0.00000000000E+00 0.  1.
</event>
<event>
 8    1  0.2962813E-009  0.9118800E+02  0.7816164E-02  0.1184000E+00
        -11   -1    0    0    0    0  0.00000000000E+00  0.00000000000E+00  0.45593999997E+02  0.45594000000E+02  0.51100000000E-03 0.  1.
         11   -1    0    0    0    0 -0.00000000000E+00 -0.00000000000E+00 -0.45593999997E+02  0.45594000000E+02  0.51100000000E-03 0. -1.
         23    2    1    2    0    0 -0.35527136788E-14  0.00000000000E+00  0.00000000000E+00  0.91188000000E+02  0.91188000000E+02 0.  0.
    9900012    2    3    3    0    0  0.29999354220E+02 -0.33517742432E+02  0.23902125846E+01  0.46142318436E+02  0.10000006156E+02 0.  0.
        -12    1    3    3    0    0 -0.29999354220E+02  0.33517742432E+02 -0.23902125846E+01  0.45045681564E+02  0.00000000000E+00 0.  1.
         11    1    4    4    0    0  0.10331773670E+02 -0.12087066125E+02  0.25923243913E+01  0.16110954680E+02  0.51100000000E-03 0. -1.
        -11    1    4    4    0    0  0.19839797834E+02 -0.19459494100E+02 -0.11985663219E+01  0.27815931590E+02  0.51100000000E-03 0.  1.
        -12    1    4    4    0    0 -0.17221728384E+00 -0.19711822064E+01  0.99645451514E+00  0.22154321665E+01  0.00000000000E+00 0.  1.
</event>
<event>
 8    1  0.2962813E-009  0.9118800E+02  0.7816164E-02  0.1184000E+00
        -11   -1    0    0    0    0  0.00000000000E+00  0.00000000000E+00  0.45593999997E+02  0.45594000000E+02  0.51100000000E-03 0. -1.
         11   -1    0    0    0    0 -0.00000000000E+00 -0.00000000000E+00 -0.45593999997E+02  0.45594000000E+02  0.51100000000E-03 0.  1.
         23    2    1    2    0    0 -0.17763568394E-14  0.00000000000E+00  0.00000000000E+00  0.91188000000E+02  0.91188000000E+02 0.  0.
    9900012    2    3    3    0    0 -0.15946935978E+02 -0.16330115775E+02 -0.38834726574E+02  0.46142318338E+02  0.10000005260E+02 0.  0.
         12    1    3    3    0    0  0.15946935978E+02  0.16330115775E+02  0.38834726574E+02  0.45045681662E+02  0.00000000000E+00 0. -1.
         11    1    4    4    0    0 -0.21589215850E+01 -0.11948702523E+01 -0.12363667473E+02  0.12607495031E+02  0.51100000000E-03 0. -1.
        -11    1    4    4    0    0 -0.54271646880E+01 -0.67707196938E+01 -0.12714898513E+02  0.15393680722E+02  0.51100000000E-03 0.  1.
        -12    1    4    4    0    0 -0.83608497050E+01 -0.83645258288E+01 -0.13756160589E+02  0.18141142585E+02  0.00000000000E+00 0.  1.
</event>
<event>
 8    1  0.2962813E-009  0.9118800E+02  0.7816164E-02  0.1184000E+00
        -11   -1    0    0    0    0  0.00000000000E+00  0.00000000000E+00  0.45593999997E+02  0.45594000000E+02  0.51100000000E-03 0. -1.
         11   -1    0    0    0    0 -0.00000000000E+00 -0.00000000000E+00 -0.45593999997E+02  0.45594000000E+02  0.51100000000E-03 0.  1.
         23    2    1    2    0    0  0.17763568394E-14 -0.71054273576E-14  0.00000000000E+00  0.91188000000E+02  0.91188000000E+02 0.  0.
    9900012    2    3    3    0    0 -0.14510350049E+02  0.41521707717E+02  0.97216609063E+01  0.46142321394E+02  0.10000033127E+02 0.  0.
        -12    1    3    3    0    0  0.14510350049E+02 -0.41521707717E+02 -0.97216609063E+01  0.45045678606E+02  0.00000000000E+00 0.  1.
         11    1    4    4    0    0 -0.77496961952E+01  0.27471146316E+02  0.43427172559E+01  0.28871800506E+02  0.51100000000E-03 0. -1.
        -11    1    4    4    0    0 -0.61002867391E+01  0.74040249578E+01  0.20598298066E+01  0.98120325605E+01  0.51100000000E-03 0.  1.
        -12    1    4    4    0    0 -0.66036711457E+00  0.66465364435E+01  0.33191138438E+01  0.74584883273E+01  0.00000000000E+00 0.  1.
</event>
<event>
 8    1  0.2962813E-009  0.9118800E+02  0.7816164E-02  0.1184000E+00
        -11   -1    0    0    0    0  0.00000000000E+00  0.00000000000E+00  0.45593999997E+02  0.45594000000E+02  0.51100000000E-03 0. -1.
         11   -1    0    0    0    0 -0.00000000000E+00 -0.00000000000E+00 -0.45593999997E+02  0.45594000000E+02  0.51100000000E-03 0.  1.
         23    2    1    2    0    0 -0.17763568394E-14 -0.71054273576E-14 -0.88817841970E-15  0.91188000000E+02  0.91188000000E+02 0.  0.
    9900012    2    3    3    0    0  0.10733124965E+02  0.43327929381E+02  0.60501310558E+01  0.46142317391E+02  0.99999966246E+01 0.  0.
         12    1    3    3    0    0 -0.10733124965E+02 -0.43327929381E+02 -0.60501310558E+01  0.45045682609E+02  0.00000000000E+00 0. -1.
         11    1    4    4    0    0  0.23219747680E+01  0.23298025352E+01  0.19438725155E+01  0.38207574241E+01  0.51100000000E-03 0. -1.
        -11    1    4    4    0    0  0.44019791617E+01  0.26678937202E+02  0.61161376775E+00  0.27046574320E+02  0.51100000000E-03 0.  1.
         12    1    4    4    0    0  0.40091710356E+01  0.14319189643E+02  0.34946447726E+01  0.15274985647E+02  0.00000000000E+00 0. -1.
</event>
<event>
 8    1  0.2962813E-009  0.9118800E+02  0.7816164E-02  0.1184000E+00
        -11   -1    0    0    0    0  0.00000000000E+00  0.00000000000E+00  0.45593999997E+02  0.45594000000E+02  0.51100000000E-03 0. -1.
         11   -1    0    0    0    0 -0.00000000000E+00 -0.00000000000E+00 -0.45593999997E+02  0.45594000000E+02  0.51100000000E-03 0.  1.
         23    2    1    2    0    0  0.00000000000E+00  0.00000000000E+00  0.55511151231E-16  0.91188000000E+02  0.91188000000E+02 0.  0.
    9900012    2    3    3    0    0 -0.43948030409E+02  0.98822554643E+01  0.15500306248E+00  0.46142330110E+02  0.10000112610E+02 0.  0.
        -12    1    3    3    0    0  0.43948030409E+02 -0.98822554643E+01 -0.15500306248E+00  0.45045669890E+02  0.00000000000E+00 0.  1.
         11    1    4    4    0    0 -0.24345631657E+01  0.26921703918E+01  0.14486423643E+01  0.39081254058E+01  0.51100000000E-03 0. -1.
        -11    1    4    4    0    0 -0.69136496791E+01  0.16828595971E+01 -0.10881290698E+01  0.71982354395E+01  0.51100000000E-03 0.  1.
         12    1    4    4    0    0 -0.34599817564E+02  0.55072254753E+01 -0.20551023206E+00  0.35035969265E+02  0.00000000000E+00 0. -1.
</event>
<event>
 8    1  0.2962813E-009  0.9118800E+02  0.7816164E-02  0.1184000E+00
        -11   -1    0    0    0    0  0.00000000000E+00  0.00000000000E+00  0.45593999997E+02  0.45594000000E+02  0.51100000000E-03 0. -1.
         11   -1    0    0    0    0 -0.00000000000E+00 -0.00000000000E+00 -0.45593999997E+02  0.45594000000E+02  0.51100000000E-03 0.  1.
         23    2    1    2    0    0 -0.17763568394E-14  0.00000000000E+00  0.00000000000E+00  0.91188000000E+02  0.91188000000E+02 0.  0.
    9900012    2    3    3    0    0 -0.13910279262E+02  0.41148826668E+02 -0.11932800898E+02  0.46142317160E+02  0.99999945169E+01 0.  0.
         12    1    3    3    0    0  0.13910279262E+02 -0.41148826668E+02  0.11932800898E+02  0.45045682840E+02  0.00000000000E+00 0. -1.
         11    1    4    4    0    0 -0.26290640082E+00  0.74351640559E+01  0.23276242304E+00  0.74434510088E+01  0.51100000000E-03 0. -1.
        -11    1    4    4    0    0 -0.67959314957E+01  0.10461887680E+02 -0.47602443776E+01  0.13352741498E+02  0.51100000000E-03 0.  1.
         12    1    4    4    0    0 -0.68514413657E+01  0.23251774932E+02 -0.74053189433E+01  0.25346124653E+02  0.00000000000E+00 0. -1.
</event>
<event>
 8    1  0.2962813E-009  0.9118800E+02  0.7816164E-02  0.1184000E+00
        -11   -1    0    0    0    0  0.00000000000E+00  0.00000000000E+00  0.45593999997E+02  0.45594000000E+02  0.51100000000E-03 0. -1.
         11   -1    0    0    0    0 -0.00000000000E+00 -0.00000000000E+00 -0.45593999997E+02  0.45594000000E+02  0.51100000000E-03 0.  1.
         23    2    1    2    0    0  0.00000000000E+00 -0.22204460493E-15 -0.71054273576E-14  0.91188000000E+02  0.91188000000E+02 0.  0.
    9900012    2    3    3    0    0 -0.22088196817E+02 -0.15269363188E+01  0.39228730485E+02  0.46142320200E+02  0.10000022243E+02 0.  0.
        -12    1    3    3    0    0  0.22088196817E+02  0.15269363188E+01 -0.39228730485E+02  0.45045679800E+02  0.00000000000E+00 0.  1.
         11    1    4    4    0    0 -0.30606360999E+01 -0.16389603733E+00  0.63254542385E+01  0.70289207445E+01  0.51100000000E-03 0.  1.
        -11    1    4    4    0    0 -0.80983086977E+01  0.15598540737E+01  0.21600592368E+02  0.23121447606E+02  0.51100000000E-03 0. -1.
        -12    1    4    4    0    0 -0.10929252019E+02 -0.29228943552E+01  0.11302683879E+02  0.15991951850E+02  0.00000000000E+00 0.  1.
</event>
<event>
 8    1  0.2962813E-009  0.9118800E+02  0.7816164E-02  0.1184000E+00
        -11   -1    0    0    0    0  0.00000000000E+00  0.00000000000E+00  0.45593999997E+02  0.45594000000E+02  0.51100000000E-03 0.  1.
         11   -1    0    0    0    0 -0.00000000000E+00 -0.00000000000E+00 -0.45593999997E+02  0.45594000000E+02  0.51100000000E-03 0. -1.
         23    2    1    2    0    0 -0.17763568394E-14  0.71054273576E-14  0.00000000000E+00  0.91188000000E+02  0.91188000000E+02 0.  0.
    9900012    2    3    3    0    0 -0.12586143223E+02 -0.42316788553E+02  0.89438209007E+01  0.46142317332E+02  0.99999960911E+01 0.  0.
         12    1    3    3    0    0  0.12586143223E+02  0.42316788553E+02 -0.89438209007E+01  0.45045682668E+02  0.00000000000E+00 0. -1.
         11    1    4    4    0    0 -0.10402779186E+02 -0.40630548501E+02  0.82146753560E+01  0.42738041342E+02  0.51100000000E-03 0.  1.
        -11    1    4    4    0    0 -0.23266904039E+01 -0.11822547760E+01  0.10234267856E+01  0.28033225355E+01  0.51100000000E-03 0. -1.
        -12    1    4    4    0    0  0.14332636736E+00 -0.50398527603E+00 -0.29428124096E+00  0.60095345478E+00  0.00000000000E+00 0.  1.
</event>
<event>
 8    1  0.2962813E-009  0.9118800E+02  0.7816164E-02  0.1184000E+00
        -11   -1    0    0    0    0  0.00000000000E+00  0.00000000000E+00  0.45593999997E+02  0.45594000000E+02  0.51100000000E-03 0. -1.
         11   -1    0    0    0    0 -0.00000000000E+00 -0.00000000000E+00 -0.45593999997E+02  0.45594000000E+02  0.51100000000E-03 0.  1.
         23    2    1    2    0    0  0.00000000000E+00  0.44408920985E-15  0.00000000000E+00  0.91188000000E+02  0.91188000000E+02 0.  0.
    9900012    2    3    3    0    0  0.97971255752E+01  0.19513176933E+01  0.43924050134E+02  0.46142317738E+02  0.99999997883E+01 0.  0.
        -12    1    3    3    0    0 -0.97971255752E+01 -0.19513176933E+01 -0.43924050134E+02  0.45045682262E+02  0.00000000000E+00 0.  1.
         11    1    4    4    0    0 -0.97120678211E+00 -0.20884094619E+01  0.49763311301E+01  0.54834814189E+01  0.51100000000E-03 0. -1.
        -11    1    4    4    0    0  0.43078963201E+01  0.26305808742E+01  0.15980389391E+02  0.16758602919E+02  0.51100000000E-03 0.  1.
         12    1    4    4    0    0  0.64604360372E+01  0.14091462809E+01  0.22967329613E+02  0.23900233400E+02  0.00000000000E+00 0. -1.
</event>
<event>
 8    1  0.2962813E-009  0.9118800E+02  0.7816164E-02  0.1184000E+00
        -11   -1    0    0    0    0  0.00000000000E+00  0.00000000000E+00  0.45593999997E+02  0.45594000000E+02  0.51100000000E-03 0. -1.
         11   -1    0    0    0    0 -0.00000000000E+00 -0.00000000000E+00 -0.45593999997E+02  0.45594000000E+02  0.51100000000E-03 0.  1.
         23    2    1    2    0    0  0.00000000000E+00  0.00000000000E+00  0.00000000000E+00  0.91188000000E+02  0.91188000000E+02 0.  0.
    9900012    2    3    3    0    0 -0.16581754190E+02 -0.33040275147E+02 -0.25739058660E+02  0.46142317693E+02  0.99999993783E+01 0.  0.
         12    1    3    3    0    0  0.16581754190E+02  0.33040275147E+02  0.25739058660E+02  0.45045682307E+02  0.00000000000E+00 0. -1.
         11    1    4    4    0    0 -0.44517738340E+01 -0.40228127705E+01 -0.33706797373E+01  0.68820632813E+01  0.51100000000E-03 0. -1.
        -11    1    4    4    0    0 -0.52612346355E+01 -0.10879697225E+02 -0.12904006928E+02  0.17679417316E+02  0.51100000000E-03 0.  1.
        -12    1    4    4    0    0 -0.68687457201E+01 -0.18137765152E+02 -0.94643719949E+01  0.21580837095E+02  0.00000000000E+00 0.  1.
</event>
<event>
 8    1  0.2962813E-009  0.9118800E+02  0.7816164E-02  0.1184000E+00
        -11   -1    0    0    0    0  0.00000000000E+00  0.00000000000E+00  0.45593999997E+02  0.45594000000E+02  0.51100000000E-03 0. -1.
         11   -1    0    0    0    0 -0.00000000000E+00 -0.00000000000E+00 -0.45593999997E+02  0.45594000000E+02  0.51100000000E-03 0.  1.
         23    2    1    2    0    0  0.00000000000E+00  0.00000000000E+00  0.00000000000E+00  0.91188000000E+02  0.91188000000E+02 0.  0.
    9900012    2    3    3    0    0 -0.93103911811E+01 -0.23444803866E+02 -0.37319851418E+02  0.46142317387E+02  0.99999965842E+01 0.  0.
         12    1    3    3    0    0  0.93103911811E+01  0.23444803866E+02  0.37319851418E+02  0.45045682613E+02  0.00000000000E+00 0. -1.
         11    1    4    4    0    0 -0.34991113631E+01 -0.97867055261E+01 -0.10257337774E+02  0.14602614967E+02  0.51100000000E-03 0. -1.
        -11    1    4    4    0    0 -0.52180834265E+01 -0.49861488433E+01 -0.15271282936E+02  0.16890889785E+02  0.51100000000E-03 0.  1.
        -12    1    4    4    0    0 -0.59319639152E+00 -0.86719494970E+01 -0.11791230707E+02  0.14648812635E+02  0.00000000000E+00 0.  1.
</event>
<event>
 8    1  0.2962813E-009  0.9118800E+02  0.7816164E-02  0.1184000E+00
        -11   -1    0    0    0    0  0.00000000000E+00  0.00000000000E+00  0.45593999997E+02  0.45594000000E+02  0.51100000000E-03 0. -1.
         11   -1    0    0    0    0 -0.00000000000E+00 -0.00000000000E+00 -0.45593999997E+02  0.45594000000E+02  0.51100000000E-03 0.  1.
         23    2    1    2    0    0 -0.44408920985E-15  0.00000000000E+00  0.00000000000E+00  0.91188000000E+02  0.91188000000E+02 0.  0.
    9900012    2    3    3    0    0  0.26159511672E+01 -0.16323173883E+02 -0.41902557479E+02  0.46142317306E+02  0.99999958508E+01 0.  0.
         12    1    3    3    0    0 -0.26159511672E+01  0.16323173883E+02  0.41902557479E+02  0.45045682694E+02  0.00000000000E+00 0. -1.
         11    1    4    4    0    0  0.25264360033E+01 -0.91894573774E+00 -0.61592723819E+01  0.67204149190E+01  0.51100000000E-03 0. -1.
        -11    1    4    4    0    0 -0.25141765344E+01 -0.29244764403E+01 -0.92099179960E+01  0.99848002409E+01  0.51100000000E-03 0.  1.
         12    1    4    4    0    0  0.26036916982E+01 -0.12479751705E+02 -0.26533367101E+02  0.29437102146E+02  0.00000000000E+00 0. -1.
</event>
<event>
 8    1  0.2962813E-009  0.9118800E+02  0.7816164E-02  0.1184000E+00
        -11   -1    0    0    0    0  0.00000000000E+00  0.00000000000E+00  0.45593999997E+02  0.45594000000E+02  0.51100000000E-03 0. -1.
         11   -1    0    0    0    0 -0.00000000000E+00 -0.00000000000E+00 -0.45593999997E+02  0.45594000000E+02  0.51100000000E-03 0.  1.
         23    2    1    2    0    0  0.00000000000E+00 -0.71054273576E-14  0.00000000000E+00  0.91188000000E+02  0.91188000000E+02 0.  0.
    9900012    2    3    3    0    0 -0.13060090343E+02 -0.32482002451E+02  0.28345492368E+02  0.46142318957E+02  0.10000010909E+02 0.  0.
        -12    1    3    3    0    0  0.13060090343E+02  0.32482002451E+02 -0.28345492368E+02  0.45045681043E+02  0.00000000000E+00 0.  1.
         11    1    4    4    0    0 -0.18590839333E+01 -0.79115636720E+01  0.11984788578E+02  0.14480476178E+02  0.51100000000E-03 0. -1.
        -11    1    4    4    0    0 -0.42782853465E+01 -0.12049210095E+02  0.82194028338E+01  0.15200189888E+02  0.51100000000E-03 0.  1.
         12    1    4    4    0    0 -0.69227210636E+01 -0.12521228684E+02  0.81413009563E+01  0.16461652892E+02  0.00000000000E+00 0. -1.
</event>
<event>
 8    1  0.2962813E-009  0.9118800E+02  0.7816164E-02  0.1184000E+00
        -11   -1    0    0    0    0  0.00000000000E+00  0.00000000000E+00  0.45593999997E+02  0.45594000000E+02  0.51100000000E-03 0.  1.
         11   -1    0    0    0    0 -0.00000000000E+00 -0.00000000000E+00 -0.45593999997E+02  0.45594000000E+02  0.51100000000E-03 0. -1.
         23    2    1    2    0    0  0.00000000000E+00  0.00000000000E+00  0.00000000000E+00  0.91188000000E+02  0.91188000000E+02 0.  0.
    9900012    2    3    3    0    0 -0.27541435093E+02 -0.33757809696E+02  0.11445221383E+02  0.46142318132E+02  0.10000003383E+02 0.  0.
        -12    1    3    3    0    0  0.27541435093E+02  0.33757809696E+02 -0.11445221383E+02  0.45045681868E+02  0.00000000000E+00 0.  1.
         11    1    4    4    0    0 -0.68803274143E+01 -0.13138645995E+02  0.93934210946E+00  0.14860864301E+02  0.51100000000E-03 0. -1.
        -11    1    4    4    0    0 -0.56194198923E+01 -0.48463084114E+01  0.44817435966E+01  0.86689452110E+01  0.51100000000E-03 0.  1.
         12    1    4    4    0    0 -0.15041687787E+02 -0.15772855289E+02  0.60241356767E+01  0.22612508620E+02  0.00000000000E+00 0. -1.
</event>
<event>
 8    1  0.2962813E-009  0.9118800E+02  0.7816164E-02  0.1184000E+00
        -11   -1    0    0    0    0  0.00000000000E+00  0.00000000000E+00  0.45593999997E+02  0.45594000000E+02  0.51100000000E-03 0. -1.
         11   -1    0    0    0    0 -0.00000000000E+00 -0.00000000000E+00 -0.45593999997E+02  0.45594000000E+02  0.51100000000E-03 0.  1.
         23    2    1    2    0    0 -0.71054273576E-14  0.88817841970E-15 -0.35527136788E-14  0.91188000000E+02  0.91188000000E+02 0.  0.
    9900012    2    3    3    0    0 -0.37973128581E+02  0.25017165159E+01 -0.24101788102E+02  0.46142320191E+02  0.10000022158E+02 0.  0.
         12    1    3    3    0    0  0.37973128581E+02 -0.25017165159E+01  0.24101788102E+02  0.45045679809E+02  0.00000000000E+00 0. -1.
         11    1    4    4    0    0 -0.23929106592E+02  0.55326830664E+01 -0.11963934111E+02  0.27319378541E+02  0.51100000000E-03 0. -1.
        -11    1    4    4    0    0 -0.74837400515E+01 -0.12358130482E+01 -0.63651851554E+01  0.99019786595E+01  0.51100000000E-03 0.  1.
         12    1    4    4    0    0 -0.65602819374E+01 -0.17951535023E+01 -0.57726688354E+01  0.89209629906E+01  0.00000000000E+00 0. -1.
</event>
<event>
 8    1  0.2962813E-009  0.9118800E+02  0.7816164E-02  0.1184000E+00
        -11   -1    0    0    0    0  0.00000000000E+00  0.00000000000E+00  0.45593999997E+02  0.45594000000E+02  0.51100000000E-03 0. -1.
         11   -1    0    0    0    0 -0.00000000000E+00 -0.00000000000E+00 -0.45593999997E+02  0.45594000000E+02  0.51100000000E-03 0.  1.
         23    2    1    2    0    0  0.00000000000E+00  0.00000000000E+00  0.88817841970E-15  0.91188000000E+02  0.91188000000E+02 0.  0.
    9900012    2    3    3    0    0 -0.34099817448E+02 -0.29051636276E+02 -0.47242230400E+01  0.46142318702E+02  0.10000008575E+02 0.  0.
         12    1    3    3    0    0  0.34099817448E+02  0.29051636276E+02  0.47242230400E+01  0.45045681298E+02  0.00000000000E+00 0. -1.
         11    1    4    4    0    0 -0.21488928771E+02 -0.19914865982E+02 -0.22533151266E+01  0.29384577181E+02  0.51100000000E-03 0. -1.
        -11    1    4    4    0    0 -0.12665424476E+02 -0.95286188774E+01 -0.17636508605E+01  0.15947351488E+02  0.51100000000E-03 0.  1.
         12    1    4    4    0    0  0.54535798492E-01  0.39184858327E+00 -0.70725705291E+00  0.81039003228E+00  0.00000000000E+00 0. -1.
</event>
<event>
 8    1  0.2962813E-009  0.9118800E+02  0.7816164E-02  0.1184000E+00
        -11   -1    0    0    0    0  0.00000000000E+00  0.00000000000E+00  0.45593999997E+02  0.45594000000E+02  0.51100000000E-03 0. -1.
         11   -1    0    0    0    0 -0.00000000000E+00 -0.00000000000E+00 -0.45593999997E+02  0.45594000000E+02  0.51100000000E-03 0.  1.
         23    2    1    2    0    0  0.00000000000E+00  0.35527136788E-14  0.35527136788E-14  0.91188000000E+02  0.91188000000E+02 0.  0.
    9900012    2    3    3    0    0  0.12775445238E+02  0.30786458326E+02 -0.30300090989E+02  0.46142317286E+02  0.99999956634E+01 0.  0.
         12    1    3    3    0    0 -0.12775445238E+02 -0.30786458326E+02  0.30300090989E+02  0.45045682714E+02  0.00000000000E+00 0. -1.
         11    1    4    4    0    0  0.39608274639E+01  0.14637918089E+02 -0.12354206385E+02  0.19559734555E+02  0.51100000000E-03 0.  1.
        -11    1    4    4    0    0  0.71458878008E+01  0.16305875449E+02 -0.15427681270E+02  0.23557560066E+02  0.51100000000E-03 0. -1.
         12    1    4    4    0    0  0.16687299729E+01 -0.15733521258E+00 -0.25182033347E+01  0.30250226654E+01  0.00000000000E+00 0. -1.
</event>
<event>
 8    1  0.3284330E-009  0.9118800E+02  0.7816164E-02  0.1184000E+00
        -11   -1    0    0    0    0  0.00000000000E+00  0.00000000000E+00  0.45593999997E+02  0.45594000000E+02  0.51100000000E-03 0. -1.
         11   -1    0    0    0    0 -0.00000000000E+00 -0.00000000000E+00 -0.45593999997E+02  0.45594000000E+02  0.51100000000E-03 0.  1.
         23    2    1    2    0    0  0.17763568394E-14  0.00000000000E+00 -0.71054273576E-14  0.91188000000E+02  0.91188000000E+02 0.  0.
    9900012    2    3    3    0    0  0.13684169663E+02 -0.13699234766E+02 -0.40671709800E+02  0.46142317514E+02  0.99999977479E+01 0.  0.
         12    1    3    3    0    0 -0.13684169663E+02  0.13699234766E+02  0.40671709800E+02  0.45045682486E+02  0.00000000000E+00 0. -1.
         11    1    4    4    0    0  0.29489931179E+01  0.10830184822E+01 -0.68470895526E+01  0.75334006295E+01  0.51100000000E-03 0. -1.
        -11    1    4    4    0    0  0.10907083793E+02 -0.14584011377E+02 -0.33725519865E+02  0.38328430115E+02  0.51100000000E-03 0.  1.
        -12    1    4    4    0    0 -0.17190724876E+00 -0.19824187131E+00 -0.99100383239E-01  0.28048676917E+00  0.00000000000E+00 0.  1.
</event>
<event>
 8    1  0.2962813E-009  0.9118800E+02  0.7816164E-02  0.1184000E+00
        -11   -1    0    0    0    0  0.00000000000E+00  0.00000000000E+00  0.45593999997E+02  0.45594000000E+02  0.51100000000E-03 0. -1.
         11   -1    0    0    0    0 -0.00000000000E+00 -0.00000000000E+00 -0.45593999997E+02  0.45594000000E+02  0.51100000000E-03 0.  1.
         23    2    1    2    0    0  0.00000000000E+00  0.00000000000E+00  0.71054273576E-14  0.91188000000E+02  0.91188000000E+02 0.  0.
    9900012    2    3    3    0    0 -0.33237578703E+02  0.83599451333E+01  0.29231626470E+02  0.46142319777E+02  0.10000018385E+02 0.  0.
        -12    1    3    3    0    0  0.33237578703E+02 -0.83599451333E+01 -0.29231626470E+02  0.45045680223E+02  0.00000000000E+00 0.  1.
         11    1    4    4    0    0 -0.14979629890E+02  0.85990788454E+01  0.12844139046E+02  0.21524529651E+02  0.51100000000E-03 0. -1.
        -11    1    4    4    0    0 -0.15817383580E+02 -0.32651052709E+00  0.13212900003E+02  0.20612543734E+02  0.51100000000E-03 0.  1.
         12    1    4    4    0    0 -0.24405652327E+01  0.87376814936E-01  0.31745874210E+01  0.40052463915E+01  0.00000000000E+00 0. -1.
</event>
<event>
 8    1  0.2962813E-009  0.9118800E+02  0.7816164E-02  0.1184000E+00
        -11   -1    0    0    0    0  0.00000000000E+00  0.00000000000E+00  0.45593999997E+02  0.45594000000E+02  0.51100000000E-03 0. -1.
         11   -1    0    0    0    0 -0.00000000000E+00 -0.00000000000E+00 -0.45593999997E+02  0.45594000000E+02  0.51100000000E-03 0.  1.
         23    2    1    2    0    0  0.00000000000E+00  0.88817841970E-15  0.00000000000E+00  0.91188000000E+02  0.91188000000E+02 0.  0.
    9900012    2    3    3    0    0  0.32036078848E+02  0.33364753269E+01  0.31490809813E+02  0.46142317430E+02  0.99999969765E+01 0.  0.
        -12    1    3    3    0    0 -0.32036078848E+02 -0.33364753269E+01 -0.31490809813E+02  0.45045682570E+02  0.00000000000E+00 0.  1.
         11    1    4    4    0    0  0.21161212648E+02  0.50372236953E+01  0.25016061590E+02  0.33150774969E+02  0.51100000000E-03 0. -1.
        -11    1    4    4    0    0  0.69126513488E+01 -0.97640792096E+00  0.27434734287E+01  0.75009844563E+01  0.51100000000E-03 0.  1.
         12    1    4    4    0    0  0.39622148513E+01 -0.72434044743E+00  0.37312747938E+01  0.54905580043E+01  0.00000000000E+00 0. -1.
</event>
<event>
 8    1  0.2962813E-009  0.9118800E+02  0.7816164E-02  0.1184000E+00
        -11   -1    0    0    0    0  0.00000000000E+00  0.00000000000E+00  0.45593999997E+02  0.45594000000E+02  0.51100000000E-03 0. -1.
         11   -1    0    0    0    0 -0.00000000000E+00 -0.00000000000E+00 -0.45593999997E+02  0.45594000000E+02  0.51100000000E-03 0.  1.
         23    2    1    2    0    0  0.00000000000E+00  0.00000000000E+00  0.00000000000E+00  0.91188000000E+02  0.91188000000E+02 0.  0.
    9900012    2    3    3    0    0 -0.41272198563E+02 -0.74303959292E+01  0.16447136383E+02  0.46142318152E+02  0.10000003567E+02 0.  0.
        -12    1    3    3    0    0  0.41272198563E+02  0.74303959292E+01 -0.16447136383E+02  0.45045681848E+02  0.00000000000E+00 0.  1.
         11    1    4    4    0    0 -0.55911889322E+01 -0.20045093486E+01  0.22355119532E+01  0.63464135823E+01  0.51100000000E-03 0. -1.
        -11    1    4    4    0    0 -0.23203221671E+02  0.62814648715E+00  0.75392412395E+01  0.24405413798E+02  0.51100000000E-03 0.  1.
        -12    1    4    4    0    0 -0.12477787961E+02 -0.60540330677E+01  0.66723831902E+01  0.15390490772E+02  0.00000000000E+00 0.  1.
</event>
<event>
 8    1  0.2962813E-009  0.9118800E+02  0.7816164E-02  0.1184000E+00
        -11   -1    0    0    0    0  0.00000000000E+00  0.00000000000E+00  0.45593999997E+02  0.45594000000E+02  0.51100000000E-03 0. -1.
         11   -1    0    0    0    0 -0.00000000000E+00 -0.00000000000E+00 -0.45593999997E+02  0.45594000000E+02  0.51100000000E-03 0.  1.
         23    2    1    2    0    0  0.00000000000E+00 -0.11102230246E-14  0.00000000000E+00  0.91188000000E+02  0.91188000000E+02 0.  0.
    9900012    2    3    3    0    0 -0.40168771331E+02 -0.15645501885E+01  0.20325734175E+02  0.46142317885E+02  0.10000001126E+02 0.  0.
        -12    1    3    3    0    0  0.40168771331E+02  0.15645501885E+01 -0.20325734175E+02  0.45045682115E+02  0.00000000000E+00 0.  1.
         11    1    4    4    0    0 -0.11813374583E+02 -0.40497669044E+01  0.39743532325E+01  0.13105415479E+02  0.51100000000E-03 0. -1.
        -11    1    4    4    0    0 -0.18491472498E+01 -0.55352301849E+00  0.18363702282E+01  0.26642051647E+01  0.51100000000E-03 0.  1.
         12    1    4    4    0    0 -0.26506249498E+02  0.30387397344E+01  0.14515010714E+02  0.30372697241E+02  0.00000000000E+00 0. -1.
</event>
<event>
 8    1  0.2962813E-009  0.9118800E+02  0.7816164E-02  0.1184000E+00
        -11   -1    0    0    0    0  0.00000000000E+00  0.00000000000E+00  0.45593999997E+02  0.45594000000E+02  0.51100000000E-03 0. -1.
         11   -1    0    0    0    0 -0.00000000000E+00 -0.00000000000E+00 -0.45593999997E+02  0.45594000000E+02  0.51100000000E-03 0.  1.
         23    2    1    2    0    0 -0.35527136788E-14  0.17763568394E-14  0.71054273576E-14  0.91188000000E+02  0.91188000000E+02 0.  0.
    9900012    2    3    3    0    0 -0.18654003905E+02  0.10447461035E+02  0.39648355887E+02  0.46142318428E+02  0.10000006077E+02 0.  0.
        -12    1    3    3    0    0  0.18654003905E+02 -0.10447461035E+02 -0.39648355887E+02  0.45045681572E+02  0.00000000000E+00 0.  1.
         11    1    4    4    0    0 -0.85606946813E+01  0.42098457999E+01  0.20238190007E+02  0.22373927462E+02  0.51100000000E-03 0. -1.
        -11    1    4    4    0    0 -0.84705661371E+00  0.23723623251E+01  0.82022382458E+00  0.26492216389E+01  0.51100000000E-03 0.  1.
        -12    1    4    4    0    0 -0.92462526102E+01  0.38652529102E+01  0.18589942056E+02  0.21119169326E+02  0.00000000000E+00 0.  1.
</event>
<event>
 8    1  0.2962813E-009  0.9118800E+02  0.7816164E-02  0.1184000E+00
        -11   -1    0    0    0    0  0.00000000000E+00  0.00000000000E+00  0.45593999997E+02  0.45594000000E+02  0.51100000000E-03 0. -1.
         11   -1    0    0    0    0 -0.00000000000E+00 -0.00000000000E+00 -0.45593999997E+02  0.45594000000E+02  0.51100000000E-03 0.  1.
         23    2    1    2    0    0  0.17763568394E-14  0.00000000000E+00  0.00000000000E+00  0.91188000000E+02  0.91188000000E+02 0.  0.
    9900012    2    3    3    0    0  0.10759523329E+02 -0.36744416904E+01 -0.43587203449E+02  0.46142321311E+02  0.10000032374E+02 0.  0.
         12    1    3    3    0    0 -0.10759523329E+02  0.36744416904E+01  0.43587203449E+02  0.45045678689E+02  0.00000000000E+00 0. -1.
         11    1    4    4    0    0  0.24505715243E+01  0.27024819762E+01 -0.59870655970E+01  0.70109674333E+01  0.51100000000E-03 0. -1.
        -11    1    4    4    0    0  0.42248357206E+01 -0.30966629153E+01 -0.13779585251E+02  0.14741625691E+02  0.51100000000E-03 0.  1.
         12    1    4    4    0    0  0.40841160841E+01 -0.32802607513E+01 -0.23820552601E+02  0.24389728187E+02  0.00000000000E+00 0. -1.
</event>
<event>
 8    1  0.3116788E-009  0.9118800E+02  0.7816164E-02  0.1184000E+00
        -11   -1    0    0    0    0  0.00000000000E+00  0.00000000000E+00  0.45593999997E+02  0.45594000000E+02  0.51100000000E-03 0. -1.
         11   -1    0    0    0    0 -0.00000000000E+00 -0.00000000000E+00 -0.45593999997E+02  0.45594000000E+02  0.51100000000E-03 0.  1.
         23    2    1    2    0    0  0.00000000000E+00  0.00000000000E+00  0.71054273576E-14  0.91188000000E+02  0.91188000000E+02 0.  0.
    9900012    2    3    3    0    0 -0.12528986993E+02  0.53514966265E+01 -0.42935992550E+02  0.46142317771E+02  0.10000000089E+02 0.  0.
         12    1    3    3    0    0  0.12528986993E+02 -0.53514966265E+01  0.42935992550E+02  0.45045682229E+02  0.00000000000E+00 0. -1.
         11    1    4    4    0    0 -0.32188200692E+01  0.33516467404E+01 -0.11698799294E+02  0.12587940407E+02  0.51100000000E-03 0. -1.
        -11    1    4    4    0    0  0.68791226487E+00 -0.40768201979E+00 -0.15424981596E+00  0.81438392682E+00  0.51100000000E-03 0.  1.
        -12    1    4    4    0    0 -0.99980791891E+01  0.24075319059E+01 -0.31082943440E+02  0.32739993437E+02  0.00000000000E+00 0.  1.
</event>
<event>
 8    1  0.2962813E-009  0.9118800E+02  0.7816164E-02  0.1184000E+00
        -11   -1    0    0    0    0  0.00000000000E+00  0.00000000000E+00  0.45593999997E+02  0.45594000000E+02  0.51100000000E-03 0. -1.
         11   -1    0    0    0    0 -0.00000000000E+00 -0.00000000000E+00 -0.45593999997E+02  0.45594000000E+02  0.51100000000E-03 0.  1.
         23    2    1    2    0    0  0.71054273576E-14  0.00000000000E+00  0.17763568394E-14  0.91188000000E+02  0.91188000000E+02 0.  0.
    9900012    2    3    3    0    0 -0.42361737739E+02 -0.83452396626E+01 -0.12843430259E+02  0.46142317076E+02  0.99999937532E+01 0.  0.
         12    1    3    3    0    0  0.42361737739E+02  0.83452396626E+01  0.12843430259E+02  0.45045682924E+02  0.00000000000E+00 0. -1.
         11    1    4    4    0    0 -0.22254330751E+02 -0.53641673454E+00 -0.33996288345E+01  0.22518891104E+02  0.51100000000E-03 0. -1.
        -11    1    4    4    0    0 -0.51638996854E+01 -0.17716028685E+01 -0.15378433581E+01  0.56718073962E+01  0.51100000000E-03 0.  1.
         12    1    4    4    0    0 -0.14943507303E+02 -0.60372200596E+01 -0.79059580663E+01  0.17951618576E+02  0.00000000000E+00 0. -1.
</event>
<event>
 8    1  0.2962813E-009  0.9118800E+02  0.7816164E-02  0.1184000E+00
        -11   -1    0    0    0    0  0.00000000000E+00  0.00000000000E+00  0.45593999997E+02  0.45594000000E+02  0.51100000000E-03 0. -1.
         11   -1    0    0    0    0 -0.00000000000E+00 -0.00000000000E+00 -0.45593999997E+02  0.45594000000E+02  0.51100000000E-03 0.  1.
         23    2    1    2    0    0 -0.44408920985E-15  0.00000000000E+00  0.14210854715E-13  0.91188000000E+02  0.91188000000E+02 0.  0.
    9900012    2    3    3    0    0 -0.11701392636E+01 -0.17754155790E+02  0.41382777863E+02  0.46142316773E+02  0.99999909893E+01 0.  0.
        -12    1    3    3    0    0  0.11701392636E+01  0.17754155790E+02 -0.41382777863E+02  0.45045683227E+02  0.00000000000E+00 0.  1.
         11    1    4    4    0    0 -0.62221000627E+00 -0.30636741715E+01  0.44166783206E+01  0.54111267190E+01  0.51100000000E-03 0. -1.
        -11    1    4    4    0    0 -0.18022976747E+01 -0.14713117033E+02  0.36496065555E+02  0.39391457081E+02  0.51100000000E-03 0.  1.
        -12    1    4    4    0    0  0.12543684173E+01  0.22635414256E-01  0.47003398754E+00  0.13397329725E+01  0.00000000000E+00 0.  1.
</event>
<event>
 8    1  0.2962813E-009  0.9118800E+02  0.7816164E-02  0.1184000E+00
        -11   -1    0    0    0    0  0.00000000000E+00  0.00000000000E+00  0.45593999997E+02  0.45594000000E+02  0.51100000000E-03 0. -1.
         11   -1    0    0    0    0 -0.00000000000E+00 -0.00000000000E+00 -0.45593999997E+02  0.45594000000E+02  0.51100000000E-03 0.  1.
         23    2    1    2    0    0  0.00000000000E+00  0.00000000000E+00  0.00000000000E+00  0.91188000000E+02  0.91188000000E+02 0.  0.
    9900012    2    3    3    0    0 -0.23415039235E+02 -0.33837327935E+02 -0.18327156771E+02  0.46142317638E+02  0.99999988795E+01 0.  0.
         12    1    3    3    0    0  0.23415039235E+02  0.33837327935E+02  0.18327156771E+02  0.45045682362E+02  0.00000000000E+00 0. -1.
         11    1    4    4    0    0 -0.43644488802E+01 -0.83727537244E+01 -0.76742907640E+01  0.12167421993E+02  0.51100000000E-03 0. -1.
        -11    1    4    4    0    0 -0.11379467223E+02 -0.11261649946E+02 -0.39060897285E+01  0.16479519745E+02  0.51100000000E-03 0.  1.
         12    1    4    4    0    0 -0.76711231313E+01 -0.14202924265E+02 -0.67467762781E+01  0.17495375901E+02  0.00000000000E+00 0. -1.
</event>
<event>
 8    1  0.2962813E-009  0.9118800E+02  0.7816164E-02  0.1184000E+00
        -11   -1    0    0    0    0  0.00000000000E+00  0.00000000000E+00  0.45593999997E+02  0.45594000000E+02  0.51100000000E-03 0. -1.
         11   -1    0    0    0    0 -0.00000000000E+00 -0.00000000000E+00 -0.45593999997E+02  0.45594000000E+02  0.51100000000E-03 0.  1.
         23    2    1    2    0    0  0.00000000000E+00  0.00000000000E+00  0.00000000000E+00  0.91188000000E+02  0.91188000000E+02 0.  0.
    9900012    2    3    3    0    0 -0.12031782992E+02  0.90728529623E+01  0.42450359796E+02  0.46142317525E+02  0.99999978469E+01 0.  0.
        -12    1    3    3    0    0  0.12031782992E+02 -0.90728529623E+01 -0.42450359796E+02  0.45045682475E+02  0.00000000000E+00 0.  1.
         11    1    4    4    0    0 -0.11541074996E+02  0.50586325127E+01  0.27849901227E+02  0.30568008989E+02  0.51100000000E-03 0. -1.
        -11    1    4    4    0    0  0.10162267556E+01  0.35162578057E+01  0.81962153441E+01  0.89763429081E+01  0.51100000000E-03 0.  1.
         12    1    4    4    0    0 -0.15069347520E+01  0.49796264390E+00  0.64042432248E+01  0.65979656276E+01  0.00000000000E+00 0. -1.
</event>
<event>
 8    1  0.2962813E-009  0.9118800E+02  0.7816164E-02  0.1184000E+00
        -11   -1    0    0    0    0  0.00000000000E+00  0.00000000000E+00  0.45593999997E+02  0.45594000000E+02  0.51100000000E-03 0. -1.
         11   -1    0    0    0    0 -0.00000000000E+00 -0.00000000000E+00 -0.45593999997E+02  0.45594000000E+02  0.51100000000E-03 0.  1.
         23    2    1    2    0    0 -0.35527136788E-14  0.00000000000E+00  0.71054273576E-14  0.91188000000E+02  0.91188000000E+02 0.  0.
    9900012    2    3    3    0    0 -0.20061712213E+02 -0.85006556841E+01 -0.39425626799E+02  0.46142317715E+02  0.99999995832E+01 0.  0.
         12    1    3    3    0    0  0.20061712213E+02  0.85006556841E+01  0.39425626799E+02  0.45045682285E+02  0.00000000000E+00 0. -1.
         11    1    4    4    0    0 -0.69504663974E+01 -0.29240771090E+01 -0.63274520791E+01  0.98435694824E+01  0.51100000000E-03 0. -1.
        -11    1    4    4    0    0 -0.11335584618E+02 -0.30107750684E+01 -0.27338223145E+02  0.29747919090E+02  0.51100000000E-03 0.  1.
        -12    1    4    4    0    0 -0.17756611971E+01 -0.25658035067E+01 -0.57599515748E+01  0.65508291434E+01  0.00000000000E+00 0.  1.
</event>
<event>
 8    1  0.2962813E-009  0.9118800E+02  0.7816164E-02  0.1184000E+00
        -11   -1    0    0    0    0  0.00000000000E+00  0.00000000000E+00  0.45593999997E+02  0.45594000000E+02  0.51100000000E-03 0. -1.
         11   -1    0    0    0    0 -0.00000000000E+00 -0.00000000000E+00 -0.45593999997E+02  0.45594000000E+02  0.51100000000E-03 0.  1.
         23    2    1    2    0    0  0.71054273576E-14  0.35527136788E-14  0.71054273576E-14  0.91188000000E+02  0.91188000000E+02 0.  0.
    9900012    2    3    3    0    0 -0.26629665467E+02 -0.18635893819E+02 -0.31187784389E+02  0.46142317450E+02  0.99999971585E+01 0.  0.
         12    1    3    3    0    0  0.26629665467E+02  0.18635893819E+02  0.31187784389E+02  0.45045682550E+02  0.00000000000E+00 0. -1.
         11    1    4    4    0    0 -0.16530352942E+02 -0.10073153509E+02 -0.13491872862E+02  0.23595584833E+02  0.51100000000E-03 0. -1.
        -11    1    4    4    0    0 -0.80751971177E+01 -0.42288998163E+01 -0.12671510998E+02  0.15609599399E+02  0.51100000000E-03 0.  1.
        -12    1    4    4    0    0 -0.20241154069E+01 -0.43338404944E+01 -0.50244005290E+01  0.69371332182E+01  0.00000000000E+00 0.  1.
</event>
<event>
 8    1  0.2962813E-009  0.9118800E+02  0.7816164E-02  0.1184000E+00
        -11   -1    0    0    0    0  0.00000000000E+00  0.00000000000E+00  0.45593999997E+02  0.45594000000E+02  0.51100000000E-03 0. -1.
         11   -1    0    0    0    0 -0.00000000000E+00 -0.00000000000E+00 -0.45593999997E+02  0.45594000000E+02  0.51100000000E-03 0.  1.
         23    2    1    2    0    0  0.00000000000E+00  0.00000000000E+00  0.00000000000E+00  0.91188000000E+02  0.91188000000E+02 0.  0.
    9900012    2    3    3    0    0  0.39871002359E+02  0.11916272539E+02 -0.17245846380E+02  0.46142316547E+02  0.99999889319E+01 0.  0.
         12    1    3    3    0    0 -0.39871002359E+02 -0.11916272539E+02  0.17245846380E+02  0.45045683453E+02  0.00000000000E+00 0. -1.
         11    1    4    4    0    0  0.95725506608E+01  0.42569588649E+01 -0.42175057775E+01  0.11293483970E+02  0.51100000000E-03 0. -1.
        -11    1    4    4    0    0  0.13183274886E+02 -0.84489519443E+00 -0.53412595188E+01  0.14249267985E+02  0.51100000000E-03 0.  1.
        -12    1    4    4    0    0  0.17115176812E+02  0.85042088686E+01 -0.76870810842E+01  0.20599564592E+02  0.00000000000E+00 0.  1.
</event>
<event>
 8    1  0.2962813E-009  0.9118800E+02  0.7816164E-02  0.1184000E+00
        -11   -1    0    0    0    0  0.00000000000E+00  0.00000000000E+00  0.45593999997E+02  0.45594000000E+02  0.51100000000E-03 0.  1.
         11   -1    0    0    0    0 -0.00000000000E+00 -0.00000000000E+00 -0.45593999997E+02  0.45594000000E+02  0.51100000000E-03 0. -1.
         23    2    1    2    0    0  0.71054273576E-14  0.35527136788E-14 -0.35527136788E-14  0.91188000000E+02  0.91188000000E+02 0.  0.
    9900012    2    3    3    0    0  0.35109562117E+02  0.19572420609E+02  0.20331056355E+02  0.46142324813E+02  0.10000064304E+02 0.  0.
        -12    1    3    3    0    0 -0.35109562117E+02 -0.19572420609E+02 -0.20331056355E+02  0.45045675187E+02  0.00000000000E+00 0.  1.
         11    1    4    4    0    0  0.16704214682E+02  0.71351078578E+01  0.10315604682E+02  0.20889046232E+02  0.51100000000E-03 0. -1.
        -11    1    4    4    0    0  0.91047874095E+01  0.62284972937E+01  0.13652613194E+01  0.11115541869E+02  0.51100000000E-03 0.  1.
         12    1    4    4    0    0  0.93005600259E+01  0.62088154573E+01  0.86501903535E+01  0.14137736712E+02  0.00000000000E+00 0. -1.
</event>
<event>
 8    1  0.2962813E-009  0.9118800E+02  0.7816164E-02  0.1184000E+00
        -11   -1    0    0    0    0  0.00000000000E+00  0.00000000000E+00  0.45593999997E+02  0.45594000000E+02  0.51100000000E-03 0. -1.
         11   -1    0    0    0    0 -0.00000000000E+00 -0.00000000000E+00 -0.45593999997E+02  0.45594000000E+02  0.51100000000E-03 0.  1.
         23    2    1    2    0    0  0.17763568394E-14  0.35527136788E-14 -0.71054273576E-14  0.91188000000E+02  0.91188000000E+02 0.  0.
    9900012    2    3    3    0    0 -0.12196872885E+02  0.18907569634E+02  0.39023760894E+02  0.46142314169E+02  0.99999672460E+01 0.  0.
        -12    1    3    3    0    0  0.12196872885E+02 -0.18907569634E+02 -0.39023760894E+02  0.45045685831E+02  0.00000000000E+00 0.  1.
         11    1    4    4    0    0 -0.12722584290E+02  0.16809369760E+02  0.36151246089E+02  0.41848914643E+02  0.51100000000E-03 0. -1.
        -11    1    4    4    0    0 -0.61464796928E+00  0.16029351431E+01  0.84105789329E+00  0.19116934483E+01  0.51100000000E-03 0.  1.
         12    1    4    4    0    0  0.11403593743E+01  0.49526473046E+00  0.20314569125E+01  0.23817060783E+01  0.00000000000E+00 0. -1.
</event>
<event>
 8    1  0.2962813E-009  0.9118800E+02  0.7816164E-02  0.1184000E+00
        -11   -1    0    0    0    0  0.00000000000E+00  0.00000000000E+00  0.45593999997E+02  0.45594000000E+02  0.51100000000E-03 0. -1.
         11   -1    0    0    0    0 -0.00000000000E+00 -0.00000000000E+00 -0.45593999997E+02  0.45594000000E+02  0.51100000000E-03 0.  1.
         23    2    1    2    0    0  0.00000000000E+00  0.00000000000E+00  0.00000000000E+00  0.91188000000E+02  0.91188000000E+02 0.  0.
    9900012    2    3    3    0    0 -0.18581091335E+02  0.33394409107E+02 -0.23846799835E+02  0.46142318995E+02  0.10000011254E+02 0.  0.
         12    1    3    3    0    0  0.18581091335E+02 -0.33394409107E+02  0.23846799835E+02  0.45045681005E+02  0.00000000000E+00 0. -1.
         11    1    4    4    0    0 -0.92712661532E+01  0.24168848427E+02 -0.17798036237E+02  0.31414323238E+02  0.51100000000E-03 0. -1.
        -11    1    4    4    0    0 -0.72597735569E+01  0.71095536510E+01 -0.32603252395E+01  0.10671447237E+02  0.51100000000E-03 0.  1.
        -12    1    4    4    0    0 -0.20500516245E+01  0.21160070296E+01 -0.27884383585E+01  0.40565485196E+01  0.00000000000E+00 0.  1.
</event>
<event>
 8    1  0.2962813E-009  0.9118800E+02  0.7816164E-02  0.1184000E+00
        -11   -1    0    0    0    0  0.00000000000E+00  0.00000000000E+00  0.45593999997E+02  0.45594000000E+02  0.51100000000E-03 0. -1.
         11   -1    0    0    0    0 -0.00000000000E+00 -0.00000000000E+00 -0.45593999997E+02  0.45594000000E+02  0.51100000000E-03 0.  1.
         23    2    1    2    0    0  0.35527136788E-14  0.35527136788E-14  0.00000000000E+00  0.91188000000E+02  0.91188000000E+02 0.  0.
    9900012    2    3    3    0    0  0.19319852710E+02  0.24450741226E+02  0.32527188921E+02  0.46142317917E+02  0.10000001418E+02 0.  0.
        -12    1    3    3    0    0 -0.19319852710E+02 -0.24450741226E+02 -0.32527188921E+02  0.45045682083E+02  0.00000000000E+00 0.  1.
         11    1    4    4    0    0  0.10186194121E+02  0.12206719049E+02  0.21922106249E+02  0.27080274800E+02  0.51100000000E-03 0. -1.
        -11    1    4    4    0    0  0.93332588281E+01  0.11571849006E+02  0.91766274956E+01  0.17470772800E+02  0.51100000000E-03 0.  1.
         12    1    4    4    0    0 -0.19960023913E+00  0.67217317106E+00  0.14284551770E+01  0.15912703165E+01  0.00000000000E+00 0. -1.
</event>
<event>
 8    1  0.2962813E-009  0.9118800E+02  0.7816164E-02  0.1184000E+00
        -11   -1    0    0    0    0  0.00000000000E+00  0.00000000000E+00  0.45593999997E+02  0.45594000000E+02  0.51100000000E-03 0. -1.
         11   -1    0    0    0    0 -0.00000000000E+00 -0.00000000000E+00 -0.45593999997E+02  0.45594000000E+02  0.51100000000E-03 0.  1.
         23    2    1    2    0    0  0.00000000000E+00 -0.88817841970E-15  0.00000000000E+00  0.91188000000E+02  0.91188000000E+02 0.  0.
    9900012    2    3    3    0    0  0.17475609459E+02  0.49171350692E+01 -0.41225458692E+02  0.46142316659E+02  0.99999899515E+01 0.  0.
         12    1    3    3    0    0 -0.17475609459E+02 -0.49171350692E+01  0.41225458692E+02  0.45045683341E+02  0.00000000000E+00 0. -1.
         11    1    4    4    0    0 -0.76079653700E+00  0.33251661186E+00 -0.30216789444E+01  0.31336755690E+01  0.51100000000E-03 0. -1.
        -11    1    4    4    0    0  0.11095337280E+02  0.57701678455E+01 -0.23568037581E+02  0.26680587363E+02  0.51100000000E-03 0.  1.
         12    1    4    4    0    0  0.71410687158E+01 -0.11855493882E+01 -0.14635742167E+02  0.16328053728E+02  0.00000000000E+00 0. -1.
</event>
<event>
 8    1  0.2962813E-009  0.9118800E+02  0.7816164E-02  0.1184000E+00
        -11   -1    0    0    0    0  0.00000000000E+00  0.00000000000E+00  0.45593999997E+02  0.45594000000E+02  0.51100000000E-03 0. -1.
         11   -1    0    0    0    0 -0.00000000000E+00 -0.00000000000E+00 -0.45593999997E+02  0.45594000000E+02  0.51100000000E-03 0.  1.
         23    2    1    2    0    0  0.00000000000E+00  0.00000000000E+00  0.00000000000E+00  0.91188000000E+02  0.91188000000E+02 0.  0.
    9900012    2    3    3    0    0  0.31017069377E+02  0.22154186436E+02  0.24005144154E+02  0.46142317463E+02  0.99999972846E+01 0.  0.
        -12    1    3    3    0    0 -0.31017069377E+02 -0.22154186436E+02 -0.24005144154E+02  0.45045682537E+02  0.00000000000E+00 0.  1.
         11    1    4    4    0    0  0.99467287749E+01  0.10293063773E+02  0.51601813950E+01  0.15215519953E+02  0.51100000000E-03 0. -1.
        -11    1    4    4    0    0  0.12538466222E+01  0.72543767417E+00  0.26385894353E+01  0.30100740257E+01  0.51100000000E-03 0.  1.
         12    1    4    4    0    0  0.19816493979E+02  0.11135684989E+02  0.16206373324E+02  0.27916723485E+02  0.00000000000E+00 0. -1.
</event>
<event>
 8    1  0.2962813E-009  0.9118800E+02  0.7816164E-02  0.1184000E+00
        -11   -1    0    0    0    0  0.00000000000E+00  0.00000000000E+00  0.45593999997E+02  0.45594000000E+02  0.51100000000E-03 0. -1.
         11   -1    0    0    0    0 -0.00000000000E+00 -0.00000000000E+00 -0.45593999997E+02  0.45594000000E+02  0.51100000000E-03 0.  1.
         23    2    1    2    0    0  0.44408920985E-15 -0.35527136788E-14 -0.71054273576E-14  0.91188000000E+02  0.91188000000E+02 0.  0.
    9900012    2    3    3    0    0  0.30666332132E+01  0.21381115314E+02  0.39529192907E+02  0.46142318484E+02  0.10000006596E+02 0.  0.
        -12    1    3    3    0    0 -0.30666332132E+01 -0.21381115314E+02 -0.39529192907E+02  0.45045681516E+02  0.00000000000E+00 0.  1.
         11    1    4    4    0    0  0.63415782966E+01  0.11444236567E+02  0.22489647750E+02  0.26018655270E+02  0.51100000000E-03 0. -1.
        -11    1    4    4    0    0 -0.24387302224E+01  0.39791201394E+01  0.67983514078E+01  0.82461132848E+01  0.51100000000E-03 0.  1.
         12    1    4    4    0    0 -0.83621486095E+00  0.59577586077E+01  0.10241193750E+02  0.11877549930E+02  0.00000000000E+00 0. -1.
</event>
<event>
 8    1  0.2962813E-009  0.9118800E+02  0.7816164E-02  0.1184000E+00
        -11   -1    0    0    0    0  0.00000000000E+00  0.00000000000E+00  0.45593999997E+02  0.45594000000E+02  0.51100000000E-03 0.  1.
         11   -1    0    0    0    0 -0.00000000000E+00 -0.00000000000E+00 -0.45593999997E+02  0.45594000000E+02  0.51100000000E-03 0. -1.
         23    2    1    2    0    0  0.00000000000E+00  0.71054273576E-14  0.00000000000E+00  0.91188000000E+02  0.91188000000E+02 0.  0.
    9900012    2    3    3    0    0  0.37921548489E+02 -0.21172559550E+02 -0.11949574663E+02  0.46142318161E+02  0.10000003646E+02 0.  0.
         12    1    3    3    0    0 -0.37921548489E+02  0.21172559550E+02  0.11949574663E+02  0.45045681839E+02  0.00000000000E+00 0. -1.
         11    1    4    4    0    0  0.17614804931E+02 -0.91278677233E+01 -0.10340911509E+02  0.22372612119E+02  0.51100000000E-03 0. -1.
        -11    1    4    4    0    0  0.15604916970E+02 -0.81239929954E+01 -0.11483606306E+01  0.17630412027E+02  0.51100000000E-03 0.  1.
        -12    1    4    4    0    0  0.47018265877E+01 -0.39206988317E+01 -0.46030252344E+00  0.61392940150E+01  0.00000000000E+00 0.  1.
</event>
<event>
 8    1  0.2962813E-009  0.9118800E+02  0.7816164E-02  0.1184000E+00
        -11   -1    0    0    0    0  0.00000000000E+00  0.00000000000E+00  0.45593999997E+02  0.45594000000E+02  0.51100000000E-03 0.  1.
         11   -1    0    0    0    0 -0.00000000000E+00 -0.00000000000E+00 -0.45593999997E+02  0.45594000000E+02  0.51100000000E-03 0. -1.
         23    2    1    2    0    0  0.00000000000E+00  0.00000000000E+00  0.00000000000E+00  0.91188000000E+02  0.91188000000E+02 0.  0.
    9900012    2    3    3    0    0  0.44318709829E+02 -0.73800310871E+01  0.32404709224E+01  0.46142317060E+02  0.99999936079E+01 0.  0.
         12    1    3    3    0    0 -0.44318709829E+02  0.73800310871E+01 -0.32404709224E+01  0.45045682940E+02  0.00000000000E+00 0. -1.
         11    1    4    4    0    0  0.33150853201E+01 -0.31011309888E+01 -0.39614036390E+00  0.45567237724E+01  0.51100000000E-03 0. -1.
        -11    1    4    4    0    0  0.27175765734E+02 -0.38889633073E+01  0.79925790049E+00  0.27464251170E+02  0.51100000000E-03 0.  1.
         12    1    4    4    0    0  0.13827858774E+02 -0.38993679097E+00  0.28373533858E+01  0.14121342118E+02  0.00000000000E+00 0. -1.
</event>
<event>
 8    1  0.2962813E-009  0.9118800E+02  0.7816164E-02  0.1184000E+00
        -11   -1    0    0    0    0  0.00000000000E+00  0.00000000000E+00  0.45593999997E+02  0.45594000000E+02  0.51100000000E-03 0. -1.
         11   -1    0    0    0    0 -0.00000000000E+00 -0.00000000000E+00 -0.45593999997E+02  0.45594000000E+02  0.51100000000E-03 0.  1.
         23    2    1    2    0    0  0.00000000000E+00  0.35527136788E-14  0.00000000000E+00  0.91188000000E+02  0.91188000000E+02 0.  0.
    9900012    2    3    3    0    0 -0.11156086882E+01 -0.29307130075E+02  0.34190071477E+02  0.46142318259E+02  0.10000004537E+02 0.  0.
        -12    1    3    3    0    0  0.11156086882E+01  0.29307130075E+02 -0.34190071477E+02  0.45045681741E+02  0.00000000000E+00 0.  1.
         11    1    4    4    0    0 -0.24649969231E+01 -0.27216098841E+02  0.33714390001E+02  0.43398759652E+02  0.51100000000E-03 0. -1.
        -11    1    4    4    0    0  0.12863459792E+01 -0.20486817588E+01  0.69053680368E+00  0.25156757075E+01  0.51100000000E-03 0.  1.
         12    1    4    4    0    0  0.63042255695E-01 -0.42349475214E-01 -0.21485532759E+00  0.22788289942E+00  0.00000000000E+00 0. -1.
</event>
<event>
 8    1  0.2962813E-009  0.9118800E+02  0.7816164E-02  0.1184000E+00
        -11   -1    0    0    0    0  0.00000000000E+00  0.00000000000E+00  0.45593999997E+02  0.45594000000E+02  0.51100000000E-03 0. -1.
         11   -1    0    0    0    0 -0.00000000000E+00 -0.00000000000E+00 -0.45593999997E+02  0.45594000000E+02  0.51100000000E-03 0.  1.
         23    2    1    2    0    0  0.00000000000E+00  0.00000000000E+00  0.00000000000E+00  0.91188000000E+02  0.91188000000E+02 0.  0.
    9900012    2    3    3    0    0 -0.26786382183E+02  0.48587214612E+01  0.35888661139E+02  0.46142318264E+02  0.10000004585E+02 0.  0.
        -12    1    3    3    0    0  0.26786382183E+02 -0.48587214612E+01 -0.35888661139E+02  0.45045681736E+02  0.00000000000E+00 0.  1.
         11    1    4    4    0    0 -0.98456522876E+00 -0.22664897421E+00 -0.13342980454E+00  0.10190889171E+01  0.51100000000E-03 0.  1.
        -11    1    4    4    0    0 -0.74734150390E+01  0.25663028220E+01  0.62660268627E+01  0.10084688167E+02  0.51100000000E-03 0. -1.
         12    1    4    4    0    0 -0.18328401915E+02  0.25190676135E+01  0.29756064081E+02  0.35038541180E+02  0.00000000000E+00 0. -1.
</event>
<event>
 8    1  0.4274174E-009  0.9118800E+02  0.7816164E-02  0.1184000E+00
        -11   -1    0    0    0    0  0.00000000000E+00  0.00000000000E+00  0.45593999997E+02  0.45594000000E+02  0.51100000000E-03 0. -1.
         11   -1    0    0    0    0 -0.00000000000E+00 -0.00000000000E+00 -0.45593999997E+02  0.45594000000E+02  0.51100000000E-03 0.  1.
         23    2    1    2    0    0 -0.35527136788E-14  0.00000000000E+00  0.00000000000E+00  0.91188000000E+02  0.91188000000E+02 0.  0.
    9900012    2    3    3    0    0 -0.18410744864E+02  0.21457682246E+01 -0.41055493184E+02  0.46142319093E+02  0.10000012150E+02 0.  0.
         12    1    3    3    0    0  0.18410744864E+02 -0.21457682246E+01  0.41055493184E+02  0.45045680907E+02  0.00000000000E+00 0. -1.
         11    1    4    4    0    0 -0.23550229636E+01 -0.37910174983E+00 -0.13481209916E+01  0.27399419273E+01  0.51100000000E-03 0. -1.
        -11    1    4    4    0    0 -0.15656483934E+02  0.85333270362E+00 -0.33989025115E+02  0.37431370458E+02  0.51100000000E-03 0.  1.
        -12    1    4    4    0    0 -0.39923796665E+00  0.16715372708E+01 -0.57183470780E+01  0.59710067080E+01  0.00000000000E+00 0.  1.
</event>
<event>
 8    1  0.2962813E-009  0.9118800E+02  0.7816164E-02  0.1184000E+00
        -11   -1    0    0    0    0  0.00000000000E+00  0.00000000000E+00  0.45593999997E+02  0.45594000000E+02  0.51100000000E-03 0. -1.
         11   -1    0    0    0    0 -0.00000000000E+00 -0.00000000000E+00 -0.45593999997E+02  0.45594000000E+02  0.51100000000E-03 0.  1.
         23    2    1    2    0    0  0.35527136788E-14  0.88817841970E-15  0.71054273576E-14  0.91188000000E+02  0.91188000000E+02 0.  0.
    9900012    2    3    3    0    0 -0.28163072439E+02 -0.76764732827E+01 -0.34307822234E+02  0.46142316991E+02  0.99999929814E+01 0.  0.
         12    1    3    3    0    0  0.28163072439E+02  0.76764732827E+01  0.34307822234E+02  0.45045683009E+02  0.00000000000E+00 0. -1.
         11    1    4    4    0    0 -0.75025038826E+01  0.81362505252E+00 -0.83150652468E+01  0.11228974154E+02  0.51100000000E-03 0. -1.
        -11    1    4    4    0    0 -0.12587026319E+02 -0.34906291182E+01 -0.10576910874E+02  0.16807402152E+02  0.51100000000E-03 0.  1.
        -12    1    4    4    0    0 -0.80735422371E+01 -0.49994692170E+01 -0.15415846114E+02  0.18105940686E+02  0.00000000000E+00 0.  1.
</event>
<event>
 8    1  0.2962813E-009  0.9118800E+02  0.7816164E-02  0.1184000E+00
        -11   -1    0    0    0    0  0.00000000000E+00  0.00000000000E+00  0.45593999997E+02  0.45594000000E+02  0.51100000000E-03 0. -1.
         11   -1    0    0    0    0 -0.00000000000E+00 -0.00000000000E+00 -0.45593999997E+02  0.45594000000E+02  0.51100000000E-03 0.  1.
         23    2    1    2    0    0 -0.71054273576E-14  0.88817841970E-15  0.00000000000E+00  0.91188000000E+02  0.91188000000E+02 0.  0.
    9900012    2    3    3    0    0 -0.44391949966E+02  0.75457296329E+01  0.12370064836E+01  0.46142318270E+02  0.10000004639E+02 0.  0.
         12    1    3    3    0    0  0.44391949966E+02 -0.75457296329E+01 -0.12370064836E+01  0.45045681730E+02  0.00000000000E+00 0. -1.
         11    1    4    4    0    0 -0.22874048112E+02 -0.14070849145E+00  0.18352913558E+01  0.22947988376E+02  0.51100000000E-03 0. -1.
        -11    1    4    4    0    0 -0.19214908910E+02  0.68358054273E+01 -0.17751975769E+01  0.20471743623E+02  0.51100000000E-03 0.  1.
        -12    1    4    4    0    0 -0.23029929445E+01  0.85063269704E+00  0.11769127047E+01  0.27225862709E+01  0.00000000000E+00 0.  1.
</event>
<event>
 8    1  0.2962813E-009  0.9118800E+02  0.7816164E-02  0.1184000E+00
        -11   -1    0    0    0    0  0.00000000000E+00  0.00000000000E+00  0.45593999997E+02  0.45594000000E+02  0.51100000000E-03 0. -1.
         11   -1    0    0    0    0 -0.00000000000E+00 -0.00000000000E+00 -0.45593999997E+02  0.45594000000E+02  0.51100000000E-03 0.  1.
         23    2    1    2    0    0  0.00000000000E+00  0.00000000000E+00 -0.88817841970E-15  0.91188000000E+02  0.91188000000E+02 0.  0.
    9900012    2    3    3    0    0 -0.40211515580E+02 -0.19159033560E+02  0.67140913036E+01  0.46142316808E+02  0.99999913131E+01 0.  0.
        -12    1    3    3    0    0  0.40211515580E+02  0.19159033560E+02 -0.67140913036E+01  0.45045683192E+02  0.00000000000E+00 0.  1.
         11    1    4    4    0    0 -0.18039396209E+02 -0.11687319434E+02 -0.85025242371E+00  0.21511303554E+02  0.51100000000E-03 0.  1.
        -11    1    4    4    0    0 -0.18163026747E+02 -0.66828268928E+01  0.63442278364E+01  0.20366760739E+02  0.51100000000E-03 0. -1.
        -12    1    4    4    0    0 -0.40090926240E+01 -0.78888723296E+00  0.12201158909E+01  0.42642525161E+01  0.00000000000E+00 0.  1.
</event>
<event>
 8    1  0.2962813E-009  0.9118800E+02  0.7816164E-02  0.1184000E+00
        -11   -1    0    0    0    0  0.00000000000E+00  0.00000000000E+00  0.45593999997E+02  0.45594000000E+02  0.51100000000E-03 0. -1.
         11   -1    0    0    0    0 -0.00000000000E+00 -0.00000000000E+00 -0.45593999997E+02  0.45594000000E+02  0.51100000000E-03 0.  1.
         23    2    1    2    0    0  0.00000000000E+00  0.00000000000E+00  0.00000000000E+00  0.91188000000E+02  0.91188000000E+02 0.  0.
    9900012    2    3    3    0    0  0.16081214210E+02 -0.32849099766E+02 -0.26295334857E+02  0.46142318285E+02  0.10000004781E+02 0.  0.
         12    1    3    3    0    0 -0.16081214210E+02  0.32849099766E+02  0.26295334857E+02  0.45045681715E+02  0.00000000000E+00 0. -1.
         11    1    4    4    0    0  0.11034739129E+01 -0.23151433219E+01 -0.47084753821E+01  0.53616493696E+01  0.51100000000E-03 0. -1.
        -11    1    4    4    0    0  0.12476770059E+02 -0.29185106660E+02 -0.19452979255E+02  0.37227122424E+02  0.51100000000E-03 0.  1.
        -12    1    4    4    0    0  0.25009702381E+01 -0.13488497835E+01 -0.21338802207E+01  0.35535464915E+01  0.00000000000E+00 0.  1.
</event>
<event>
 8    1  0.2962813E-009  0.9118800E+02  0.7816164E-02  0.1184000E+00
        -11   -1    0    0    0    0  0.00000000000E+00  0.00000000000E+00  0.45593999997E+02  0.45594000000E+02  0.51100000000E-03 0. -1.
         11   -1    0    0    0    0 -0.00000000000E+00 -0.00000000000E+00 -0.45593999997E+02  0.45594000000E+02  0.51100000000E-03 0.  1.
         23    2    1    2    0    0  0.00000000000E+00  0.00000000000E+00  0.00000000000E+00  0.91188000000E+02  0.91188000000E+02 0.  0.
    9900012    2    3    3    0    0 -0.17785205031E+02  0.76880984934E+01  0.40665625667E+02  0.46142317772E+02  0.10000000103E+02 0.  0.
        -12    1    3    3    0    0  0.17785205031E+02 -0.76880984934E+01 -0.40665625667E+02  0.45045682228E+02  0.00000000000E+00 0.  1.
         11    1    4    4    0    0 -0.63716919366E+01  0.21829021408E+01  0.13375961421E+02  0.14975976232E+02  0.51100000000E-03 0. -1.
        -11    1    4    4    0    0 -0.46409941289E+01  0.58773114201E+01  0.19204023831E+02  0.20612524048E+02  0.51100000000E-03 0.  1.
        -12    1    4    4    0    0 -0.67725189655E+01 -0.37211506748E+00  0.80856404148E+01  0.10553817493E+02  0.00000000000E+00 0.  1.
</event>
<event>
 8    1  0.2962813E-009  0.9118800E+02  0.7816164E-02  0.1184000E+00
        -11   -1    0    0    0    0  0.00000000000E+00  0.00000000000E+00  0.45593999997E+02  0.45594000000E+02  0.51100000000E-03 0. -1.
         11   -1    0    0    0    0 -0.00000000000E+00 -0.00000000000E+00 -0.45593999997E+02  0.45594000000E+02  0.51100000000E-03 0.  1.
         23    2    1    2    0    0  0.00000000000E+00  0.00000000000E+00  0.00000000000E+00  0.91188000000E+02  0.91188000000E+02 0.  0.
    9900012    2    3    3    0    0 -0.14017906243E+02  0.12364449068E+02 -0.40984532593E+02  0.46142320872E+02  0.10000028370E+02 0.  0.
         12    1    3    3    0    0  0.14017906243E+02 -0.12364449068E+02  0.40984532593E+02  0.45045679128E+02  0.00000000000E+00 0. -1.
         11    1    4    4    0    0  0.66791911538E-01  0.28134106853E+01 -0.71614794494E+01  0.76945778967E+01  0.51100000000E-03 0. -1.
        -11    1    4    4    0    0 -0.11352127832E+02  0.10282122612E+02 -0.30091442672E+02  0.33765185830E+02  0.51100000000E-03 0.  1.
        -12    1    4    4    0    0 -0.27325703226E+01 -0.73108422902E+00 -0.37316104711E+01  0.46825571461E+01  0.00000000000E+00 0.  1.
</event>
<event>
 8    1  0.2962813E-009  0.9118800E+02  0.7816164E-02  0.1184000E+00
        -11   -1    0    0    0    0  0.00000000000E+00  0.00000000000E+00  0.45593999997E+02  0.45594000000E+02  0.51100000000E-03 0. -1.
         11   -1    0    0    0    0 -0.00000000000E+00 -0.00000000000E+00 -0.45593999997E+02  0.45594000000E+02  0.51100000000E-03 0.  1.
         23    2    1    2    0    0  0.71054273576E-14 -0.35527136788E-14 -0.35527136788E-14  0.91188000000E+02  0.91188000000E+02 0.  0.
    9900012    2    3    3    0    0 -0.30431375164E+02  0.20934627180E+02  0.25783446985E+02  0.46142319319E+02  0.10000014209E+02 0.  0.
        -12    1    3    3    0    0  0.30431375164E+02 -0.20934627180E+02 -0.25783446985E+02  0.45045680681E+02  0.00000000000E+00 0.  1.
         11    1    4    4    0    0 -0.12211831911E+02  0.56550239728E+01  0.55285182851E+01  0.14548974172E+02  0.51100000000E-03 0. -1.
        -11    1    4    4    0    0 -0.15436113361E+02  0.13912209342E+02  0.19268723858E+02  0.28339140493E+02  0.51100000000E-03 0.  1.
        -12    1    4    4    0    0 -0.27834298918E+01  0.13673938649E+01  0.98620484196E+00  0.32542046547E+01  0.00000000000E+00 0.  1.
</event>
<event>
 8    1  0.2962813E-009  0.9118800E+02  0.7816164E-02  0.1184000E+00
        -11   -1    0    0    0    0  0.00000000000E+00  0.00000000000E+00  0.45593999997E+02  0.45594000000E+02  0.51100000000E-03 0. -1.
         11   -1    0    0    0    0 -0.00000000000E+00 -0.00000000000E+00 -0.45593999997E+02  0.45594000000E+02  0.51100000000E-03 0.  1.
         23    2    1    2    0    0 -0.44408920985E-15  0.00000000000E+00  0.00000000000E+00  0.91188000000E+02  0.91188000000E+02 0.  0.
    9900012    2    3    3    0    0  0.26735151227E+01 -0.21645325312E+01 -0.44914147418E+02  0.46142317382E+02  0.99999965469E+01 0.  0.
         12    1    3    3    0    0 -0.26735151227E+01  0.21645325312E+01  0.44914147418E+02  0.45045682618E+02  0.00000000000E+00 0. -1.
         11    1    4    4    0    0  0.33877604592E+01  0.92620600191E+00 -0.17206047456E+02  0.17560832777E+02  0.51100000000E-03 0. -1.
        -11    1    4    4    0    0 -0.22147572624E+01  0.11596190061E+01 -0.10362320807E+02  0.10659622824E+02  0.51100000000E-03 0.  1.
        -12    1    4    4    0    0  0.15005119258E+01 -0.42503575392E+01 -0.17345779155E+02  0.17921861782E+02  0.00000000000E+00 0.  1.
</event>
<event>
 8    1  0.2962813E-009  0.9118800E+02  0.7816164E-02  0.1184000E+00
        -11   -1    0    0    0    0  0.00000000000E+00  0.00000000000E+00  0.45593999997E+02  0.45594000000E+02  0.51100000000E-03 0. -1.
         11   -1    0    0    0    0 -0.00000000000E+00 -0.00000000000E+00 -0.45593999997E+02  0.45594000000E+02  0.51100000000E-03 0.  1.
         23    2    1    2    0    0  0.00000000000E+00  0.00000000000E+00  0.00000000000E+00  0.91188000000E+02  0.91188000000E+02 0.  0.
    9900012    2    3    3    0    0 -0.17740185413E+02  0.24402792011E+02 -0.33450011010E+02  0.46142315712E+02  0.99999813125E+01 0.  0.
         12    1    3    3    0    0  0.17740185413E+02 -0.24402792011E+02  0.33450011010E+02  0.45045684288E+02  0.00000000000E+00 0. -1.
         11    1    4    4    0    0 -0.37827286464E+01  0.23027865267E+01 -0.36535551224E+01  0.57411085248E+01  0.51100000000E-03 0. -1.
        -11    1    4    4    0    0 -0.98468551660E+00  0.81006305560E+01 -0.99168101309E+01  0.12842622178E+02  0.51100000000E-03 0.  1.
        -12    1    4    4    0    0 -0.12972771250E+02  0.13999374928E+02 -0.19879645757E+02  0.27558585009E+02  0.00000000000E+00 0.  1.
</event>
<event>
 8    1  0.3559752E-009  0.9118800E+02  0.7816164E-02  0.1184000E+00
        -11   -1    0    0    0    0  0.00000000000E+00  0.00000000000E+00  0.45593999997E+02  0.45594000000E+02  0.51100000000E-03 0. -1.
         11   -1    0    0    0    0 -0.00000000000E+00 -0.00000000000E+00 -0.45593999997E+02  0.45594000000E+02  0.51100000000E-03 0.  1.
         23    2    1    2    0    0  0.88817841970E-15  0.00000000000E+00  0.00000000000E+00  0.91188000000E+02  0.91188000000E+02 0.  0.
    9900012    2    3    3    0    0  0.50688048912E+01  0.18406516162E+02 -0.40799766845E+02  0.46142316579E+02  0.99999892203E+01 0.  0.
         12    1    3    3    0    0 -0.50688048912E+01 -0.18406516162E+02  0.40799766845E+02  0.45045683421E+02  0.00000000000E+00 0. -1.
         11    1    4    4    0    0  0.34451976014E+01  0.14859566715E+01 -0.49739077138E+01  0.62303460537E+01  0.51100000000E-03 0. -1.
        -11    1    4    4    0    0  0.24969539091E+01  0.12717133866E+02 -0.29959319927E+02  0.32642321047E+02  0.51100000000E-03 0.  1.
         12    1    4    4    0    0 -0.87334661941E+00  0.42034256249E+01 -0.58665392044E+01  0.72696494784E+01  0.00000000000E+00 0. -1.
</event>
<event>
 8    1  0.2962813E-009  0.9118800E+02  0.7816164E-02  0.1184000E+00
        -11   -1    0    0    0    0  0.00000000000E+00  0.00000000000E+00  0.45593999997E+02  0.45594000000E+02  0.51100000000E-03 0. -1.
         11   -1    0    0    0    0 -0.00000000000E+00 -0.00000000000E+00 -0.45593999997E+02  0.45594000000E+02  0.51100000000E-03 0.  1.
         23    2    1    2    0    0  0.00000000000E+00  0.35527136788E-14  0.00000000000E+00  0.91188000000E+02  0.91188000000E+02 0.  0.
    9900012    2    3    3    0    0 -0.76453753698E+01 -0.28283304373E+02  0.34215733592E+02  0.46142317677E+02  0.99999992293E+01 0.  0.
        -12    1    3    3    0    0  0.76453753698E+01  0.28283304373E+02 -0.34215733592E+02  0.45045682323E+02  0.00000000000E+00 0.  1.
         11    1    4    4    0    0 -0.28118964564E+01 -0.22118591772E+01  0.30214107531E+01  0.46827348741E+01  0.51100000000E-03 0.  1.
        -11    1    4    4    0    0 -0.47818649910E+01 -0.17344223858E+02  0.24807955306E+02  0.30645113489E+02  0.51100000000E-03 0. -1.
         12    1    4    4    0    0 -0.51613922446E-01 -0.87272213377E+01  0.63863675320E+01  0.10814469313E+02  0.00000000000E+00 0. -1.
</event>
<event>
 8    1  0.2962813E-009  0.9118800E+02  0.7816164E-02  0.1184000E+00
        -11   -1    0    0    0    0  0.00000000000E+00  0.00000000000E+00  0.45593999997E+02  0.45594000000E+02  0.51100000000E-03 0. -1.
         11   -1    0    0    0    0 -0.00000000000E+00 -0.00000000000E+00 -0.45593999997E+02  0.45594000000E+02  0.51100000000E-03 0.  1.
         23    2    1    2    0    0  0.00000000000E+00  0.00000000000E+00  0.00000000000E+00  0.91188000000E+02  0.91188000000E+02 0.  0.
    9900012    2    3    3    0    0 -0.18452810489E+02 -0.27958990326E+01 -0.40997441295E+02  0.46142318086E+02  0.10000002961E+02 0.  0.
         12    1    3    3    0    0  0.18452810489E+02  0.27958990326E+01  0.40997441295E+02  0.45045681914E+02  0.00000000000E+00 0. -1.
         11    1    4    4    0    0 -0.45120542922E+01 -0.19763942629E+01 -0.48880404129E+01  0.69395754595E+01  0.51100000000E-03 0. -1.
        -11    1    4    4    0    0 -0.13948238918E+02 -0.70693733694E+00 -0.29992353663E+02  0.33084655171E+02  0.51100000000E-03 0.  1.
         12    1    4    4    0    0  0.74827214922E-02 -0.11256743279E+00 -0.61170472200E+01  0.61180874552E+01  0.00000000000E+00 0. -1.
</event>
<event>
 8    1  0.2962813E-009  0.9118800E+02  0.7816164E-02  0.1184000E+00
        -11   -1    0    0    0    0  0.00000000000E+00  0.00000000000E+00  0.45593999997E+02  0.45594000000E+02  0.51100000000E-03 0.  1.
         11   -1    0    0    0    0 -0.00000000000E+00 -0.00000000000E+00 -0.45593999997E+02  0.45594000000E+02  0.51100000000E-03 0. -1.
         23    2    1    2    0    0  0.00000000000E+00  0.17763568394E-14  0.00000000000E+00  0.91188000000E+02  0.91188000000E+02 0.  0.
    9900012    2    3    3    0    0 -0.35592902153E+02  0.13957924032E+02  0.23820897899E+02  0.46142317591E+02  0.99999984487E+01 0.  0.
        -12    1    3    3    0    0  0.35592902153E+02 -0.13957924032E+02 -0.23820897899E+02  0.45045682409E+02  0.00000000000E+00 0.  1.
         11    1    4    4    0    0 -0.23459483651E+02  0.71116480472E+01  0.15910430641E+02  0.29224385615E+02  0.51100000000E-03 0. -1.
        -11    1    4    4    0    0 -0.80612835760E+01  0.72424834401E+01  0.52878486165E+01  0.12058159168E+02  0.51100000000E-03 0.  1.
        -12    1    4    4    0    0 -0.40721349261E+01 -0.39620745561E+00  0.26226186418E+01  0.48597728079E+01  0.00000000000E+00 0.  1.
</event>
<event>
 8    1  0.2962813E-009  0.9118800E+02  0.7816164E-02  0.1184000E+00
        -11   -1    0    0    0    0  0.00000000000E+00  0.00000000000E+00  0.45593999997E+02  0.45594000000E+02  0.51100000000E-03 0. -1.
         11   -1    0    0    0    0 -0.00000000000E+00 -0.00000000000E+00 -0.45593999997E+02  0.45594000000E+02  0.51100000000E-03 0.  1.
         23    2    1    2    0    0  0.00000000000E+00  0.71054273576E-14  0.00000000000E+00  0.91188000000E+02  0.91188000000E+02 0.  0.
    9900012    2    3    3    0    0 -0.96282754807E+01 -0.25422608949E+02 -0.35917975230E+02  0.46142315644E+02  0.99999806918E+01 0.  0.
         12    1    3    3    0    0  0.96282754807E+01  0.25422608949E+02  0.35917975230E+02  0.45045684356E+02  0.00000000000E+00 0. -1.
         11    1    4    4    0    0 -0.89346781241E+01 -0.13690552823E+02 -0.19195725017E+02  0.25213797195E+02  0.51100000000E-03 0. -1.
        -11    1    4    4    0    0  0.46814212890E+00 -0.10319500646E+02 -0.11829104740E+02  0.15704743546E+02  0.51100000000E-03 0.  1.
         12    1    4    4    0    0 -0.11617394855E+01 -0.14125554792E+01 -0.48931454727E+01  0.52237749024E+01  0.00000000000E+00 0. -1.
</event>
<event>
 8    1  0.2962813E-009  0.9118800E+02  0.7816164E-02  0.1184000E+00
        -11   -1    0    0    0    0  0.00000000000E+00  0.00000000000E+00  0.45593999997E+02  0.45594000000E+02  0.51100000000E-03 0. -1.
         11   -1    0    0    0    0 -0.00000000000E+00 -0.00000000000E+00 -0.45593999997E+02  0.45594000000E+02  0.51100000000E-03 0.  1.
         23    2    1    2    0    0  0.00000000000E+00  0.00000000000E+00  0.00000000000E+00  0.91188000000E+02  0.91188000000E+02 0.  0.
    9900012    2    3    3    0    0  0.26534209450E+02  0.11588556303E+02 -0.34507311738E+02  0.46142317946E+02  0.10000001687E+02 0.  0.
         12    1    3    3    0    0 -0.26534209450E+02 -0.11588556303E+02  0.34507311738E+02  0.45045682054E+02  0.00000000000E+00 0. -1.
         11    1    4    4    0    0  0.15405575357E+02  0.27251102315E+01 -0.14226022619E+02  0.21145630699E+02  0.51100000000E-03 0. -1.
        -11    1    4    4    0    0  0.14530649445E+01  0.27897240318E+01 -0.51954736266E+01  0.60734590122E+01  0.51100000000E-03 0.  1.
        -12    1    4    4    0    0  0.96755691491E+01  0.60737220395E+01 -0.15085815492E+02  0.18923228235E+02  0.00000000000E+00 0.  1.
</event>
<event>
 8    1  0.2962813E-009  0.9118800E+02  0.7816164E-02  0.1184000E+00
        -11   -1    0    0    0    0  0.00000000000E+00  0.00000000000E+00  0.45593999997E+02  0.45594000000E+02  0.51100000000E-03 0. -1.
         11   -1    0    0    0    0 -0.00000000000E+00 -0.00000000000E+00 -0.45593999997E+02  0.45594000000E+02  0.51100000000E-03 0.  1.
         23    2    1    2    0    0  0.00000000000E+00  0.00000000000E+00  0.00000000000E+00  0.91188000000E+02  0.91188000000E+02 0.  0.
    9900012    2    3    3    0    0  0.80229670737E+01 -0.40070836519E+02  0.18949236830E+02  0.46142317450E+02  0.99999971598E+01 0.  0.
        -12    1    3    3    0    0 -0.80229670737E+01  0.40070836519E+02 -0.18949236830E+02  0.45045682550E+02  0.00000000000E+00 0.  1.
         11    1    4    4    0    0 -0.17139532795E+01 -0.46909842700E+01  0.11607656763E+01  0.51274112846E+01  0.51100000000E-03 0.  1.
        -11    1    4    4    0    0  0.29262530499E+01 -0.13655262848E+02  0.89793619726E+01  0.16602954618E+02  0.51100000000E-03 0. -1.
         12    1    4    4    0    0  0.68106673033E+01 -0.21724589402E+02  0.88091091807E+01  0.24411951547E+02  0.00000000000E+00 0. -1.
</event>
<event>
 8    1  0.2962813E-009  0.9118800E+02  0.7816164E-02  0.1184000E+00
        -11   -1    0    0    0    0  0.00000000000E+00  0.00000000000E+00  0.45593999997E+02  0.45594000000E+02  0.51100000000E-03 0. -1.
         11   -1    0    0    0    0 -0.00000000000E+00 -0.00000000000E+00 -0.45593999997E+02  0.45594000000E+02  0.51100000000E-03 0.  1.
         23    2    1    2    0    0 -0.44408920985E-15  0.17763568394E-14  0.00000000000E+00  0.91188000000E+02  0.91188000000E+02 0.  0.
    9900012    2    3    3    0    0 -0.38511453041E+01 -0.12006126246E+02 -0.43245058821E+02  0.46142317632E+02  0.99999988241E+01 0.  0.
         12    1    3    3    0    0  0.38511453041E+01  0.12006126246E+02  0.43245058821E+02  0.45045682368E+02  0.00000000000E+00 0. -1.
         11    1    4    4    0    0 -0.59403971677E+01 -0.53004834494E+01 -0.30910611399E+02  0.31919419490E+02  0.51100000000E-03 0. -1.
        -11    1    4    4    0    0  0.16906809948E+01 -0.56482178933E+01 -0.10944641037E+02  0.12431650546E+02  0.51100000000E-03 0.  1.
         12    1    4    4    0    0  0.39857086883E+00 -0.10574249030E+01 -0.13898063849E+01  0.17912475961E+01  0.00000000000E+00 0. -1.
</event>
<event>
 8    1  0.2962813E-009  0.9118800E+02  0.7816164E-02  0.1184000E+00
        -11   -1    0    0    0    0  0.00000000000E+00  0.00000000000E+00  0.45593999997E+02  0.45594000000E+02  0.51100000000E-03 0. -1.
         11   -1    0    0    0    0 -0.00000000000E+00 -0.00000000000E+00 -0.45593999997E+02  0.45594000000E+02  0.51100000000E-03 0.  1.
         23    2    1    2    0    0  0.35527136788E-14  0.00000000000E+00  0.00000000000E+00  0.91188000000E+02  0.91188000000E+02 0.  0.
    9900012    2    3    3    0    0  0.24252438835E+02  0.19453003085E+02 -0.32596215128E+02  0.46142319195E+02  0.10000013079E+02 0.  0.
         12    1    3    3    0    0 -0.24252438835E+02 -0.19453003085E+02  0.32596215128E+02  0.45045680805E+02  0.00000000000E+00 0. -1.
         11    1    4    4    0    0  0.36399982642E+01  0.16668494725E+01 -0.76717797054E+01  0.86535645047E+01  0.51100000000E-03 0. -1.
        -11    1    4    4    0    0  0.13937240546E+02  0.15515877190E+02 -0.17235132493E+02  0.27056217609E+02  0.51100000000E-03 0.  1.
        -12    1    4    4    0    0  0.66752000254E+01  0.22702764225E+01 -0.76893029301E+01  0.10432537082E+02  0.00000000000E+00 0.  1.
</event>
<event>
 8    1  0.2962813E-009  0.9118800E+02  0.7816164E-02  0.1184000E+00
        -11   -1    0    0    0    0  0.00000000000E+00  0.00000000000E+00  0.45593999997E+02  0.45594000000E+02  0.51100000000E-03 0. -1.
         11   -1    0    0    0    0 -0.00000000000E+00 -0.00000000000E+00 -0.45593999997E+02  0.45594000000E+02  0.51100000000E-03 0.  1.
         23    2    1    2    0    0  0.00000000000E+00 -0.35527136788E-14  0.00000000000E+00  0.91188000000E+02  0.91188000000E+02 0.  0.
    9900012    2    3    3    0    0  0.36604423374E+02 -0.20246941111E+02  0.16712002187E+02  0.46142318165E+02  0.10000003679E+02 0.  0.
        -12    1    3    3    0    0 -0.36604423374E+02  0.20246941111E+02 -0.16712002187E+02  0.45045681835E+02  0.00000000000E+00 0.  1.
         11    1    4    4    0    0  0.73193488917E+01 -0.46542312275E+01  0.24380142835E+01  0.90099195571E+01  0.51100000000E-03 0. -1.
        -11    1    4    4    0    0  0.11450795752E+02 -0.28711940469E+01  0.82834032484E+01  0.14421485646E+02  0.51100000000E-03 0.  1.
        -12    1    4    4    0    0  0.17834278730E+02 -0.12721515837E+02  0.59905846549E+01  0.22710912961E+02  0.00000000000E+00 0.  1.
</event>
<event>
 8    1  0.2962813E-009  0.9118800E+02  0.7816164E-02  0.1184000E+00
        -11   -1    0    0    0    0  0.00000000000E+00  0.00000000000E+00  0.45593999997E+02  0.45594000000E+02  0.51100000000E-03 0. -1.
         11   -1    0    0    0    0 -0.00000000000E+00 -0.00000000000E+00 -0.45593999997E+02  0.45594000000E+02  0.51100000000E-03 0.  1.
         23    2    1    2    0    0  0.00000000000E+00  0.00000000000E+00 -0.35527136788E-14  0.91188000000E+02  0.91188000000E+02 0.  0.
    9900012    2    3    3    0    0 -0.27481697779E+02  0.21764846288E+02  0.28287122359E+02  0.46142317209E+02  0.99999949650E+01 0.  0.
        -12    1    3    3    0    0  0.27481697779E+02 -0.21764846288E+02 -0.28287122359E+02  0.45045682791E+02  0.00000000000E+00 0.  1.
         11    1    4    4    0    0 -0.21897410263E+02  0.18763928189E+02  0.21072239635E+02  0.35715834875E+02  0.51100000000E-03 0. -1.
        -11    1    4    4    0    0 -0.33103684797E+01 -0.47340289292E+00  0.27537436500E+01  0.43319457662E+01  0.51100000000E-03 0.  1.
         12    1    4    4    0    0 -0.22739190359E+01  0.34743209915E+01  0.44611390746E+01  0.60945365678E+01  0.00000000000E+00 0. -1.
</event>
<event>
 8    1  0.2962813E-009  0.9118800E+02  0.7816164E-02  0.1184000E+00
        -11   -1    0    0    0    0  0.00000000000E+00  0.00000000000E+00  0.45593999997E+02  0.45594000000E+02  0.51100000000E-03 0. -1.
         11   -1    0    0    0    0 -0.00000000000E+00 -0.00000000000E+00 -0.45593999997E+02  0.45594000000E+02  0.51100000000E-03 0.  1.
         23    2    1    2    0    0  0.00000000000E+00  0.00000000000E+00 -0.35527136788E-14  0.91188000000E+02  0.91188000000E+02 0.  0.
    9900012    2    3    3    0    0 -0.22250693762E+02 -0.30574573689E+02 -0.24478875890E+02  0.46142319919E+02  0.10000019675E+02 0.  0.
         12    1    3    3    0    0  0.22250693762E+02  0.30574573689E+02  0.24478875890E+02  0.45045680081E+02  0.00000000000E+00 0. -1.
         11    1    4    4    0    0 -0.10281718503E+02 -0.12548589528E+02 -0.15643222918E+02  0.22536442888E+02  0.51100000000E-03 0. -1.
        -11    1    4    4    0    0 -0.79839422244E+01 -0.11238210949E+02 -0.39440982927E+01  0.14338641162E+02  0.51100000000E-03 0.  1.
         12    1    4    4    0    0 -0.39850330346E+01 -0.67877732122E+01 -0.48915546788E+01  0.92672358685E+01  0.00000000000E+00 0. -1.
</event>
<event>
 8    1  0.2962813E-009  0.9118800E+02  0.7816164E-02  0.1184000E+00
        -11   -1    0    0    0    0  0.00000000000E+00  0.00000000000E+00  0.45593999997E+02  0.45594000000E+02  0.51100000000E-03 0.  1.
         11   -1    0    0    0    0 -0.00000000000E+00 -0.00000000000E+00 -0.45593999997E+02  0.45594000000E+02  0.51100000000E-03 0. -1.
         23    2    1    2    0    0 -0.88817841970E-15 -0.71054273576E-14  0.17763568394E-14  0.91188000000E+02  0.91188000000E+02 0.  0.
    9900012    2    3    3    0    0  0.52768561032E+01  0.41813685709E+02 -0.15902327375E+02  0.46142317201E+02  0.99999948915E+01 0.  0.
         12    1    3    3    0    0 -0.52768561032E+01 -0.41813685709E+02  0.15902327375E+02  0.45045682799E+02  0.00000000000E+00 0. -1.
         11    1    4    4    0    0 -0.14279672193E+01  0.19321547151E+02 -0.48653035702E+01  0.19975796700E+02  0.51100000000E-03 0. -1.
        -11    1    4    4    0    0  0.63515586395E+01  0.21266586276E+02 -0.94304381370E+01  0.24115205840E+02  0.51100000000E-03 0.  1.
         12    1    4    4    0    0  0.35326468299E+00  0.12255522815E+01 -0.16065856678E+01  0.20513146612E+01  0.00000000000E+00 0. -1.
</event>
<event>
 8    1  0.2962813E-009  0.9118800E+02  0.7816164E-02  0.1184000E+00
        -11   -1    0    0    0    0  0.00000000000E+00  0.00000000000E+00  0.45593999997E+02  0.45594000000E+02  0.51100000000E-03 0. -1.
         11   -1    0    0    0    0 -0.00000000000E+00 -0.00000000000E+00 -0.45593999997E+02  0.45594000000E+02  0.51100000000E-03 0.  1.
         23    2    1    2    0    0  0.00000000000E+00  0.35527136788E-14  0.35527136788E-14  0.91188000000E+02  0.91188000000E+02 0.  0.
    9900012    2    3    3    0    0  0.18781655440E+02  0.27492526262E+02  0.30340136140E+02  0.46142318272E+02  0.10000004656E+02 0.  0.
        -12    1    3    3    0    0 -0.18781655440E+02 -0.27492526262E+02 -0.30340136140E+02  0.45045681728E+02  0.00000000000E+00 0.  1.
         11    1    4    4    0    0  0.25808182529E+01  0.51071788881E+00  0.22431021835E+01  0.34573057839E+01  0.51100000000E-03 0. -1.
        -11    1    4    4    0    0  0.95851799541E+01  0.21328589966E+02  0.21495845461E+02  0.31762490409E+02  0.51100000000E-03 0.  1.
        -12    1    4    4    0    0  0.66156572334E+01  0.56532184078E+01  0.66011884958E+01  0.10922522078E+02  0.00000000000E+00 0.  1.
</event>
<event>
 8    1  0.2962813E-009  0.9118800E+02  0.7816164E-02  0.1184000E+00
        -11   -1    0    0    0    0  0.00000000000E+00  0.00000000000E+00  0.45593999997E+02  0.45594000000E+02  0.51100000000E-03 0. -1.
         11   -1    0    0    0    0 -0.00000000000E+00 -0.00000000000E+00 -0.45593999997E+02  0.45594000000E+02  0.51100000000E-03 0.  1.
         23    2    1    2    0    0  0.00000000000E+00  0.00000000000E+00  0.00000000000E+00  0.91188000000E+02  0.91188000000E+02 0.  0.
    9900012    2    3    3    0    0 -0.35845664175E+02  0.26177772294E+02 -0.76763332576E+01  0.46142317691E+02  0.99999993583E+01 0.  0.
        -12    1    3    3    0    0  0.35845664175E+02 -0.26177772294E+02  0.76763332576E+01  0.45045682309E+02  0.00000000000E+00 0.  1.
         11    1    4    4    0    0 -0.12410020186E+02  0.13768304875E+02 -0.82018871464E+00  0.18553908751E+02  0.51100000000E-03 0. -1.
        -11    1    4    4    0    0 -0.20585611376E+02  0.96970957853E+01 -0.53511441755E+01  0.23375966432E+02  0.51100000000E-03 0.  1.
         12    1    4    4    0    0 -0.28500326131E+01  0.27123716331E+01 -0.15050003675E+01  0.42124425074E+01  0.00000000000E+00 0. -1.
</event>
<event>
 8    1  0.2962813E-009  0.9118800E+02  0.7816164E-02  0.1184000E+00
        -11   -1    0    0    0    0  0.00000000000E+00  0.00000000000E+00  0.45593999997E+02  0.45594000000E+02  0.51100000000E-03 0.  1.
         11   -1    0    0    0    0 -0.00000000000E+00 -0.00000000000E+00 -0.45593999997E+02  0.45594000000E+02  0.51100000000E-03 0. -1.
         23    2    1    2    0    0  0.71054273576E-14 -0.35527136788E-14  0.88817841970E-15  0.91188000000E+02  0.91188000000E+02 0.  0.
    9900012    2    3    3    0    0  0.32483011225E+02 -0.30686440837E+02  0.56841664365E+01  0.46142318547E+02  0.10000007169E+02 0.  0.
         12    1    3    3    0    0 -0.32483011225E+02  0.30686440837E+02 -0.56841664365E+01  0.45045681453E+02  0.00000000000E+00 0. -1.
         11    1    4    4    0    0  0.46664332599E+01 -0.21474410767E+01  0.32966278395E+01  0.61036757713E+01  0.51100000000E-03 0. -1.
        -11    1    4    4    0    0  0.15671662642E+02 -0.17055318387E+02  0.27166932862E+01  0.23320920177E+02  0.51100000000E-03 0.  1.
         12    1    4    4    0    0  0.12144915323E+02 -0.11483681373E+02 -0.32915468921E+00  0.16717722599E+02  0.00000000000E+00 0. -1.
</event>
<event>
 8    1  0.2962813E-009  0.9118800E+02  0.7816164E-02  0.1184000E+00
        -11   -1    0    0    0    0  0.00000000000E+00  0.00000000000E+00  0.45593999997E+02  0.45594000000E+02  0.51100000000E-03 0. -1.
         11   -1    0    0    0    0 -0.00000000000E+00 -0.00000000000E+00 -0.45593999997E+02  0.45594000000E+02  0.51100000000E-03 0.  1.
         23    2    1    2    0    0 -0.17763568394E-14  0.00000000000E+00  0.00000000000E+00  0.91188000000E+02  0.91188000000E+02 0.  0.
    9900012    2    3    3    0    0  0.12622419267E+02 -0.21590205077E+02 -0.37465331894E+02  0.46142317439E+02  0.99999970673E+01 0.  0.
         12    1    3    3    0    0 -0.12622419267E+02  0.21590205077E+02  0.37465331894E+02  0.45045682561E+02  0.00000000000E+00 0. -1.
         11    1    4    4    0    0  0.24584155418E+01 -0.34889719821E+01 -0.11814383801E+02  0.12561703600E+02  0.51100000000E-03 0. -1.
        -11    1    4    4    0    0  0.21518847727E+01 -0.98140427023E+01 -0.10361941202E+02  0.14433151699E+02  0.51100000000E-03 0.  1.
        -12    1    4    4    0    0  0.80121189527E+01 -0.82871903930E+01 -0.15289006891E+02  0.19147462141E+02  0.00000000000E+00 0.  1.
</event>
<event>
 8    1  0.2962813E-009  0.9118800E+02  0.7816164E-02  0.1184000E+00
        -11   -1    0    0    0    0  0.00000000000E+00  0.00000000000E+00  0.45593999997E+02  0.45594000000E+02  0.51100000000E-03 0.  1.
         11   -1    0    0    0    0 -0.00000000000E+00 -0.00000000000E+00 -0.45593999997E+02  0.45594000000E+02  0.51100000000E-03 0. -1.
         23    2    1    2    0    0 -0.71054273576E-14  0.35527136788E-14  0.17763568394E-14  0.91188000000E+02  0.91188000000E+02 0.  0.
    9900012    2    3    3    0    0  0.33164488456E+02 -0.29108787219E+02 -0.90503352615E+01  0.46142319227E+02  0.10000013367E+02 0.  0.
         12    1    3    3    0    0 -0.33164488456E+02  0.29108787219E+02  0.90503352615E+01  0.45045680773E+02  0.00000000000E+00 0. -1.
         11    1    4    4    0    0 -0.27831743695E+00  0.48683163260E+00 -0.59921466198E-01  0.56396496119E+00  0.51100000000E-03 0. -1.
        -11    1    4    4    0    0  0.26398771065E+02 -0.22709365607E+02 -0.73961694682E+01  0.35599350037E+02  0.51100000000E-03 0.  1.
         12    1    4    4    0    0  0.70440348284E+01 -0.68862532448E+01 -0.15942443271E+01  0.99790042283E+01  0.00000000000E+00 0. -1.
</event>
<event>
 8    1  0.2962813E-009  0.9118800E+02  0.7816164E-02  0.1184000E+00
        -11   -1    0    0    0    0  0.00000000000E+00  0.00000000000E+00  0.45593999997E+02  0.45594000000E+02  0.51100000000E-03 0. -1.
         11   -1    0    0    0    0 -0.00000000000E+00 -0.00000000000E+00 -0.45593999997E+02  0.45594000000E+02  0.51100000000E-03 0.  1.
         23    2    1    2    0    0  0.00000000000E+00  0.00000000000E+00  0.00000000000E+00  0.91188000000E+02  0.91188000000E+02 0.  0.
    9900012    2    3    3    0    0  0.34637665537E+02 -0.36301044332E+01 -0.28568651818E+02  0.46142318756E+02  0.10000009072E+02 0.  0.
         12    1    3    3    0    0 -0.34637665537E+02  0.36301044332E+01  0.28568651818E+02  0.45045681244E+02  0.00000000000E+00 0. -1.
         11    1    4    4    0    0  0.56296381599E-01  0.15056401995E+00  0.49899715148E+00  0.52424920123E+00  0.51100000000E-03 0. -1.
        -11    1    4    4    0    0  0.10153881982E+02 -0.30744321056E+01 -0.71694126619E+01  0.12804449627E+02  0.51100000000E-03 0.  1.
        -12    1    4    4    0    0  0.24427487174E+02 -0.70623634763E+00 -0.21898236308E+02  0.32813619928E+02  0.00000000000E+00 0.  1.
</event>
<event>
 8    1  0.2962813E-009  0.9118800E+02  0.7816164E-02  0.1184000E+00
        -11   -1    0    0    0    0  0.00000000000E+00  0.00000000000E+00  0.45593999997E+02  0.45594000000E+02  0.51100000000E-03 0. -1.
         11   -1    0    0    0    0 -0.00000000000E+00 -0.00000000000E+00 -0.45593999997E+02  0.45594000000E+02  0.51100000000E-03 0.  1.
         23    2    1    2    0    0  0.00000000000E+00  0.00000000000E+00  0.00000000000E+00  0.91188000000E+02  0.91188000000E+02 0.  0.
    9900012    2    3    3    0    0  0.36980021958E+01  0.21461934870E+02 -0.39431251994E+02  0.46142317605E+02  0.99999985727E+01 0.  0.
         12    1    3    3    0    0 -0.36980021958E+01 -0.21461934870E+02  0.39431251994E+02  0.45045682395E+02  0.00000000000E+00 0. -1.
         11    1    4    4    0    0 -0.12497290859E+01  0.71826571456E+00 -0.39917569613E+01  0.42440372671E+01  0.51100000000E-03 0. -1.
        -11    1    4    4    0    0  0.97301775651E+00  0.13472168865E+02 -0.26269011195E+02  0.29538230260E+02  0.51100000000E-03 0.  1.
        -12    1    4    4    0    0  0.39747135252E+01  0.72715002912E+01 -0.91704838379E+01  0.12360050077E+02  0.00000000000E+00 0.  1.
</event>
<event>
 8    1  0.2962813E-009  0.9118800E+02  0.7816164E-02  0.1184000E+00
        -11   -1    0    0    0    0  0.00000000000E+00  0.00000000000E+00  0.45593999997E+02  0.45594000000E+02  0.51100000000E-03 0. -1.
         11   -1    0    0    0    0 -0.00000000000E+00 -0.00000000000E+00 -0.45593999997E+02  0.45594000000E+02  0.51100000000E-03 0.  1.
         23    2    1    2    0    0 -0.71054273576E-14  0.35527136788E-14 -0.35527136788E-14  0.91188000000E+02  0.91188000000E+02 0.  0.
    9900012    2    3    3    0    0 -0.30587376490E+02  0.20353164109E+02 -0.26062898679E+02  0.46142316774E+02  0.99999909954E+01 0.  0.
         12    1    3    3    0    0  0.30587376490E+02 -0.20353164109E+02  0.26062898679E+02  0.45045683226E+02  0.00000000000E+00 0. -1.
         11    1    4    4    0    0 -0.73048505145E+01  0.49339961276E+01 -0.22167870660E+01  0.90895161579E+01  0.51100000000E-03 0. -1.
        -11    1    4    4    0    0 -0.19977027845E+02  0.10955388331E+02 -0.19733654294E+02  0.30141653688E+02  0.51100000000E-03 0.  1.
         12    1    4    4    0    0 -0.33054981309E+01  0.44637796501E+01 -0.41124573184E+01  0.69111469275E+01  0.00000000000E+00 0. -1.
</event>
<event>
 8    1  0.2962813E-009  0.9118800E+02  0.7816164E-02  0.1184000E+00
        -11   -1    0    0    0    0  0.00000000000E+00  0.00000000000E+00  0.45593999997E+02  0.45594000000E+02  0.51100000000E-03 0. -1.
         11   -1    0    0    0    0 -0.00000000000E+00 -0.00000000000E+00 -0.45593999997E+02  0.45594000000E+02  0.51100000000E-03 0.  1.
         23    2    1    2    0    0  0.00000000000E+00  0.00000000000E+00  0.00000000000E+00  0.91188000000E+02  0.91188000000E+02 0.  0.
    9900012    2    3    3    0    0  0.17132937462E+02  0.35643425268E+02 -0.21566688458E+02  0.46142319164E+02  0.10000012796E+02 0.  0.
         12    1    3    3    0    0 -0.17132937462E+02 -0.35643425268E+02  0.21566688458E+02  0.45045680836E+02  0.00000000000E+00 0. -1.
         11    1    4    4    0    0  0.38502684236E+01  0.46711663230E+01 -0.51169968743E+01  0.79264127463E+01  0.51100000000E-03 0. -1.
        -11    1    4    4    0    0  0.28312519804E+01  0.93950976348E+01 -0.84261718404E+01  0.12933840091E+02  0.51100000000E-03 0.  1.
        -12    1    4    4    0    0  0.10451417058E+02  0.21577161310E+02 -0.80235197433E+01  0.25282066328E+02  0.00000000000E+00 0.  1.
</event>
<event>
 8    1  0.2962813E-009  0.9118800E+02  0.7816164E-02  0.1184000E+00
        -11   -1    0    0    0    0  0.00000000000E+00  0.00000000000E+00  0.45593999997E+02  0.45594000000E+02  0.51100000000E-03 0. -1.
         11   -1    0    0    0    0 -0.00000000000E+00 -0.00000000000E+00 -0.45593999997E+02  0.45594000000E+02  0.51100000000E-03 0.  1.
         23    2    1    2    0    0 -0.44408920985E-15  0.71054273576E-14  0.17763568394E-14  0.91188000000E+02  0.91188000000E+02 0.  0.
    9900012    2    3    3    0    0 -0.23020271921E+01 -0.42139633763E+02  0.15750093458E+02  0.46142317557E+02  0.99999981366E+01 0.  0.
        -12    1    3    3    0    0  0.23020271921E+01  0.42139633763E+02 -0.15750093458E+02  0.45045682443E+02  0.00000000000E+00 0.  1.
         11    1    4    4    0    0  0.10428176028E+01 -0.18453687407E+02  0.73661303722E+01  0.19896882278E+02  0.51100000000E-03 0. -1.
        -11    1    4    4    0    0 -0.49693298403E+01 -0.21888647616E+02  0.76655077534E+01  0.23718497906E+02  0.51100000000E-03 0.  1.
        -12    1    4    4    0    0  0.16244850454E+01 -0.17972987392E+01  0.71845533252E+00  0.25269373727E+01  0.00000000000E+00 0.  1.
</event>
<event>
 8    1  0.2962813E-009  0.9118800E+02  0.7816164E-02  0.1184000E+00
        -11   -1    0    0    0    0  0.00000000000E+00  0.00000000000E+00  0.45593999997E+02  0.45594000000E+02  0.51100000000E-03 0. -1.
         11   -1    0    0    0    0 -0.00000000000E+00 -0.00000000000E+00 -0.45593999997E+02  0.45594000000E+02  0.51100000000E-03 0.  1.
         23    2    1    2    0    0  0.00000000000E+00  0.00000000000E+00  0.00000000000E+00  0.91188000000E+02  0.91188000000E+02 0.  0.
    9900012    2    3    3    0    0  0.18593762156E+02  0.13568185971E+02  0.38720663612E+02  0.46142318163E+02  0.10000003663E+02 0.  0.
        -12    1    3    3    0    0 -0.18593762156E+02 -0.13568185971E+02 -0.38720663612E+02  0.45045681837E+02  0.00000000000E+00 0.  1.
         11    1    4    4    0    0  0.12511911824E+02  0.57690171395E+01  0.22049556767E+02  0.26000239424E+02  0.51100000000E-03 0. -1.
        -11    1    4    4    0    0  0.31200402827E+01  0.14684252627E+01  0.22526808085E+01  0.41189191791E+01  0.51100000000E-03 0.  1.
         12    1    4    4    0    0  0.29618100489E+01  0.63307435689E+01  0.14418426036E+02  0.16023159559E+02  0.00000000000E+00 0. -1.
</event>
<event>
 8    1  0.2962813E-009  0.9118800E+02  0.7816164E-02  0.1184000E+00
        -11   -1    0    0    0    0  0.00000000000E+00  0.00000000000E+00  0.45593999997E+02  0.45594000000E+02  0.51100000000E-03 0.  1.
         11   -1    0    0    0    0 -0.00000000000E+00 -0.00000000000E+00 -0.45593999997E+02  0.45594000000E+02  0.51100000000E-03 0. -1.
         23    2    1    2    0    0  0.00000000000E+00  0.00000000000E+00  0.00000000000E+00  0.91188000000E+02  0.91188000000E+02 0.  0.
    9900012    2    3    3    0    0 -0.18215004564E+02 -0.40101981186E+02 -0.94423603546E+01  0.46142318127E+02  0.10000003337E+02 0.  0.
        -12    1    3    3    0    0  0.18215004564E+02  0.40101981186E+02  0.94423603546E+01  0.45045681873E+02  0.00000000000E+00 0.  1.
         11    1    4    4    0    0 -0.14848388900E+01 -0.85090544458E+01 -0.94435046011E+00  0.86891053707E+01  0.51100000000E-03 0. -1.
        -11    1    4    4    0    0 -0.16260264597E+02 -0.30327504326E+02 -0.95834402338E+01  0.35721086915E+02  0.51100000000E-03 0.  1.
        -12    1    4    4    0    0 -0.46990107648E+00 -0.12654224150E+01  0.10854303392E+01  0.17321258417E+01  0.00000000000E+00 0.  1.
</event>
<event>
 8    1  0.2962813E-009  0.9118800E+02  0.7816164E-02  0.1184000E+00
        -11   -1    0    0    0    0  0.00000000000E+00  0.00000000000E+00  0.45593999997E+02  0.45594000000E+02  0.51100000000E-03 0.  1.
         11   -1    0    0    0    0 -0.00000000000E+00 -0.00000000000E+00 -0.45593999997E+02  0.45594000000E+02  0.51100000000E-03 0. -1.
         23    2    1    2    0    0  0.00000000000E+00  0.00000000000E+00  0.35527136788E-14  0.91188000000E+02  0.91188000000E+02 0.  0.
    9900012    2    3    3    0    0 -0.37247191478E+02 -0.15495648326E+02  0.20041081161E+02  0.46142319584E+02  0.10000016621E+02 0.  0.
        -12    1    3    3    0    0  0.37247191478E+02  0.15495648326E+02 -0.20041081161E+02  0.45045680416E+02  0.00000000000E+00 0.  1.
         11    1    4    4    0    0 -0.27054943759E+02 -0.12885418175E+02  0.12653219372E+02  0.32528571196E+02  0.51100000000E-03 0. -1.
        -11    1    4    4    0    0 -0.10579377868E+02 -0.24100449854E+01  0.65631213742E+01  0.12680935113E+02  0.51100000000E-03 0.  1.
         12    1    4    4    0    0  0.38713014877E+00 -0.20018516547E+00  0.82474041525E+00  0.93281327451E+00  0.00000000000E+00 0. -1.
</event>
<event>
 8    1  0.2962813E-009  0.9118800E+02  0.7816164E-02  0.1184000E+00
        -11   -1    0    0    0    0  0.00000000000E+00  0.00000000000E+00  0.45593999997E+02  0.45594000000E+02  0.51100000000E-03 0. -1.
         11   -1    0    0    0    0 -0.00000000000E+00 -0.00000000000E+00 -0.45593999997E+02  0.45594000000E+02  0.51100000000E-03 0.  1.
         23    2    1    2    0    0  0.16653345369E-15  0.00000000000E+00  0.00000000000E+00  0.91188000000E+02  0.91188000000E+02 0.  0.
    9900012    2    3    3    0    0 -0.41189509493E+00 -0.38444533459E+02  0.23472573191E+02  0.46142317602E+02  0.99999985535E+01 0.  0.
        -12    1    3    3    0    0  0.41189509493E+00  0.38444533459E+02 -0.23472573191E+02  0.45045682398E+02  0.00000000000E+00 0.  1.
         11    1    4    4    0    0  0.17626241411E+01 -0.86921192999E+01  0.30494049193E+01  0.93786274267E+01  0.51100000000E-03 0. -1.
        -11    1    4    4    0    0 -0.45768901165E+01 -0.19013477358E+02  0.13472159981E+02  0.23747828095E+02  0.51100000000E-03 0.  1.
        -12    1    4    4    0    0  0.24023708805E+01 -0.10738936801E+02  0.69510082905E+01  0.13015862081E+02  0.00000000000E+00 0.  1.
</event>
<event>
 8    1  0.2962813E-009  0.9118800E+02  0.7816164E-02  0.1184000E+00
        -11   -1    0    0    0    0  0.00000000000E+00  0.00000000000E+00  0.45593999997E+02  0.45594000000E+02  0.51100000000E-03 0. -1.
         11   -1    0    0    0    0 -0.00000000000E+00 -0.00000000000E+00 -0.45593999997E+02  0.45594000000E+02  0.51100000000E-03 0.  1.
         23    2    1    2    0    0 -0.44408920985E-15  0.35527136788E-14  0.00000000000E+00  0.91188000000E+02  0.91188000000E+02 0.  0.
    9900012    2    3    3    0    0 -0.27833008795E+01  0.19221551826E+02 -0.40643555958E+02  0.46142318084E+02  0.10000002944E+02 0.  0.
         12    1    3    3    0    0  0.27833008795E+01 -0.19221551826E+02  0.40643555958E+02  0.45045681916E+02  0.00000000000E+00 0. -1.
         11    1    4    4    0    0  0.22827130997E+01  0.16973106734E+01 -0.78379325214E+01  0.83381550171E+01  0.51100000000E-03 0. -1.
        -11    1    4    4    0    0 -0.37909572682E+01  0.16612338021E+02 -0.31262069068E+02  0.35604186470E+02  0.51100000000E-03 0.  1.
        -12    1    4    4    0    0 -0.12750567110E+01  0.91190313204E+00 -0.15435543684E+01  0.21999765968E+01  0.00000000000E+00 0.  1.
</event>
<event>
 8    1  0.2962813E-009  0.9118800E+02  0.7816164E-02  0.1184000E+00
        -11   -1    0    0    0    0  0.00000000000E+00  0.00000000000E+00  0.45593999997E+02  0.45594000000E+02  0.51100000000E-03 0. -1.
         11   -1    0    0    0    0 -0.00000000000E+00 -0.00000000000E+00 -0.45593999997E+02  0.45594000000E+02  0.51100000000E-03 0.  1.
         23    2    1    2    0    0  0.00000000000E+00 -0.44408920985E-15  0.00000000000E+00  0.91188000000E+02  0.91188000000E+02 0.  0.
    9900012    2    3    3    0    0 -0.36722019773E+01 -0.33750125651E+01  0.44768714026E+02  0.46142317269E+02  0.99999955128E+01 0.  0.
        -12    1    3    3    0    0  0.36722019773E+01  0.33750125651E+01 -0.44768714026E+02  0.45045682731E+02  0.00000000000E+00 0.  1.
         11    1    4    4    0    0 -0.20821403807E+01  0.19977939692E+01  0.46820058757E+01  0.54997880495E+01  0.51100000000E-03 0. -1.
        -11    1    4    4    0    0 -0.26327955527E+01 -0.24549567487E+01  0.21374869535E+02  0.21675873061E+02  0.51100000000E-03 0.  1.
         12    1    4    4    0    0  0.10427339561E+01 -0.29178497856E+01  0.18711838615E+02  0.18966656158E+02  0.00000000000E+00 0. -1.
</event>
<event>
 8    1  0.2962813E-009  0.9118800E+02  0.7816164E-02  0.1184000E+00
        -11   -1    0    0    0    0  0.00000000000E+00  0.00000000000E+00  0.45593999997E+02  0.45594000000E+02  0.51100000000E-03 0. -1.
         11   -1    0    0    0    0 -0.00000000000E+00 -0.00000000000E+00 -0.45593999997E+02  0.45594000000E+02  0.51100000000E-03 0.  1.
         23    2    1    2    0    0  0.00000000000E+00 -0.17763568394E-14  0.00000000000E+00  0.91188000000E+02  0.91188000000E+02 0.  0.
    9900012    2    3    3    0    0 -0.17821435932E+01  0.15893540782E+02  0.42110948901E+02  0.46142326604E+02  0.10000080634E+02 0.  0.
        -12    1    3    3    0    0  0.17821435932E+01 -0.15893540782E+02 -0.42110948901E+02  0.45045673396E+02  0.00000000000E+00 0.  1.
         11    1    4    4    0    0  0.13791178005E+00  0.12505561442E+02  0.24340921079E+02  0.27365827703E+02  0.51100000000E-03 0. -1.
        -11    1    4    4    0    0 -0.31961194513E+01  0.33910472164E+01  0.15334993278E+02  0.16027364096E+02  0.51100000000E-03 0.  1.
        -12    1    4    4    0    0  0.12760640780E+01 -0.30678762544E-02  0.24350345436E+01  0.27491348042E+01  0.00000000000E+00 0.  1.
</event>
<event>
 8    1  0.2962813E-009  0.9118800E+02  0.7816164E-02  0.1184000E+00
        -11   -1    0    0    0    0  0.00000000000E+00  0.00000000000E+00  0.45593999997E+02  0.45594000000E+02  0.51100000000E-03 0. -1.
         11   -1    0    0    0    0 -0.00000000000E+00 -0.00000000000E+00 -0.45593999997E+02  0.45594000000E+02  0.51100000000E-03 0.  1.
         23    2    1    2    0    0  0.00000000000E+00  0.00000000000E+00  0.00000000000E+00  0.91188000000E+02  0.91188000000E+02 0.  0.
    9900012    2    3    3    0    0 -0.33084050124E+02  0.24186991656E+02 -0.18696222511E+02  0.46142315699E+02  0.99999811999E+01 0.  0.
         12    1    3    3    0    0  0.33084050124E+02 -0.24186991656E+02  0.18696222511E+02  0.45045684301E+02  0.00000000000E+00 0. -1.
         11    1    4    4    0    0 -0.12349932421E+01  0.35856122281E+00  0.82611746424E+00  0.15284779306E+01  0.51100000000E-03 0. -1.
        -11    1    4    4    0    0 -0.20178846403E+02  0.17972041133E+02 -0.12262044003E+02  0.29673857654E+02  0.51100000000E-03 0.  1.
        -12    1    4    4    0    0 -0.11670210479E+02  0.58563892995E+01 -0.72602959719E+01  0.14939980115E+02  0.00000000000E+00 0.  1.
</event>
<event>
 8    1  0.2962813E-009  0.9118800E+02  0.7816164E-02  0.1184000E+00
        -11   -1    0    0    0    0  0.00000000000E+00  0.00000000000E+00  0.45593999997E+02  0.45594000000E+02  0.51100000000E-03 0. -1.
         11   -1    0    0    0    0 -0.00000000000E+00 -0.00000000000E+00 -0.45593999997E+02  0.45594000000E+02  0.51100000000E-03 0.  1.
         23    2    1    2    0    0  0.00000000000E+00  0.00000000000E+00  0.00000000000E+00  0.91188000000E+02  0.91188000000E+02 0.  0.
    9900012    2    3    3    0    0  0.33155535990E+02  0.23054242435E+02 -0.19958100289E+02  0.46142318429E+02  0.10000006094E+02 0.  0.
         12    1    3    3    0    0 -0.33155535990E+02 -0.23054242435E+02  0.19958100289E+02  0.45045681571E+02  0.00000000000E+00 0. -1.
         11    1    4    4    0    0  0.78611003425E+01  0.10530542536E+02 -0.52538944680E+01  0.14152477947E+02  0.51100000000E-03 0. -1.
        -11    1    4    4    0    0  0.64285491630E+01  0.28846497676E+01 -0.52681241192E+01  0.87977599773E+01  0.51100000000E-03 0.  1.
         12    1    4    4    0    0  0.18865886484E+02  0.96390501312E+01 -0.94360817022E+01  0.23192080505E+02  0.00000000000E+00 0. -1.
</event>
<event>
 8    1  0.2962813E-009  0.9118800E+02  0.7816164E-02  0.1184000E+00
        -11   -1    0    0    0    0  0.00000000000E+00  0.00000000000E+00  0.45593999997E+02  0.45594000000E+02  0.51100000000E-03 0. -1.
         11   -1    0    0    0    0 -0.00000000000E+00 -0.00000000000E+00 -0.45593999997E+02  0.45594000000E+02  0.51100000000E-03 0.  1.
         23    2    1    2    0    0 -0.35527136788E-14 -0.35527136788E-14  0.00000000000E+00  0.91188000000E+02  0.91188000000E+02 0.  0.
    9900012    2    3    3    0    0  0.22164505593E+02  0.23834616723E+02 -0.31140956655E+02  0.46142318255E+02  0.10000004500E+02 0.  0.
         12    1    3    3    0    0 -0.22164505593E+02 -0.23834616723E+02  0.31140956655E+02  0.45045681745E+02  0.00000000000E+00 0. -1.
         11    1    4    4    0    0  0.57282298929E+00  0.48392845948E+01 -0.46588370394E+01  0.67417775391E+01  0.51100000000E-03 0. -1.
        -11    1    4    4    0    0  0.20524479522E+02  0.18885451483E+02 -0.26253651204E+02  0.38303638720E+02  0.51100000000E-03 0.  1.
         12    1    4    4    0    0  0.10672030814E+01  0.10988064441E+00 -0.22846841245E+00  0.10969019958E+01  0.00000000000E+00 0. -1.
</event>
<event>
 8    1  0.2962813E-009  0.9118800E+02  0.7816164E-02  0.1184000E+00
        -11   -1    0    0    0    0  0.00000000000E+00  0.00000000000E+00  0.45593999997E+02  0.45594000000E+02  0.51100000000E-03 0. -1.
         11   -1    0    0    0    0 -0.00000000000E+00 -0.00000000000E+00 -0.45593999997E+02  0.45594000000E+02  0.51100000000E-03 0.  1.
         23    2    1    2    0    0 -0.88817841970E-15  0.35527136788E-14 -0.14210854715E-13  0.91188000000E+02  0.91188000000E+02 0.  0.
    9900012    2    3    3    0    0 -0.24487054533E+01  0.19389256747E+02 -0.40585392310E+02  0.46142317582E+02  0.99999983662E+01 0.  0.
         12    1    3    3    0    0  0.24487054533E+01 -0.19389256747E+02  0.40585392310E+02  0.45045682418E+02  0.00000000000E+00 0. -1.
         11    1    4    4    0    0  0.17123559841E+01  0.24993565394E+01 -0.17470174183E+01  0.34972869840E+01  0.51100000000E-03 0. -1.
        -11    1    4    4    0    0 -0.32759308684E+01  0.16085958494E+02 -0.36181758415E+02  0.39731718135E+02  0.51100000000E-03 0.  1.
         12    1    4    4    0    0 -0.88513056905E+00  0.80394171313E+00 -0.26566164762E+01  0.29133124625E+01  0.00000000000E+00 0. -1.
</event>
<event>
 8    1  0.2962813E-009  0.9118800E+02  0.7816164E-02  0.1184000E+00
        -11   -1    0    0    0    0  0.00000000000E+00  0.00000000000E+00  0.45593999997E+02  0.45594000000E+02  0.51100000000E-03 0.  1.
         11   -1    0    0    0    0 -0.00000000000E+00 -0.00000000000E+00 -0.45593999997E+02  0.45594000000E+02  0.51100000000E-03 0. -1.
         23    2    1    2    0    0 -0.71054273576E-14 -0.35527136788E-14 -0.17763568394E-14  0.91188000000E+02  0.91188000000E+02 0.  0.
    9900012    2    3    3    0    0 -0.38315825463E+02 -0.21176529128E+02 -0.10609679225E+02  0.46142321405E+02  0.10000033228E+02 0.  0.
         12    1    3    3    0    0  0.38315825463E+02  0.21176529128E+02  0.10609679225E+02  0.45045678595E+02  0.00000000000E+00 0. -1.
         11    1    4    4    0    0 -0.10569186982E+02 -0.25021243111E+01 -0.54128869066E+00  0.10874802676E+02  0.51100000000E-03 0. -1.
        -11    1    4    4    0    0 -0.83074855685E+01 -0.51682202682E+01 -0.52790606938E+01  0.11117252326E+02  0.51100000000E-03 0.  1.
        -12    1    4    4    0    0 -0.19439152912E+02 -0.13506184549E+02 -0.47893298408E+01  0.24150266403E+02  0.00000000000E+00 0.  1.
</event>
<event>
 8    1  0.2962813E-009  0.9118800E+02  0.7816164E-02  0.1184000E+00
        -11   -1    0    0    0    0  0.00000000000E+00  0.00000000000E+00  0.45593999997E+02  0.45594000000E+02  0.51100000000E-03 0. -1.
         11   -1    0    0    0    0 -0.00000000000E+00 -0.00000000000E+00 -0.45593999997E+02  0.45594000000E+02  0.51100000000E-03 0.  1.
         23    2    1    2    0    0  0.00000000000E+00  0.71054273576E-14  0.35527136788E-14  0.91188000000E+02  0.91188000000E+02 0.  0.
    9900012    2    3    3    0    0  0.45991666647E+01  0.35607086252E+02 -0.27204715600E+02  0.46142317896E+02  0.10000001231E+02 0.  0.
         12    1    3    3    0    0 -0.45991666647E+01 -0.35607086252E+02  0.27204715600E+02  0.45045682104E+02  0.00000000000E+00 0. -1.
         11    1    4    4    0    0  0.49251877664E+01  0.12222374844E+02 -0.98427885535E+01  0.16447626216E+02  0.51100000000E-03 0. -1.
        -11    1    4    4    0    0  0.11644053519E+00  0.20951792715E+02 -0.12933079558E+02  0.24622260731E+02  0.51100000000E-03 0.  1.
         12    1    4    4    0    0 -0.44246163686E+00  0.24329186921E+01 -0.44288474884E+01  0.50724309495E+01  0.00000000000E+00 0. -1.
</event>
<event>
 8    1  0.2962813E-009  0.9118800E+02  0.7816164E-02  0.1184000E+00
        -11   -1    0    0    0    0  0.00000000000E+00  0.00000000000E+00  0.45593999997E+02  0.45594000000E+02  0.51100000000E-03 0. -1.
         11   -1    0    0    0    0 -0.00000000000E+00 -0.00000000000E+00 -0.45593999997E+02  0.45594000000E+02  0.51100000000E-03 0.  1.
         23    2    1    2    0    0  0.00000000000E+00 -0.35527136788E-14  0.00000000000E+00  0.91188000000E+02  0.91188000000E+02 0.  0.
    9900012    2    3    3    0    0  0.22319243271E+02  0.28338165848E+02 -0.26979868311E+02  0.46142316989E+02  0.99999929612E+01 0.  0.
         12    1    3    3    0    0 -0.22319243271E+02 -0.28338165848E+02  0.26979868311E+02  0.45045683011E+02  0.00000000000E+00 0. -1.
         11    1    4    4    0    0  0.34198712751E+01  0.17471780730E+01 -0.16573566564E+01  0.41827003365E+01  0.51100000000E-03 0. -1.
        -11    1    4    4    0    0  0.43904294961E+01  0.10344191881E+02 -0.55135548544E+01  0.12517086890E+02  0.51100000000E-03 0.  1.
         12    1    4    4    0    0  0.14508942499E+02  0.16246795894E+02 -0.19808956800E+02  0.29442529762E+02  0.00000000000E+00 0. -1.
</event>
<event>
 8    1  0.2962813E-009  0.9118800E+02  0.7816164E-02  0.1184000E+00
        -11   -1    0    0    0    0  0.00000000000E+00  0.00000000000E+00  0.45593999997E+02  0.45594000000E+02  0.51100000000E-03 0. -1.
         11   -1    0    0    0    0 -0.00000000000E+00 -0.00000000000E+00 -0.45593999997E+02  0.45594000000E+02  0.51100000000E-03 0.  1.
         23    2    1    2    0    0 -0.22204460493E-15  0.61062266354E-15  0.00000000000E+00  0.91188000000E+02  0.91188000000E+02 0.  0.
    9900012    2    3    3    0    0  0.11165023031E+01 -0.27820777909E+00  0.45030981551E+02  0.46142320114E+02  0.10000021456E+02 0.  0.
        -12    1    3    3    0    0 -0.11165023031E+01  0.27820777909E+00 -0.45030981551E+02  0.45045679886E+02  0.00000000000E+00 0.  1.
         11    1    4    4    0    0  0.30188056070E+00  0.13049204620E+01  0.36374208072E+02  0.36398859356E+02  0.51100000000E-03 0. -1.
        -11    1    4    4    0    0  0.82070326171E-01  0.10938339843E+01  0.66326652256E+00  0.12818467400E+01  0.51100000000E-03 0.  1.
         12    1    4    4    0    0  0.73255141625E+00 -0.26769622255E+01  0.79935069558E+01  0.84616140179E+01  0.00000000000E+00 0. -1.
</event>
<event>
 8    1  0.2962813E-009  0.9118800E+02  0.7816164E-02  0.1184000E+00
        -11   -1    0    0    0    0  0.00000000000E+00  0.00000000000E+00  0.45593999997E+02  0.45594000000E+02  0.51100000000E-03 0. -1.
         11   -1    0    0    0    0 -0.00000000000E+00 -0.00000000000E+00 -0.45593999997E+02  0.45594000000E+02  0.51100000000E-03 0.  1.
         23    2    1    2    0    0  0.17763568394E-14  0.71054273576E-14  0.00000000000E+00  0.91188000000E+02  0.91188000000E+02 0.  0.
    9900012    2    3    3    0    0  0.99340247962E+01  0.29532812628E+02 -0.32530625876E+02  0.46142317740E+02  0.99999998119E+01 0.  0.
         12    1    3    3    0    0 -0.99340247962E+01 -0.29532812628E+02  0.32530625876E+02  0.45045682260E+02  0.00000000000E+00 0. -1.
         11    1    4    4    0    0  0.85436116804E+00  0.64030531382E+00 -0.20789643236E+01  0.23370958089E+01  0.51100000000E-03 0. -1.
        -11    1    4    4    0    0  0.98820272032E+01  0.25918278877E+02 -0.24097621259E+02  0.36743802092E+02  0.51100000000E-03 0.  1.
        -12    1    4    4    0    0 -0.80236357506E+00  0.29742284371E+01 -0.63540402927E+01  0.70614198391E+01  0.00000000000E+00 0.  1.
</event>
<event>
 8    1  0.2962813E-009  0.9118800E+02  0.7816164E-02  0.1184000E+00
        -11   -1    0    0    0    0  0.00000000000E+00  0.00000000000E+00  0.45593999997E+02  0.45594000000E+02  0.51100000000E-03 0. -1.
         11   -1    0    0    0    0 -0.00000000000E+00 -0.00000000000E+00 -0.45593999997E+02  0.45594000000E+02  0.51100000000E-03 0.  1.
         23    2    1    2    0    0  0.00000000000E+00  0.35527136788E-14  0.00000000000E+00  0.91188000000E+02  0.91188000000E+02 0.  0.
    9900012    2    3    3    0    0  0.13456105426E+02 -0.28350135703E+02  0.32315885159E+02  0.46142318728E+02  0.10000008820E+02 0.  0.
        -12    1    3    3    0    0 -0.13456105426E+02  0.28350135703E+02 -0.32315885159E+02  0.45045681272E+02  0.00000000000E+00 0.  1.
         11    1    4    4    0    0  0.36672007469E+01 -0.14810013800E+02  0.14369858500E+02  0.20958952828E+02  0.51100000000E-03 0. -1.
        -11    1    4    4    0    0  0.83005935714E+01 -0.10904980180E+02  0.17331466116E+02  0.22095206818E+02  0.51100000000E-03 0.  1.
        -12    1    4    4    0    0  0.14883111079E+01 -0.26351417235E+01  0.61456054343E+00  0.30881590824E+01  0.00000000000E+00 0.  1.
</event>
<event>
 8    1  0.2962813E-009  0.9118800E+02  0.7816164E-02  0.1184000E+00
        -11   -1    0    0    0    0  0.00000000000E+00  0.00000000000E+00  0.45593999997E+02  0.45594000000E+02  0.51100000000E-03 0. -1.
         11   -1    0    0    0    0 -0.00000000000E+00 -0.00000000000E+00 -0.45593999997E+02  0.45594000000E+02  0.51100000000E-03 0.  1.
         23    2    1    2    0    0  0.35527136788E-14  0.17763568394E-14 -0.71054273576E-14  0.91188000000E+02  0.91188000000E+02 0.  0.
    9900012    2    3    3    0    0 -0.21770665369E+02 -0.97994105233E+01 -0.38198457125E+02  0.46142329354E+02  0.10000105712E+02 0.  0.
         12    1    3    3    0    0  0.21770665369E+02  0.97994105233E+01  0.38198457125E+02  0.45045670646E+02  0.00000000000E+00 0. -1.
         11    1    4    4    0    0 -0.56300685985E+00  0.51728215907E+00 -0.55443518769E+00  0.94443432530E+00  0.51100000000E-03 0. -1.
        -11    1    4    4    0    0 -0.18143175579E+02 -0.71591140725E+01 -0.34990679387E+02  0.40059647760E+02  0.51100000000E-03 0.  1.
        -12    1    4    4    0    0 -0.30644829305E+01 -0.31575786099E+01 -0.26533425500E+01  0.51382472689E+01  0.00000000000E+00 0.  1.
</event>
<event>
 8    1  0.2962813E-009  0.9118800E+02  0.7816164E-02  0.1184000E+00
        -11   -1    0    0    0    0  0.00000000000E+00  0.00000000000E+00  0.45593999997E+02  0.45594000000E+02  0.51100000000E-03 0.  1.
         11   -1    0    0    0    0 -0.00000000000E+00 -0.00000000000E+00 -0.45593999997E+02  0.45594000000E+02  0.51100000000E-03 0. -1.
         23    2    1    2    0    0  0.88817841970E-15  0.71054273576E-14 -0.35527136788E-14  0.91188000000E+02  0.91188000000E+02 0.  0.
    9900012    2    3    3    0    0 -0.67356625024E+01 -0.33426537828E+02  0.29434866879E+02  0.46142312430E+02  0.99999513867E+01 0.  0.
        -12    1    3    3    0    0  0.67356625024E+01  0.33426537828E+02 -0.29434866879E+02  0.45045687570E+02  0.00000000000E+00 0.  1.
         11    1    4    4    0    0 -0.29754487680E+01 -0.18796537254E+02  0.13731180713E+02  0.23467177763E+02  0.51100000000E-03 0. -1.
        -11    1    4    4    0    0 -0.24614961790E-01  0.36104157349E+00 -0.27076860162E+00  0.45196549744E+00  0.51100000000E-03 0.  1.
        -12    1    4    4    0    0 -0.37355987726E+01 -0.14991042148E+02  0.15974454767E+02  0.22223169170E+02  0.00000000000E+00 0.  1.
</event>
<event>
 8    1  0.2962813E-009  0.9118800E+02  0.7816164E-02  0.1184000E+00
        -11   -1    0    0    0    0  0.00000000000E+00  0.00000000000E+00  0.45593999997E+02  0.45594000000E+02  0.51100000000E-03 0. -1.
         11   -1    0    0    0    0 -0.00000000000E+00 -0.00000000000E+00 -0.45593999997E+02  0.45594000000E+02  0.51100000000E-03 0.  1.
         23    2    1    2    0    0 -0.35527136788E-14  0.88817841970E-15  0.71054273576E-14  0.91188000000E+02  0.91188000000E+02 0.  0.
    9900012    2    3    3    0    0  0.28308358799E+02  0.53563061860E+01 -0.34627449547E+02  0.46142318120E+02  0.10000003273E+02 0.  0.
         12    1    3    3    0    0 -0.28308358799E+02 -0.53563061860E+01  0.34627449547E+02  0.45045681880E+02  0.00000000000E+00 0. -1.
         11    1    4    4    0    0  0.57061957816E+01  0.36955991947E+01 -0.81083837683E+01  0.10581304801E+02  0.51100000000E-03 0. -1.
        -11    1    4    4    0    0  0.14337985025E+02  0.19970186087E+01 -0.11796132617E+02  0.18673902722E+02  0.51100000000E-03 0.  1.
        -12    1    4    4    0    0  0.82641779928E+01 -0.33631161739E+00 -0.14722933162E+02  0.16887110596E+02  0.00000000000E+00 0.  1.
</event>
<event>
 8    1  0.2962813E-009  0.9118800E+02  0.7816164E-02  0.1184000E+00
        -11   -1    0    0    0    0  0.00000000000E+00  0.00000000000E+00  0.45593999997E+02  0.45594000000E+02  0.51100000000E-03 0. -1.
         11   -1    0    0    0    0 -0.00000000000E+00 -0.00000000000E+00 -0.45593999997E+02  0.45594000000E+02  0.51100000000E-03 0.  1.
         23    2    1    2    0    0  0.17763568394E-14  0.00000000000E+00  0.00000000000E+00  0.91188000000E+02  0.91188000000E+02 0.  0.
    9900012    2    3    3    0    0 -0.15826809308E+02  0.27211256395E+02  0.32220692653E+02  0.46142318715E+02  0.10000008695E+02 0.  0.
        -12    1    3    3    0    0  0.15826809308E+02 -0.27211256395E+02 -0.32220692653E+02  0.45045681285E+02  0.00000000000E+00 0.  1.
         11    1    4    4    0    0 -0.87367354068E+01  0.11080658591E+02  0.18388008217E+02  0.23178230882E+02  0.51100000000E-03 0. -1.
        -11    1    4    4    0    0 -0.42793546563E+01  0.13485926343E+02  0.12505062638E+02  0.18882787862E+02  0.51100000000E-03 0.  1.
         12    1    4    4    0    0 -0.28107192450E+01  0.26446714608E+01  0.13276217975E+01  0.40812999702E+01  0.00000000000E+00 0. -1.
</event>
<event>
 8    1  0.2962813E-009  0.9118800E+02  0.7816164E-02  0.1184000E+00
        -11   -1    0    0    0    0  0.00000000000E+00  0.00000000000E+00  0.45593999997E+02  0.45594000000E+02  0.51100000000E-03 0. -1.
         11   -1    0    0    0    0 -0.00000000000E+00 -0.00000000000E+00 -0.45593999997E+02  0.45594000000E+02  0.51100000000E-03 0.  1.
         23    2    1    2    0    0 -0.17763568394E-14 -0.17763568394E-14  0.00000000000E+00  0.91188000000E+02  0.91188000000E+02 0.  0.
    9900012    2    3    3    0    0  0.12159301834E+02  0.15701959367E+02 -0.40431587904E+02  0.46142318192E+02  0.10000003931E+02 0.  0.
         12    1    3    3    0    0 -0.12159301834E+02 -0.15701959367E+02  0.40431587904E+02  0.45045681808E+02  0.00000000000E+00 0. -1.
         11    1    4    4    0    0  0.50265718320E+01  0.90230557673E+01 -0.12719861648E+02  0.16385262902E+02  0.51100000000E-03 0. -1.
        -11    1    4    4    0    0  0.22127666670E+01  0.22047916437E+01 -0.15882016052E+02  0.16186286685E+02  0.51100000000E-03 0.  1.
         12    1    4    4    0    0  0.49199633351E+01  0.44741119564E+01 -0.11829710204E+02  0.13570768605E+02  0.00000000000E+00 0. -1.
</event>
<event>
 8    1  0.2962813E-009  0.9118800E+02  0.7816164E-02  0.1184000E+00
        -11   -1    0    0    0    0  0.00000000000E+00  0.00000000000E+00  0.45593999997E+02  0.45594000000E+02  0.51100000000E-03 0. -1.
         11   -1    0    0    0    0 -0.00000000000E+00 -0.00000000000E+00 -0.45593999997E+02  0.45594000000E+02  0.51100000000E-03 0.  1.
         23    2    1    2    0    0  0.00000000000E+00  0.00000000000E+00  0.00000000000E+00  0.91188000000E+02  0.91188000000E+02 0.  0.
    9900012    2    3    3    0    0 -0.36321291618E+02  0.16844979961E+02  0.20642766570E+02  0.46142318894E+02  0.10000010327E+02 0.  0.
        -12    1    3    3    0    0  0.36321291618E+02 -0.16844979961E+02 -0.20642766570E+02  0.45045681106E+02  0.00000000000E+00 0.  1.
         11    1    4    4    0    0 -0.29702987541E+02  0.14479515081E+02  0.17966584170E+02  0.37612790016E+02  0.51100000000E-03 0. -1.
        -11    1    4    4    0    0 -0.16013384907E+01 -0.21265870733E+00 -0.90154921059E+00  0.18499459256E+01  0.51100000000E-03 0.  1.
        -12    1    4    4    0    0 -0.50169655865E+01  0.25781235871E+01  0.35777316111E+01  0.66795829516E+01  0.00000000000E+00 0.  1.
</event>
<event>
 8    1  0.2962813E-009  0.9118800E+02  0.7816164E-02  0.1184000E+00
        -11   -1    0    0    0    0  0.00000000000E+00  0.00000000000E+00  0.45593999997E+02  0.45594000000E+02  0.51100000000E-03 0. -1.
         11   -1    0    0    0    0 -0.00000000000E+00 -0.00000000000E+00 -0.45593999997E+02  0.45594000000E+02  0.51100000000E-03 0.  1.
         23    2    1    2    0    0  0.00000000000E+00  0.00000000000E+00 -0.35527136788E-14  0.91188000000E+02  0.91188000000E+02 0.  0.
    9900012    2    3    3    0    0 -0.31480074673E+02  0.58527807806E+01  0.31683797756E+02  0.46142321133E+02  0.10000030750E+02 0.  0.
        -12    1    3    3    0    0  0.31480074673E+02 -0.58527807806E+01 -0.31683797756E+02  0.45045678867E+02  0.00000000000E+00 0.  1.
         11    1    4    4    0    0 -0.96585580659E+01 -0.45030264584E+00  0.13518707270E+02  0.16620648691E+02  0.51100000000E-03 0. -1.
        -11    1    4    4    0    0 -0.95315991415E+01  0.18115190263E+00  0.70685050151E+01  0.11867938389E+02  0.51100000000E-03 0.  1.
        -12    1    4    4    0    0 -0.12289917466E+02  0.61219315238E+01  0.11096585471E+02  0.17653734053E+02  0.00000000000E+00 0.  1.
</event>
<event>
 8    1  0.2962813E-009  0.9118800E+02  0.7816164E-02  0.1184000E+00
        -11   -1    0    0    0    0  0.00000000000E+00  0.00000000000E+00  0.45593999997E+02  0.45594000000E+02  0.51100000000E-03 0. -1.
         11   -1    0    0    0    0 -0.00000000000E+00 -0.00000000000E+00 -0.45593999997E+02  0.45594000000E+02  0.51100000000E-03 0.  1.
         23    2    1    2    0    0  0.00000000000E+00 -0.49960036108E-15  0.00000000000E+00  0.91188000000E+02  0.91188000000E+02 0.  0.
    9900012    2    3    3    0    0 -0.73869695807E+01 -0.22375126015E+00  0.44435302640E+02  0.46142317578E+02  0.99999983271E+01 0.  0.
        -12    1    3    3    0    0  0.73869695807E+01  0.22375126015E+00 -0.44435302640E+02  0.45045682422E+02  0.00000000000E+00 0.  1.
         11    1    4    4    0    0  0.17377760064E+00  0.74751090985E-01  0.64526261361E+01  0.64553985696E+01  0.51100000000E-03 0. -1.
        -11    1    4    4    0    0 -0.53074614252E+01  0.24043955457E+01  0.10747444721E+02  0.12225294803E+02  0.51100000000E-03 0.  1.
        -12    1    4    4    0    0 -0.22532857561E+01 -0.27028978969E+01  0.27235231783E+02  0.27461624205E+02  0.00000000000E+00 0.  1.
</event>
<event>
 8    1  0.2962813E-009  0.9118800E+02  0.7816164E-02  0.1184000E+00
        -11   -1    0    0    0    0  0.00000000000E+00  0.00000000000E+00  0.45593999997E+02  0.45594000000E+02  0.51100000000E-03 0. -1.
         11   -1    0    0    0    0 -0.00000000000E+00 -0.00000000000E+00 -0.45593999997E+02  0.45594000000E+02  0.51100000000E-03 0.  1.
         23    2    1    2    0    0 -0.44408920985E-15  0.00000000000E+00  0.00000000000E+00  0.91188000000E+02  0.91188000000E+02 0.  0.
    9900012    2    3    3    0    0  0.10875501148E+01 -0.13209630739E+02 -0.43051555364E+02  0.46142317313E+02  0.99999959129E+01 0.  0.
         12    1    3    3    0    0 -0.10875501148E+01  0.13209630739E+02  0.43051555364E+02  0.45045682687E+02  0.00000000000E+00 0. -1.
         11    1    4    4    0    0 -0.36613670246E+01 -0.20875955251E+01 -0.14818645007E+02  0.15406359196E+02  0.51100000000E-03 0. -1.
        -11    1    4    4    0    0  0.26511651242E+01 -0.72359911718E+01 -0.18910999294E+02  0.20420924056E+02  0.51100000000E-03 0.  1.
         12    1    4    4    0    0  0.20977520153E+01 -0.38860440423E+01 -0.93219110630E+01  0.10315034061E+02  0.00000000000E+00 0. -1.
</event>
<event>
 8    1  0.2962813E-009  0.9118800E+02  0.7816164E-02  0.1184000E+00
        -11   -1    0    0    0    0  0.00000000000E+00  0.00000000000E+00  0.45593999997E+02  0.45594000000E+02  0.51100000000E-03 0. -1.
         11   -1    0    0    0    0 -0.00000000000E+00 -0.00000000000E+00 -0.45593999997E+02  0.45594000000E+02  0.51100000000E-03 0.  1.
         23    2    1    2    0    0 -0.35527136788E-14 -0.44408920985E-15  0.00000000000E+00  0.91188000000E+02  0.91188000000E+02 0.  0.
    9900012    2    3    3    0    0 -0.30834344719E+02  0.25083594090E+01  0.32742400610E+02  0.46142317866E+02  0.10000000958E+02 0.  0.
        -12    1    3    3    0    0  0.30834344719E+02 -0.25083594090E+01 -0.32742400610E+02  0.45045682134E+02  0.00000000000E+00 0.  1.
         11    1    4    4    0    0 -0.10073721690E+02 -0.19913906441E+01  0.13988349204E+02  0.17352792833E+02  0.51100000000E-03 0. -1.
        -11    1    4    4    0    0 -0.33916764416E+01  0.16290478363E+01  0.58761541025E+01  0.69775678595E+01  0.51100000000E-03 0.  1.
        -12    1    4    4    0    0 -0.17368946588E+02  0.28707022168E+01  0.12877897303E+02  0.21811957173E+02  0.00000000000E+00 0.  1.
</event>
<event>
 8    1  0.2962813E-009  0.9118800E+02  0.7816164E-02  0.1184000E+00
        -11   -1    0    0    0    0  0.00000000000E+00  0.00000000000E+00  0.45593999997E+02  0.45594000000E+02  0.51100000000E-03 0. -1.
         11   -1    0    0    0    0 -0.00000000000E+00 -0.00000000000E+00 -0.45593999997E+02  0.45594000000E+02  0.51100000000E-03 0.  1.
         23    2    1    2    0    0  0.44408920985E-15  0.71054273576E-14  0.00000000000E+00  0.91188000000E+02  0.91188000000E+02 0.  0.
    9900012    2    3    3    0    0  0.21275497918E+01  0.42015502367E+02  0.16102318944E+02  0.46142316715E+02  0.99999904567E+01 0.  0.
        -12    1    3    3    0    0 -0.21275497918E+01 -0.42015502367E+02 -0.16102318944E+02  0.45045683285E+02  0.00000000000E+00 0.  1.
         11    1    4    4    0    0  0.44144249274E+00  0.43864665596E+01  0.51642317278E+01  0.67900846793E+01  0.51100000000E-03 0. -1.
        -11    1    4    4    0    0 -0.58013542483E-01  0.28794526090E+02  0.85013159635E+01  0.30023332122E+02  0.51100000000E-03 0.  1.
         12    1    4    4    0    0  0.17441208415E+01  0.88345097174E+01  0.24367712531E+01  0.93288999135E+01  0.00000000000E+00 0. -1.
</event>
<event>
 8    1  0.2962813E-009  0.9118800E+02  0.7816164E-02  0.1184000E+00
        -11   -1    0    0    0    0  0.00000000000E+00  0.00000000000E+00  0.45593999997E+02  0.45594000000E+02  0.51100000000E-03 0. -1.
         11   -1    0    0    0    0 -0.00000000000E+00 -0.00000000000E+00 -0.45593999997E+02  0.45594000000E+02  0.51100000000E-03 0.  1.
         23    2    1    2    0    0  0.00000000000E+00  0.35527136788E-14  0.00000000000E+00  0.91188000000E+02  0.91188000000E+02 0.  0.
    9900012    2    3    3    0    0  0.54792205179E+01 -0.23903145289E+02  0.37785333257E+02  0.46142316283E+02  0.99999865194E+01 0.  0.
        -12    1    3    3    0    0 -0.54792205179E+01  0.23903145289E+02 -0.37785333257E+02  0.45045683717E+02  0.00000000000E+00 0.  1.
         11    1    4    4    0    0  0.40848342948E+01 -0.13418028209E+02  0.21947212573E+02  0.26046295173E+02  0.51100000000E-03 0. -1.
        -11    1    4    4    0    0  0.24407243819E-01 -0.58039512498E+01  0.13484075407E+02  0.14680147671E+02  0.51100000000E-03 0.  1.
        -12    1    4    4    0    0  0.13699789793E+01 -0.46811658304E+01  0.23540452774E+01  0.54158734386E+01  0.00000000000E+00 0.  1.
</event>
<event>
 8    1  0.2962813E-009  0.9118800E+02  0.7816164E-02  0.1184000E+00
        -11   -1    0    0    0    0  0.00000000000E+00  0.00000000000E+00  0.45593999997E+02  0.45594000000E+02  0.51100000000E-03 0. -1.
         11   -1    0    0    0    0 -0.00000000000E+00 -0.00000000000E+00 -0.45593999997E+02  0.45594000000E+02  0.51100000000E-03 0.  1.
         23    2    1    2    0    0  0.00000000000E+00  0.00000000000E+00 -0.17763568394E-14  0.91188000000E+02  0.91188000000E+02 0.  0.
    9900012    2    3    3    0    0 -0.26799207325E+02 -0.34032285317E+02 -0.12357977495E+02  0.46142316912E+02  0.99999922538E+01 0.  0.
         12    1    3    3    0    0  0.26799207325E+02  0.34032285317E+02  0.12357977495E+02  0.45045683088E+02  0.00000000000E+00 0. -1.
         11    1    4    4    0    0 -0.60618806005E+01 -0.22418683656E+01 -0.13968455171E+01  0.66123783802E+01  0.51100000000E-03 0. -1.
        -11    1    4    4    0    0 -0.16859972142E+02 -0.26476746016E+02 -0.94485067354E+01  0.32780345025E+02  0.51100000000E-03 0.  1.
        -12    1    4    4    0    0 -0.38773545823E+01 -0.53136709360E+01 -0.15126252421E+01  0.67495935060E+01  0.00000000000E+00 0.  1.
</event>
<event>
 8    1  0.2962813E-009  0.9118800E+02  0.7816164E-02  0.1184000E+00
        -11   -1    0    0    0    0  0.00000000000E+00  0.00000000000E+00  0.45593999997E+02  0.45594000000E+02  0.51100000000E-03 0. -1.
         11   -1    0    0    0    0 -0.00000000000E+00 -0.00000000000E+00 -0.45593999997E+02  0.45594000000E+02  0.51100000000E-03 0.  1.
         23    2    1    2    0    0  0.00000000000E+00  0.00000000000E+00 -0.71054273576E-14  0.91188000000E+02  0.91188000000E+02 0.  0.
    9900012    2    3    3    0    0 -0.25083984859E+02  0.10413717745E+02  0.35936907871E+02  0.46142321395E+02  0.10000033140E+02 0.  0.
        -12    1    3    3    0    0  0.25083984859E+02 -0.10413717745E+02 -0.35936907871E+02  0.45045678605E+02  0.00000000000E+00 0.  1.
         11    1    4    4    0    0 -0.14452460687E+02  0.69525898576E+01  0.15997981233E+02  0.22652759864E+02  0.51100000000E-03 0. -1.
        -11    1    4    4    0    0 -0.98776304434E+01  0.11004349165E+01  0.15853018522E+02  0.18710872152E+02  0.51100000000E-03 0.  1.
        -12    1    4    4    0    0 -0.75389372782E+00  0.23606929708E+01  0.40859081153E+01  0.47786893791E+01  0.00000000000E+00 0.  1.
</event>
<event>
 8    1  0.2962813E-009  0.9118800E+02  0.7816164E-02  0.1184000E+00
        -11   -1    0    0    0    0  0.00000000000E+00  0.00000000000E+00  0.45593999997E+02  0.45594000000E+02  0.51100000000E-03 0. -1.
         11   -1    0    0    0    0 -0.00000000000E+00 -0.00000000000E+00 -0.45593999997E+02  0.45594000000E+02  0.51100000000E-03 0.  1.
         23    2    1    2    0    0  0.00000000000E+00  0.00000000000E+00  0.00000000000E+00  0.91188000000E+02  0.91188000000E+02 0.  0.
    9900012    2    3    3    0    0 -0.35443046719E+02 -0.78015409013E+01 -0.26684075713E+02  0.46142317656E+02  0.99999990437E+01 0.  0.
         12    1    3    3    0    0  0.35443046719E+02  0.78015409013E+01  0.26684075713E+02  0.45045682344E+02  0.00000000000E+00 0. -1.
         11    1    4    4    0    0 -0.22296042365E+02 -0.82925274439E+01 -0.20734818387E+02  0.31556492365E+02  0.51100000000E-03 0. -1.
        -11    1    4    4    0    0 -0.58421203508E+01  0.11082328570E+01 -0.32291671539E+01  0.67665405510E+01  0.51100000000E-03 0.  1.
         12    1    4    4    0    0 -0.73048840031E+01 -0.61724631444E+00 -0.27200901720E+01  0.78192847406E+01  0.00000000000E+00 0. -1.
</event>
<event>
 8    1  0.2962813E-009  0.9118800E+02  0.7816164E-02  0.1184000E+00
        -11   -1    0    0    0    0  0.00000000000E+00  0.00000000000E+00  0.45593999997E+02  0.45594000000E+02  0.51100000000E-03 0. -1.
         11   -1    0    0    0    0 -0.00000000000E+00 -0.00000000000E+00 -0.45593999997E+02  0.45594000000E+02  0.51100000000E-03 0.  1.
         23    2    1    2    0    0  0.00000000000E+00  0.35527136788E-14  0.00000000000E+00  0.91188000000E+02  0.91188000000E+02 0.  0.
    9900012    2    3    3    0    0 -0.31537428745E+02 -0.29894752610E+02 -0.11866245262E+02  0.46142318496E+02  0.10000006703E+02 0.  0.
         12    1    3    3    0    0  0.31537428745E+02  0.29894752610E+02  0.11866245262E+02  0.45045681504E+02  0.00000000000E+00 0. -1.
         11    1    4    4    0    0 -0.68217532969E+01 -0.69194154927E+01 -0.51635150527E+01  0.11003477485E+02  0.51100000000E-03 0. -1.
        -11    1    4    4    0    0 -0.24500371900E+02 -0.22661324782E+02 -0.54327224163E+01  0.33812990657E+02  0.51100000000E-03 0.  1.
        -12    1    4    4    0    0 -0.21530354897E+00 -0.31401233587E+00 -0.12700077933E+01  0.13258503537E+01  0.00000000000E+00 0.  1.
</event>
<event>
 8    1  0.2962813E-009  0.9118800E+02  0.7816164E-02  0.1184000E+00
        -11   -1    0    0    0    0  0.00000000000E+00  0.00000000000E+00  0.45593999997E+02  0.45594000000E+02  0.51100000000E-03 0. -1.
         11   -1    0    0    0    0 -0.00000000000E+00 -0.00000000000E+00 -0.45593999997E+02  0.45594000000E+02  0.51100000000E-03 0.  1.
         23    2    1    2    0    0 -0.71054273576E-14  0.17763568394E-14  0.00000000000E+00  0.91188000000E+02  0.91188000000E+02 0.  0.
    9900012    2    3    3    0    0 -0.22935585829E+02  0.10709506584E+02  0.37260955784E+02  0.46142318136E+02  0.10000003421E+02 0.  0.
        -12    1    3    3    0    0  0.22935585829E+02 -0.10709506584E+02 -0.37260955784E+02  0.45045681864E+02  0.00000000000E+00 0.  1.
         11    1    4    4    0    0 -0.12280041279E+02  0.48539833380E+01  0.12824072921E+02  0.18406993633E+02  0.51100000000E-03 0. -1.
        -11    1    4    4    0    0 -0.10566542884E+02  0.55241197017E+01  0.19994956402E+02  0.23280163418E+02  0.51100000000E-03 0.  1.
        -12    1    4    4    0    0 -0.89001666086E-01  0.33140354450E+00  0.44419264615E+01  0.44551610852E+01  0.00000000000E+00 0.  1.
</event>
<event>
 8    1  0.2962813E-009  0.9118800E+02  0.7816164E-02  0.1184000E+00
        -11   -1    0    0    0    0  0.00000000000E+00  0.00000000000E+00  0.45593999997E+02  0.45594000000E+02  0.51100000000E-03 0.  1.
         11   -1    0    0    0    0 -0.00000000000E+00 -0.00000000000E+00 -0.45593999997E+02  0.45594000000E+02  0.51100000000E-03 0. -1.
         23    2    1    2    0    0  0.00000000000E+00 -0.17763568394E-14  0.00000000000E+00  0.91188000000E+02  0.91188000000E+02 0.  0.
    9900012    2    3    3    0    0 -0.40902933081E+02 -0.15348295356E+02  0.10976945049E+02  0.46142318436E+02  0.10000006151E+02 0.  0.
        -12    1    3    3    0    0  0.40902933081E+02  0.15348295356E+02 -0.10976945049E+02  0.45045681564E+02  0.00000000000E+00 0.  1.
         11    1    4    4    0    0 -0.31085164739E+02 -0.13474568298E+02  0.65776220464E+01  0.34512556696E+02  0.51100000000E-03 0. -1.
        -11    1    4    4    0    0 -0.63071891673E+00  0.17406744907E+00 -0.67207331990E+00  0.93797048844E+00  0.51100000000E-03 0.  1.
         12    1    4    4    0    0 -0.91870494256E+01 -0.20477945073E+01  0.50713963227E+01  0.10691791251E+02  0.00000000000E+00 0. -1.
</event>
<event>
 8    1  0.2962813E-009  0.9118800E+02  0.7816164E-02  0.1184000E+00
        -11   -1    0    0    0    0  0.00000000000E+00  0.00000000000E+00  0.45593999997E+02  0.45594000000E+02  0.51100000000E-03 0. -1.
         11   -1    0    0    0    0 -0.00000000000E+00 -0.00000000000E+00 -0.45593999997E+02  0.45594000000E+02  0.51100000000E-03 0.  1.
         23    2    1    2    0    0 -0.17763568394E-14 -0.71054273576E-14 -0.35527136788E-14  0.91188000000E+02  0.91188000000E+02 0.  0.
    9900012    2    3    3    0    0  0.12722036163E+02  0.38183775041E+02  0.20230238903E+02  0.46142318225E+02  0.10000004226E+02 0.  0.
        -12    1    3    3    0    0 -0.12722036163E+02 -0.38183775041E+02 -0.20230238903E+02  0.45045681775E+02  0.00000000000E+00 0.  1.
         11    1    4    4    0    0  0.11462801480E+02  0.29883858287E+02  0.18749690992E+02  0.37094362327E+02  0.51100000000E-03 0. -1.
        -11    1    4    4    0    0 -0.14210956410E-01  0.18608087657E+01 -0.89832678952E+00  0.20663500419E+01  0.51100000000E-03 0.  1.
         12    1    4    4    0    0  0.12734456391E+01  0.64391079881E+01  0.23788747012E+01  0.69816058556E+01  0.00000000000E+00 0. -1.
</event>
<event>
 8    1  0.2962813E-009  0.9118800E+02  0.7816164E-02  0.1184000E+00
        -11   -1    0    0    0    0  0.00000000000E+00  0.00000000000E+00  0.45593999997E+02  0.45594000000E+02  0.51100000000E-03 0. -1.
         11   -1    0    0    0    0 -0.00000000000E+00 -0.00000000000E+00 -0.45593999997E+02  0.45594000000E+02  0.51100000000E-03 0.  1.
         23    2    1    2    0    0  0.88817841970E-15  0.71054273576E-14  0.71054273576E-14  0.91188000000E+02  0.91188000000E+02 0.  0.
    9900012    2    3    3    0    0 -0.47718355676E+01 -0.37859559262E+02 -0.23937353959E+02  0.46142317002E+02  0.99999930779E+01 0.  0.
         12    1    3    3    0    0  0.47718355676E+01  0.37859559262E+02  0.23937353959E+02  0.45045682998E+02  0.00000000000E+00 0. -1.
         11    1    4    4    0    0  0.20940864499E+01 -0.22983257873E+01 -0.26092435218E+01  0.40590210029E+01  0.51100000000E-03 0. -1.
        -11    1    4    4    0    0 -0.60499977601E+01 -0.27850563518E+02 -0.16124413378E+02  0.32745275510E+02  0.51100000000E-03 0.  1.
         12    1    4    4    0    0 -0.81592425746E+00 -0.77106699561E+01 -0.52036970596E+01  0.93380204891E+01  0.00000000000E+00 0. -1.
</event>
<event>
 8    1  0.2962813E-009  0.9118800E+02  0.7816164E-02  0.1184000E+00
        -11   -1    0    0    0    0  0.00000000000E+00  0.00000000000E+00  0.45593999997E+02  0.45594000000E+02  0.51100000000E-03 0.  1.
         11   -1    0    0    0    0 -0.00000000000E+00 -0.00000000000E+00 -0.45593999997E+02  0.45594000000E+02  0.51100000000E-03 0. -1.
         23    2    1    2    0    0  0.00000000000E+00  0.71054273576E-14  0.17763568394E-14  0.91188000000E+02  0.91188000000E+02 0.  0.
    9900012    2    3    3    0    0  0.37379427730E+01 -0.42200092455E+02  0.15306645090E+02  0.46142318705E+02  0.10000008609E+02 0.  0.
        -12    1    3    3    0    0 -0.37379427730E+01  0.42200092455E+02 -0.15306645090E+02  0.45045681295E+02  0.00000000000E+00 0.  1.
         11    1    4    4    0    0 -0.10875739666E+01 -0.24035737078E+02  0.67567736578E+01  0.24991067695E+02  0.51100000000E-03 0. -1.
        -11    1    4    4    0    0  0.17289762775E+01 -0.12280200060E+02  0.72851551246E+01  0.14382842485E+02  0.51100000000E-03 0.  1.
         12    1    4    4    0    0  0.30965404621E+01 -0.58841553173E+01  0.12647163073E+01  0.67684085256E+01  0.00000000000E+00 0. -1.
</event>
<event>
 8    1  0.2962813E-009  0.9118800E+02  0.7816164E-02  0.1184000E+00
        -11   -1    0    0    0    0  0.00000000000E+00  0.00000000000E+00  0.45593999997E+02  0.45594000000E+02  0.51100000000E-03 0. -1.
         11   -1    0    0    0    0 -0.00000000000E+00 -0.00000000000E+00 -0.45593999997E+02  0.45594000000E+02  0.51100000000E-03 0.  1.
         23    2    1    2    0    0  0.00000000000E+00  0.71054273576E-14  0.17763568394E-14  0.91188000000E+02  0.91188000000E+02 0.  0.
    9900012    2    3    3    0    0 -0.51860354128E+00  0.42770557229E+02  0.14125297070E+02  0.46142317269E+02  0.99999955169E+01 0.  0.
        -12    1    3    3    0    0  0.51860354128E+00 -0.42770557229E+02 -0.14125297070E+02  0.45045682731E+02  0.00000000000E+00 0.  1.
         11    1    4    4    0    0 -0.38749037971E+01  0.37077463527E+02  0.12627939539E+02  0.39360107194E+02  0.51100000000E-03 0. -1.
        -11    1    4    4    0    0  0.16768568060E+01  0.28878636303E+01  0.89999704845E+00  0.34585546176E+01  0.51100000000E-03 0.  1.
         12    1    4    4    0    0  0.16794434498E+01  0.28052300718E+01  0.59736048231E+00  0.33236554579E+01  0.00000000000E+00 0. -1.
</event>
<event>
 8    1  0.2962813E-009  0.9118800E+02  0.7816164E-02  0.1184000E+00
        -11   -1    0    0    0    0  0.00000000000E+00  0.00000000000E+00  0.45593999997E+02  0.45594000000E+02  0.51100000000E-03 0.  1.
         11   -1    0    0    0    0 -0.00000000000E+00 -0.00000000000E+00 -0.45593999997E+02  0.45594000000E+02  0.51100000000E-03 0. -1.
         23    2    1    2    0    0  0.71054273576E-14  0.35527136788E-14  0.00000000000E+00  0.91188000000E+02  0.91188000000E+02 0.  0.
    9900012    2    3    3    0    0  0.42226039428E+02  0.14786004756E+02  0.52391931270E+01  0.46142317776E+02  0.10000000137E+02 0.  0.
        -12    1    3    3    0    0 -0.42226039428E+02 -0.14786004756E+02 -0.52391931270E+01  0.45045682224E+02  0.00000000000E+00 0.  1.
         11    1    4    4    0    0  0.14745209504E+02  0.41689594992E+01  0.11698689830E+01  0.15367824190E+02  0.51100000000E-03 0. -1.
        -11    1    4    4    0    0  0.11807996475E+02  0.71030011312E+00  0.29921161965E+01  0.12201887830E+02  0.51100000000E-03 0.  1.
         12    1    4    4    0    0  0.15672833448E+02  0.99067451432E+01  0.10772079475E+01  0.18572605757E+02  0.00000000000E+00 0. -1.
</event>
<event>
 8    1  0.2962813E-009  0.9118800E+02  0.7816164E-02  0.1184000E+00
        -11   -1    0    0    0    0  0.00000000000E+00  0.00000000000E+00  0.45593999997E+02  0.45594000000E+02  0.51100000000E-03 0. -1.
         11   -1    0    0    0    0 -0.00000000000E+00 -0.00000000000E+00 -0.45593999997E+02  0.45594000000E+02  0.51100000000E-03 0.  1.
         23    2    1    2    0    0  0.00000000000E+00  0.00000000000E+00  0.00000000000E+00  0.91188000000E+02  0.91188000000E+02 0.  0.
    9900012    2    3    3    0    0  0.42404086310E+01 -0.60703784492E+01 -0.44432903655E+02  0.46142317775E+02  0.10000000126E+02 0.  0.
         12    1    3    3    0    0 -0.42404086310E+01  0.60703784492E+01  0.44432903655E+02  0.45045682225E+02  0.00000000000E+00 0. -1.
         11    1    4    4    0    0  0.58149773675E+01 -0.55782276796E+01 -0.37364269274E+02  0.38223280922E+02  0.51100000000E-03 0. -1.
        -11    1    4    4    0    0 -0.20267699940E+01 -0.14138898084E+01 -0.42109533106E+01  0.48825207674E+01  0.51100000000E-03 0.  1.
         12    1    4    4    0    0  0.45220125753E+00  0.92173903882E+00 -0.28576810710E+01  0.30365160854E+01  0.00000000000E+00 0. -1.
</event>
<event>
 8    1  0.2962813E-009  0.9118800E+02  0.7816164E-02  0.1184000E+00
        -11   -1    0    0    0    0  0.00000000000E+00  0.00000000000E+00  0.45593999997E+02  0.45594000000E+02  0.51100000000E-03 0. -1.
         11   -1    0    0    0    0 -0.00000000000E+00 -0.00000000000E+00 -0.45593999997E+02  0.45594000000E+02  0.51100000000E-03 0.  1.
         23    2    1    2    0    0  0.35527136788E-14  0.00000000000E+00  0.00000000000E+00  0.91188000000E+02  0.91188000000E+02 0.  0.
    9900012    2    3    3    0    0  0.19091939652E+02  0.20661310101E+02 -0.35181268182E+02  0.46142317347E+02  0.99999962253E+01 0.  0.
         12    1    3    3    0    0 -0.19091939652E+02 -0.20661310101E+02  0.35181268182E+02  0.45045682653E+02  0.00000000000E+00 0. -1.
         11    1    4    4    0    0  0.57967321349E+00  0.26427215265E+01 -0.10828039395E+01  0.29141830302E+01  0.51100000000E-03 0. -1.
        -11    1    4    4    0    0  0.17491060174E+02  0.15047343399E+02 -0.27337930895E+02  0.35773204990E+02  0.51100000000E-03 0.  1.
        -12    1    4    4    0    0  0.10212062647E+01  0.29712451753E+01 -0.67605333472E+01  0.74549293267E+01  0.00000000000E+00 0.  1.
</event>
<event>
 8    1  0.2962813E-009  0.9118800E+02  0.7816164E-02  0.1184000E+00
        -11   -1    0    0    0    0  0.00000000000E+00  0.00000000000E+00  0.45593999997E+02  0.45594000000E+02  0.51100000000E-03 0. -1.
         11   -1    0    0    0    0 -0.00000000000E+00 -0.00000000000E+00 -0.45593999997E+02  0.45594000000E+02  0.51100000000E-03 0.  1.
         23    2    1    2    0    0  0.00000000000E+00  0.00000000000E+00  0.00000000000E+00  0.91188000000E+02  0.91188000000E+02 0.  0.
    9900012    2    3    3    0    0  0.11154517449E+02 -0.28156454618E+02 -0.33345221230E+02  0.46142323459E+02  0.10000051960E+02 0.  0.
         12    1    3    3    0    0 -0.11154517449E+02  0.28156454618E+02  0.33345221230E+02  0.45045676541E+02  0.00000000000E+00 0. -1.
         11    1    4    4    0    0  0.11156114890E+01 -0.17086273781E+01 -0.64849751009E+01  0.67984482664E+01  0.51100000000E-03 0. -1.
        -11    1    4    4    0    0  0.68282053968E+01 -0.11702835787E+02 -0.11006604445E+02  0.17456405588E+02  0.51100000000E-03 0.  1.
         12    1    4    4    0    0  0.32107005631E+01 -0.14744991453E+02 -0.15853641684E+02  0.21887469604E+02  0.00000000000E+00 0. -1.
</event>
<event>
 8    1  0.2962813E-009  0.9118800E+02  0.7816164E-02  0.1184000E+00
        -11   -1    0    0    0    0  0.00000000000E+00  0.00000000000E+00  0.45593999997E+02  0.45594000000E+02  0.51100000000E-03 0. -1.
         11   -1    0    0    0    0 -0.00000000000E+00 -0.00000000000E+00 -0.45593999997E+02  0.45594000000E+02  0.51100000000E-03 0.  1.
         23    2    1    2    0    0 -0.71054273576E-14 -0.71054273576E-14 -0.22204460493E-15  0.91188000000E+02  0.91188000000E+02 0.  0.
    9900012    2    3    3    0    0  0.26841621786E+02  0.36145603798E+02  0.14615376168E+01  0.46142318451E+02  0.10000006289E+02 0.  0.
        -12    1    3    3    0    0 -0.26841621786E+02 -0.36145603798E+02 -0.14615376168E+01  0.45045681549E+02  0.00000000000E+00 0.  1.
         11    1    4    4    0    0  0.23167430359E+02  0.33653911547E+02 -0.10083546799E+01  0.40869699917E+02  0.51100000000E-03 0. -1.
        -11    1    4    4    0    0  0.37734536166E+01  0.23395403363E+01  0.22207765441E+01  0.49642975235E+01  0.51100000000E-03 0.  1.
         12    1    4    4    0    0 -0.99262189488E-01  0.15215191460E+00  0.24911575264E+00  0.30832101062E+00  0.00000000000E+00 0. -1.
</event>
<event>
 8    1  0.2962813E-009  0.9118800E+02  0.7816164E-02  0.1184000E+00
        -11   -1    0    0    0    0  0.00000000000E+00  0.00000000000E+00  0.45593999997E+02  0.45594000000E+02  0.51100000000E-03 0. -1.
         11   -1    0    0    0    0 -0.00000000000E+00 -0.00000000000E+00 -0.45593999997E+02  0.45594000000E+02  0.51100000000E-03 0.  1.
         23    2    1    2    0    0  0.00000000000E+00 -0.35527136788E-14  0.00000000000E+00  0.91188000000E+02  0.91188000000E+02 0.  0.
    9900012    2    3    3    0    0 -0.22192495045E+02  0.24485905999E+02 -0.30611223680E+02  0.46142318252E+02  0.10000004479E+02 0.  0.
         12    1    3    3    0    0  0.22192495045E+02 -0.24485905999E+02  0.30611223680E+02  0.45045681748E+02  0.00000000000E+00 0. -1.
         11    1    4    4    0    0 -0.97155076525E+01  0.10779473678E+02 -0.98544906151E+01  0.17541354773E+02  0.51100000000E-03 0. -1.
        -11    1    4    4    0    0 -0.27733498633E+01  0.77742773543E+01 -0.77383063915E+01  0.11314249596E+02  0.51100000000E-03 0.  1.
         12    1    4    4    0    0 -0.97036375293E+01  0.59321549669E+01 -0.13018426673E+02  0.17286713884E+02  0.00000000000E+00 0. -1.
</event>
<event>
 8    1  0.2962813E-009  0.9118800E+02  0.7816164E-02  0.1184000E+00
        -11   -1    0    0    0    0  0.00000000000E+00  0.00000000000E+00  0.45593999997E+02  0.45594000000E+02  0.51100000000E-03 0. -1.
         11   -1    0    0    0    0 -0.00000000000E+00 -0.00000000000E+00 -0.45593999997E+02  0.45594000000E+02  0.51100000000E-03 0.  1.
         23    2    1    2    0    0  0.00000000000E+00  0.00000000000E+00  0.00000000000E+00  0.91188000000E+02  0.91188000000E+02 0.  0.
    9900012    2    3    3    0    0 -0.12630428017E+02 -0.22967236626E+02 -0.36634569961E+02  0.46142318894E+02  0.10000010329E+02 0.  0.
         12    1    3    3    0    0  0.12630428017E+02  0.22967236626E+02  0.36634569961E+02  0.45045681106E+02  0.00000000000E+00 0. -1.
         11    1    4    4    0    0 -0.50825231640E+01 -0.14363892024E+02 -0.15200491766E+02  0.21522276505E+02  0.51100000000E-03 0. -1.
        -11    1    4    4    0    0 -0.61862550149E+01 -0.83004940072E+01 -0.16380936107E+02  0.19377900296E+02  0.51100000000E-03 0.  1.
        -12    1    4    4    0    0 -0.13616498384E+01 -0.30285059501E+00 -0.50531420867E+01  0.52421420921E+01  0.00000000000E+00 0.  1.
</event>
<event>
 8    1  0.2962813E-009  0.9118800E+02  0.7816164E-02  0.1184000E+00
        -11   -1    0    0    0    0  0.00000000000E+00  0.00000000000E+00  0.45593999997E+02  0.45594000000E+02  0.51100000000E-03 0. -1.
         11   -1    0    0    0    0 -0.00000000000E+00 -0.00000000000E+00 -0.45593999997E+02  0.45594000000E+02  0.51100000000E-03 0.  1.
         23    2    1    2    0    0 -0.88817841970E-15  0.35527136788E-14  0.00000000000E+00  0.91188000000E+02  0.91188000000E+02 0.  0.
    9900012    2    3    3    0    0 -0.46005410160E+01  0.19756370757E+02 -0.40219824600E+02  0.46142318142E+02  0.10000003477E+02 0.  0.
         12    1    3    3    0    0  0.46005410160E+01 -0.19756370757E+02  0.40219824600E+02  0.45045681858E+02  0.00000000000E+00 0. -1.
         11    1    4    4    0    0 -0.34437052210E+01  0.66220246352E+01 -0.17510334087E+02  0.19034760729E+02  0.51100000000E-03 0. -1.
        -11    1    4    4    0    0 -0.18949661818E+01  0.47105543823E+01 -0.36402733322E+01  0.62475442866E+01  0.51100000000E-03 0.  1.
        -12    1    4    4    0    0  0.73813038689E+00  0.84237917393E+01 -0.19069217181E+02  0.20860013126E+02  0.00000000000E+00 0.  1.
</event>
<event>
 8    1  0.2962813E-009  0.9118800E+02  0.7816164E-02  0.1184000E+00
        -11   -1    0    0    0    0  0.00000000000E+00  0.00000000000E+00  0.45593999997E+02  0.45594000000E+02  0.51100000000E-03 0. -1.
         11   -1    0    0    0    0 -0.00000000000E+00 -0.00000000000E+00 -0.45593999997E+02  0.45594000000E+02  0.51100000000E-03 0.  1.
         23    2    1    2    0    0  0.00000000000E+00  0.00000000000E+00  0.71054273576E-14  0.91188000000E+02  0.91188000000E+02 0.  0.
    9900012    2    3    3    0    0 -0.71717866195E+01  0.47952684595E+01  0.44211812188E+02  0.46142318077E+02  0.10000002884E+02 0.  0.
        -12    1    3    3    0    0  0.71717866195E+01 -0.47952684595E+01 -0.44211812188E+02  0.45045681923E+02  0.00000000000E+00 0.  1.
         11    1    4    4    0    0 -0.62546513549E+01  0.36358756625E+01  0.18207033804E+02  0.19591741515E+02  0.51100000000E-03 0. -1.
        -11    1    4    4    0    0  0.10961957154E+01 -0.13853178593E+01  0.51426989124E+01  0.54376560191E+01  0.51100000000E-03 0.  1.
        -12    1    4    4    0    0 -0.20133309800E+01  0.25447106563E+01  0.20862079472E+02  0.21112920543E+02  0.00000000000E+00 0.  1.
</event>
<event>
 8    1  0.2962813E-009  0.9118800E+02  0.7816164E-02  0.1184000E+00
        -11   -1    0    0    0    0  0.00000000000E+00  0.00000000000E+00  0.45593999997E+02  0.45594000000E+02  0.51100000000E-03 0. -1.
         11   -1    0    0    0    0 -0.00000000000E+00 -0.00000000000E+00 -0.45593999997E+02  0.45594000000E+02  0.51100000000E-03 0.  1.
         23    2    1    2    0    0  0.71054273576E-14  0.00000000000E+00  0.00000000000E+00  0.91188000000E+02  0.91188000000E+02 0.  0.
    9900012    2    3    3    0    0 -0.23854895152E+02  0.30988670049E+02  0.22355308093E+02  0.46142317698E+02  0.99999994282E+01 0.  0.
        -12    1    3    3    0    0  0.23854895152E+02 -0.30988670049E+02 -0.22355308093E+02  0.45045682302E+02  0.00000000000E+00 0.  1.
         11    1    4    4    0    0 -0.60902057308E+01  0.13375219528E+02  0.12138790648E+02  0.19061409757E+02  0.51100000000E-03 0. -1.
        -11    1    4    4    0    0 -0.86902567435E+01  0.98680924169E+01  0.54157841545E+01  0.14220778055E+02  0.51100000000E-03 0.  1.
         12    1    4    4    0    0 -0.90744326776E+01  0.77453581036E+01  0.48007332904E+01  0.12860129887E+02  0.00000000000E+00 0. -1.
</event>
<event>
 8    1  0.2962813E-009  0.9118800E+02  0.7816164E-02  0.1184000E+00
        -11   -1    0    0    0    0  0.00000000000E+00  0.00000000000E+00  0.45593999997E+02  0.45594000000E+02  0.51100000000E-03 0. -1.
         11   -1    0    0    0    0 -0.00000000000E+00 -0.00000000000E+00 -0.45593999997E+02  0.45594000000E+02  0.51100000000E-03 0.  1.
         23    2    1    2    0    0  0.00000000000E+00  0.00000000000E+00  0.00000000000E+00  0.91188000000E+02  0.91188000000E+02 0.  0.
    9900012    2    3    3    0    0  0.25864884731E+01 -0.36643150078E+02 -0.26071117223E+02  0.46142317371E+02  0.99999964390E+01 0.  0.
         12    1    3    3    0    0 -0.25864884731E+01  0.36643150078E+02  0.26071117223E+02  0.45045682629E+02  0.00000000000E+00 0. -1.
         11    1    4    4    0    0  0.54410129588E+01 -0.14104622486E+02 -0.91991337731E+01  0.17696583284E+02  0.51100000000E-03 0. -1.
        -11    1    4    4    0    0 -0.17822495049E+01 -0.19321173460E+02 -0.13322964115E+02  0.23536897210E+02  0.51100000000E-03 0.  1.
         12    1    4    4    0    0 -0.10722749807E+01 -0.32173541317E+01 -0.35490193349E+01  0.49088368768E+01  0.00000000000E+00 0. -1.
</event>
<event>
 8    1  0.2962813E-009  0.9118800E+02  0.7816164E-02  0.1184000E+00
        -11   -1    0    0    0    0  0.00000000000E+00  0.00000000000E+00  0.45593999997E+02  0.45594000000E+02  0.51100000000E-03 0.  1.
         11   -1    0    0    0    0 -0.00000000000E+00 -0.00000000000E+00 -0.45593999997E+02  0.45594000000E+02  0.51100000000E-03 0. -1.
         23    2    1    2    0    0  0.00000000000E+00 -0.35527136788E-14 -0.44408920985E-15  0.91188000000E+02  0.91188000000E+02 0.  0.
    9900012    2    3    3    0    0 -0.32278695580E+02 -0.31202818950E+02 -0.36855173675E+01  0.46142321661E+02  0.10000035565E+02 0.  0.
         12    1    3    3    0    0  0.32278695580E+02  0.31202818950E+02  0.36855173675E+01  0.45045678339E+02  0.00000000000E+00 0. -1.
         11    1    4    4    0    0 -0.27074741282E+02 -0.23011162030E+02 -0.23602468942E+01  0.35610756228E+02  0.51100000000E-03 0. -1.
        -11    1    4    4    0    0 -0.18955101901E+01 -0.52987339011E+01  0.73930072314E+00  0.56759233307E+01  0.51100000000E-03 0.  1.
         12    1    4    4    0    0 -0.33084441071E+01 -0.28929230188E+01 -0.20645711965E+01  0.48556421025E+01  0.00000000000E+00 0. -1.
</event>
<event>
 8    1  0.2962813E-009  0.9118800E+02  0.7816164E-02  0.1184000E+00
        -11   -1    0    0    0    0  0.00000000000E+00  0.00000000000E+00  0.45593999997E+02  0.45594000000E+02  0.51100000000E-03 0. -1.
         11   -1    0    0    0    0 -0.00000000000E+00 -0.00000000000E+00 -0.45593999997E+02  0.45594000000E+02  0.51100000000E-03 0.  1.
         23    2    1    2    0    0  0.00000000000E+00 -0.35527136788E-14  0.35527136788E-14  0.91188000000E+02  0.91188000000E+02 0.  0.
    9900012    2    3    3    0    0 -0.33072562932E+02  0.24859231320E+02 -0.17813991343E+02  0.46142311102E+02  0.99999392767E+01 0.  0.
         12    1    3    3    0    0  0.33072562932E+02 -0.24859231320E+02  0.17813991343E+02  0.45045688898E+02  0.00000000000E+00 0. -1.
         11    1    4    4    0    0 -0.49341942414E+01  0.50743160556E+01 -0.46014229978E+00  0.70927207362E+01  0.51100000000E-03 0. -1.
        -11    1    4    4    0    0 -0.12805025322E+02  0.12064330287E+02 -0.65899570921E+01  0.18786811159E+02  0.51100000000E-03 0.  1.
        -12    1    4    4    0    0 -0.15333343369E+02  0.77205849767E+01 -0.10763891951E+02  0.20262779207E+02  0.00000000000E+00 0.  1.
</event>
<event>
 8    1  0.2962813E-009  0.9118800E+02  0.7816164E-02  0.1184000E+00
        -11   -1    0    0    0    0  0.00000000000E+00  0.00000000000E+00  0.45593999997E+02  0.45594000000E+02  0.51100000000E-03 0. -1.
         11   -1    0    0    0    0 -0.00000000000E+00 -0.00000000000E+00 -0.45593999997E+02  0.45594000000E+02  0.51100000000E-03 0.  1.
         23    2    1    2    0    0  0.33306690739E-15  0.00000000000E+00  0.00000000000E+00  0.91188000000E+02  0.91188000000E+02 0.  0.
    9900012    2    3    3    0    0  0.70172795998E+00  0.11156166556E+02  0.43636693450E+02  0.46142317747E+02  0.99999998731E+01 0.  0.
        -12    1    3    3    0    0 -0.70172795998E+00 -0.11156166556E+02 -0.43636693450E+02  0.45045682253E+02  0.00000000000E+00 0.  1.
         11    1    4    4    0    0 -0.33031401937E+01  0.45228598445E+01  0.26459045144E+02  0.27045296569E+02  0.51100000000E-03 0.  1.
        -11    1    4    4    0    0  0.29857813449E+01  0.30616053060E+01  0.11886283129E+02  0.12632182874E+02  0.51100000000E-03 0. -1.
        -12    1    4    4    0    0  0.10190868088E+01  0.35717014056E+01  0.52913651767E+01  0.64648383033E+01  0.00000000000E+00 0.  1.
</event>
<event>
 8    1  0.2962813E-009  0.9118800E+02  0.7816164E-02  0.1184000E+00
        -11   -1    0    0    0    0  0.00000000000E+00  0.00000000000E+00  0.45593999997E+02  0.45594000000E+02  0.51100000000E-03 0. -1.
         11   -1    0    0    0    0 -0.00000000000E+00 -0.00000000000E+00 -0.45593999997E+02  0.45594000000E+02  0.51100000000E-03 0.  1.
         23    2    1    2    0    0  0.00000000000E+00  0.00000000000E+00  0.71054273576E-14  0.91188000000E+02  0.91188000000E+02 0.  0.
    9900012    2    3    3    0    0  0.25920742617E+02 -0.16085363229E+01  0.36805451725E+02  0.46142316925E+02  0.99999923802E+01 0.  0.
        -12    1    3    3    0    0 -0.25920742617E+02  0.16085363229E+01 -0.36805451725E+02  0.45045683075E+02  0.00000000000E+00 0.  1.
         11    1    4    4    0    0  0.20043955536E+02  0.57906265030E-01  0.22885201308E+02  0.30421964858E+02  0.51100000000E-03 0. -1.
        -11    1    4    4    0    0  0.31978286403E+01 -0.28688627111E+01  0.71613175480E+01  0.83511047504E+01  0.51100000000E-03 0.  1.
         12    1    4    4    0    0  0.26789584406E+01  0.12024201232E+01  0.67589328696E+01  0.73692473167E+01  0.00000000000E+00 0. -1.
</event>
<event>
 8    1  0.2962813E-009  0.9118800E+02  0.7816164E-02  0.1184000E+00
        -11   -1    0    0    0    0  0.00000000000E+00  0.00000000000E+00  0.45593999997E+02  0.45594000000E+02  0.51100000000E-03 0. -1.
         11   -1    0    0    0    0 -0.00000000000E+00 -0.00000000000E+00 -0.45593999997E+02  0.45594000000E+02  0.51100000000E-03 0.  1.
         23    2    1    2    0    0  0.17763568394E-14  0.00000000000E+00  0.00000000000E+00  0.91188000000E+02  0.91188000000E+02 0.  0.
    9900012    2    3    3    0    0 -0.12489140634E+02 -0.44760909772E+01  0.43047642985E+02  0.46142316625E+02  0.99999896364E+01 0.  0.
        -12    1    3    3    0    0  0.12489140634E+02  0.44760909772E+01 -0.43047642985E+02  0.45045683375E+02  0.00000000000E+00 0.  1.
         11    1    4    4    0    0 -0.98904490478E-01 -0.65127279071E+00  0.14820747246E+02  0.14835379589E+02  0.51100000000E-03 0.  1.
        -11    1    4    4    0    0 -0.10893401431E+02 -0.18763391587E+01  0.22242948393E+02  0.24838188277E+02  0.51100000000E-03 0. -1.
        -12    1    4    4    0    0 -0.14968347124E+01 -0.19484790278E+01  0.59839473451E+01  0.64687487590E+01  0.00000000000E+00 0.  1.
</event>
<event>
 8    1  0.2993762E-009  0.9118800E+02  0.7816164E-02  0.1184000E+00
        -11   -1    0    0    0    0  0.00000000000E+00  0.00000000000E+00  0.45593999997E+02  0.45594000000E+02  0.51100000000E-03 0. -1.
         11   -1    0    0    0    0 -0.00000000000E+00 -0.00000000000E+00 -0.45593999997E+02  0.45594000000E+02  0.51100000000E-03 0.  1.
         23    2    1    2    0    0 -0.71054273576E-14  0.00000000000E+00  0.35527136788E-14  0.91188000000E+02  0.91188000000E+02 0.  0.
    9900012    2    3    3    0    0 -0.24218710079E+02 -0.21022727277E+02 -0.31632474643E+02  0.46142307286E+02  0.99999044805E+01 0.  0.
         12    1    3    3    0    0  0.24218710079E+02  0.21022727277E+02  0.31632474643E+02  0.45045692714E+02  0.00000000000E+00 0. -1.
         11    1    4    4    0    0 -0.16446185457E+01  0.46915025203E+00 -0.12632514077E+01  0.21261882560E+01  0.51100000000E-03 0. -1.
        -11    1    4    4    0    0 -0.22482084909E+02 -0.20515642958E+02 -0.27629711664E+02  0.41106407223E+02  0.51100000000E-03 0.  1.
        -12    1    4    4    0    0 -0.92006624085E-01 -0.97623457081E+00 -0.27395115706E+01  0.29097118073E+01  0.00000000000E+00 0.  1.
</event>
<event>
 8    1  0.2962813E-009  0.9118800E+02  0.7816164E-02  0.1184000E+00
        -11   -1    0    0    0    0  0.00000000000E+00  0.00000000000E+00  0.45593999997E+02  0.45594000000E+02  0.51100000000E-03 0. -1.
         11   -1    0    0    0    0 -0.00000000000E+00 -0.00000000000E+00 -0.45593999997E+02  0.45594000000E+02  0.51100000000E-03 0.  1.
         23    2    1    2    0    0  0.88817841970E-15  0.00000000000E+00  0.00000000000E+00  0.91188000000E+02  0.91188000000E+02 0.  0.
    9900012    2    3    3    0    0  0.40898346486E+01 -0.38285551674E+02 -0.23379554942E+02  0.46142314260E+02  0.99999680786E+01 0.  0.
         12    1    3    3    0    0 -0.40898346486E+01  0.38285551674E+02  0.23379554942E+02  0.45045685740E+02  0.00000000000E+00 0. -1.
         11    1    4    4    0    0 -0.10788422646E+01 -0.11015126810E+02 -0.10788520466E+02  0.15456037441E+02  0.51100000000E-03 0. -1.
        -11    1    4    4    0    0  0.48775053027E+00 -0.62162152638E+01 -0.14126824743E+01  0.63933484826E+01  0.51100000000E-03 0.  1.
         12    1    4    4    0    0  0.46809263829E+01 -0.21054209601E+02 -0.11178352002E+02  0.24292928337E+02  0.00000000000E+00 0. -1.
</event>
<event>
 8    1  0.2962813E-009  0.9118800E+02  0.7816164E-02  0.1184000E+00
        -11   -1    0    0    0    0  0.00000000000E+00  0.00000000000E+00  0.45593999997E+02  0.45594000000E+02  0.51100000000E-03 0. -1.
         11   -1    0    0    0    0 -0.00000000000E+00 -0.00000000000E+00 -0.45593999997E+02  0.45594000000E+02  0.51100000000E-03 0.  1.
         23    2    1    2    0    0  0.44408920985E-15  0.00000000000E+00  0.00000000000E+00  0.91188000000E+02  0.91188000000E+02 0.  0.
    9900012    2    3    3    0    0  0.38556904995E+01  0.25734541930E+02 -0.36769288211E+02  0.46142317042E+02  0.99999934442E+01 0.  0.
         12    1    3    3    0    0 -0.38556904995E+01 -0.25734541930E+02  0.36769288211E+02  0.45045682958E+02  0.00000000000E+00 0. -1.
         11    1    4    4    0    0 -0.75270144911E-01  0.19264875626E+02 -0.28173915179E+02  0.34130786620E+02  0.51100000000E-03 0.  1.
        -11    1    4    4    0    0  0.35665295589E+01  0.61967849005E+01 -0.58768300285E+01  0.92551287211E+01  0.51100000000E-03 0. -1.
         12    1    4    4    0    0  0.36443108547E+00  0.27288140269E+00 -0.27185430038E+01  0.27564017014E+01  0.00000000000E+00 0. -1.
</event>
<event>
 8    1  0.2962813E-009  0.9118800E+02  0.7816164E-02  0.1184000E+00
        -11   -1    0    0    0    0  0.00000000000E+00  0.00000000000E+00  0.45593999997E+02  0.45594000000E+02  0.51100000000E-03 0. -1.
         11   -1    0    0    0    0 -0.00000000000E+00 -0.00000000000E+00 -0.45593999997E+02  0.45594000000E+02  0.51100000000E-03 0.  1.
         23    2    1    2    0    0  0.00000000000E+00  0.00000000000E+00  0.00000000000E+00  0.91188000000E+02  0.91188000000E+02 0.  0.
    9900012    2    3    3    0    0 -0.43517781934E+02 -0.79978785562E+01  0.84468967918E+01  0.46142317951E+02  0.10000001735E+02 0.  0.
        -12    1    3    3    0    0  0.43517781934E+02  0.79978785562E+01 -0.84468967918E+01  0.45045682049E+02  0.00000000000E+00 0.  1.
         11    1    4    4    0    0 -0.19255186469E+02 -0.74414648674E+00  0.52424576580E+01  0.19969960503E+02  0.51100000000E-03 0.  1.
        -11    1    4    4    0    0 -0.43810982404E+01 -0.28453906218E+01 -0.11465940919E+01  0.53483593611E+01  0.51100000000E-03 0. -1.
        -12    1    4    4    0    0 -0.19881497224E+02 -0.44083414476E+01  0.43510332257E+01  0.20823998087E+02  0.00000000000E+00 0.  1.
</event>
<event>
 8    1  0.2962813E-009  0.9118800E+02  0.7816164E-02  0.1184000E+00
        -11   -1    0    0    0    0  0.00000000000E+00  0.00000000000E+00  0.45593999997E+02  0.45594000000E+02  0.51100000000E-03 0. -1.
         11   -1    0    0    0    0 -0.00000000000E+00 -0.00000000000E+00 -0.45593999997E+02  0.45594000000E+02  0.51100000000E-03 0.  1.
         23    2    1    2    0    0  0.00000000000E+00  0.00000000000E+00  0.00000000000E+00  0.91188000000E+02  0.91188000000E+02 0.  0.
    9900012    2    3    3    0    0  0.72740133383E+01  0.15952133377E+02 -0.41493758338E+02  0.46142314188E+02  0.99999674150E+01 0.  0.
         12    1    3    3    0    0 -0.72740133383E+01 -0.15952133377E+02  0.41493758338E+02  0.45045685812E+02  0.00000000000E+00 0. -1.
         11    1    4    4    0    0  0.46662255100E+00 -0.68832265983E+00 -0.76581746828E+01  0.77031918334E+01  0.51100000000E-03 0. -1.
        -11    1    4    4    0    0  0.43084767675E+01  0.13520485751E+02 -0.25131391361E+02  0.28860931014E+02  0.51100000000E-03 0.  1.
         12    1    4    4    0    0  0.24989140198E+01  0.31199702855E+01 -0.87041922943E+01  0.95781913406E+01  0.00000000000E+00 0. -1.
</event>
<event>
 8    1  0.2962813E-009  0.9118800E+02  0.7816164E-02  0.1184000E+00
        -11   -1    0    0    0    0  0.00000000000E+00  0.00000000000E+00  0.45593999997E+02  0.45594000000E+02  0.51100000000E-03 0. -1.
         11   -1    0    0    0    0 -0.00000000000E+00 -0.00000000000E+00 -0.45593999997E+02  0.45594000000E+02  0.51100000000E-03 0.  1.
         23    2    1    2    0    0  0.88817841970E-15  0.00000000000E+00  0.00000000000E+00  0.91188000000E+02  0.91188000000E+02 0.  0.
    9900012    2    3    3    0    0  0.78032160770E+01  0.15227933439E+02  0.41669330894E+02  0.46142320128E+02  0.10000021586E+02 0.  0.
        -12    1    3    3    0    0 -0.78032160770E+01 -0.15227933439E+02 -0.41669330894E+02  0.45045679872E+02  0.00000000000E+00 0.  1.
         11    1    4    4    0    0  0.84135588812E+01  0.90199082099E+01  0.34471088710E+02  0.36611510134E+02  0.51100000000E-03 0. -1.
        -11    1    4    4    0    0 -0.12860341423E+00  0.12169265171E+01  0.12179517926E+01  0.17265155130E+01  0.51100000000E-03 0.  1.
         12    1    4    4    0    0 -0.48173938997E+00  0.49910987119E+01  0.59802903908E+01  0.78042944812E+01  0.00000000000E+00 0. -1.
</event>
<event>
 8    1  0.2962813E-009  0.9118800E+02  0.7816164E-02  0.1184000E+00
        -11   -1    0    0    0    0  0.00000000000E+00  0.00000000000E+00  0.45593999997E+02  0.45594000000E+02  0.51100000000E-03 0. -1.
         11   -1    0    0    0    0 -0.00000000000E+00 -0.00000000000E+00 -0.45593999997E+02  0.45594000000E+02  0.51100000000E-03 0.  1.
         23    2    1    2    0    0  0.00000000000E+00  0.88817841970E-15  0.71054273576E-14  0.91188000000E+02  0.91188000000E+02 0.  0.
    9900012    2    3    3    0    0  0.20350027794E+02 -0.76353908201E+01 -0.39454919003E+02  0.46142318101E+02  0.10000003101E+02 0.  0.
         12    1    3    3    0    0 -0.20350027794E+02  0.76353908201E+01  0.39454919003E+02  0.45045681899E+02  0.00000000000E+00 0. -1.
         11    1    4    4    0    0  0.13073954246E+02 -0.70586964901E+01 -0.18650891637E+02  0.23845528614E+02  0.51100000000E-03 0. -1.
        -11    1    4    4    0    0  0.20426613754E+01 -0.47073459347E+00 -0.25181356597E+01  0.32764407539E+01  0.51100000000E-03 0.  1.
         12    1    4    4    0    0  0.52334121724E+01 -0.10595973659E+00 -0.18285891707E+02  0.19020348733E+02  0.00000000000E+00 0. -1.
</event>
<event>
 8    1  0.2962813E-009  0.9118800E+02  0.7816164E-02  0.1184000E+00
        -11   -1    0    0    0    0  0.00000000000E+00  0.00000000000E+00  0.45593999997E+02  0.45594000000E+02  0.51100000000E-03 0. -1.
         11   -1    0    0    0    0 -0.00000000000E+00 -0.00000000000E+00 -0.45593999997E+02  0.45594000000E+02  0.51100000000E-03 0.  1.
         23    2    1    2    0    0 -0.35527136788E-14  0.71054273576E-14  0.00000000000E+00  0.91188000000E+02  0.91188000000E+02 0.  0.
    9900012    2    3    3    0    0 -0.30121700245E+02  0.29852678656E+02 -0.15185988664E+02  0.46142317629E+02  0.99999987954E+01 0.  0.
         12    1    3    3    0    0  0.30121700245E+02 -0.29852678656E+02  0.15185988664E+02  0.45045682371E+02  0.00000000000E+00 0. -1.
         11    1    4    4    0    0 -0.10653392483E+02  0.11732582452E+02 -0.20062559047E+01  0.15974145530E+02  0.51100000000E-03 0. -1.
        -11    1    4    4    0    0 -0.17153601231E+02  0.13459307730E+02 -0.94379088947E+01  0.23758643150E+02  0.51100000000E-03 0.  1.
         12    1    4    4    0    0 -0.23147065314E+01  0.46607884736E+01 -0.37418238642E+01  0.64095289494E+01  0.00000000000E+00 0. -1.
</event>
<event>
 8    1  0.2962813E-009  0.9118800E+02  0.7816164E-02  0.1184000E+00
        -11   -1    0    0    0    0  0.00000000000E+00  0.00000000000E+00  0.45593999997E+02  0.45594000000E+02  0.51100000000E-03 0.  1.
         11   -1    0    0    0    0 -0.00000000000E+00 -0.00000000000E+00 -0.45593999997E+02  0.45594000000E+02  0.51100000000E-03 0. -1.
         23    2    1    2    0    0  0.71054273576E-14  0.00000000000E+00  0.00000000000E+00  0.91188000000E+02  0.91188000000E+02 0.  0.
    9900012    2    3    3    0    0  0.39257346238E+02  0.17529129888E+02  0.13442578700E+02  0.46142328172E+02  0.10000094939E+02 0.  0.
        -12    1    3    3    0    0 -0.39257346238E+02 -0.17529129888E+02 -0.13442578700E+02  0.45045671828E+02  0.00000000000E+00 0.  1.
         11    1    4    4    0    0  0.17170050351E+01  0.27676432423E+01  0.15300140494E+01  0.35984578168E+01  0.51100000000E-03 0. -1.
        -11    1    4    4    0    0  0.27784204217E+00  0.10442459471E+01  0.68690817598E+00  0.12804252816E+01  0.51100000000E-03 0.  1.
         12    1    4    4    0    0  0.37262499161E+02  0.13717240699E+02  0.11225656475E+02  0.41263445074E+02  0.00000000000E+00 0. -1.
</event>
<event>
 8    1  0.2962813E-009  0.9118800E+02  0.7816164E-02  0.1184000E+00
        -11   -1    0    0    0    0  0.00000000000E+00  0.00000000000E+00  0.45593999997E+02  0.45594000000E+02  0.51100000000E-03 0. -1.
         11   -1    0    0    0    0 -0.00000000000E+00 -0.00000000000E+00 -0.45593999997E+02  0.45594000000E+02  0.51100000000E-03 0.  1.
         23    2    1    2    0    0  0.00000000000E+00  0.00000000000E+00  0.00000000000E+00  0.91188000000E+02  0.91188000000E+02 0.  0.
    9900012    2    3    3    0    0  0.16304493936E+02 -0.31481799785E+02 -0.27788001879E+02  0.46142319978E+02  0.10000020214E+02 0.  0.
         12    1    3    3    0    0 -0.16304493936E+02  0.31481799785E+02  0.27788001879E+02  0.45045680022E+02  0.00000000000E+00 0. -1.
         11    1    4    4    0    0  0.81094857287E+00 -0.53799491102E+01 -0.20197238061E+01  0.58035139812E+01  0.51100000000E-03 0. -1.
        -11    1    4    4    0    0  0.12888403703E+02 -0.24189054885E+02 -0.20780718218E+02  0.34395633098E+02  0.51100000000E-03 0.  1.
         12    1    4    4    0    0  0.26051416602E+01 -0.19127957895E+01 -0.49875598548E+01  0.59431728990E+01  0.00000000000E+00 0. -1.
</event>
<event>
 8    1  0.2962813E-009  0.9118800E+02  0.7816164E-02  0.1184000E+00
        -11   -1    0    0    0    0  0.00000000000E+00  0.00000000000E+00  0.45593999997E+02  0.45594000000E+02  0.51100000000E-03 0. -1.
         11   -1    0    0    0    0 -0.00000000000E+00 -0.00000000000E+00 -0.45593999997E+02  0.45594000000E+02  0.51100000000E-03 0.  1.
         23    2    1    2    0    0  0.88817841970E-15  0.00000000000E+00 -0.71054273576E-14  0.91188000000E+02  0.91188000000E+02 0.  0.
    9900012    2    3    3    0    0 -0.68438925114E+01 -0.23882639071E+02  0.37575180481E+02  0.46142317611E+02  0.99999986282E+01 0.  0.
        -12    1    3    3    0    0  0.68438925114E+01  0.23882639071E+02 -0.37575180481E+02  0.45045682389E+02  0.00000000000E+00 0.  1.
         11    1    4    4    0    0 -0.77220417051E+00 -0.49450013745E+01  0.10186411682E+02  0.11349551581E+02  0.51100000000E-03 0.  1.
        -11    1    4    4    0    0  0.60718940020E-01 -0.12466502211E+02  0.17384644191E+02  0.21392597273E+02  0.51100000000E-03 0. -1.
        -12    1    4    4    0    0 -0.61324072809E+01 -0.64711354854E+01  0.10004124609E+02  0.13400168757E+02  0.00000000000E+00 0.  1.
</event>
<event>
 8    1  0.2962813E-009  0.9118800E+02  0.7816164E-02  0.1184000E+00
        -11   -1    0    0    0    0  0.00000000000E+00  0.00000000000E+00  0.45593999997E+02  0.45594000000E+02  0.51100000000E-03 0. -1.
         11   -1    0    0    0    0 -0.00000000000E+00 -0.00000000000E+00 -0.45593999997E+02  0.45594000000E+02  0.51100000000E-03 0.  1.
         23    2    1    2    0    0  0.00000000000E+00  0.00000000000E+00  0.00000000000E+00  0.91188000000E+02  0.91188000000E+02 0.  0.
    9900012    2    3    3    0    0 -0.12019080716E+02 -0.19588044585E+02  0.38742272063E+02  0.46142318336E+02  0.10000005246E+02 0.  0.
        -12    1    3    3    0    0  0.12019080716E+02  0.19588044585E+02 -0.38742272063E+02  0.45045681664E+02  0.00000000000E+00 0.  1.
         11    1    4    4    0    0 -0.81039903502E+01 -0.10884029290E+02  0.24217439482E+02  0.27760063554E+02  0.51100000000E-03 0. -1.
        -11    1    4    4    0    0 -0.11559314966E+01 -0.27375694092E+00 -0.18764842869E+00  0.12026357226E+01  0.51100000000E-03 0.  1.
         12    1    4    4    0    0 -0.27591588688E+01 -0.84302583540E+01  0.14712481009E+02  0.17179619060E+02  0.00000000000E+00 0. -1.
</event>
<event>
 8    1  0.2962813E-009  0.9118800E+02  0.7816164E-02  0.1184000E+00
        -11   -1    0    0    0    0  0.00000000000E+00  0.00000000000E+00  0.45593999997E+02  0.45594000000E+02  0.51100000000E-03 0. -1.
         11   -1    0    0    0    0 -0.00000000000E+00 -0.00000000000E+00 -0.45593999997E+02  0.45594000000E+02  0.51100000000E-03 0.  1.
         23    2    1    2    0    0  0.00000000000E+00  0.00000000000E+00 -0.71054273576E-14  0.91188000000E+02  0.91188000000E+02 0.  0.
    9900012    2    3    3    0    0 -0.22904518363E+02 -0.19049770918E+02 -0.33787611695E+02  0.46142318325E+02  0.10000005141E+02 0.  0.
         12    1    3    3    0    0  0.22904518363E+02  0.19049770918E+02  0.33787611695E+02  0.45045681675E+02  0.00000000000E+00 0. -1.
         11    1    4    4    0    0 -0.66742806404E+01 -0.10174651659E+02 -0.16438470844E+02  0.20452209719E+02  0.51100000000E-03 0. -1.
        -11    1    4    4    0    0 -0.50054052461E+01 -0.47523360589E+01 -0.75546926014E+01  0.10232895986E+02  0.51100000000E-03 0.  1.
         12    1    4    4    0    0 -0.11224832477E+02 -0.41227832001E+01 -0.97944482498E+01  0.15457212620E+02  0.00000000000E+00 0. -1.
</event>
<event>
 8    1  0.2962813E-009  0.9118800E+02  0.7816164E-02  0.1184000E+00
        -11   -1    0    0    0    0  0.00000000000E+00  0.00000000000E+00  0.45593999997E+02  0.45594000000E+02  0.51100000000E-03 0. -1.
         11   -1    0    0    0    0 -0.00000000000E+00 -0.00000000000E+00 -0.45593999997E+02  0.45594000000E+02  0.51100000000E-03 0.  1.
         23    2    1    2    0    0  0.00000000000E+00  0.44408920985E-15  0.00000000000E+00  0.91188000000E+02  0.91188000000E+02 0.  0.
    9900012    2    3    3    0    0  0.17355221796E+02  0.37542887855E+01  0.41398247911E+02  0.46142319431E+02  0.10000015227E+02 0.  0.
        -12    1    3    3    0    0 -0.17355221796E+02 -0.37542887855E+01 -0.41398247911E+02  0.45045680569E+02  0.00000000000E+00 0.  1.
         11    1    4    4    0    0  0.10663109619E+02  0.25079165195E+01  0.33299844173E+02  0.35055258867E+02  0.51100000000E-03 0. -1.
        -11    1    4    4    0    0  0.41641013025E+00  0.10006035683E+01  0.40821544864E+00  0.11581213283E+01  0.51100000000E-03 0.  1.
         12    1    4    4    0    0  0.62757020465E+01  0.24576869772E+00  0.76901882890E+01  0.99289392358E+01  0.00000000000E+00 0. -1.
</event>
<event>
 8    1  0.2962813E-009  0.9118800E+02  0.7816164E-02  0.1184000E+00
        -11   -1    0    0    0    0  0.00000000000E+00  0.00000000000E+00  0.45593999997E+02  0.45594000000E+02  0.51100000000E-03 0. -1.
         11   -1    0    0    0    0 -0.00000000000E+00 -0.00000000000E+00 -0.45593999997E+02  0.45594000000E+02  0.51100000000E-03 0.  1.
         23    2    1    2    0    0 -0.71054273576E-14 -0.17763568394E-14 -0.35527136788E-14  0.91188000000E+02  0.91188000000E+02 0.  0.
    9900012    2    3    3    0    0  0.34275269194E+02  0.15476401693E+02  0.24795168608E+02  0.46142317921E+02  0.10000001458E+02 0.  0.
        -12    1    3    3    0    0 -0.34275269194E+02 -0.15476401693E+02 -0.24795168608E+02  0.45045682079E+02  0.00000000000E+00 0.  1.
         11    1    4    4    0    0  0.21401257672E+02  0.13073728737E+02  0.16638548278E+02  0.30096137661E+02  0.51100000000E-03 0. -1.
        -11    1    4    4    0    0  0.71833193718E+00 -0.48953260476E+00  0.18626094327E+01  0.20554700443E+01  0.51100000000E-03 0.  1.
        -12    1    4    4    0    0  0.12155679585E+02  0.28922055605E+01  0.62940108968E+01  0.13990710216E+02  0.00000000000E+00 0.  1.
</event>
<event>
 8    1  0.2962813E-009  0.9118800E+02  0.7816164E-02  0.1184000E+00
        -11   -1    0    0    0    0  0.00000000000E+00  0.00000000000E+00  0.45593999997E+02  0.45594000000E+02  0.51100000000E-03 0.  1.
         11   -1    0    0    0    0 -0.00000000000E+00 -0.00000000000E+00 -0.45593999997E+02  0.45594000000E+02  0.51100000000E-03 0. -1.
         23    2    1    2    0    0  0.00000000000E+00  0.00000000000E+00  0.35527136788E-14  0.91188000000E+02  0.91188000000E+02 0.  0.
    9900012    2    3    3    0    0 -0.35150293393E+02  0.45206803246E+01  0.27805283383E+02  0.46142318074E+02  0.10000002850E+02 0.  0.
         12    1    3    3    0    0  0.35150293393E+02 -0.45206803246E+01 -0.27805283383E+02  0.45045681926E+02  0.00000000000E+00 0. -1.
         11    1    4    4    0    0 -0.78981404502E+01  0.17155425638E+01  0.44547486284E+01  0.92286778285E+01  0.51100000000E-03 0. -1.
        -11    1    4    4    0    0 -0.24635386315E+02 -0.14281899353E+00  0.19752792181E+02  0.31576818323E+02  0.51100000000E-03 0.  1.
        -12    1    4    4    0    0 -0.26167666272E+01  0.29479567543E+01  0.35977425738E+01  0.53368219226E+01  0.00000000000E+00 0.  1.
</event>
<event>
 8    1  0.2962813E-009  0.9118800E+02  0.7816164E-02  0.1184000E+00
        -11   -1    0    0    0    0  0.00000000000E+00  0.00000000000E+00  0.45593999997E+02  0.45594000000E+02  0.51100000000E-03 0. -1.
         11   -1    0    0    0    0 -0.00000000000E+00 -0.00000000000E+00 -0.45593999997E+02  0.45594000000E+02  0.51100000000E-03 0.  1.
         23    2    1    2    0    0  0.11102230246E-15  0.00000000000E+00  0.00000000000E+00  0.91188000000E+02  0.91188000000E+02 0.  0.
    9900012    2    3    3    0    0  0.34936449940E+00  0.37569235063E+01 -0.44887380555E+02  0.46142318044E+02  0.10000002582E+02 0.  0.
         12    1    3    3    0    0 -0.34936449940E+00 -0.37569235063E+01  0.44887380555E+02  0.45045681956E+02  0.00000000000E+00 0. -1.
         11    1    4    4    0    0  0.43725788233E+01  0.32552906817E+01 -0.27306473487E+02  0.27845284296E+02  0.51100000000E-03 0. -1.
        -11    1    4    4    0    0 -0.90373613341E+00 -0.12096481744E+01 -0.50867806257E+01  0.53061591664E+01  0.51100000000E-03 0.  1.
         12    1    4    4    0    0 -0.31194781905E+01  0.17112809989E+01 -0.12494126442E+02  0.12990874582E+02  0.00000000000E+00 0. -1.
</event>
<event>
 8    1  0.2962813E-009  0.9118800E+02  0.7816164E-02  0.1184000E+00
        -11   -1    0    0    0    0  0.00000000000E+00  0.00000000000E+00  0.45593999997E+02  0.45594000000E+02  0.51100000000E-03 0. -1.
         11   -1    0    0    0    0 -0.00000000000E+00 -0.00000000000E+00 -0.45593999997E+02  0.45594000000E+02  0.51100000000E-03 0.  1.
         23    2    1    2    0    0  0.00000000000E+00  0.00000000000E+00  0.71054273576E-14  0.91188000000E+02  0.91188000000E+02 0.  0.
    9900012    2    3    3    0    0  0.92851154020E+01  0.99032428903E+01  0.42951436483E+02  0.46142317813E+02  0.10000000469E+02 0.  0.
        -12    1    3    3    0    0 -0.92851154020E+01 -0.99032428903E+01 -0.42951436483E+02  0.45045682187E+02  0.00000000000E+00 0.  1.
         11    1    4    4    0    0  0.55354137567E+00 -0.49229120631E-01  0.30176910251E+00  0.63237363421E+00  0.51100000000E-03 0. -1.
        -11    1    4    4    0    0 -0.14114517844E+01  0.29935420665E+01  0.60160317575E+01  0.68663038537E+01  0.51100000000E-03 0.  1.
        -12    1    4    4    0    0  0.10143025811E+02  0.69589299444E+01  0.36633635623E+02  0.38643640325E+02  0.00000000000E+00 0.  1.
</event>
<event>
 8    1  0.2962813E-009  0.9118800E+02  0.7816164E-02  0.1184000E+00
        -11   -1    0    0    0    0  0.00000000000E+00  0.00000000000E+00  0.45593999997E+02  0.45594000000E+02  0.51100000000E-03 0. -1.
         11   -1    0    0    0    0 -0.00000000000E+00 -0.00000000000E+00 -0.45593999997E+02  0.45594000000E+02  0.51100000000E-03 0.  1.
         23    2    1    2    0    0  0.00000000000E+00  0.00000000000E+00 -0.71054273576E-14  0.91188000000E+02  0.91188000000E+02 0.  0.
    9900012    2    3    3    0    0 -0.26933164392E+01  0.18627465130E+02 -0.40925262850E+02  0.46142317078E+02  0.99999937668E+01 0.  0.
         12    1    3    3    0    0  0.26933164392E+01 -0.18627465130E+02  0.40925262850E+02  0.45045682922E+02  0.00000000000E+00 0. -1.
         11    1    4    4    0    0 -0.76210196316E+00 -0.13201863616E+00  0.27666311877E+00  0.82144449901E+00  0.51100000000E-03 0. -1.
        -11    1    4    4    0    0 -0.39711778855E+00  0.63476791770E+01 -0.13141848351E+02  0.14599962733E+02  0.51100000000E-03 0.  1.
         12    1    4    4    0    0 -0.15340966875E+01  0.12411804589E+02 -0.28060077618E+02  0.30720909845E+02  0.00000000000E+00 0. -1.
</event>
<event>
 8    1  0.2962813E-009  0.9118800E+02  0.7816164E-02  0.1184000E+00
        -11   -1    0    0    0    0  0.00000000000E+00  0.00000000000E+00  0.45593999997E+02  0.45594000000E+02  0.51100000000E-03 0.  1.
         11   -1    0    0    0    0 -0.00000000000E+00 -0.00000000000E+00 -0.45593999997E+02  0.45594000000E+02  0.51100000000E-03 0. -1.
         23    2    1    2    0    0  0.00000000000E+00  0.00000000000E+00  0.44408920985E-15  0.91188000000E+02  0.91188000000E+02 0.  0.
    9900012    2    3    3    0    0 -0.38656749258E+02  0.23044554235E+02  0.19281479634E+01  0.46142317658E+02  0.99999990597E+01 0.  0.
         12    1    3    3    0    0  0.38656749258E+02 -0.23044554235E+02 -0.19281479634E+01  0.45045682342E+02  0.00000000000E+00 0. -1.
         11    1    4    4    0    0 -0.22196894456E+01  0.20947345385E+01 -0.23836446143E+01  0.38725567691E+01  0.51100000000E-03 0. -1.
        -11    1    4    4    0    0 -0.32165343849E+02  0.18338776336E+02  0.41844173706E+01  0.37261634578E+02  0.51100000000E-03 0.  1.
         12    1    4    4    0    0 -0.42717159633E+01  0.26110433603E+01  0.12737520722E+00  0.50081263108E+01  0.00000000000E+00 0. -1.
</event>
<event>
 8    1  0.2962813E-009  0.9118800E+02  0.7816164E-02  0.1184000E+00
        -11   -1    0    0    0    0  0.00000000000E+00  0.00000000000E+00  0.45593999997E+02  0.45594000000E+02  0.51100000000E-03 0.  1.
         11   -1    0    0    0    0 -0.00000000000E+00 -0.00000000000E+00 -0.45593999997E+02  0.45594000000E+02  0.51100000000E-03 0. -1.
         23    2    1    2    0    0  0.35527136788E-14  0.00000000000E+00 -0.35527136788E-14  0.91188000000E+02  0.91188000000E+02 0.  0.
    9900012    2    3    3    0    0  0.19138591966E+02 -0.36790565057E+02 -0.17586411478E+02  0.46142320425E+02  0.10000024296E+02 0.  0.
         12    1    3    3    0    0 -0.19138591966E+02  0.36790565057E+02  0.17586411478E+02  0.45045679575E+02  0.00000000000E+00 0. -1.
         11    1    4    4    0    0  0.13528926146E+02 -0.16721111560E+02 -0.10853722505E+02  0.24092129565E+02  0.51100000000E-03 0. -1.
        -11    1    4    4    0    0  0.31453263334E+01 -0.13852961080E+02 -0.35399583445E+01  0.14639976563E+02  0.51100000000E-03 0.  1.
        -12    1    4    4    0    0  0.24643394866E+01 -0.62164924162E+01 -0.31927306283E+01  0.74102142972E+01  0.00000000000E+00 0.  1.
</event>
<event>
 8    1  0.2962813E-009  0.9118800E+02  0.7816164E-02  0.1184000E+00
        -11   -1    0    0    0    0  0.00000000000E+00  0.00000000000E+00  0.45593999997E+02  0.45594000000E+02  0.51100000000E-03 0. -1.
         11   -1    0    0    0    0 -0.00000000000E+00 -0.00000000000E+00 -0.45593999997E+02  0.45594000000E+02  0.51100000000E-03 0.  1.
         23    2    1    2    0    0  0.00000000000E+00  0.00000000000E+00  0.00000000000E+00  0.91188000000E+02  0.91188000000E+02 0.  0.
    9900012    2    3    3    0    0 -0.41864578557E+01  0.33262250532E+02  0.30086704142E+02  0.46142317566E+02  0.99999982221E+01 0.  0.
        -12    1    3    3    0    0  0.41864578557E+01 -0.33262250532E+02 -0.30086704142E+02  0.45045682434E+02  0.00000000000E+00 0.  1.
         11    1    4    4    0    0  0.13926280786E+01  0.28034805775E+01  0.16067641102E+01  0.35186087422E+01  0.51100000000E-03 0.  1.
        -11    1    4    4    0    0 -0.11424449207E+01  0.18678209976E+02  0.13599195026E+02  0.23132635257E+02  0.51100000000E-03 0. -1.
         12    1    4    4    0    0 -0.44366410136E+01  0.11780559979E+02  0.14880745005E+02  0.19491073567E+02  0.00000000000E+00 0. -1.
</event>
<event>
 8    1  0.2962813E-009  0.9118800E+02  0.7816164E-02  0.1184000E+00
        -11   -1    0    0    0    0  0.00000000000E+00  0.00000000000E+00  0.45593999997E+02  0.45594000000E+02  0.51100000000E-03 0. -1.
         11   -1    0    0    0    0 -0.00000000000E+00 -0.00000000000E+00 -0.45593999997E+02  0.45594000000E+02  0.51100000000E-03 0.  1.
         23    2    1    2    0    0  0.00000000000E+00  0.00000000000E+00 -0.44408920985E-15  0.91188000000E+02  0.91188000000E+02 0.  0.
    9900012    2    3    3    0    0 -0.11345284195E+02  0.43519353275E+02  0.25424095885E+01  0.46142318415E+02  0.10000005960E+02 0.  0.
         12    1    3    3    0    0  0.11345284195E+02 -0.43519353275E+02 -0.25424095885E+01  0.45045681585E+02  0.00000000000E+00 0. -1.
         11    1    4    4    0    0  0.10615369190E+01  0.50218400762E+01 -0.10407138732E+01  0.52372534795E+01  0.51100000000E-03 0. -1.
        -11    1    4    4    0    0  0.20728122721E+00  0.23319489880E+01  0.90262024812E+00  0.25091184036E+01  0.51100000000E-03 0.  1.
        -12    1    4    4    0    0 -0.12614102341E+02  0.36165564211E+02  0.26805032136E+01  0.38395946532E+02  0.00000000000E+00 0.  1.
</event>
<event>
 8    1  0.2962813E-009  0.9118800E+02  0.7816164E-02  0.1184000E+00
        -11   -1    0    0    0    0  0.00000000000E+00  0.00000000000E+00  0.45593999997E+02  0.45594000000E+02  0.51100000000E-03 0. -1.
         11   -1    0    0    0    0 -0.00000000000E+00 -0.00000000000E+00 -0.45593999997E+02  0.45594000000E+02  0.51100000000E-03 0.  1.
         23    2    1    2    0    0 -0.35527136788E-14  0.35527136788E-14  0.00000000000E+00  0.91188000000E+02  0.91188000000E+02 0.  0.
    9900012    2    3    3    0    0 -0.14740142425E+02  0.14314566376E+02  0.40086592025E+02  0.46142317971E+02  0.10000001915E+02 0.  0.
        -12    1    3    3    0    0  0.14740142425E+02 -0.14314566376E+02 -0.40086592025E+02  0.45045682029E+02  0.00000000000E+00 0.  1.
         11    1    4    4    0    0 -0.15025565927E+02  0.14324742922E+02  0.32950894178E+02  0.38945183510E+02  0.51100000000E-03 0. -1.
        -11    1    4    4    0    0  0.12388864470E+00 -0.29718663062E+00  0.95791404097E+00  0.10105779835E+01  0.51100000000E-03 0.  1.
         12    1    4    4    0    0  0.16153485736E+00  0.28701008514E+00  0.61777838057E+01  0.61865564775E+01  0.00000000000E+00 0. -1.
</event>
<event>
 8    1  0.2962813E-009  0.9118800E+02  0.7816164E-02  0.1184000E+00
        -11   -1    0    0    0    0  0.00000000000E+00  0.00000000000E+00  0.45593999997E+02  0.45594000000E+02  0.51100000000E-03 0. -1.
         11   -1    0    0    0    0 -0.00000000000E+00 -0.00000000000E+00 -0.45593999997E+02  0.45594000000E+02  0.51100000000E-03 0.  1.
         23    2    1    2    0    0  0.00000000000E+00 -0.35527136788E-14  0.00000000000E+00  0.91188000000E+02  0.91188000000E+02 0.  0.
    9900012    2    3    3    0    0  0.19376819970E+02 -0.15496520113E+02  0.37596679510E+02  0.46142316545E+02  0.99999889125E+01 0.  0.
        -12    1    3    3    0    0 -0.19376819970E+02  0.15496520113E+02 -0.37596679510E+02  0.45045683455E+02  0.00000000000E+00 0.  1.
         11    1    4    4    0    0  0.55831836741E+01 -0.50447151973E+01  0.16663703408E+02  0.18283875488E+02  0.51100000000E-03 0. -1.
        -11    1    4    4    0    0  0.77224505731E+01 -0.30971910641E+01  0.13091682867E+02  0.15511962993E+02  0.51100000000E-03 0.  1.
        -12    1    4    4    0    0  0.60711857229E+01 -0.73546138515E+01  0.78412932355E+01  0.12346478064E+02  0.00000000000E+00 0.  1.
</event>
<event>
 8    1  0.2962813E-009  0.9118800E+02  0.7816164E-02  0.1184000E+00
        -11   -1    0    0    0    0  0.00000000000E+00  0.00000000000E+00  0.45593999997E+02  0.45594000000E+02  0.51100000000E-03 0. -1.
         11   -1    0    0    0    0 -0.00000000000E+00 -0.00000000000E+00 -0.45593999997E+02  0.45594000000E+02  0.51100000000E-03 0.  1.
         23    2    1    2    0    0  0.00000000000E+00  0.00000000000E+00  0.00000000000E+00  0.91188000000E+02  0.91188000000E+02 0.  0.
    9900012    2    3    3    0    0  0.21489781030E+02  0.20641524963E+02 -0.33782101428E+02  0.46142316318E+02  0.99999868372E+01 0.  0.
         12    1    3    3    0    0 -0.21489781030E+02 -0.20641524963E+02  0.33782101428E+02  0.45045683682E+02  0.00000000000E+00 0. -1.
         11    1    4    4    0    0  0.32820333146E+01  0.85699006776E+00 -0.99991122188E+00  0.35363819600E+01  0.51100000000E-03 0. -1.
        -11    1    4    4    0    0  0.76001854461E+01  0.10477505272E+02 -0.13399059797E+02  0.18629968847E+02  0.51100000000E-03 0.  1.
         12    1    4    4    0    0  0.10607562269E+02  0.93070296236E+01 -0.19383130409E+02  0.23975965511E+02  0.00000000000E+00 0. -1.
</event>
<event>
 8    1  0.2962813E-009  0.9118800E+02  0.7816164E-02  0.1184000E+00
        -11   -1    0    0    0    0  0.00000000000E+00  0.00000000000E+00  0.45593999997E+02  0.45594000000E+02  0.51100000000E-03 0. -1.
         11   -1    0    0    0    0 -0.00000000000E+00 -0.00000000000E+00 -0.45593999997E+02  0.45594000000E+02  0.51100000000E-03 0.  1.
         23    2    1    2    0    0  0.00000000000E+00 -0.71054273576E-14  0.00000000000E+00  0.91188000000E+02  0.91188000000E+02 0.  0.
    9900012    2    3    3    0    0  0.12182763836E+02 -0.40415458325E+02  0.15725286246E+02  0.46142316147E+02  0.99999852793E+01 0.  0.
        -12    1    3    3    0    0 -0.12182763836E+02  0.40415458325E+02 -0.15725286246E+02  0.45045683853E+02  0.00000000000E+00 0.  1.
         11    1    4    4    0    0  0.35322047226E+00 -0.11165421105E+02  0.28068138970E+01  0.11518228929E+02  0.51100000000E-03 0. -1.
        -11    1    4    4    0    0  0.40473042404E+01 -0.14276230429E+02  0.33047172147E+01  0.15202387411E+02  0.51100000000E-03 0.  1.
         12    1    4    4    0    0  0.77822391235E+01 -0.14973806791E+02  0.96137551343E+01  0.19421699807E+02  0.00000000000E+00 0. -1.
</event>
<event>
 8    1  0.2962813E-009  0.9118800E+02  0.7816164E-02  0.1184000E+00
        -11   -1    0    0    0    0  0.00000000000E+00  0.00000000000E+00  0.45593999997E+02  0.45594000000E+02  0.51100000000E-03 0. -1.
         11   -1    0    0    0    0 -0.00000000000E+00 -0.00000000000E+00 -0.45593999997E+02  0.45594000000E+02  0.51100000000E-03 0.  1.
         23    2    1    2    0    0  0.00000000000E+00  0.00000000000E+00  0.00000000000E+00  0.91188000000E+02  0.91188000000E+02 0.  0.
    9900012    2    3    3    0    0  0.11700027242E+02  0.40825929077E+02 -0.15015538361E+02  0.46142317469E+02  0.99999973342E+01 0.  0.
         12    1    3    3    0    0 -0.11700027242E+02 -0.40825929077E+02  0.15015538361E+02  0.45045682531E+02  0.00000000000E+00 0. -1.
         11    1    4    4    0    0  0.22420100215E+01  0.50547390232E+01 -0.39659045012E+01  0.68048067058E+01  0.51100000000E-03 0. -1.
        -11    1    4    4    0    0  0.38224938574E+01  0.27345331890E+02 -0.77768959150E+01  0.28685514564E+02  0.51100000000E-03 0.  1.
        -12    1    4    4    0    0  0.56355233634E+01  0.84258581631E+01 -0.32727379448E+01  0.10651996199E+02  0.00000000000E+00 0.  1.
</event>
<event>
 8    1  0.2962813E-009  0.9118800E+02  0.7816164E-02  0.1184000E+00
        -11   -1    0    0    0    0  0.00000000000E+00  0.00000000000E+00  0.45593999997E+02  0.45594000000E+02  0.51100000000E-03 0. -1.
         11   -1    0    0    0    0 -0.00000000000E+00 -0.00000000000E+00 -0.45593999997E+02  0.45594000000E+02  0.51100000000E-03 0.  1.
         23    2    1    2    0    0  0.00000000000E+00  0.00000000000E+00  0.35527136788E-14  0.91188000000E+02  0.91188000000E+02 0.  0.
    9900012    2    3    3    0    0 -0.28876151903E+02  0.14280374925E+02  0.31485744904E+02  0.46142318865E+02  0.10000010068E+02 0.  0.
        -12    1    3    3    0    0  0.28876151903E+02 -0.14280374925E+02 -0.31485744904E+02  0.45045681135E+02  0.00000000000E+00 0.  1.
         11    1    4    4    0    0 -0.43988418434E+01 -0.83414836347E+00  0.52685855593E+01  0.69140152670E+01  0.51100000000E-03 0. -1.
        -11    1    4    4    0    0 -0.19426780248E+02  0.10889240577E+02  0.22539460816E+02  0.31686000778E+02  0.51100000000E-03 0.  1.
        -12    1    4    4    0    0 -0.50505298119E+01  0.42252827107E+01  0.36776985292E+01  0.75423028206E+01  0.00000000000E+00 0.  1.
</event>
<event>
 8    1  0.2962813E-009  0.9118800E+02  0.7816164E-02  0.1184000E+00
        -11   -1    0    0    0    0  0.00000000000E+00  0.00000000000E+00  0.45593999997E+02  0.45594000000E+02  0.51100000000E-03 0. -1.
         11   -1    0    0    0    0 -0.00000000000E+00 -0.00000000000E+00 -0.45593999997E+02  0.45594000000E+02  0.51100000000E-03 0.  1.
         23    2    1    2    0    0  0.00000000000E+00  0.00000000000E+00  0.00000000000E+00  0.91188000000E+02  0.91188000000E+02 0.  0.
    9900012    2    3    3    0    0 -0.70342683793E+01  0.39555780562E+02  0.20370885327E+02  0.46142315673E+02  0.99999809607E+01 0.  0.
        -12    1    3    3    0    0  0.70342683793E+01 -0.39555780562E+02 -0.20370885327E+02  0.45045684327E+02  0.00000000000E+00 0.  1.
         11    1    4    4    0    0 -0.39661536997E+01  0.15923631465E+02  0.10653437167E+02  0.19564972219E+02  0.51100000000E-03 0. -1.
        -11    1    4    4    0    0 -0.29983600996E+00  0.47201250790E+01 -0.74451749662E+00  0.47878793801E+01  0.51100000000E-03 0.  1.
        -12    1    4    4    0    0 -0.27682786697E+01  0.18912024018E+02  0.10461965656E+02  0.21789464074E+02  0.00000000000E+00 0.  1.
</event>
<event>
 8    1  0.2962813E-009  0.9118800E+02  0.7816164E-02  0.1184000E+00
        -11   -1    0    0    0    0  0.00000000000E+00  0.00000000000E+00  0.45593999997E+02  0.45594000000E+02  0.51100000000E-03 0. -1.
         11   -1    0    0    0    0 -0.00000000000E+00 -0.00000000000E+00 -0.45593999997E+02  0.45594000000E+02  0.51100000000E-03 0.  1.
         23    2    1    2    0    0  0.35527136788E-14  0.17763568394E-14  0.00000000000E+00  0.91188000000E+02  0.91188000000E+02 0.  0.
    9900012    2    3    3    0    0  0.20495092907E+02 -0.15445121652E+02 -0.37020441074E+02  0.46142315707E+02  0.99999812674E+01 0.  0.
         12    1    3    3    0    0 -0.20495092907E+02  0.15445121652E+02  0.37020441074E+02  0.45045684293E+02  0.00000000000E+00 0. -1.
         11    1    4    4    0    0  0.80976886053E+01 -0.41368990632E+01 -0.66412292406E+01  0.11260214061E+02  0.51100000000E-03 0. -1.
        -11    1    4    4    0    0  0.11310785778E+02 -0.89346534045E+01 -0.27058219215E+02  0.30657937532E+02  0.51100000000E-03 0.  1.
        -12    1    4    4    0    0  0.10866185238E+01 -0.23735691842E+01 -0.33209926186E+01  0.42241641138E+01  0.00000000000E+00 0.  1.
</event>
<event>
 8    1  0.2962813E-009  0.9118800E+02  0.7816164E-02  0.1184000E+00
        -11   -1    0    0    0    0  0.00000000000E+00  0.00000000000E+00  0.45593999997E+02  0.45594000000E+02  0.51100000000E-03 0. -1.
         11   -1    0    0    0    0 -0.00000000000E+00 -0.00000000000E+00 -0.45593999997E+02  0.45594000000E+02  0.51100000000E-03 0.  1.
         23    2    1    2    0    0  0.00000000000E+00  0.00000000000E+00  0.00000000000E+00  0.91188000000E+02  0.91188000000E+02 0.  0.
    9900012    2    3    3    0    0 -0.12156272654E+02  0.29238104219E+02 -0.32038598481E+02  0.46142317679E+02  0.99999992492E+01 0.  0.
         12    1    3    3    0    0  0.12156272654E+02 -0.29238104219E+02  0.32038598481E+02  0.45045682321E+02  0.00000000000E+00 0. -1.
         11    1    4    4    0    0 -0.35611839863E+01  0.65682708808E+01 -0.45369426303E+01  0.87411705417E+01  0.51100000000E-03 0. -1.
        -11    1    4    4    0    0 -0.92305395406E+00 -0.39025715978E+00 -0.70471382886E+00  0.12251330926E+01  0.51100000000E-03 0.  1.
        -12    1    4    4    0    0 -0.76720347136E+01  0.23060090498E+02 -0.26796942022E+02  0.36176014044E+02  0.00000000000E+00 0.  1.
</event>
<event>
 8    1  0.2962813E-009  0.9118800E+02  0.7816164E-02  0.1184000E+00
        -11   -1    0    0    0    0  0.00000000000E+00  0.00000000000E+00  0.45593999997E+02  0.45594000000E+02  0.51100000000E-03 0. -1.
         11   -1    0    0    0    0 -0.00000000000E+00 -0.00000000000E+00 -0.45593999997E+02  0.45594000000E+02  0.51100000000E-03 0.  1.
         23    2    1    2    0    0  0.00000000000E+00  0.00000000000E+00 -0.35527136788E-14  0.91188000000E+02  0.91188000000E+02 0.  0.
    9900012    2    3    3    0    0  0.11129484601E+02 -0.37695434700E+02 -0.22006865735E+02  0.46142319139E+02  0.10000012569E+02 0.  0.
         12    1    3    3    0    0 -0.11129484601E+02  0.37695434700E+02  0.22006865735E+02  0.45045680861E+02  0.00000000000E+00 0. -1.
         11    1    4    4    0    0  0.32402401213E+00 -0.60916550147E+01 -0.22831322159E+00  0.61045376211E+01  0.51100000000E-03 0. -1.
        -11    1    4    4    0    0  0.10004043439E+02 -0.24804902943E+02 -0.17084495235E+02  0.31737108766E+02  0.51100000000E-03 0.  1.
        -12    1    4    4    0    0  0.80141714955E+00 -0.67988767427E+01 -0.46940572784E+01  0.83006727525E+01  0.00000000000E+00 0.  1.
</event>
<event>
 8    1  0.2962813E-009  0.9118800E+02  0.7816164E-02  0.1184000E+00
        -11   -1    0    0    0    0  0.00000000000E+00  0.00000000000E+00  0.45593999997E+02  0.45594000000E+02  0.51100000000E-03 0.  1.
         11   -1    0    0    0    0 -0.00000000000E+00 -0.00000000000E+00 -0.45593999997E+02  0.45594000000E+02  0.51100000000E-03 0. -1.
         23    2    1    2    0    0  0.00000000000E+00  0.00000000000E+00  0.44408920985E-15  0.91188000000E+02  0.91188000000E+02 0.  0.
    9900012    2    3    3    0    0  0.27661764242E+02 -0.35327641641E+02 -0.39872305773E+01  0.46142317936E+02  0.10000001599E+02 0.  0.
         12    1    3    3    0    0 -0.27661764242E+02  0.35327641641E+02  0.39872305773E+01  0.45045682064E+02  0.00000000000E+00 0. -1.
         11    1    4    4    0    0  0.78986859261E+00 -0.51686549658E-01 -0.22483759211E+00  0.82287064412E+00  0.51100000000E-03 0. -1.
        -11    1    4    4    0    0  0.23937073669E+02 -0.34675885321E+02 -0.39356084153E+01  0.42318902780E+02  0.51100000000E-03 0.  1.
        -12    1    4    4    0    0  0.29348219805E+01 -0.60006977023E+00  0.17321543012E+00  0.30005445125E+01  0.00000000000E+00 0.  1.
</event>
<event>
 8    1  0.2962813E-009  0.9118800E+02  0.7816164E-02  0.1184000E+00
        -11   -1    0    0    0    0  0.00000000000E+00  0.00000000000E+00  0.45593999997E+02  0.45594000000E+02  0.51100000000E-03 0. -1.
         11   -1    0    0    0    0 -0.00000000000E+00 -0.00000000000E+00 -0.45593999997E+02  0.45594000000E+02  0.51100000000E-03 0.  1.
         23    2    1    2    0    0  0.00000000000E+00  0.14210854715E-13  0.35527136788E-14  0.91188000000E+02  0.91188000000E+02 0.  0.
    9900012    2    3    3    0    0 -0.16270346356E+02 -0.38741802978E+02 -0.16231513808E+02  0.46142317532E+02  0.99999979097E+01 0.  0.
         12    1    3    3    0    0  0.16270346356E+02  0.38741802978E+02  0.16231513808E+02  0.45045682468E+02  0.00000000000E+00 0. -1.
         11    1    4    4    0    0 -0.20947219980E+01 -0.54584018626E+01 -0.41462718634E-01  0.58466854337E+01  0.51100000000E-03 0. -1.
        -11    1    4    4    0    0 -0.12470007411E+02 -0.20780081523E+02 -0.11599534588E+02  0.26867491059E+02  0.51100000000E-03 0.  1.
        -12    1    4    4    0    0 -0.17056169469E+01 -0.12503319592E+02 -0.45905165022E+01  0.13428141039E+02  0.00000000000E+00 0.  1.
</event>
<event>
 8    1  0.2962813E-009  0.9118800E+02  0.7816164E-02  0.1184000E+00
        -11   -1    0    0    0    0  0.00000000000E+00  0.00000000000E+00  0.45593999997E+02  0.45594000000E+02  0.51100000000E-03 0. -1.
         11   -1    0    0    0    0 -0.00000000000E+00 -0.00000000000E+00 -0.45593999997E+02  0.45594000000E+02  0.51100000000E-03 0.  1.
         23    2    1    2    0    0  0.35527136788E-14  0.00000000000E+00  0.00000000000E+00  0.91188000000E+02  0.91188000000E+02 0.  0.
    9900012    2    3    3    0    0  0.27042487280E+02 -0.21840975058E+02 -0.28649422055E+02  0.46142315480E+02  0.99999791987E+01 0.  0.
         12    1    3    3    0    0 -0.27042487280E+02  0.21840975058E+02  0.28649422055E+02  0.45045684520E+02  0.00000000000E+00 0. -1.
         11    1    4    4    0    0  0.10982832294E+02 -0.11858298019E+02 -0.15657955897E+02  0.22503631268E+02  0.51100000000E-03 0. -1.
        -11    1    4    4    0    0  0.12979411438E+02 -0.76973174363E+01 -0.12817890970E+02  0.19799296608E+02  0.51100000000E-03 0.  1.
        -12    1    4    4    0    0  0.30802435485E+01 -0.22853596024E+01 -0.17357518850E+00  0.38393876043E+01  0.00000000000E+00 0.  1.
</event>
<event>
 8    1  0.3553316E-009  0.9118800E+02  0.7816164E-02  0.1184000E+00
        -11   -1    0    0    0    0  0.00000000000E+00  0.00000000000E+00  0.45593999997E+02  0.45594000000E+02  0.51100000000E-03 0. -1.
         11   -1    0    0    0    0 -0.00000000000E+00 -0.00000000000E+00 -0.45593999997E+02  0.45594000000E+02  0.51100000000E-03 0.  1.
         23    2    1    2    0    0  0.00000000000E+00  0.00000000000E+00  0.00000000000E+00  0.91188000000E+02  0.91188000000E+02 0.  0.
    9900012    2    3    3    0    0 -0.22317671501E+02  0.19823806164E+02 -0.33735023496E+02  0.46142316940E+02  0.99999925116E+01 0.  0.
         12    1    3    3    0    0  0.22317671501E+02 -0.19823806164E+02  0.33735023496E+02  0.45045683060E+02  0.00000000000E+00 0. -1.
         11    1    4    4    0    0  0.62218938875E+00  0.51150490747E+00 -0.26360613620E+01  0.27563701985E+01  0.51100000000E-03 0. -1.
        -11    1    4    4    0    0 -0.14559748918E+02  0.11816154961E+02 -0.16640150425E+02  0.25069950400E+02  0.51100000000E-03 0.  1.
         12    1    4    4    0    0 -0.83801119717E+01  0.74961462956E+01 -0.14458811709E+02  0.18315996341E+02  0.00000000000E+00 0. -1.
</event>
<event>
 8    1  0.2962813E-009  0.9118800E+02  0.7816164E-02  0.1184000E+00
        -11   -1    0    0    0    0  0.00000000000E+00  0.00000000000E+00  0.45593999997E+02  0.45594000000E+02  0.51100000000E-03 0.  1.
         11   -1    0    0    0    0 -0.00000000000E+00 -0.00000000000E+00 -0.45593999997E+02  0.45594000000E+02  0.51100000000E-03 0. -1.
         23    2    1    2    0    0  0.00000000000E+00  0.00000000000E+00  0.00000000000E+00  0.91188000000E+02  0.91188000000E+02 0.  0.
    9900012    2    3    3    0    0 -0.21344279270E+02  0.28803063546E+02 -0.27274875640E+02  0.46142316873E+02  0.99999919003E+01 0.  0.
        -12    1    3    3    0    0  0.21344279270E+02 -0.28803063546E+02  0.27274875640E+02  0.45045683127E+02  0.00000000000E+00 0.  1.
         11    1    4    4    0    0 -0.15978039324E+01  0.41184531420E+01 -0.65865558226E+01  0.79307850529E+01  0.51100000000E-03 0. -1.
        -11    1    4    4    0    0 -0.89741122876E+01  0.83237463128E+01 -0.54739881220E+01  0.13408355240E+02  0.51100000000E-03 0.  1.
         12    1    4    4    0    0 -0.10772363050E+02  0.16360864091E+02 -0.15214331695E+02  0.24803176580E+02  0.00000000000E+00 0. -1.
</event>
<event>
 8    1  0.3088147E-009  0.9118800E+02  0.7816164E-02  0.1184000E+00
        -11   -1    0    0    0    0  0.00000000000E+00  0.00000000000E+00  0.45593999997E+02  0.45594000000E+02  0.51100000000E-03 0. -1.
         11   -1    0    0    0    0 -0.00000000000E+00 -0.00000000000E+00 -0.45593999997E+02  0.45594000000E+02  0.51100000000E-03 0.  1.
         23    2    1    2    0    0  0.00000000000E+00  0.88817841970E-15  0.35527136788E-14  0.91188000000E+02  0.91188000000E+02 0.  0.
    9900012    2    3    3    0    0 -0.33963685963E+02 -0.74616490980E+01 -0.28633989284E+02  0.46142317479E+02  0.99999974258E+01 0.  0.
         12    1    3    3    0    0  0.33963685963E+02  0.74616490980E+01  0.28633989284E+02  0.45045682521E+02  0.00000000000E+00 0. -1.
         11    1    4    4    0    0 -0.47172442118E+01  0.13335561984E+01 -0.31763257015E+01  0.58412165095E+01  0.51100000000E-03 0. -1.
        -11    1    4    4    0    0 -0.17460144479E+02 -0.29922019942E+01 -0.17711261014E+02  0.25049923851E+02  0.51100000000E-03 0.  1.
        -12    1    4    4    0    0 -0.11786297273E+02 -0.58030033021E+01 -0.77464025687E+01  0.15251177118E+02  0.00000000000E+00 0.  1.
</event>
<event>
 8    1  0.2962813E-009  0.9118800E+02  0.7816164E-02  0.1184000E+00
        -11   -1    0    0    0    0  0.00000000000E+00  0.00000000000E+00  0.45593999997E+02  0.45594000000E+02  0.51100000000E-03 0.  1.
         11   -1    0    0    0    0 -0.00000000000E+00 -0.00000000000E+00 -0.45593999997E+02  0.45594000000E+02  0.51100000000E-03 0. -1.
         23    2    1    2    0    0  0.00000000000E+00  0.00000000000E+00  0.00000000000E+00  0.91188000000E+02  0.91188000000E+02 0.  0.
    9900012    2    3    3    0    0 -0.27669718146E+02  0.34802665691E+02  0.72301216369E+01  0.46142317628E+02  0.99999987819E+01 0.  0.
        -12    1    3    3    0    0  0.27669718146E+02 -0.34802665691E+02 -0.72301216369E+01  0.45045682372E+02  0.00000000000E+00 0.  1.
         11    1    4    4    0    0 -0.13094886442E+02  0.16606311850E+02  0.48974699126E+01  0.21707852404E+02  0.51100000000E-03 0. -1.
        -11    1    4    4    0    0 -0.25778163681E+01  0.23042147017E+01 -0.20860116168E+01  0.40380672785E+01  0.51100000000E-03 0.  1.
        -12    1    4    4    0    0 -0.11997015336E+02  0.15892139140E+02  0.44186633412E+01  0.20396397945E+02  0.00000000000E+00 0.  1.
</event>
<event>
 8    1  0.2962813E-009  0.9118800E+02  0.7816164E-02  0.1184000E+00
        -11   -1    0    0    0    0  0.00000000000E+00  0.00000000000E+00  0.45593999997E+02  0.45594000000E+02  0.51100000000E-03 0.  1.
         11   -1    0    0    0    0 -0.00000000000E+00 -0.00000000000E+00 -0.45593999997E+02  0.45594000000E+02  0.51100000000E-03 0. -1.
         23    2    1    2    0    0  0.00000000000E+00  0.00000000000E+00  0.00000000000E+00  0.91188000000E+02  0.91188000000E+02 0.  0.
    9900012    2    3    3    0    0 -0.40392357166E+02 -0.19601677541E+02  0.36531007691E+01  0.46142318464E+02  0.10000006408E+02 0.  0.
        -12    1    3    3    0    0  0.40392357166E+02  0.19601677541E+02 -0.36531007691E+01  0.45045681536E+02  0.00000000000E+00 0.  1.
         11    1    4    4    0    0 -0.11578742313E+02 -0.65894728551E+01  0.28855194210E+01  0.13631384693E+02  0.51100000000E-03 0. -1.
        -11    1    4    4    0    0 -0.24785877213E+02 -0.13674781351E+02  0.15679735747E+01  0.28351329697E+02  0.51100000000E-03 0.  1.
        -12    1    4    4    0    0 -0.40277376400E+01  0.66257666493E+00 -0.80039222668E+00  0.41596040738E+01  0.00000000000E+00 0.  1.
</event>
<event>
 8    1  0.2962813E-009  0.9118800E+02  0.7816164E-02  0.1184000E+00
        -11   -1    0    0    0    0  0.00000000000E+00  0.00000000000E+00  0.45593999997E+02  0.45594000000E+02  0.51100000000E-03 0. -1.
         11   -1    0    0    0    0 -0.00000000000E+00 -0.00000000000E+00 -0.45593999997E+02  0.45594000000E+02  0.51100000000E-03 0.  1.
         23    2    1    2    0    0 -0.88817841970E-15  0.17763568394E-14 -0.71054273576E-14  0.91188000000E+02  0.91188000000E+02 0.  0.
    9900012    2    3    3    0    0  0.39075577402E+01 -0.12588331500E+02  0.43074103511E+02  0.46142317736E+02  0.99999997666E+01 0.  0.
        -12    1    3    3    0    0 -0.39075577402E+01  0.12588331500E+02 -0.43074103511E+02  0.45045682264E+02  0.00000000000E+00 0.  1.
         11    1    4    4    0    0  0.15559586480E+01 -0.12296322092E+02  0.25518991516E+02  0.28369692853E+02  0.51100000000E-03 0. -1.
        -11    1    4    4    0    0  0.13700140404E+01  0.16081774597E+00  0.13685934086E+02  0.13755275094E+02  0.51100000000E-03 0.  1.
        -12    1    4    4    0    0  0.98158505183E+00 -0.45282715359E+00  0.38691779078E+01  0.40173497890E+01  0.00000000000E+00 0.  1.
</event>
<event>
 8    1  0.2962813E-009  0.9118800E+02  0.7816164E-02  0.1184000E+00
        -11   -1    0    0    0    0  0.00000000000E+00  0.00000000000E+00  0.45593999997E+02  0.45594000000E+02  0.51100000000E-03 0. -1.
         11   -1    0    0    0    0 -0.00000000000E+00 -0.00000000000E+00 -0.45593999997E+02  0.45594000000E+02  0.51100000000E-03 0.  1.
         23    2    1    2    0    0 -0.35527136788E-14  0.00000000000E+00  0.71054273576E-14  0.91188000000E+02  0.91188000000E+02 0.  0.
    9900012    2    3    3    0    0  0.23319046779E+02  0.18901223885E+02 -0.33586891116E+02  0.46142318055E+02  0.10000002680E+02 0.  0.
         12    1    3    3    0    0 -0.23319046779E+02 -0.18901223885E+02  0.33586891116E+02  0.45045681945E+02  0.00000000000E+00 0. -1.
         11    1    4    4    0    0  0.70003126442E+01  0.51499325070E+01 -0.56047983904E+01  0.10341177264E+02  0.51100000000E-03 0. -1.
        -11    1    4    4    0    0  0.11460806484E+02  0.10231732221E+02 -0.24339901360E+02  0.28783141385E+02  0.51100000000E-03 0.  1.
         12    1    4    4    0    0  0.48579276506E+01  0.35195591576E+01 -0.36421913657E+01  0.70179994063E+01  0.00000000000E+00 0. -1.
</event>
<event>
 8    1  0.2962813E-009  0.9118800E+02  0.7816164E-02  0.1184000E+00
        -11   -1    0    0    0    0  0.00000000000E+00  0.00000000000E+00  0.45593999997E+02  0.45594000000E+02  0.51100000000E-03 0. -1.
         11   -1    0    0    0    0 -0.00000000000E+00 -0.00000000000E+00 -0.45593999997E+02  0.45594000000E+02  0.51100000000E-03 0.  1.
         23    2    1    2    0    0  0.00000000000E+00 -0.44408920985E-15 -0.35527136788E-14  0.91188000000E+02  0.91188000000E+02 0.  0.
    9900012    2    3    3    0    0 -0.32615760144E+02 -0.11469951299E+01 -0.31048510641E+02  0.46142318513E+02  0.10000006853E+02 0.  0.
         12    1    3    3    0    0  0.32615760144E+02  0.11469951299E+01  0.31048510641E+02  0.45045681487E+02  0.00000000000E+00 0. -1.
         11    1    4    4    0    0 -0.12753321525E+02 -0.36977867331E+01 -0.80598611287E+01  0.15533261033E+02  0.51100000000E-03 0. -1.
        -11    1    4    4    0    0 -0.16283012260E+01  0.62055253396E+00 -0.31121343393E+01  0.35667675474E+01  0.51100000000E-03 0.  1.
        -12    1    4    4    0    0 -0.18234137393E+02  0.19302390692E+01 -0.19876515173E+02  0.27042289932E+02  0.00000000000E+00 0.  1.
</event>
<event>
 8    1  0.2962813E-009  0.9118800E+02  0.7816164E-02  0.1184000E+00
        -11   -1    0    0    0    0  0.00000000000E+00  0.00000000000E+00  0.45593999997E+02  0.45594000000E+02  0.51100000000E-03 0.  1.
         11   -1    0    0    0    0 -0.00000000000E+00 -0.00000000000E+00 -0.45593999997E+02  0.45594000000E+02  0.51100000000E-03 0. -1.
         23    2    1    2    0    0 -0.44408920985E-15  0.00000000000E+00  0.00000000000E+00  0.91188000000E+02  0.91188000000E+02 0.  0.
    9900012    2    3    3    0    0  0.34987222944E+01 -0.24828340894E+02  0.37422266565E+02  0.46142316476E+02  0.99999882847E+01 0.  0.
        -12    1    3    3    0    0 -0.34987222944E+01  0.24828340894E+02 -0.37422266565E+02  0.45045683524E+02  0.00000000000E+00 0.  1.
         11    1    4    4    0    0  0.24103060979E+01 -0.42457215598E+01  0.12452498256E+02  0.13375366916E+02  0.51100000000E-03 0. -1.
        -11    1    4    4    0    0 -0.23791430523E+00 -0.92329966606E+01  0.75279122564E+01  0.11915296629E+02  0.51100000000E-03 0.  1.
         12    1    4    4    0    0  0.13263305017E+01 -0.11349622674E+02  0.17441856052E+02  0.20851652932E+02  0.00000000000E+00 0. -1.
</event>
<event>
 8    1  0.2962813E-009  0.9118800E+02  0.7816164E-02  0.1184000E+00
        -11   -1    0    0    0    0  0.00000000000E+00  0.00000000000E+00  0.45593999997E+02  0.45594000000E+02  0.51100000000E-03 0. -1.
         11   -1    0    0    0    0 -0.00000000000E+00 -0.00000000000E+00 -0.45593999997E+02  0.45594000000E+02  0.51100000000E-03 0.  1.
         23    2    1    2    0    0  0.00000000000E+00  0.00000000000E+00  0.00000000000E+00  0.91188000000E+02  0.91188000000E+02 0.  0.
    9900012    2    3    3    0    0  0.19083047158E+02 -0.18207075796E+02  0.36516478243E+02  0.46142317841E+02  0.10000000731E+02 0.  0.
        -12    1    3    3    0    0 -0.19083047158E+02  0.18207075796E+02 -0.36516478243E+02  0.45045682159E+02  0.00000000000E+00 0.  1.
         11    1    4    4    0    0  0.95073811909E+01 -0.72228863677E+01  0.12100222241E+02  0.16999287136E+02  0.51100000000E-03 0. -1.
        -11    1    4    4    0    0  0.96197878745E+01 -0.97128369549E+01  0.18004130200E+02  0.22605933402E+02  0.51100000000E-03 0.  1.
        -12    1    4    4    0    0 -0.44121906920E-01 -0.12713524734E+01  0.64121258017E+01  0.65370973032E+01  0.00000000000E+00 0.  1.
</event>
<event>
 8    1  0.2962813E-009  0.9118800E+02  0.7816164E-02  0.1184000E+00
        -11   -1    0    0    0    0  0.00000000000E+00  0.00000000000E+00  0.45593999997E+02  0.45594000000E+02  0.51100000000E-03 0. -1.
         11   -1    0    0    0    0 -0.00000000000E+00 -0.00000000000E+00 -0.45593999997E+02  0.45594000000E+02  0.51100000000E-03 0.  1.
         23    2    1    2    0    0 -0.14210854715E-13  0.00000000000E+00 -0.35527136788E-14  0.91188000000E+02  0.91188000000E+02 0.  0.
    9900012    2    3    3    0    0 -0.38336733953E+02  0.19887627300E+01 -0.23568060387E+02  0.46142314105E+02  0.99999666604E+01 0.  0.
         12    1    3    3    0    0  0.38336733953E+02 -0.19887627300E+01  0.23568060387E+02  0.45045685895E+02  0.00000000000E+00 0. -1.
         11    1    4    4    0    0 -0.12482520404E+02  0.35039065605E+01 -0.11602317202E+02  0.17398403419E+02  0.51100000000E-03 0. -1.
        -11    1    4    4    0    0 -0.20661526415E+02 -0.25370560776E+01 -0.10047956899E+02  0.23114860273E+02  0.51100000000E-03 0.  1.
        -12    1    4    4    0    0 -0.51926871340E+01  0.10219122471E+01 -0.19177862857E+01  0.56290504128E+01  0.00000000000E+00 0.  1.
</event>
<event>
 8    1  0.4329648E-009  0.9118800E+02  0.7816164E-02  0.1184000E+00
        -11   -1    0    0    0    0  0.00000000000E+00  0.00000000000E+00  0.45593999997E+02  0.45594000000E+02  0.51100000000E-03 0. -1.
         11   -1    0    0    0    0 -0.00000000000E+00 -0.00000000000E+00 -0.45593999997E+02  0.45594000000E+02  0.51100000000E-03 0.  1.
         23    2    1    2    0    0  0.00000000000E+00  0.00000000000E+00  0.71054273576E-14  0.91188000000E+02  0.91188000000E+02 0.  0.
    9900012    2    3    3    0    0  0.34163876309E+01 -0.32359302551E+01 -0.44799224870E+02  0.46142317654E+02  0.99999990242E+01 0.  0.
         12    1    3    3    0    0 -0.34163876309E+01  0.32359302551E+01  0.44799224870E+02  0.45045682346E+02  0.00000000000E+00 0. -1.
         11    1    4    4    0    0 -0.73800656351E+00 -0.13702460881E+01 -0.20540906161E+01  0.25771139963E+01  0.51100000000E-03 0. -1.
        -11    1    4    4    0    0  0.50696973046E+01  0.86302725374E+00 -0.33188814264E+02  0.33584878135E+02  0.51100000000E-03 0.  1.
        -12    1    4    4    0    0 -0.91530311021E+00 -0.27287114207E+01 -0.95563199895E+01  0.99803255229E+01  0.00000000000E+00 0.  1.
</event>
<event>
 8    1  0.2962813E-009  0.9118800E+02  0.7816164E-02  0.1184000E+00
        -11   -1    0    0    0    0  0.00000000000E+00  0.00000000000E+00  0.45593999997E+02  0.45594000000E+02  0.51100000000E-03 0. -1.
         11   -1    0    0    0    0 -0.00000000000E+00 -0.00000000000E+00 -0.45593999997E+02  0.45594000000E+02  0.51100000000E-03 0.  1.
         23    2    1    2    0    0 -0.35527136788E-14  0.00000000000E+00  0.00000000000E+00  0.91188000000E+02  0.91188000000E+02 0.  0.
    9900012    2    3    3    0    0 -0.27128715222E+02 -0.28011761069E+02 -0.22549672078E+02  0.46142315871E+02  0.99999827669E+01 0.  0.
         12    1    3    3    0    0  0.27128715222E+02  0.28011761069E+02  0.22549672078E+02  0.45045684129E+02  0.00000000000E+00 0. -1.
         11    1    4    4    0    0  0.42149583606E+00 -0.22735386892E+01 -0.74075828202E+00  0.24280362445E+01  0.51100000000E-03 0. -1.
        -11    1    4    4    0    0 -0.22031931697E+02 -0.20091935877E+02 -0.18886104053E+02  0.35295563859E+02  0.51100000000E-03 0.  1.
         12    1    4    4    0    0 -0.55182793608E+01 -0.56462865029E+01 -0.29228097436E+01  0.84187157675E+01  0.00000000000E+00 0. -1.
</event>
<event>
 8    1  0.2962813E-009  0.9118800E+02  0.7816164E-02  0.1184000E+00
        -11   -1    0    0    0    0  0.00000000000E+00  0.00000000000E+00  0.45593999997E+02  0.45594000000E+02  0.51100000000E-03 0. -1.
         11   -1    0    0    0    0 -0.00000000000E+00 -0.00000000000E+00 -0.45593999997E+02  0.45594000000E+02  0.51100000000E-03 0.  1.
         23    2    1    2    0    0 -0.17763568394E-14 -0.71054273576E-14  0.22204460493E-15  0.91188000000E+02  0.91188000000E+02 0.  0.
    9900012    2    3    3    0    0 -0.80000720928E+01  0.44328800535E+02 -0.26413493115E+00  0.46142317880E+02  0.10000001088E+02 0.  0.
         12    1    3    3    0    0  0.80000720928E+01 -0.44328800535E+02  0.26413493115E+00  0.45045682120E+02  0.00000000000E+00 0. -1.
         11    1    4    4    0    0 -0.69022116513E+01  0.30424016344E+02 -0.42671034148E+01  0.31487608166E+02  0.51100000000E-03 0. -1.
        -11    1    4    4    0    0 -0.16291645375E+00  0.98898284274E+01  0.35437818290E+01  0.10506837679E+02  0.51100000000E-03 0.  1.
         12    1    4    4    0    0 -0.93494398782E+00  0.40149557633E+01  0.45918665469E+00  0.41478720358E+01  0.00000000000E+00 0. -1.
</event>
<event>
 8    1  0.2962813E-009  0.9118800E+02  0.7816164E-02  0.1184000E+00
        -11   -1    0    0    0    0  0.00000000000E+00  0.00000000000E+00  0.45593999997E+02  0.45594000000E+02  0.51100000000E-03 0. -1.
         11   -1    0    0    0    0 -0.00000000000E+00 -0.00000000000E+00 -0.45593999997E+02  0.45594000000E+02  0.51100000000E-03 0.  1.
         23    2    1    2    0    0  0.00000000000E+00  0.00000000000E+00  0.00000000000E+00  0.91188000000E+02  0.91188000000E+02 0.  0.
    9900012    2    3    3    0    0 -0.37991718924E+00  0.13900211760E+02  0.42845691130E+02  0.46142317937E+02  0.10000001608E+02 0.  0.
        -12    1    3    3    0    0  0.37991718924E+00 -0.13900211760E+02 -0.42845691130E+02  0.45045682063E+02  0.00000000000E+00 0.  1.
         11    1    4    4    0    0 -0.21974932326E+01  0.75567826953E+01  0.11849007971E+02  0.14224378066E+02  0.51100000000E-03 0. -1.
        -11    1    4    4    0    0  0.10185458691E+01  0.13636036622E+01  0.28230483325E+01  0.32964303092E+01  0.51100000000E-03 0.  1.
         12    1    4    4    0    0  0.79903017430E+00  0.49798254023E+01  0.28173634826E+02  0.28621509562E+02  0.00000000000E+00 0. -1.
</event>
<event>
 8    1  0.2962813E-009  0.9118800E+02  0.7816164E-02  0.1184000E+00
        -11   -1    0    0    0    0  0.00000000000E+00  0.00000000000E+00  0.45593999997E+02  0.45594000000E+02  0.51100000000E-03 0. -1.
         11   -1    0    0    0    0 -0.00000000000E+00 -0.00000000000E+00 -0.45593999997E+02  0.45594000000E+02  0.51100000000E-03 0.  1.
         23    2    1    2    0    0  0.00000000000E+00  0.35527136788E-14  0.35527136788E-14  0.91188000000E+02  0.91188000000E+02 0.  0.
    9900012    2    3    3    0    0  0.32381446873E+02 -0.21706738153E+02 -0.22569285179E+02  0.46142320781E+02  0.10000027536E+02 0.  0.
         12    1    3    3    0    0 -0.32381446873E+02  0.21706738153E+02  0.22569285179E+02  0.45045679219E+02  0.00000000000E+00 0. -1.
         11    1    4    4    0    0  0.14354242215E+02 -0.12524361639E+02 -0.10863164428E+02  0.21929711482E+02  0.51100000000E-03 0. -1.
        -11    1    4    4    0    0  0.13550487739E+02 -0.49685859482E+01 -0.10737628898E+02  0.17988864303E+02  0.51100000000E-03 0.  1.
         12    1    4    4    0    0  0.44767169183E+01 -0.42137905656E+01 -0.96849185270E+00  0.62237449953E+01  0.00000000000E+00 0. -1.
</event>
<event>
 8    1  0.2962813E-009  0.9118800E+02  0.7816164E-02  0.1184000E+00
        -11   -1    0    0    0    0  0.00000000000E+00  0.00000000000E+00  0.45593999997E+02  0.45594000000E+02  0.51100000000E-03 0. -1.
         11   -1    0    0    0    0 -0.00000000000E+00 -0.00000000000E+00 -0.45593999997E+02  0.45594000000E+02  0.51100000000E-03 0.  1.
         23    2    1    2    0    0 -0.71054273576E-14 -0.71054273576E-14 -0.71054273576E-14  0.91188000000E+02  0.91188000000E+02 0.  0.
    9900012    2    3    3    0    0 -0.22157654929E+02 -0.29754039841E+02 -0.25550909731E+02  0.46142317112E+02  0.99999940794E+01 0.  0.
         12    1    3    3    0    0  0.22157654929E+02  0.29754039841E+02  0.25550909731E+02  0.45045682888E+02  0.00000000000E+00 0. -1.
         11    1    4    4    0    0 -0.40092736267E+01 -0.10071441274E+01 -0.19819088538E+01  0.45843840669E+01  0.51100000000E-03 0. -1.
        -11    1    4    4    0    0 -0.16227795157E+02 -0.24229391405E+02 -0.18690719640E+02  0.34637374965E+02  0.51100000000E-03 0.  1.
         12    1    4    4    0    0 -0.19205861452E+01 -0.45175043083E+01 -0.48782812369E+01  0.69205580803E+01  0.00000000000E+00 0. -1.
</event>
<event>
 8    1  0.2962813E-009  0.9118800E+02  0.7816164E-02  0.1184000E+00
        -11   -1    0    0    0    0  0.00000000000E+00  0.00000000000E+00  0.45593999997E+02  0.45594000000E+02  0.51100000000E-03 0. -1.
         11   -1    0    0    0    0 -0.00000000000E+00 -0.00000000000E+00 -0.45593999997E+02  0.45594000000E+02  0.51100000000E-03 0.  1.
         23    2    1    2    0    0  0.00000000000E+00  0.00000000000E+00  0.00000000000E+00  0.91188000000E+02  0.91188000000E+02 0.  0.
    9900012    2    3    3    0    0  0.33412754582E+02 -0.67159302054E+01  0.29455011159E+02  0.46142316859E+02  0.99999917727E+01 0.  0.
        -12    1    3    3    0    0 -0.33412754582E+02  0.67159302054E+01 -0.29455011159E+02  0.45045683141E+02  0.00000000000E+00 0.  1.
         11    1    4    4    0    0  0.10621678130E+02 -0.44460053345E+00  0.98551103268E+01  0.14496237986E+02  0.51100000000E-03 0. -1.
        -11    1    4    4    0    0  0.17803458629E+00 -0.16274849836E+01  0.58625144345E+00  0.17389924387E+01  0.51100000000E-03 0.  1.
        -12    1    4    4    0    0  0.22613041865E+02 -0.46438446883E+01  0.19013649389E+02  0.29907086434E+02  0.00000000000E+00 0.  1.
</event>
<event>
 8    1  0.2962813E-009  0.9118800E+02  0.7816164E-02  0.1184000E+00
        -11   -1    0    0    0    0  0.00000000000E+00  0.00000000000E+00  0.45593999997E+02  0.45594000000E+02  0.51100000000E-03 0.  1.
         11   -1    0    0    0    0 -0.00000000000E+00 -0.00000000000E+00 -0.45593999997E+02  0.45594000000E+02  0.51100000000E-03 0. -1.
         23    2    1    2    0    0 -0.71054273576E-14  0.00000000000E+00  0.00000000000E+00  0.91188000000E+02  0.91188000000E+02 0.  0.
    9900012    2    3    3    0    0 -0.23504491342E+02 -0.33153870939E+02  0.19428672665E+02  0.46142316600E+02  0.99999894088E+01 0.  0.
         12    1    3    3    0    0  0.23504491342E+02  0.33153870939E+02 -0.19428672665E+02  0.45045683400E+02  0.00000000000E+00 0. -1.
         11    1    4    4    0    0 -0.11509414434E+02 -0.15697921917E+02  0.12670222007E+02  0.23225544108E+02  0.51100000000E-03 0. -1.
        -11    1    4    4    0    0 -0.93300202724E+01 -0.16670340519E+02  0.56100150450E+01  0.19910344055E+02  0.51100000000E-03 0.  1.
         12    1    4    4    0    0 -0.26650566359E+01 -0.78560850255E+00  0.11484356125E+01  0.30064284372E+01  0.00000000000E+00 0. -1.
</event>
<event>
 8    1  0.2962813E-009  0.9118800E+02  0.7816164E-02  0.1184000E+00
        -11   -1    0    0    0    0  0.00000000000E+00  0.00000000000E+00  0.45593999997E+02  0.45594000000E+02  0.51100000000E-03 0. -1.
         11   -1    0    0    0    0 -0.00000000000E+00 -0.00000000000E+00 -0.45593999997E+02  0.45594000000E+02  0.51100000000E-03 0.  1.
         23    2    1    2    0    0  0.00000000000E+00  0.00000000000E+00  0.35527136788E-14  0.91188000000E+02  0.91188000000E+02 0.  0.
    9900012    2    3    3    0    0 -0.11126027706E+02  0.30108107008E+02  0.31604223759E+02  0.46142316971E+02  0.99999927988E+01 0.  0.
        -12    1    3    3    0    0  0.11126027706E+02 -0.30108107008E+02 -0.31604223759E+02  0.45045683029E+02  0.00000000000E+00 0.  1.
         11    1    4    4    0    0 -0.75358104037E+01  0.13469585061E+02  0.10369653260E+02  0.18594296684E+02  0.51100000000E-03 0. -1.
        -11    1    4    4    0    0 -0.20403297491E+01  0.76379010369E+01  0.13187063240E+02  0.15375276091E+02  0.51100000000E-03 0.  1.
         12    1    4    4    0    0 -0.15498875527E+01  0.90006209098E+01  0.80475072591E+01  0.12172744196E+02  0.00000000000E+00 0. -1.
</event>
<event>
 8    1  0.2962813E-009  0.9118800E+02  0.7816164E-02  0.1184000E+00
        -11   -1    0    0    0    0  0.00000000000E+00  0.00000000000E+00  0.45593999997E+02  0.45594000000E+02  0.51100000000E-03 0. -1.
         11   -1    0    0    0    0 -0.00000000000E+00 -0.00000000000E+00 -0.45593999997E+02  0.45594000000E+02  0.51100000000E-03 0.  1.
         23    2    1    2    0    0 -0.17763568394E-14 -0.35527136788E-14  0.00000000000E+00  0.91188000000E+02  0.91188000000E+02 0.  0.
    9900012    2    3    3    0    0  0.12556648071E+02 -0.25165401910E+02  0.35187307029E+02  0.46142318298E+02  0.10000004894E+02 0.  0.
        -12    1    3    3    0    0 -0.12556648071E+02  0.25165401910E+02 -0.35187307029E+02  0.45045681702E+02  0.00000000000E+00 0.  1.
         11    1    4    4    0    0  0.26289211084E+01 -0.54349796714E+01  0.85880266423E+01  0.10497829875E+02  0.51100000000E-03 0. -1.
        -11    1    4    4    0    0  0.90316966619E+01 -0.17600868635E+02  0.18020535429E+02  0.26760078825E+02  0.51100000000E-03 0.  1.
        -12    1    4    4    0    0  0.89603030119E+00 -0.21295536030E+01  0.85787449577E+01  0.88844095976E+01  0.00000000000E+00 0.  1.
</event>
<event>
 8    1  0.2962813E-009  0.9118800E+02  0.7816164E-02  0.1184000E+00
        -11   -1    0    0    0    0  0.00000000000E+00  0.00000000000E+00  0.45593999997E+02  0.45594000000E+02  0.51100000000E-03 0.  1.
         11   -1    0    0    0    0 -0.00000000000E+00 -0.00000000000E+00 -0.45593999997E+02  0.45594000000E+02  0.51100000000E-03 0. -1.
         23    2    1    2    0    0  0.35527136788E-14  0.71054273576E-14  0.00000000000E+00  0.91188000000E+02  0.91188000000E+02 0.  0.
    9900012    2    3    3    0    0 -0.26138481031E+02 -0.36401708386E+02  0.45616778537E+01  0.46142317977E+02  0.10000001972E+02 0.  0.
        -12    1    3    3    0    0  0.26138481031E+02  0.36401708386E+02 -0.45616778537E+01  0.45045682023E+02  0.00000000000E+00 0.  1.
         11    1    4    4    0    0 -0.23100258147E+02 -0.30234931505E+02  0.27529383952E+01  0.38149071806E+02  0.51100000000E-03 0. -1.
        -11    1    4    4    0    0  0.78056588746E+00 -0.10918444715E+01 -0.14083182943E+00  0.13495337417E+01  0.51100000000E-03 0.  1.
        -12    1    4    4    0    0 -0.38187887709E+01 -0.50749324104E+01  0.19495712879E+01  0.66437124301E+01  0.00000000000E+00 0.  1.
</event>
<event>
 8    1  0.2962813E-009  0.9118800E+02  0.7816164E-02  0.1184000E+00
        -11   -1    0    0    0    0  0.00000000000E+00  0.00000000000E+00  0.45593999997E+02  0.45594000000E+02  0.51100000000E-03 0. -1.
         11   -1    0    0    0    0 -0.00000000000E+00 -0.00000000000E+00 -0.45593999997E+02  0.45594000000E+02  0.51100000000E-03 0.  1.
         23    2    1    2    0    0  0.00000000000E+00  0.00000000000E+00  0.00000000000E+00  0.91188000000E+02  0.91188000000E+02 0.  0.
    9900012    2    3    3    0    0 -0.31257453853E+02 -0.23060761708E+02 -0.22809787499E+02  0.46142316992E+02  0.99999929854E+01 0.  0.
         12    1    3    3    0    0  0.31257453853E+02  0.23060761708E+02  0.22809787499E+02  0.45045683008E+02  0.00000000000E+00 0. -1.
         11    1    4    4    0    0 -0.21901316480E+02 -0.10877043499E+02 -0.15699184292E+02  0.29059286408E+02  0.51100000000E-03 0. -1.
        -11    1    4    4    0    0 -0.50373179028E+01 -0.47220890793E+01 -0.34160205302E+01  0.77033689676E+01  0.51100000000E-03 0.  1.
         12    1    4    4    0    0 -0.43188194707E+01 -0.74616291297E+01 -0.36945826764E+01  0.93796616166E+01  0.00000000000E+00 0. -1.
</event>
<event>
 8    1  0.2962813E-009  0.9118800E+02  0.7816164E-02  0.1184000E+00
        -11   -1    0    0    0    0  0.00000000000E+00  0.00000000000E+00  0.45593999997E+02  0.45594000000E+02  0.51100000000E-03 0. -1.
         11   -1    0    0    0    0 -0.00000000000E+00 -0.00000000000E+00 -0.45593999997E+02  0.45594000000E+02  0.51100000000E-03 0.  1.
         23    2    1    2    0    0 -0.71054273576E-14  0.00000000000E+00  0.35527136788E-14  0.91188000000E+02  0.91188000000E+02 0.  0.
    9900012    2    3    3    0    0  0.39758790180E+02 -0.43096108152E+01  0.20731119569E+02  0.46142318070E+02  0.10000002814E+02 0.  0.
        -12    1    3    3    0    0 -0.39758790180E+02  0.43096108152E+01 -0.20731119569E+02  0.45045681930E+02  0.00000000000E+00 0.  1.
         11    1    4    4    0    0  0.31718556681E+02 -0.45784967560E+01  0.12821724106E+02  0.34517040426E+02  0.51100000000E-03 0. -1.
        -11    1    4    4    0    0  0.60783216068E+01  0.14221361508E+01  0.58970662755E+01  0.85874242766E+01  0.51100000000E-03 0.  1.
         12    1    4    4    0    0  0.19619118928E+01 -0.11532502100E+01  0.20123291875E+01  0.30378533673E+01  0.00000000000E+00 0. -1.
</event>
<event>
 8    1  0.2962813E-009  0.9118800E+02  0.7816164E-02  0.1184000E+00
        -11   -1    0    0    0    0  0.00000000000E+00  0.00000000000E+00  0.45593999997E+02  0.45594000000E+02  0.51100000000E-03 0.  1.
         11   -1    0    0    0    0 -0.00000000000E+00 -0.00000000000E+00 -0.45593999997E+02  0.45594000000E+02  0.51100000000E-03 0. -1.
         23    2    1    2    0    0  0.35527136788E-14  0.71054273576E-14  0.00000000000E+00  0.91188000000E+02  0.91188000000E+02 0.  0.
    9900012    2    3    3    0    0  0.29724165667E+02  0.33200827773E+02  0.65797041901E+01  0.46142317669E+02  0.99999991606E+01 0.  0.
        -12    1    3    3    0    0 -0.29724165667E+02 -0.33200827773E+02 -0.65797041901E+01  0.45045682331E+02  0.00000000000E+00 0.  1.
         11    1    4    4    0    0  0.26114520821E+02  0.26507051388E+02  0.78222714598E+01  0.38023412551E+02  0.51100000000E-03 0. -1.
        -11    1    4    4    0    0 -0.16124528197E+00  0.19667529293E+01 -0.40251278653E+00  0.20139845904E+01  0.51100000000E-03 0.  1.
         12    1    4    4    0    0  0.37708901283E+01  0.47270234558E+01 -0.84005448314E+00  0.61049205274E+01  0.00000000000E+00 0. -1.
</event>
<event>
 8    1  0.2962813E-009  0.9118800E+02  0.7816164E-02  0.1184000E+00
        -11   -1    0    0    0    0  0.00000000000E+00  0.00000000000E+00  0.45593999997E+02  0.45594000000E+02  0.51100000000E-03 0. -1.
         11   -1    0    0    0    0 -0.00000000000E+00 -0.00000000000E+00 -0.45593999997E+02  0.45594000000E+02  0.51100000000E-03 0.  1.
         23    2    1    2    0    0  0.35527136788E-14  0.00000000000E+00  0.35527136788E-14  0.91188000000E+02  0.91188000000E+02 0.  0.
    9900012    2    3    3    0    0  0.17710749172E+02 -0.32207961781E+02 -0.26040165023E+02  0.46142316159E+02  0.99999853896E+01 0.  0.
         12    1    3    3    0    0 -0.17710749172E+02  0.32207961781E+02  0.26040165023E+02  0.45045683841E+02  0.00000000000E+00 0. -1.
         11    1    4    4    0    0  0.46843824872E+01 -0.62637780543E+01 -0.97294985378E+01  0.12483649180E+02  0.51100000000E-03 0. -1.
        -11    1    4    4    0    0  0.67264047890E+01 -0.15110557334E+02 -0.66154348260E+01  0.17813967624E+02  0.51100000000E-03 0.  1.
        -12    1    4    4    0    0  0.62999618953E+01 -0.10833626393E+02 -0.96952316591E+01  0.15844699354E+02  0.00000000000E+00 0.  1.
</event>
<event>
 8    1  0.2962813E-009  0.9118800E+02  0.7816164E-02  0.1184000E+00
        -11   -1    0    0    0    0  0.00000000000E+00  0.00000000000E+00  0.45593999997E+02  0.45594000000E+02  0.51100000000E-03 0. -1.
         11   -1    0    0    0    0 -0.00000000000E+00 -0.00000000000E+00 -0.45593999997E+02  0.45594000000E+02  0.51100000000E-03 0.  1.
         23    2    1    2    0    0  0.00000000000E+00  0.00000000000E+00  0.00000000000E+00  0.91188000000E+02  0.91188000000E+02 0.  0.
    9900012    2    3    3    0    0  0.34553519354E+02  0.20459139949E+02 -0.20410574243E+02  0.46142315988E+02  0.99999838340E+01 0.  0.
         12    1    3    3    0    0 -0.34553519354E+02 -0.20459139949E+02  0.20410574243E+02  0.45045684012E+02  0.00000000000E+00 0. -1.
         11    1    4    4    0    0  0.64699611551E+01  0.43163388353E+01 -0.23781834584E+01  0.81330766081E+01  0.51100000000E-03 0. -1.
        -11    1    4    4    0    0  0.19876468470E+02  0.14962183950E+02 -0.15613121629E+02  0.29371934132E+02  0.51100000000E-03 0.  1.
        -12    1    4    4    0    0  0.82070897290E+01  0.11806171631E+01 -0.24192691549E+01  0.86373052481E+01  0.00000000000E+00 0.  1.
</event>
<event>
 8    1  0.2962813E-009  0.9118800E+02  0.7816164E-02  0.1184000E+00
        -11   -1    0    0    0    0  0.00000000000E+00  0.00000000000E+00  0.45593999997E+02  0.45594000000E+02  0.51100000000E-03 0. -1.
         11   -1    0    0    0    0 -0.00000000000E+00 -0.00000000000E+00 -0.45593999997E+02  0.45594000000E+02  0.51100000000E-03 0.  1.
         23    2    1    2    0    0 -0.35527136788E-14  0.17763568394E-14  0.00000000000E+00  0.91188000000E+02  0.91188000000E+02 0.  0.
    9900012    2    3    3    0    0 -0.23980371236E+02  0.14475139936E+02  0.35277834583E+02  0.46142317703E+02  0.99999994668E+01 0.  0.
        -12    1    3    3    0    0  0.23980371236E+02 -0.14475139936E+02 -0.35277834583E+02  0.45045682297E+02  0.00000000000E+00 0.  1.
         11    1    4    4    0    0 -0.18796623728E+02  0.11763421206E+02  0.31499041500E+02  0.38521172850E+02  0.51100000000E-03 0. -1.
        -11    1    4    4    0    0 -0.44002420022E+01  0.11550213869E+01  0.15809046058E+01  0.48161669111E+01  0.51100000000E-03 0.  1.
         12    1    4    4    0    0 -0.78350550527E+00  0.15566973431E+01  0.21978884773E+01  0.28049779417E+01  0.00000000000E+00 0. -1.
</event>
<event>
 8    1  0.3097674E-009  0.9118800E+02  0.7816164E-02  0.1184000E+00
        -11   -1    0    0    0    0  0.00000000000E+00  0.00000000000E+00  0.45593999997E+02  0.45594000000E+02  0.51100000000E-03 0. -1.
         11   -1    0    0    0    0 -0.00000000000E+00 -0.00000000000E+00 -0.45593999997E+02  0.45594000000E+02  0.51100000000E-03 0.  1.
         23    2    1    2    0    0 -0.88817841970E-15  0.00000000000E+00  0.00000000000E+00  0.91188000000E+02  0.91188000000E+02 0.  0.
    9900012    2    3    3    0    0  0.45628722524E+01  0.13600926513E+02 -0.42700216775E+02  0.46142317434E+02  0.99999970212E+01 0.  0.
         12    1    3    3    0    0 -0.45628722524E+01 -0.13600926513E+02  0.42700216775E+02  0.45045682566E+02  0.00000000000E+00 0. -1.
         11    1    4    4    0    0  0.39898180153E+01  0.58568851022E+01 -0.11080517597E+02  0.13152932045E+02  0.51100000000E-03 0. -1.
        -11    1    4    4    0    0  0.25453127368E+00  0.80085516306E+01 -0.31571683159E+02  0.32572578393E+02  0.51100000000E-03 0.  1.
        -12    1    4    4    0    0  0.31852296341E+00 -0.26451021988E+00 -0.48016018403E-01  0.41680699690E+00  0.00000000000E+00 0.  1.
</event>
<event>
 8    1  0.2962813E-009  0.9118800E+02  0.7816164E-02  0.1184000E+00
        -11   -1    0    0    0    0  0.00000000000E+00  0.00000000000E+00  0.45593999997E+02  0.45594000000E+02  0.51100000000E-03 0. -1.
         11   -1    0    0    0    0 -0.00000000000E+00 -0.00000000000E+00 -0.45593999997E+02  0.45594000000E+02  0.51100000000E-03 0.  1.
         23    2    1    2    0    0  0.00000000000E+00  0.00000000000E+00  0.00000000000E+00  0.91188000000E+02  0.91188000000E+02 0.  0.
    9900012    2    3    3    0    0 -0.21307238089E+01 -0.96827862107E+01 -0.43941064524E+02  0.46142317806E+02  0.10000000413E+02 0.  0.
         12    1    3    3    0    0  0.21307238089E+01  0.96827862107E+01  0.43941064524E+02  0.45045682194E+02  0.00000000000E+00 0. -1.
         11    1    4    4    0    0  0.37832595473E+00 -0.58793958263E+01 -0.29919820902E+02  0.30494361920E+02  0.51100000000E-03 0.  1.
        -11    1    4    4    0    0 -0.31249679844E+00  0.99091824973E+00 -0.57176800137E+01  0.58113198352E+01  0.51100000000E-03 0. -1.
        -12    1    4    4    0    0 -0.21965529652E+01 -0.47943086341E+01 -0.83035636084E+01  0.98366360514E+01  0.00000000000E+00 0.  1.
</event>
<event>
 8    1  0.2962813E-009  0.9118800E+02  0.7816164E-02  0.1184000E+00
        -11   -1    0    0    0    0  0.00000000000E+00  0.00000000000E+00  0.45593999997E+02  0.45594000000E+02  0.51100000000E-03 0. -1.
         11   -1    0    0    0    0 -0.00000000000E+00 -0.00000000000E+00 -0.45593999997E+02  0.45594000000E+02  0.51100000000E-03 0.  1.
         23    2    1    2    0    0  0.00000000000E+00  0.00000000000E+00  0.00000000000E+00  0.91188000000E+02  0.91188000000E+02 0.  0.
    9900012    2    3    3    0    0  0.36735451075E+02 -0.19406297080E+02 -0.17407348874E+02  0.46142317333E+02  0.99999960997E+01 0.  0.
         12    1    3    3    0    0 -0.36735451075E+02  0.19406297080E+02  0.17407348874E+02  0.45045682667E+02  0.00000000000E+00 0. -1.
         11    1    4    4    0    0  0.13917331595E+02 -0.83752595928E+01 -0.36844896524E+01  0.16655706417E+02  0.51100000000E-03 0. -1.
        -11    1    4    4    0    0  0.63563941948E+01 -0.62705386839E+01 -0.54172972322E+01  0.10443682881E+02  0.51100000000E-03 0.  1.
         12    1    4    4    0    0  0.16461725286E+02 -0.47604988033E+01 -0.83055619895E+01  0.19042928036E+02  0.00000000000E+00 0. -1.
</event>
<event>
 8    1  0.2962813E-009  0.9118800E+02  0.7816164E-02  0.1184000E+00
        -11   -1    0    0    0    0  0.00000000000E+00  0.00000000000E+00  0.45593999997E+02  0.45594000000E+02  0.51100000000E-03 0. -1.
         11   -1    0    0    0    0 -0.00000000000E+00 -0.00000000000E+00 -0.45593999997E+02  0.45594000000E+02  0.51100000000E-03 0.  1.
         23    2    1    2    0    0  0.00000000000E+00  0.35527136788E-14  0.00000000000E+00  0.91188000000E+02  0.91188000000E+02 0.  0.
    9900012    2    3    3    0    0 -0.17769754589E+02 -0.30550927193E+02 -0.27928306211E+02  0.46142316319E+02  0.99999868497E+01 0.  0.
         12    1    3    3    0    0  0.17769754589E+02  0.30550927193E+02  0.27928306211E+02  0.45045683681E+02  0.00000000000E+00 0. -1.
         11    1    4    4    0    0 -0.49978145707E+01 -0.60299418756E+01 -0.25444156070E+01  0.82348285075E+01  0.51100000000E-03 0. -1.
        -11    1    4    4    0    0 -0.46907656957E+00 -0.50055881381E+01 -0.54966127632E+01  0.74490736046E+01  0.51100000000E-03 0.  1.
        -12    1    4    4    0    0 -0.12302863449E+02 -0.19515397179E+02 -0.19887277841E+02  0.30458414207E+02  0.00000000000E+00 0.  1.
</event>
<event>
 8    1  0.2962813E-009  0.9118800E+02  0.7816164E-02  0.1184000E+00
        -11   -1    0    0    0    0  0.00000000000E+00  0.00000000000E+00  0.45593999997E+02  0.45594000000E+02  0.51100000000E-03 0. -1.
         11   -1    0    0    0    0 -0.00000000000E+00 -0.00000000000E+00 -0.45593999997E+02  0.45594000000E+02  0.51100000000E-03 0.  1.
         23    2    1    2    0    0  0.00000000000E+00 -0.35527136788E-14  0.35527136788E-14  0.91188000000E+02  0.91188000000E+02 0.  0.
    9900012    2    3    3    0    0 -0.24607771505E+02 -0.26713535414E+02  0.26645037880E+02  0.46142318338E+02  0.10000005262E+02 0.  0.
        -12    1    3    3    0    0  0.24607771505E+02  0.26713535414E+02 -0.26645037880E+02  0.45045681662E+02  0.00000000000E+00 0.  1.
         11    1    4    4    0    0 -0.12735708481E+02 -0.11607809979E+02  0.14251620495E+02  0.22361757758E+02  0.51100000000E-03 0. -1.
        -11    1    4    4    0    0 -0.12095694008E+00  0.63337496542E+00  0.27472531431E+00  0.70090561962E+00  0.51100000000E-03 0.  1.
        -12    1    4    4    0    0 -0.11751106084E+02 -0.15739100400E+02  0.12118692071E+02  0.23079654961E+02  0.00000000000E+00 0.  1.
</event>
<event>
 8    1  0.3094810E-009  0.9118800E+02  0.7816164E-02  0.1184000E+00
        -11   -1    0    0    0    0  0.00000000000E+00  0.00000000000E+00  0.45593999997E+02  0.45594000000E+02  0.51100000000E-03 0. -1.
         11   -1    0    0    0    0 -0.00000000000E+00 -0.00000000000E+00 -0.45593999997E+02  0.45594000000E+02  0.51100000000E-03 0.  1.
         23    2    1    2    0    0 -0.17763568394E-14 -0.44408920985E-15  0.00000000000E+00  0.91188000000E+02  0.91188000000E+02 0.  0.
    9900012    2    3    3    0    0 -0.12654210351E+02 -0.17867502800E+01 -0.43194814747E+02  0.46142317220E+02  0.99999950616E+01 0.  0.
         12    1    3    3    0    0  0.12654210351E+02  0.17867502800E+01  0.43194814747E+02  0.45045682780E+02  0.00000000000E+00 0. -1.
         11    1    4    4    0    0 -0.63969460279E+01  0.25773174644E+01 -0.21719300901E+02  0.22787968661E+02  0.51100000000E-03 0. -1.
        -11    1    4    4    0    0 -0.34626693679E+01 -0.11640592688E+01 -0.16065158289E+02  0.16475267047E+02  0.51100000000E-03 0.  1.
         12    1    4    4    0    0 -0.27945949550E+01 -0.32000084755E+01 -0.54103555561E+01  0.68790815121E+01  0.00000000000E+00 0. -1.
</event>
<event>
 8    1  0.2962813E-009  0.9118800E+02  0.7816164E-02  0.1184000E+00
        -11   -1    0    0    0    0  0.00000000000E+00  0.00000000000E+00  0.45593999997E+02  0.45594000000E+02  0.51100000000E-03 0. -1.
         11   -1    0    0    0    0 -0.00000000000E+00 -0.00000000000E+00 -0.45593999997E+02  0.45594000000E+02  0.51100000000E-03 0.  1.
         23    2    1    2    0    0  0.00000000000E+00  0.00000000000E+00  0.00000000000E+00  0.91188000000E+02  0.91188000000E+02 0.  0.
    9900012    2    3    3    0    0  0.18480019702E+02  0.18258739792E+02  0.36799741544E+02  0.46142315582E+02  0.99999801249E+01 0.  0.
        -12    1    3    3    0    0 -0.18480019702E+02 -0.18258739792E+02 -0.36799741544E+02  0.45045684418E+02  0.00000000000E+00 0.  1.
         11    1    4    4    0    0  0.10650489708E+02  0.75457231139E+01  0.19894376563E+02  0.23794055716E+02  0.51100000000E-03 0. -1.
        -11    1    4    4    0    0  0.30733565750E+01  0.15845243877E+01  0.80830064232E+01  0.87915431678E+01  0.51100000000E-03 0.  1.
        -12    1    4    4    0    0  0.47561734198E+01  0.91284922905E+01  0.88223585584E+01  0.13556716698E+02  0.00000000000E+00 0.  1.
</event>
<event>
 8    1  0.2962813E-009  0.9118800E+02  0.7816164E-02  0.1184000E+00
        -11   -1    0    0    0    0  0.00000000000E+00  0.00000000000E+00  0.45593999997E+02  0.45594000000E+02  0.51100000000E-03 0. -1.
         11   -1    0    0    0    0 -0.00000000000E+00 -0.00000000000E+00 -0.45593999997E+02  0.45594000000E+02  0.51100000000E-03 0.  1.
         23    2    1    2    0    0  0.00000000000E+00  0.00000000000E+00  0.71054273576E-14  0.91188000000E+02  0.91188000000E+02 0.  0.
    9900012    2    3    3    0    0  0.19823810916E+02  0.19200000810E+02  0.35601825382E+02  0.46142317844E+02  0.10000000755E+02 0.  0.
        -12    1    3    3    0    0 -0.19823810916E+02 -0.19200000810E+02 -0.35601825382E+02  0.45045682156E+02  0.00000000000E+00 0.  1.
         11    1    4    4    0    0  0.32677700599E+01  0.63671957635E+00  0.45059371859E+01  0.56024283278E+01  0.51100000000E-03 0. -1.
        -11    1    4    4    0    0  0.34547802864E+01  0.59826068383E+01  0.13926121593E+02  0.15545544516E+02  0.51100000000E-03 0.  1.
         12    1    4    4    0    0  0.13101260570E+02  0.12580674396E+02  0.17169766603E+02  0.24994345000E+02  0.00000000000E+00 0. -1.
</event>
<event>
 8    1  0.2962813E-009  0.9118800E+02  0.7816164E-02  0.1184000E+00
        -11   -1    0    0    0    0  0.00000000000E+00  0.00000000000E+00  0.45593999997E+02  0.45594000000E+02  0.51100000000E-03 0. -1.
         11   -1    0    0    0    0 -0.00000000000E+00 -0.00000000000E+00 -0.45593999997E+02  0.45594000000E+02  0.51100000000E-03 0.  1.
         23    2    1    2    0    0  0.00000000000E+00  0.00000000000E+00  0.00000000000E+00  0.91188000000E+02  0.91188000000E+02 0.  0.
    9900012    2    3    3    0    0  0.27586165611E+02  0.80648289654E+01  0.34685378641E+02  0.46142317734E+02  0.99999997521E+01 0.  0.
        -12    1    3    3    0    0 -0.27586165611E+02 -0.80648289654E+01 -0.34685378641E+02  0.45045682266E+02  0.00000000000E+00 0.  1.
         11    1    4    4    0    0  0.15307097191E+02  0.40400309494E+01  0.22393972395E+02  0.27424789414E+02  0.51100000000E-03 0. -1.
        -11    1    4    4    0    0  0.66703980448E+01  0.63457295671E-01  0.87164539232E+01  0.10976101592E+02  0.51100000000E-03 0.  1.
        -12    1    4    4    0    0  0.56086703749E+01  0.39613407204E+01  0.35749523227E+01  0.77414267281E+01  0.00000000000E+00 0.  1.
</event>
<event>
 8    1  0.2962813E-009  0.9118800E+02  0.7816164E-02  0.1184000E+00
        -11   -1    0    0    0    0  0.00000000000E+00  0.00000000000E+00  0.45593999997E+02  0.45594000000E+02  0.51100000000E-03 0.  1.
         11   -1    0    0    0    0 -0.00000000000E+00 -0.00000000000E+00 -0.45593999997E+02  0.45594000000E+02  0.51100000000E-03 0. -1.
         23    2    1    2    0    0  0.00000000000E+00  0.00000000000E+00  0.35527136788E-14  0.91188000000E+02  0.91188000000E+02 0.  0.
    9900012    2    3    3    0    0  0.37416208621E+02  0.16131928484E+02  0.19206812370E+02  0.46142318458E+02  0.10000006355E+02 0.  0.
        -12    1    3    3    0    0 -0.37416208621E+02 -0.16131928484E+02 -0.19206812370E+02  0.45045681542E+02  0.00000000000E+00 0.  1.
         11    1    4    4    0    0  0.85144925792E+01  0.33121947294E+01  0.29940676445E+01  0.96141385015E+01  0.51100000000E-03 0. -1.
        -11    1    4    4    0    0  0.14447408848E+02  0.11008340980E+02  0.87834938872E+01  0.20175751750E+02  0.51100000000E-03 0.  1.
        -12    1    4    4    0    0  0.14454307194E+02  0.18113927745E+01  0.74292508388E+01  0.16352428207E+02  0.00000000000E+00 0.  1.
</event>
<event>
 8    1  0.2962813E-009  0.9118800E+02  0.7816164E-02  0.1184000E+00
        -11   -1    0    0    0    0  0.00000000000E+00  0.00000000000E+00  0.45593999997E+02  0.45594000000E+02  0.51100000000E-03 0.  1.
         11   -1    0    0    0    0 -0.00000000000E+00 -0.00000000000E+00 -0.45593999997E+02  0.45594000000E+02  0.51100000000E-03 0. -1.
         23    2    1    2    0    0 -0.35527136788E-14  0.17763568394E-14  0.00000000000E+00  0.91188000000E+02  0.91188000000E+02 0.  0.
    9900012    2    3    3    0    0  0.29353647285E+02  0.13876658487E+02 -0.31223633534E+02  0.46142317068E+02  0.99999936827E+01 0.  0.
         12    1    3    3    0    0 -0.29353647285E+02 -0.13876658487E+02  0.31223633534E+02  0.45045682932E+02  0.00000000000E+00 0. -1.
         11    1    4    4    0    0  0.40461636423E+01  0.20634138803E+01 -0.30200627301E+01  0.54543465435E+01  0.51100000000E-03 0. -1.
        -11    1    4    4    0    0  0.23336842869E+02  0.74161616007E+01 -0.24131034336E+02  0.34378983498E+02  0.51100000000E-03 0.  1.
        -12    1    4    4    0    0  0.19706407743E+01  0.43970830061E+01 -0.40725364683E+01  0.63089870272E+01  0.00000000000E+00 0.  1.
</event>
<event>
 8    1  0.2962813E-009  0.9118800E+02  0.7816164E-02  0.1184000E+00
        -11   -1    0    0    0    0  0.00000000000E+00  0.00000000000E+00  0.45593999997E+02  0.45594000000E+02  0.51100000000E-03 0. -1.
         11   -1    0    0    0    0 -0.00000000000E+00 -0.00000000000E+00 -0.45593999997E+02  0.45594000000E+02  0.51100000000E-03 0.  1.
         23    2    1    2    0    0  0.00000000000E+00  0.00000000000E+00  0.00000000000E+00  0.91188000000E+02  0.91188000000E+02 0.  0.
    9900012    2    3    3    0    0  0.22351644671E+02  0.32075627461E+02  0.22375686788E+02  0.46142320343E+02  0.10000023539E+02 0.  0.
        -12    1    3    3    0    0 -0.22351644671E+02 -0.32075627461E+02 -0.22375686788E+02  0.45045679657E+02  0.00000000000E+00 0.  1.
         11    1    4    4    0    0  0.83553239723E+01  0.18137639193E+02  0.97101804611E+01  0.22205247105E+02  0.51100000000E-03 0. -1.
        -11    1    4    4    0    0  0.43023122074E+01  0.44577995865E+01  0.15046813388E+01  0.63754163532E+01  0.51100000000E-03 0.  1.
         12    1    4    4    0    0  0.96940084914E+01  0.94801886822E+01  0.11160824989E+02  0.17561656884E+02  0.00000000000E+00 0. -1.
</event>
<event>
 8    1  0.2962813E-009  0.9118800E+02  0.7816164E-02  0.1184000E+00
        -11   -1    0    0    0    0  0.00000000000E+00  0.00000000000E+00  0.45593999997E+02  0.45594000000E+02  0.51100000000E-03 0. -1.
         11   -1    0    0    0    0 -0.00000000000E+00 -0.00000000000E+00 -0.45593999997E+02  0.45594000000E+02  0.51100000000E-03 0.  1.
         23    2    1    2    0    0  0.00000000000E+00  0.00000000000E+00  0.00000000000E+00  0.91188000000E+02  0.91188000000E+02 0.  0.
    9900012    2    3    3    0    0 -0.23285183479E+02 -0.59305708766E+01 -0.38101731231E+02  0.46142319148E+02  0.10000012650E+02 0.  0.
         12    1    3    3    0    0  0.23285183479E+02  0.59305708766E+01  0.38101731231E+02  0.45045680852E+02  0.00000000000E+00 0. -1.
         11    1    4    4    0    0  0.31701053487E+00 -0.16816018505E+01 -0.25716261700E+01  0.30889386336E+01  0.51100000000E-03 0. -1.
        -11    1    4    4    0    0 -0.68031063303E+01 -0.16898073060E+00 -0.75572438913E+01  0.10169697425E+02  0.51100000000E-03 0.  1.
         12    1    4    4    0    0 -0.16799087684E+02 -0.40799882954E+01 -0.27972861170E+02  0.32883683089E+02  0.00000000000E+00 0. -1.
</event>
<event>
 8    1  0.2962813E-009  0.9118800E+02  0.7816164E-02  0.1184000E+00
        -11   -1    0    0    0    0  0.00000000000E+00  0.00000000000E+00  0.45593999997E+02  0.45594000000E+02  0.51100000000E-03 0. -1.
         11   -1    0    0    0    0 -0.00000000000E+00 -0.00000000000E+00 -0.45593999997E+02  0.45594000000E+02  0.51100000000E-03 0.  1.
         23    2    1    2    0    0 -0.35527136788E-14  0.35527136788E-14 -0.71054273576E-14  0.91188000000E+02  0.91188000000E+02 0.  0.
    9900012    2    3    3    0    0  0.14027035892E+02 -0.21191867383E+02  0.37192210103E+02  0.46142317949E+02  0.10000001712E+02 0.  0.
        -12    1    3    3    0    0 -0.14027035892E+02  0.21191867383E+02 -0.37192210103E+02  0.45045682051E+02  0.00000000000E+00 0.  1.
         11    1    4    4    0    0  0.75039700051E+01 -0.14662027615E+02  0.19838413956E+02  0.25784632791E+02  0.51100000000E-03 0. -1.
        -11    1    4    4    0    0  0.73875850144E+01 -0.55766941672E+01  0.16037141106E+02  0.18516636447E+02  0.51100000000E-03 0.  1.
        -12    1    4    4    0    0 -0.86451912793E+00 -0.95314560036E+00  0.13166550419E+01  0.18410487113E+01  0.00000000000E+00 0.  1.
</event>
<event>
 8    1  0.2962813E-009  0.9118800E+02  0.7816164E-02  0.1184000E+00
        -11   -1    0    0    0    0  0.00000000000E+00  0.00000000000E+00  0.45593999997E+02  0.45594000000E+02  0.51100000000E-03 0. -1.
         11   -1    0    0    0    0 -0.00000000000E+00 -0.00000000000E+00 -0.45593999997E+02  0.45594000000E+02  0.51100000000E-03 0.  1.
         23    2    1    2    0    0 -0.35527136788E-14 -0.71054273576E-14 -0.17763568394E-14  0.91188000000E+02  0.91188000000E+02 0.  0.
    9900012    2    3    3    0    0 -0.21986887361E+02 -0.36103063963E+02 -0.15564675168E+02  0.46142317005E+02  0.99999931079E+01 0.  0.
         12    1    3    3    0    0  0.21986887361E+02  0.36103063963E+02  0.15564675168E+02  0.45045682995E+02  0.00000000000E+00 0. -1.
         11    1    4    4    0    0 -0.12397273159E+02 -0.11305447753E+02 -0.67840046955E+01  0.18097741590E+02  0.51100000000E-03 0. -1.
        -11    1    4    4    0    0 -0.84681038142E+01 -0.20664570198E+02 -0.69670367049E+01  0.23393863391E+02  0.51100000000E-03 0.  1.
        -12    1    4    4    0    0 -0.11215103886E+01 -0.41330460124E+01 -0.18136337675E+01  0.46507120245E+01  0.00000000000E+00 0.  1.
</event>
<event>
 8    1  0.2962813E-009  0.9118800E+02  0.7816164E-02  0.1184000E+00
        -11   -1    0    0    0    0  0.00000000000E+00  0.00000000000E+00  0.45593999997E+02  0.45594000000E+02  0.51100000000E-03 0. -1.
         11   -1    0    0    0    0 -0.00000000000E+00 -0.00000000000E+00 -0.45593999997E+02  0.45594000000E+02  0.51100000000E-03 0.  1.
         23    2    1    2    0    0  0.17763568394E-14 -0.35527136788E-14  0.71054273576E-14  0.91188000000E+02  0.91188000000E+02 0.  0.
    9900012    2    3    3    0    0 -0.15649288155E+02  0.19657896270E+02 -0.37386901591E+02  0.46142317453E+02  0.99999971895E+01 0.  0.
         12    1    3    3    0    0  0.15649288155E+02 -0.19657896270E+02  0.37386901591E+02  0.45045682547E+02  0.00000000000E+00 0. -1.
         11    1    4    4    0    0  0.84810551635E-01 -0.14672985931E+00  0.33676953804E+00  0.37700989928E+00  0.51100000000E-03 0. -1.
        -11    1    4    4    0    0 -0.61259561026E+01  0.36996298189E+01 -0.10208423462E+02  0.12467016837E+02  0.51100000000E-03 0.  1.
         12    1    4    4    0    0 -0.96081426042E+01  0.16104996311E+02 -0.27515247667E+02  0.33298290717E+02  0.00000000000E+00 0. -1.
</event>
<event>
 8    1  0.2962813E-009  0.9118800E+02  0.7816164E-02  0.1184000E+00
        -11   -1    0    0    0    0  0.00000000000E+00  0.00000000000E+00  0.45593999997E+02  0.45594000000E+02  0.51100000000E-03 0. -1.
         11   -1    0    0    0    0 -0.00000000000E+00 -0.00000000000E+00 -0.45593999997E+02  0.45594000000E+02  0.51100000000E-03 0.  1.
         23    2    1    2    0    0 -0.17763568394E-14  0.22204460493E-15  0.71054273576E-14  0.91188000000E+02  0.91188000000E+02 0.  0.
    9900012    2    3    3    0    0  0.12923050968E+02 -0.11315316950E+01 -0.43137313768E+02  0.46142318194E+02  0.10000003946E+02 0.  0.
         12    1    3    3    0    0 -0.12923050968E+02  0.11315316950E+01  0.43137313768E+02  0.45045681806E+02  0.00000000000E+00 0. -1.
         11    1    4    4    0    0  0.17984699375E+01 -0.15614954440E+01 -0.17956220642E+02  0.18113492820E+02  0.51100000000E-03 0. -1.
        -11    1    4    4    0    0  0.70669015268E+01  0.26795030221E+01 -0.17383055796E+02  0.18954985168E+02  0.51100000000E-03 0.  1.
         12    1    4    4    0    0  0.40576795034E+01 -0.22495392731E+01 -0.77980373299E+01  0.90738402064E+01  0.00000000000E+00 0. -1.
</event>
<event>
 8    1  0.2962813E-009  0.9118800E+02  0.7816164E-02  0.1184000E+00
        -11   -1    0    0    0    0  0.00000000000E+00  0.00000000000E+00  0.45593999997E+02  0.45594000000E+02  0.51100000000E-03 0. -1.
         11   -1    0    0    0    0 -0.00000000000E+00 -0.00000000000E+00 -0.45593999997E+02  0.45594000000E+02  0.51100000000E-03 0.  1.
         23    2    1    2    0    0 -0.35527136788E-14  0.00000000000E+00  0.00000000000E+00  0.91188000000E+02  0.91188000000E+02 0.  0.
    9900012    2    3    3    0    0  0.31294753315E+02  0.25426629406E+02  0.20080802143E+02  0.46142315604E+02  0.99999803295E+01 0.  0.
        -12    1    3    3    0    0 -0.31294753315E+02 -0.25426629406E+02 -0.20080802143E+02  0.45045684396E+02  0.00000000000E+00 0.  1.
         11    1    4    4    0    0  0.24102206699E+02  0.18721897601E+02  0.18731443395E+02  0.35809116011E+02  0.51100000000E-03 0. -1.
        -11    1    4    4    0    0  0.68670423030E+01  0.69993432032E+01  0.13053627297E+01  0.98919688325E+01  0.51100000000E-03 0.  1.
         12    1    4    4    0    0  0.32550431312E+00 -0.29461139875E+00  0.43996017561E-01  0.44123076014E+00  0.00000000000E+00 0. -1.
</event>
<event>
 8    1  0.2962813E-009  0.9118800E+02  0.7816164E-02  0.1184000E+00
        -11   -1    0    0    0    0  0.00000000000E+00  0.00000000000E+00  0.45593999997E+02  0.45594000000E+02  0.51100000000E-03 0. -1.
         11   -1    0    0    0    0 -0.00000000000E+00 -0.00000000000E+00 -0.45593999997E+02  0.45594000000E+02  0.51100000000E-03 0.  1.
         23    2    1    2    0    0 -0.71054273576E-14  0.00000000000E+00  0.17763568394E-14  0.91188000000E+02  0.91188000000E+02 0.  0.
    9900012    2    3    3    0    0 -0.33826421816E+02 -0.28539034632E+02 -0.83910777423E+01  0.46142317673E+02  0.99999991990E+01 0.  0.
         12    1    3    3    0    0  0.33826421816E+02  0.28539034632E+02  0.83910777423E+01  0.45045682327E+02  0.00000000000E+00 0. -1.
         11    1    4    4    0    0  0.18323089089E+00 -0.45316323523E-01  0.28064145967E+00  0.33821149975E+00  0.51100000000E-03 0. -1.
        -11    1    4    4    0    0 -0.12191905188E+02 -0.87324765211E+01 -0.63188695454E+01  0.16273500266E+02  0.51100000000E-03 0.  1.
        -12    1    4    4    0    0 -0.21817747519E+02 -0.19761241787E+02 -0.23528496567E+01  0.29530605908E+02  0.00000000000E+00 0.  1.
</event>
<event>
 8    1  0.2962813E-009  0.9118800E+02  0.7816164E-02  0.1184000E+00
        -11   -1    0    0    0    0  0.00000000000E+00  0.00000000000E+00  0.45593999997E+02  0.45594000000E+02  0.51100000000E-03 0. -1.
         11   -1    0    0    0    0 -0.00000000000E+00 -0.00000000000E+00 -0.45593999997E+02  0.45594000000E+02  0.51100000000E-03 0.  1.
         23    2    1    2    0    0  0.00000000000E+00  0.35527136788E-14  0.00000000000E+00  0.91188000000E+02  0.91188000000E+02 0.  0.
    9900012    2    3    3    0    0  0.84444428435E+01 -0.23308953992E+02 -0.37609806424E+02  0.46142317739E+02  0.99999997948E+01 0.  0.
         12    1    3    3    0    0 -0.84444428435E+01  0.23308953992E+02  0.37609806424E+02  0.45045682261E+02  0.00000000000E+00 0. -1.
         11    1    4    4    0    0  0.50857507148E+01 -0.48167015881E+01 -0.11045160747E+02  0.13079030954E+02  0.51100000000E-03 0. -1.
        -11    1    4    4    0    0  0.11164631602E+01 -0.11986059740E+02 -0.21031716760E+02  0.24233143177E+02  0.51100000000E-03 0.  1.
         12    1    4    4    0    0  0.22422289685E+01 -0.65061926641E+01 -0.55329289169E+01  0.88301436075E+01  0.00000000000E+00 0. -1.
</event>
<event>
 8    1  0.2962813E-009  0.9118800E+02  0.7816164E-02  0.1184000E+00
        -11   -1    0    0    0    0  0.00000000000E+00  0.00000000000E+00  0.45593999997E+02  0.45594000000E+02  0.51100000000E-03 0. -1.
         11   -1    0    0    0    0 -0.00000000000E+00 -0.00000000000E+00 -0.45593999997E+02  0.45594000000E+02  0.51100000000E-03 0.  1.
         23    2    1    2    0    0 -0.35527136788E-14  0.00000000000E+00  0.00000000000E+00  0.91188000000E+02  0.91188000000E+02 0.  0.
    9900012    2    3    3    0    0 -0.23937692043E+02  0.17153526248E+02 -0.34086016130E+02  0.46142322530E+02  0.10000043491E+02 0.  0.
         12    1    3    3    0    0  0.23937692043E+02 -0.17153526248E+02  0.34086016130E+02  0.45045677470E+02  0.00000000000E+00 0. -1.
         11    1    4    4    0    0 -0.94141703614E+01  0.57298389685E+01 -0.71000616273E+01  0.13109863980E+02  0.51100000000E-03 0. -1.
        -11    1    4    4    0    0 -0.78947004188E+00 -0.40477790296E+00 -0.17460785376E+01  0.19585450258E+01  0.51100000000E-03 0.  1.
         12    1    4    4    0    0 -0.13734051639E+02  0.11828465182E+02 -0.25239875965E+02  0.31073913525E+02  0.00000000000E+00 0. -1.
</event>
<event>
 8    1  0.2962813E-009  0.9118800E+02  0.7816164E-02  0.1184000E+00
        -11   -1    0    0    0    0  0.00000000000E+00  0.00000000000E+00  0.45593999997E+02  0.45594000000E+02  0.51100000000E-03 0. -1.
         11   -1    0    0    0    0 -0.00000000000E+00 -0.00000000000E+00 -0.45593999997E+02  0.45594000000E+02  0.51100000000E-03 0.  1.
         23    2    1    2    0    0  0.88817841970E-15 -0.88817841970E-15  0.71054273576E-14  0.91188000000E+02  0.91188000000E+02 0.  0.
    9900012    2    3    3    0    0  0.53452464890E+01 -0.45924327688E+01  0.44491026232E+02  0.46142317477E+02  0.99999974129E+01 0.  0.
        -12    1    3    3    0    0 -0.53452464890E+01  0.45924327688E+01 -0.44491026232E+02  0.45045682523E+02  0.00000000000E+00 0.  1.
         11    1    4    4    0    0  0.45963988244E+01  0.11455805203E+00  0.85873728889E+01  0.97407894492E+01  0.51100000000E-03 0.  1.
        -11    1    4    4    0    0  0.11934403671E+01 -0.48447153968E+01  0.25280468924E+02  0.25768152368E+02  0.51100000000E-03 0. -1.
         12    1    4    4    0    0 -0.44459270248E+00  0.13772457598E+00  0.10623184419E+02  0.10633375660E+02  0.00000000000E+00 0. -1.
</event>
<event>
 8    1  0.2962813E-009  0.9118800E+02  0.7816164E-02  0.1184000E+00
        -11   -1    0    0    0    0  0.00000000000E+00  0.00000000000E+00  0.45593999997E+02  0.45594000000E+02  0.51100000000E-03 0. -1.
         11   -1    0    0    0    0 -0.00000000000E+00 -0.00000000000E+00 -0.45593999997E+02  0.45594000000E+02  0.51100000000E-03 0.  1.
         23    2    1    2    0    0 -0.35527136788E-14 -0.17763568394E-14  0.00000000000E+00  0.91188000000E+02  0.91188000000E+02 0.  0.
    9900012    2    3    3    0    0 -0.17348905672E+02 -0.11299671865E+02 -0.40005579399E+02  0.46142317684E+02  0.99999992959E+01 0.  0.
         12    1    3    3    0    0  0.17348905672E+02  0.11299671865E+02  0.40005579399E+02  0.45045682316E+02  0.00000000000E+00 0. -1.
         11    1    4    4    0    0 -0.74576562730E+01 -0.96014652806E+01 -0.19844981222E+02  0.23272903828E+02  0.51100000000E-03 0. -1.
        -11    1    4    4    0    0 -0.43500115094E+01 -0.17480913756E-02 -0.49364426069E+01  0.65795949009E+01  0.51100000000E-03 0.  1.
         12    1    4    4    0    0 -0.55412378896E+01 -0.16964584933E+01 -0.15224155570E+02  0.16289818955E+02  0.00000000000E+00 0. -1.
</event>
<event>
 8    1  0.2962813E-009  0.9118800E+02  0.7816164E-02  0.1184000E+00
        -11   -1    0    0    0    0  0.00000000000E+00  0.00000000000E+00  0.45593999997E+02  0.45594000000E+02  0.51100000000E-03 0. -1.
         11   -1    0    0    0    0 -0.00000000000E+00 -0.00000000000E+00 -0.45593999997E+02  0.45594000000E+02  0.51100000000E-03 0.  1.
         23    2    1    2    0    0  0.00000000000E+00  0.17763568394E-14  0.00000000000E+00  0.91188000000E+02  0.91188000000E+02 0.  0.
    9900012    2    3    3    0    0  0.45937645231E+01 -0.92782964030E+01 -0.43839754468E+02  0.46142317316E+02  0.99999959439E+01 0.  0.
         12    1    3    3    0    0 -0.45937645231E+01  0.92782964030E+01  0.43839754468E+02  0.45045682684E+02  0.00000000000E+00 0. -1.
         11    1    4    4    0    0  0.43004942250E+01 -0.32742553221E+01 -0.12549659329E+02  0.13664148273E+02  0.51100000000E-03 0. -1.
        -11    1    4    4    0    0 -0.12263337026E+01 -0.15442129685E+01 -0.21738071275E+02  0.21827327621E+02  0.51100000000E-03 0.  1.
        -12    1    4    4    0    0  0.15196040007E+01 -0.44598281124E+01 -0.95520238636E+01  0.10650841422E+02  0.00000000000E+00 0.  1.
</event>
<event>
 8    1  0.2962813E-009  0.9118800E+02  0.7816164E-02  0.1184000E+00
        -11   -1    0    0    0    0  0.00000000000E+00  0.00000000000E+00  0.45593999997E+02  0.45594000000E+02  0.51100000000E-03 0. -1.
         11   -1    0    0    0    0 -0.00000000000E+00 -0.00000000000E+00 -0.45593999997E+02  0.45594000000E+02  0.51100000000E-03 0.  1.
         23    2    1    2    0    0  0.00000000000E+00  0.00000000000E+00  0.35527136788E-14  0.91188000000E+02  0.91188000000E+02 0.  0.
    9900012    2    3    3    0    0  0.32217035329E+02  0.18487866541E+02 -0.25482833316E+02  0.46142319092E+02  0.10000012140E+02 0.  0.
         12    1    3    3    0    0 -0.32217035329E+02 -0.18487866541E+02  0.25482833316E+02  0.45045680908E+02  0.00000000000E+00 0. -1.
         11    1    4    4    0    0  0.25472876874E+02  0.17088142722E+02 -0.18379891249E+02  0.35758809831E+02  0.51100000000E-03 0. -1.
        -11    1    4    4    0    0  0.57257673166E+01 -0.10679651219E+00 -0.49896976292E+01  0.75955842139E+01  0.51100000000E-03 0.  1.
         12    1    4    4    0    0  0.10183911386E+01  0.15065203316E+01 -0.21132444373E+01  0.27879250479E+01  0.00000000000E+00 0. -1.
</event>
<event>
 8    1  0.5213567E-009  0.9118800E+02  0.7816164E-02  0.1184000E+00
        -11   -1    0    0    0    0  0.00000000000E+00  0.00000000000E+00  0.45593999997E+02  0.45594000000E+02  0.51100000000E-03 0. -1.
         11   -1    0    0    0    0 -0.00000000000E+00 -0.00000000000E+00 -0.45593999997E+02  0.45594000000E+02  0.51100000000E-03 0.  1.
         23    2    1    2    0    0  0.00000000000E+00  0.00000000000E+00  0.00000000000E+00  0.91188000000E+02  0.91188000000E+02 0.  0.
    9900012    2    3    3    0    0  0.32292968519E+02  0.19746855645E+02 -0.24420062480E+02  0.46142316798E+02  0.99999912141E+01 0.  0.
         12    1    3    3    0    0 -0.32292968519E+02 -0.19746855645E+02  0.24420062480E+02  0.45045683202E+02  0.00000000000E+00 0. -1.
         11    1    4    4    0    0  0.19097493358E+00 -0.48139612320E+00 -0.76714061250E+00  0.92559096428E+00  0.51100000000E-03 0. -1.
        -11    1    4    4    0    0  0.13980035824E+02  0.91344404583E+01 -0.65412161216E+01  0.17935074930E+02  0.51100000000E-03 0.  1.
        -12    1    4    4    0    0  0.18121957762E+02  0.11093811310E+02 -0.17111705746E+02  0.27281650904E+02  0.00000000000E+00 0.  1.
</event>
<event>
 8    1  0.2962813E-009  0.9118800E+02  0.7816164E-02  0.1184000E+00
        -11   -1    0    0    0    0  0.00000000000E+00  0.00000000000E+00  0.45593999997E+02  0.45594000000E+02  0.51100000000E-03 0. -1.
         11   -1    0    0    0    0 -0.00000000000E+00 -0.00000000000E+00 -0.45593999997E+02  0.45594000000E+02  0.51100000000E-03 0.  1.
         23    2    1    2    0    0  0.88817841970E-15 -0.71054273576E-14  0.00000000000E+00  0.91188000000E+02  0.91188000000E+02 0.  0.
    9900012    2    3    3    0    0  0.59675876439E+01 -0.34287926411E+02  0.28597892564E+02  0.46142318088E+02  0.10000002976E+02 0.  0.
        -12    1    3    3    0    0 -0.59675876439E+01  0.34287926411E+02 -0.28597892564E+02  0.45045681912E+02  0.00000000000E+00 0.  1.
         11    1    4    4    0    0  0.14167713076E+01 -0.28596896888E+02  0.24626399360E+02  0.37765715911E+02  0.51100000000E-03 0. -1.
        -11    1    4    4    0    0  0.28407438068E+01 -0.28562984152E+01  0.25908362589E+01  0.47896449549E+01  0.51100000000E-03 0.  1.
         12    1    4    4    0    0  0.17100725295E+01 -0.28347311076E+01  0.13806569448E+01  0.35869572214E+01  0.00000000000E+00 0. -1.
</event>
<event>
 8    1  0.2962813E-009  0.9118800E+02  0.7816164E-02  0.1184000E+00
        -11   -1    0    0    0    0  0.00000000000E+00  0.00000000000E+00  0.45593999997E+02  0.45594000000E+02  0.51100000000E-03 0. -1.
         11   -1    0    0    0    0 -0.00000000000E+00 -0.00000000000E+00 -0.45593999997E+02  0.45594000000E+02  0.51100000000E-03 0.  1.
         23    2    1    2    0    0 -0.17763568394E-14  0.00000000000E+00  0.14210854715E-13  0.91188000000E+02  0.91188000000E+02 0.  0.
    9900012    2    3    3    0    0 -0.99261801317E+01  0.13890726859E+02  0.41684915758E+02  0.46142317116E+02  0.99999941208E+01 0.  0.
        -12    1    3    3    0    0  0.99261801317E+01 -0.13890726859E+02 -0.41684915758E+02  0.45045682884E+02  0.00000000000E+00 0.  1.
         11    1    4    4    0    0 -0.50782015753E+01  0.91659454640E+01  0.28667435662E+02  0.30522525374E+02  0.51100000000E-03 0. -1.
        -11    1    4    4    0    0 -0.26832099376E+01  0.46481217698E+01  0.12157040455E+02  0.13289028724E+02  0.51100000000E-03 0.  1.
        -12    1    4    4    0    0 -0.21647686189E+01  0.76659625104E-01  0.86043964157E+00  0.23307630184E+01  0.00000000000E+00 0.  1.
</event>
<event>
 8    1  0.2962813E-009  0.9118800E+02  0.7816164E-02  0.1184000E+00
        -11   -1    0    0    0    0  0.00000000000E+00  0.00000000000E+00  0.45593999997E+02  0.45594000000E+02  0.51100000000E-03 0. -1.
         11   -1    0    0    0    0 -0.00000000000E+00 -0.00000000000E+00 -0.45593999997E+02  0.45594000000E+02  0.51100000000E-03 0.  1.
         23    2    1    2    0    0  0.35527136788E-14 -0.88817841970E-15  0.35527136788E-14  0.91188000000E+02  0.91188000000E+02 0.  0.
    9900012    2    3    3    0    0  0.31883704309E+02 -0.74201517360E+01  0.30943241923E+02  0.46142317932E+02  0.10000001559E+02 0.  0.
        -12    1    3    3    0    0 -0.31883704309E+02  0.74201517360E+01 -0.30943241923E+02  0.45045682068E+02  0.00000000000E+00 0.  1.
         11    1    4    4    0    0  0.17503125838E+02  0.50650792976E+00  0.17829154352E+02  0.24989892147E+02  0.51100000000E-03 0. -1.
        -11    1    4    4    0    0  0.58343368209E+01 -0.44751408909E+01  0.64174567365E+01  0.97596169679E+01  0.51100000000E-03 0.  1.
         12    1    4    4    0    0  0.85462416506E+01 -0.34515187748E+01  0.66966308350E+01  0.11392808817E+02  0.00000000000E+00 0. -1.
</event>
<event>
 8    1  0.2962813E-009  0.9118800E+02  0.7816164E-02  0.1184000E+00
        -11   -1    0    0    0    0  0.00000000000E+00  0.00000000000E+00  0.45593999997E+02  0.45594000000E+02  0.51100000000E-03 0. -1.
         11   -1    0    0    0    0 -0.00000000000E+00 -0.00000000000E+00 -0.45593999997E+02  0.45594000000E+02  0.51100000000E-03 0.  1.
         23    2    1    2    0    0  0.00000000000E+00  0.00000000000E+00  0.00000000000E+00  0.91188000000E+02  0.91188000000E+02 0.  0.
    9900012    2    3    3    0    0  0.15522191989E+02  0.10668202947E+02  0.40918997727E+02  0.46142319039E+02  0.10000011657E+02 0.  0.
        -12    1    3    3    0    0 -0.15522191989E+02 -0.10668202947E+02 -0.40918997727E+02  0.45045680961E+02  0.00000000000E+00 0.  1.
         11    1    4    4    0    0  0.52278665381E+01 -0.52621987688E+00  0.12102010655E+02  0.13193413435E+02  0.51100000000E-03 0. -1.
        -11    1    4    4    0    0  0.57321497094E+00  0.25974306428E+01  0.78744952565E+01  0.83116121873E+01  0.51100000000E-03 0.  1.
         12    1    4    4    0    0  0.97211104796E+01  0.85969921809E+01  0.20942491815E+02  0.24637293417E+02  0.00000000000E+00 0. -1.
</event>
<event>
 8    1  0.2962813E-009  0.9118800E+02  0.7816164E-02  0.1184000E+00
        -11   -1    0    0    0    0  0.00000000000E+00  0.00000000000E+00  0.45593999997E+02  0.45594000000E+02  0.51100000000E-03 0.  1.
         11   -1    0    0    0    0 -0.00000000000E+00 -0.00000000000E+00 -0.45593999997E+02  0.45594000000E+02  0.51100000000E-03 0. -1.
         23    2    1    2    0    0  0.00000000000E+00  0.00000000000E+00 -0.35527136788E-14  0.91188000000E+02  0.91188000000E+02 0.  0.
    9900012    2    3    3    0    0  0.29986751023E+02  0.25972527138E+02  0.21338604936E+02  0.46142318038E+02  0.10000002521E+02 0.  0.
        -12    1    3    3    0    0 -0.29986751023E+02 -0.25972527138E+02 -0.21338604936E+02  0.45045681962E+02  0.00000000000E+00 0.  1.
         11    1    4    4    0    0  0.54846361023E+01  0.86164993474E+00  0.35137257720E+01  0.65703837671E+01  0.51100000000E-03 0. -1.
        -11    1    4    4    0    0  0.18388634718E+02  0.17401072185E+02  0.11035700452E+02  0.27617492368E+02  0.51100000000E-03 0.  1.
        -12    1    4    4    0    0  0.61134802022E+01  0.77098050177E+01  0.67891787129E+01  0.11954441902E+02  0.00000000000E+00 0.  1.
</event>
<event>
 8    1  0.3650016E-009  0.9118800E+02  0.7816164E-02  0.1184000E+00
        -11   -1    0    0    0    0  0.00000000000E+00  0.00000000000E+00  0.45593999997E+02  0.45594000000E+02  0.51100000000E-03 0. -1.
         11   -1    0    0    0    0 -0.00000000000E+00 -0.00000000000E+00 -0.45593999997E+02  0.45594000000E+02  0.51100000000E-03 0.  1.
         23    2    1    2    0    0  0.00000000000E+00  0.35527136788E-14  0.00000000000E+00  0.91188000000E+02  0.91188000000E+02 0.  0.
    9900012    2    3    3    0    0 -0.44472277249E+01  0.30955001723E+02 -0.32421037884E+02  0.46142315817E+02  0.99999822679E+01 0.  0.
         12    1    3    3    0    0  0.44472277249E+01 -0.30955001723E+02  0.32421037884E+02  0.45045684183E+02  0.00000000000E+00 0. -1.
         11    1    4    4    0    0  0.13773390062E+01  0.11216173747E+01 -0.16530858436E+01  0.24264750855E+01  0.51100000000E-03 0. -1.
        -11    1    4    4    0    0 -0.67156168851E+01  0.20592834526E+02 -0.19797457603E+02  0.29344568012E+02  0.51100000000E-03 0.  1.
        -12    1    4    4    0    0  0.89105015409E+00  0.92405498223E+01 -0.10970494437E+02  0.14371272720E+02  0.00000000000E+00 0.  1.
</event>
<event>
 8    1  0.2962813E-009  0.9118800E+02  0.7816164E-02  0.1184000E+00
        -11   -1    0    0    0    0  0.00000000000E+00  0.00000000000E+00  0.45593999997E+02  0.45594000000E+02  0.51100000000E-03 0.  1.
         11   -1    0    0    0    0 -0.00000000000E+00 -0.00000000000E+00 -0.45593999997E+02  0.45594000000E+02  0.51100000000E-03 0. -1.
         23    2    1    2    0    0  0.71054273576E-14  0.17763568394E-14  0.17763568394E-14  0.91188000000E+02  0.91188000000E+02 0.  0.
    9900012    2    3    3    0    0 -0.42451996858E+02 -0.12008750077E+02 -0.90956927409E+01  0.46142314945E+02  0.99999743217E+01 0.  0.
         12    1    3    3    0    0  0.42451996858E+02  0.12008750077E+02  0.90956927409E+01  0.45045685055E+02  0.00000000000E+00 0. -1.
         11    1    4    4    0    0 -0.21083407318E+01  0.11547038369E+01  0.65161721170E+00  0.24905916655E+01  0.51100000000E-03 0. -1.
        -11    1    4    4    0    0 -0.30610416208E+02 -0.91412563293E+01 -0.62275189891E+01  0.32547536630E+02  0.51100000000E-03 0.  1.
        -12    1    4    4    0    0 -0.97332399183E+01 -0.40221975845E+01 -0.35197909634E+01  0.11104186649E+02  0.00000000000E+00 0.  1.
</event>
<event>
 8    1  0.2962813E-009  0.9118800E+02  0.7816164E-02  0.1184000E+00
        -11   -1    0    0    0    0  0.00000000000E+00  0.00000000000E+00  0.45593999997E+02  0.45594000000E+02  0.51100000000E-03 0. -1.
         11   -1    0    0    0    0 -0.00000000000E+00 -0.00000000000E+00 -0.45593999997E+02  0.45594000000E+02  0.51100000000E-03 0.  1.
         23    2    1    2    0    0  0.00000000000E+00  0.00000000000E+00  0.00000000000E+00  0.91188000000E+02  0.91188000000E+02 0.  0.
    9900012    2    3    3    0    0  0.29803305030E+02  0.77474586361E+01  0.32876333181E+02  0.46142318859E+02  0.10000010010E+02 0.  0.
        -12    1    3    3    0    0 -0.29803305030E+02 -0.77474586361E+01 -0.32876333181E+02  0.45045681141E+02  0.00000000000E+00 0.  1.
         11    1    4    4    0    0  0.58270763782E+01  0.98444263373E+00  0.11137759245E+02  0.12608474439E+02  0.51100000000E-03 0. -1.
        -11    1    4    4    0    0  0.22512530161E+02  0.49992006302E+01  0.20805296172E+02  0.31059078709E+02  0.51100000000E-03 0.  1.
        -12    1    4    4    0    0  0.14636984907E+01  0.17638153722E+01  0.93327776469E+00  0.24747657111E+01  0.00000000000E+00 0.  1.
</event>
<event>
 8    1  0.2962813E-009  0.9118800E+02  0.7816164E-02  0.1184000E+00
        -11   -1    0    0    0    0  0.00000000000E+00  0.00000000000E+00  0.45593999997E+02  0.45594000000E+02  0.51100000000E-03 0. -1.
         11   -1    0    0    0    0 -0.00000000000E+00 -0.00000000000E+00 -0.45593999997E+02  0.45594000000E+02  0.51100000000E-03 0.  1.
         23    2    1    2    0    0  0.00000000000E+00  0.17763568394E-14  0.00000000000E+00  0.91188000000E+02  0.91188000000E+02 0.  0.
    9900012    2    3    3    0    0  0.11049335882E+02  0.11985315226E+02  0.41992592748E+02  0.46142318185E+02  0.10000003863E+02 0.  0.
        -12    1    3    3    0    0 -0.11049335882E+02 -0.11985315226E+02 -0.41992592748E+02  0.45045681815E+02  0.00000000000E+00 0.  1.
         11    1    4    4    0    0  0.12746049893E+01  0.52010219510E+01  0.10107463941E+02  0.11438359795E+02  0.51100000000E-03 0. -1.
        -11    1    4    4    0    0  0.63739061128E+00 -0.10590360249E+01  0.11274595625E+01  0.16730180572E+01  0.51100000000E-03 0.  1.
        -12    1    4    4    0    0  0.91373402816E+01  0.78433292996E+01  0.30757669244E+02  0.33030940333E+02  0.00000000000E+00 0.  1.
</event>
<event>
 8    1  0.2962813E-009  0.9118800E+02  0.7816164E-02  0.1184000E+00
        -11   -1    0    0    0    0  0.00000000000E+00  0.00000000000E+00  0.45593999997E+02  0.45594000000E+02  0.51100000000E-03 0. -1.
         11   -1    0    0    0    0 -0.00000000000E+00 -0.00000000000E+00 -0.45593999997E+02  0.45594000000E+02  0.51100000000E-03 0.  1.
         23    2    1    2    0    0  0.00000000000E+00 -0.33306690739E-15  0.00000000000E+00  0.91188000000E+02  0.91188000000E+02 0.  0.
    9900012    2    3    3    0    0  0.16741260993E+02 -0.41926686572E+00 -0.41817077472E+02  0.46142316826E+02  0.99999914746E+01 0.  0.
         12    1    3    3    0    0 -0.16741260993E+02  0.41926686572E+00  0.41817077472E+02  0.45045683174E+02  0.00000000000E+00 0. -1.
         11    1    4    4    0    0  0.11747221182E+02 -0.17656708809E+01 -0.20555357845E+02  0.23741051695E+02  0.51100000000E-03 0. -1.
        -11    1    4    4    0    0  0.41638907478E+01  0.25966974473E+01 -0.11195048925E+02  0.12223336062E+02  0.51100000000E-03 0.  1.
         12    1    4    4    0    0  0.83014906264E+00 -0.12502934321E+01 -0.10066670701E+02  0.10177929069E+02  0.00000000000E+00 0. -1.
</event>
<event>
 8    1  0.2962813E-009  0.9118800E+02  0.7816164E-02  0.1184000E+00
        -11   -1    0    0    0    0  0.00000000000E+00  0.00000000000E+00  0.45593999997E+02  0.45594000000E+02  0.51100000000E-03 0. -1.
         11   -1    0    0    0    0 -0.00000000000E+00 -0.00000000000E+00 -0.45593999997E+02  0.45594000000E+02  0.51100000000E-03 0.  1.
         23    2    1    2    0    0  0.00000000000E+00  0.35527136788E-14  0.00000000000E+00  0.91188000000E+02  0.91188000000E+02 0.  0.
    9900012    2    3    3    0    0  0.84263562441E+01  0.22319525885E+02  0.38209275099E+02  0.46142318532E+02  0.10000007031E+02 0.  0.
        -12    1    3    3    0    0 -0.84263562441E+01 -0.22319525885E+02 -0.38209275099E+02  0.45045681468E+02  0.00000000000E+00 0.  1.
         11    1    4    4    0    0  0.64310240426E+01  0.21173286069E+02  0.33136593304E+02  0.39845952483E+02  0.51100000000E-03 0. -1.
        -11    1    4    4    0    0  0.94644498505E+00  0.98203735509E+00  0.28623005025E+00  0.13935865166E+01  0.51100000000E-03 0.  1.
         12    1    4    4    0    0  0.10488872164E+01  0.16420246103E+00  0.47864517444E+01  0.49027795323E+01  0.00000000000E+00 0. -1.
</event>
<event>
 8    1  0.2962813E-009  0.9118800E+02  0.7816164E-02  0.1184000E+00
        -11   -1    0    0    0    0  0.00000000000E+00  0.00000000000E+00  0.45593999997E+02  0.45594000000E+02  0.51100000000E-03 0.  1.
         11   -1    0    0    0    0 -0.00000000000E+00 -0.00000000000E+00 -0.45593999997E+02  0.45594000000E+02  0.51100000000E-03 0. -1.
         23    2    1    2    0    0  0.71054273576E-14  0.00000000000E+00  0.00000000000E+00  0.91188000000E+02  0.91188000000E+02 0.  0.
    9900012    2    3    3    0    0 -0.37258246737E+02 -0.15250464519E+02 -0.20207912828E+02  0.46142319199E+02  0.10000013113E+02 0.  0.
         12    1    3    3    0    0  0.37258246737E+02  0.15250464519E+02  0.20207912828E+02  0.45045680801E+02  0.00000000000E+00 0. -1.
         11    1    4    4    0    0 -0.32169353281E+01  0.26623427703E+00 -0.10183308084E+01  0.33847527963E+01  0.51100000000E-03 0. -1.
        -11    1    4    4    0    0 -0.13039421166E+02 -0.79855229934E+01 -0.41264267623E+01  0.15837376042E+02  0.51100000000E-03 0.  1.
        -12    1    4    4    0    0 -0.21001890243E+02 -0.75311758026E+01 -0.15063155257E+02  0.26920190361E+02  0.00000000000E+00 0.  1.
</event>
<event>
 8    1  0.2962813E-009  0.9118800E+02  0.7816164E-02  0.1184000E+00
        -11   -1    0    0    0    0  0.00000000000E+00  0.00000000000E+00  0.45593999997E+02  0.45594000000E+02  0.51100000000E-03 0. -1.
         11   -1    0    0    0    0 -0.00000000000E+00 -0.00000000000E+00 -0.45593999997E+02  0.45594000000E+02  0.51100000000E-03 0.  1.
         23    2    1    2    0    0 -0.71054273576E-14  0.00000000000E+00  0.00000000000E+00  0.91188000000E+02  0.91188000000E+02 0.  0.
    9900012    2    3    3    0    0  0.35820816395E+02 -0.74738639748E+01 -0.26270212947E+02  0.46142316320E+02  0.99999868586E+01 0.  0.
         12    1    3    3    0    0 -0.35820816395E+02  0.74738639748E+01  0.26270212947E+02  0.45045683680E+02  0.00000000000E+00 0. -1.
         11    1    4    4    0    0  0.57219119967E+01 -0.29758014359E+01 -0.59981715825E+01  0.88075952268E+01  0.51100000000E-03 0. -1.
        -11    1    4    4    0    0  0.27352366058E+02 -0.16899392717E+01 -0.17289071846E+02  0.32402466407E+02  0.51100000000E-03 0.  1.
        -12    1    4    4    0    0  0.27465383400E+01 -0.28081232672E+01 -0.29829695187E+01  0.49322546859E+01  0.00000000000E+00 0.  1.
</event>
<event>
 8    1  0.2962813E-009  0.9118800E+02  0.7816164E-02  0.1184000E+00
        -11   -1    0    0    0    0  0.00000000000E+00  0.00000000000E+00  0.45593999997E+02  0.45594000000E+02  0.51100000000E-03 0.  1.
         11   -1    0    0    0    0 -0.00000000000E+00 -0.00000000000E+00 -0.45593999997E+02  0.45594000000E+02  0.51100000000E-03 0. -1.
         23    2    1    2    0    0  0.00000000000E+00  0.00000000000E+00  0.35527136788E-14  0.91188000000E+02  0.91188000000E+02 0.  0.
    9900012    2    3    3    0    0  0.36200584980E+02 -0.10547495359E+02 -0.24645107329E+02  0.46142319558E+02  0.10000016381E+02 0.  0.
         12    1    3    3    0    0 -0.36200584980E+02  0.10547495359E+02  0.24645107329E+02  0.45045680442E+02  0.00000000000E+00 0. -1.
         11    1    4    4    0    0  0.12877074942E+02 -0.37985378309E+01 -0.50938895452E+01  0.14359514605E+02  0.51100000000E-03 0. -1.
        -11    1    4    4    0    0  0.21601451161E+02 -0.58643701387E+01 -0.19731232866E+02  0.29838483206E+02  0.51100000000E-03 0.  1.
         12    1    4    4    0    0  0.17220588771E+01 -0.88458738934E+00  0.18001508175E+00  0.19443217469E+01  0.00000000000E+00 0. -1.
</event>
<event>
 8    1  0.2962813E-009  0.9118800E+02  0.7816164E-02  0.1184000E+00
        -11   -1    0    0    0    0  0.00000000000E+00  0.00000000000E+00  0.45593999997E+02  0.45594000000E+02  0.51100000000E-03 0. -1.
         11   -1    0    0    0    0 -0.00000000000E+00 -0.00000000000E+00 -0.45593999997E+02  0.45594000000E+02  0.51100000000E-03 0.  1.
         23    2    1    2    0    0  0.00000000000E+00  0.00000000000E+00  0.00000000000E+00  0.91188000000E+02  0.91188000000E+02 0.  0.
    9900012    2    3    3    0    0 -0.28205304652E+02  0.30609777352E+01 -0.34988636746E+02  0.46142317670E+02  0.99999991699E+01 0.  0.
         12    1    3    3    0    0  0.28205304652E+02 -0.30609777352E+01  0.34988636746E+02  0.45045682330E+02  0.00000000000E+00 0. -1.
         11    1    4    4    0    0 -0.56371597725E+01  0.26307545466E+01 -0.12718603595E+02  0.14158436265E+02  0.51100000000E-03 0. -1.
        -11    1    4    4    0    0 -0.15095417493E+02  0.14708591209E+01 -0.16990748465E+02  0.22775438294E+02  0.51100000000E-03 0.  1.
         12    1    4    4    0    0 -0.74727273860E+01 -0.10406359323E+01 -0.52792846865E+01  0.92084431111E+01  0.00000000000E+00 0. -1.
</event>
<event>
 8    1  0.2962813E-009  0.9118800E+02  0.7816164E-02  0.1184000E+00
        -11   -1    0    0    0    0  0.00000000000E+00  0.00000000000E+00  0.45593999997E+02  0.45594000000E+02  0.51100000000E-03 0. -1.
         11   -1    0    0    0    0 -0.00000000000E+00 -0.00000000000E+00 -0.45593999997E+02  0.45594000000E+02  0.51100000000E-03 0.  1.
         23    2    1    2    0    0  0.00000000000E+00  0.00000000000E+00  0.00000000000E+00  0.91188000000E+02  0.91188000000E+02 0.  0.
    9900012    2    3    3    0    0  0.30664212077E+02  0.43835318795E+01 -0.32704803593E+02  0.46142318386E+02  0.10000005696E+02 0.  0.
         12    1    3    3    0    0 -0.30664212077E+02 -0.43835318795E+01  0.32704803593E+02  0.45045681614E+02  0.00000000000E+00 0. -1.
         11    1    4    4    0    0  0.48137220887E+01 -0.17557857151E+01 -0.60036397944E+01  0.78929332233E+01  0.51100000000E-03 0. -1.
        -11    1    4    4    0    0  0.16348537383E+02  0.14629373059E+01 -0.13035090846E+02  0.20960163495E+02  0.51100000000E-03 0.  1.
        -12    1    4    4    0    0  0.95019526054E+01  0.46763802887E+01 -0.13666072953E+02  0.17289221668E+02  0.00000000000E+00 0.  1.
</event>
<event>
 8    1  0.2962813E-009  0.9118800E+02  0.7816164E-02  0.1184000E+00
        -11   -1    0    0    0    0  0.00000000000E+00  0.00000000000E+00  0.45593999997E+02  0.45594000000E+02  0.51100000000E-03 0.  1.
         11   -1    0    0    0    0 -0.00000000000E+00 -0.00000000000E+00 -0.45593999997E+02  0.45594000000E+02  0.51100000000E-03 0. -1.
         23    2    1    2    0    0  0.00000000000E+00  0.00000000000E+00 -0.11102230246E-15  0.91188000000E+02  0.91188000000E+02 0.  0.
    9900012    2    3    3    0    0 -0.44826760477E+02 -0.43893588548E+01  0.63958049595E+00  0.46142312202E+02  0.99999493057E+01 0.  0.
         12    1    3    3    0    0  0.44826760477E+02  0.43893588548E+01 -0.63958049595E+00  0.45045687798E+02  0.00000000000E+00 0. -1.
         11    1    4    4    0    0 -0.16635713275E+02 -0.54204514730E+01 -0.13843223181E+01  0.17551199357E+02  0.51100000000E-03 0. -1.
        -11    1    4    4    0    0 -0.26696963651E+02  0.16800498614E+01  0.12275233851E+01  0.26777924671E+02  0.51100000000E-03 0.  1.
        -12    1    4    4    0    0 -0.14940835501E+01 -0.64895724317E+00  0.79637942888E+00  0.18131881736E+01  0.00000000000E+00 0.  1.
</event>
<event>
 8    1  0.2962813E-009  0.9118800E+02  0.7816164E-02  0.1184000E+00
        -11   -1    0    0    0    0  0.00000000000E+00  0.00000000000E+00  0.45593999997E+02  0.45594000000E+02  0.51100000000E-03 0. -1.
         11   -1    0    0    0    0 -0.00000000000E+00 -0.00000000000E+00 -0.45593999997E+02  0.45594000000E+02  0.51100000000E-03 0.  1.
         23    2    1    2    0    0  0.00000000000E+00  0.00000000000E+00  0.00000000000E+00  0.91188000000E+02  0.91188000000E+02 0.  0.
    9900012    2    3    3    0    0  0.34400318551E+02  0.91712998187E+01  0.27597442909E+02  0.46142317500E+02  0.99999976200E+01 0.  0.
        -12    1    3    3    0    0 -0.34400318551E+02 -0.91712998187E+01 -0.27597442909E+02  0.45045682500E+02  0.00000000000E+00 0.  1.
         11    1    4    4    0    0  0.86984661928E+01  0.98531050052E+00  0.52625470968E+01  0.10214134966E+02  0.51100000000E-03 0. -1.
        -11    1    4    4    0    0  0.15216089837E+02  0.89735229522E+00  0.13859631400E+02  0.20601553676E+02  0.51100000000E-03 0.  1.
        -12    1    4    4    0    0  0.10485762520E+02  0.72886370229E+01  0.84752644128E+01  0.15326628858E+02  0.00000000000E+00 0.  1.
</event>
<event>
 8    1  0.3623049E-009  0.9118800E+02  0.7816164E-02  0.1184000E+00
        -11   -1    0    0    0    0  0.00000000000E+00  0.00000000000E+00  0.45593999997E+02  0.45594000000E+02  0.51100000000E-03 0. -1.
         11   -1    0    0    0    0 -0.00000000000E+00 -0.00000000000E+00 -0.45593999997E+02  0.45594000000E+02  0.51100000000E-03 0.  1.
         23    2    1    2    0    0  0.17763568394E-14  0.17763568394E-14  0.71054273576E-14  0.91188000000E+02  0.91188000000E+02 0.  0.
    9900012    2    3    3    0    0 -0.11799161371E+02 -0.14091720453E+02 -0.41125619090E+02  0.46142319409E+02  0.10000015029E+02 0.  0.
         12    1    3    3    0    0  0.11799161371E+02  0.14091720453E+02  0.41125619090E+02  0.45045680591E+02  0.00000000000E+00 0. -1.
         11    1    4    4    0    0 -0.32346839133E+01 -0.55502084508E+00 -0.12439447649E+02  0.12865111202E+02  0.51100000000E-03 0. -1.
        -11    1    4    4    0    0 -0.34903906197E+01 -0.88315001425E+01 -0.12701326242E+02  0.15858811746E+02  0.51100000000E-03 0.  1.
        -12    1    4    4    0    0 -0.50740868380E+01 -0.47051994658E+01 -0.15984845199E+02  0.17418396461E+02  0.00000000000E+00 0.  1.
</event>
<event>
 8    1  0.2962813E-009  0.9118800E+02  0.7816164E-02  0.1184000E+00
        -11   -1    0    0    0    0  0.00000000000E+00  0.00000000000E+00  0.45593999997E+02  0.45594000000E+02  0.51100000000E-03 0. -1.
         11   -1    0    0    0    0 -0.00000000000E+00 -0.00000000000E+00 -0.45593999997E+02  0.45594000000E+02  0.51100000000E-03 0.  1.
         23    2    1    2    0    0  0.00000000000E+00 -0.44408920985E-15 -0.71054273576E-14  0.91188000000E+02  0.91188000000E+02 0.  0.
    9900012    2    3    3    0    0 -0.84315770335E+01  0.26695193846E+01  0.44168943271E+02  0.46142319023E+02  0.10000011509E+02 0.  0.
        -12    1    3    3    0    0  0.84315770335E+01 -0.26695193846E+01 -0.44168943271E+02  0.45045680977E+02  0.00000000000E+00 0.  1.
         11    1    4    4    0    0 -0.34728984737E+00 -0.98350580721E+00  0.22290618003E+01  0.24610182205E+01  0.51100000000E-03 0. -1.
        -11    1    4    4    0    0 -0.49325658697E+01  0.37494000442E+01  0.11364240928E+02  0.12943499484E+02  0.51100000000E-03 0.  1.
        -12    1    4    4    0    0 -0.31517213164E+01 -0.96374852439E-01  0.30575640542E+02  0.30737801319E+02  0.00000000000E+00 0.  1.
</event>
<event>
 8    1  0.2962813E-009  0.9118800E+02  0.7816164E-02  0.1184000E+00
        -11   -1    0    0    0    0  0.00000000000E+00  0.00000000000E+00  0.45593999997E+02  0.45594000000E+02  0.51100000000E-03 0. -1.
         11   -1    0    0    0    0 -0.00000000000E+00 -0.00000000000E+00 -0.45593999997E+02  0.45594000000E+02  0.51100000000E-03 0.  1.
         23    2    1    2    0    0  0.00000000000E+00  0.00000000000E+00  0.00000000000E+00  0.91188000000E+02  0.91188000000E+02 0.  0.
    9900012    2    3    3    0    0  0.22865846050E+02 -0.17973758381E+02  0.34397828426E+02  0.46142317562E+02  0.99999981835E+01 0.  0.
        -12    1    3    3    0    0 -0.22865846050E+02  0.17973758381E+02 -0.34397828426E+02  0.45045682438E+02  0.00000000000E+00 0.  1.
         11    1    4    4    0    0  0.93404550657E+01 -0.65907892830E+01  0.18711169523E+02  0.21926934793E+02  0.51100000000E-03 0. -1.
        -11    1    4    4    0    0  0.12118804637E+02 -0.73503468994E+01  0.11868119712E+02  0.18486354187E+02  0.51100000000E-03 0.  1.
        -12    1    4    4    0    0  0.14065863473E+01 -0.40326221984E+01  0.38185391900E+01  0.57290285820E+01  0.00000000000E+00 0.  1.
</event>
<event>
 8    1  0.2962813E-009  0.9118800E+02  0.7816164E-02  0.1184000E+00
        -11   -1    0    0    0    0  0.00000000000E+00  0.00000000000E+00  0.45593999997E+02  0.45594000000E+02  0.51100000000E-03 0. -1.
         11   -1    0    0    0    0 -0.00000000000E+00 -0.00000000000E+00 -0.45593999997E+02  0.45594000000E+02  0.51100000000E-03 0.  1.
         23    2    1    2    0    0 -0.35527136788E-14  0.00000000000E+00  0.00000000000E+00  0.91188000000E+02  0.91188000000E+02 0.  0.
    9900012    2    3    3    0    0 -0.25324686692E+02  0.32913457504E+02 -0.17449300537E+02  0.46142317297E+02  0.99999957721E+01 0.  0.
         12    1    3    3    0    0  0.25324686692E+02 -0.32913457504E+02  0.17449300537E+02  0.45045682703E+02  0.00000000000E+00 0. -1.
         11    1    4    4    0    0 -0.16503295308E+02  0.14445601405E+02 -0.69646893823E+01  0.23011759047E+02  0.51100000000E-03 0. -1.
        -11    1    4    4    0    0 -0.27077847962E+01  0.81708207232E+01 -0.37244433855E+01  0.93790131990E+01  0.51100000000E-03 0.  1.
         12    1    4    4    0    0 -0.61136065875E+01  0.10297035376E+02 -0.67601677692E+01  0.13751545052E+02  0.00000000000E+00 0. -1.
</event>
<event>
 8    1  0.2962813E-009  0.9118800E+02  0.7816164E-02  0.1184000E+00
        -11   -1    0    0    0    0  0.00000000000E+00  0.00000000000E+00  0.45593999997E+02  0.45594000000E+02  0.51100000000E-03 0. -1.
         11   -1    0    0    0    0 -0.00000000000E+00 -0.00000000000E+00 -0.45593999997E+02  0.45594000000E+02  0.51100000000E-03 0.  1.
         23    2    1    2    0    0  0.71054273576E-14  0.17763568394E-14  0.35527136788E-14  0.91188000000E+02  0.91188000000E+02 0.  0.
    9900012    2    3    3    0    0  0.32558880399E+02  0.15429207736E+02 -0.27036500416E+02  0.46142317644E+02  0.99999989279E+01 0.  0.
         12    1    3    3    0    0 -0.32558880399E+02 -0.15429207736E+02  0.27036500416E+02  0.45045682356E+02  0.00000000000E+00 0. -1.
         11    1    4    4    0    0  0.71997291516E+01  0.68766108585E+01 -0.73667182910E+01  0.12385169171E+02  0.51100000000E-03 0. -1.
        -11    1    4    4    0    0  0.11978636662E+02  0.90816987348E+00 -0.81407111131E+01  0.14511501869E+02  0.51100000000E-03 0.  1.
        -12    1    4    4    0    0  0.13380514586E+02  0.76444270040E+01 -0.11529071012E+02  0.19245646604E+02  0.00000000000E+00 0.  1.
</event>
<event>
 8    1  0.2962813E-009  0.9118800E+02  0.7816164E-02  0.1184000E+00
        -11   -1    0    0    0    0  0.00000000000E+00  0.00000000000E+00  0.45593999997E+02  0.45594000000E+02  0.51100000000E-03 0.  1.
         11   -1    0    0    0    0 -0.00000000000E+00 -0.00000000000E+00 -0.45593999997E+02  0.45594000000E+02  0.51100000000E-03 0. -1.
         23    2    1    2    0    0 -0.35527136788E-14  0.00000000000E+00  0.71054273576E-14  0.91188000000E+02  0.91188000000E+02 0.  0.
    9900012    2    3    3    0    0 -0.25574694174E+02 -0.85403194148E+01 -0.36084781446E+02  0.46142317745E+02  0.99999998530E+01 0.  0.
         12    1    3    3    0    0  0.25574694174E+02  0.85403194148E+01  0.36084781446E+02  0.45045682255E+02  0.00000000000E+00 0. -1.
         11    1    4    4    0    0 -0.15014872562E+02 -0.65133548364E+01 -0.28348345197E+02  0.32733757269E+02  0.51100000000E-03 0. -1.
        -11    1    4    4    0    0 -0.64755264309E+00  0.35922325801E+00 -0.35276384667E+00  0.82024896666E+00  0.51100000000E-03 0.  1.
         12    1    4    4    0    0 -0.99122689693E+01 -0.23861878364E+01 -0.73836724023E+01  0.12588311509E+02  0.00000000000E+00 0. -1.
</event>
<event>
 8    1  0.2962813E-009  0.9118800E+02  0.7816164E-02  0.1184000E+00
        -11   -1    0    0    0    0  0.00000000000E+00  0.00000000000E+00  0.45593999997E+02  0.45594000000E+02  0.51100000000E-03 0. -1.
         11   -1    0    0    0    0 -0.00000000000E+00 -0.00000000000E+00 -0.45593999997E+02  0.45594000000E+02  0.51100000000E-03 0.  1.
         23    2    1    2    0    0  0.00000000000E+00  0.00000000000E+00  0.00000000000E+00  0.91188000000E+02  0.91188000000E+02 0.  0.
    9900012    2    3    3    0    0  0.24644150878E+02 -0.10346521043E+02  0.36259190355E+02  0.46142317017E+02  0.99999932157E+01 0.  0.
        -12    1    3    3    0    0 -0.24644150878E+02  0.10346521043E+02 -0.36259190355E+02  0.45045682983E+02  0.00000000000E+00 0.  1.
         11    1    4    4    0    0  0.55531671203E+01 -0.19354533864E+01  0.28299470515E+01  0.65262734736E+01  0.51100000000E-03 0. -1.
        -11    1    4    4    0    0  0.33595555020E+01 -0.75826055110E+00  0.32637820543E+01  0.47448757405E+01  0.51100000000E-03 0.  1.
         12    1    4    4    0    0  0.15731428256E+02 -0.76528071059E+01  0.30165461249E+02  0.34871167803E+02  0.00000000000E+00 0. -1.
</event>
<event>
 8    1  0.2962813E-009  0.9118800E+02  0.7816164E-02  0.1184000E+00
        -11   -1    0    0    0    0  0.00000000000E+00  0.00000000000E+00  0.45593999997E+02  0.45594000000E+02  0.51100000000E-03 0. -1.
         11   -1    0    0    0    0 -0.00000000000E+00 -0.00000000000E+00 -0.45593999997E+02  0.45594000000E+02  0.51100000000E-03 0.  1.
         23    2    1    2    0    0 -0.53290705182E-14  0.88817841970E-15  0.00000000000E+00  0.91188000000E+02  0.91188000000E+02 0.  0.
    9900012    2    3    3    0    0  0.15785535860E+02 -0.60883486892E+01  0.41747603430E+02  0.46142317362E+02  0.99999963645E+01 0.  0.
        -12    1    3    3    0    0 -0.15785535860E+02  0.60883486892E+01 -0.41747603430E+02  0.45045682638E+02  0.00000000000E+00 0.  1.
         11    1    4    4    0    0  0.15665185994E+02 -0.43362546988E+01  0.37013548418E+02  0.40425288172E+02  0.51100000000E-03 0. -1.
        -11    1    4    4    0    0 -0.28258492565E+00 -0.21770444531E+01  0.21694150026E+01  0.30863795142E+01  0.51100000000E-03 0.  1.
         12    1    4    4    0    0  0.40293479180E+00  0.42495046267E+00  0.25646400095E+01  0.26306496765E+01  0.00000000000E+00 0. -1.
</event>
<event>
 8    1  0.2962813E-009  0.9118800E+02  0.7816164E-02  0.1184000E+00
        -11   -1    0    0    0    0  0.00000000000E+00  0.00000000000E+00  0.45593999997E+02  0.45594000000E+02  0.51100000000E-03 0. -1.
         11   -1    0    0    0    0 -0.00000000000E+00 -0.00000000000E+00 -0.45593999997E+02  0.45594000000E+02  0.51100000000E-03 0.  1.
         23    2    1    2    0    0 -0.17763568394E-14 -0.71054273576E-14  0.00000000000E+00  0.91188000000E+02  0.91188000000E+02 0.  0.
    9900012    2    3    3    0    0 -0.78035979113E+01 -0.41008372035E+02  0.16927216620E+02  0.46142318966E+02  0.10000010986E+02 0.  0.
        -12    1    3    3    0    0  0.78035979113E+01  0.41008372035E+02 -0.16927216620E+02  0.45045681034E+02  0.00000000000E+00 0.  1.
         11    1    4    4    0    0 -0.68298255306E+01 -0.33222778488E+02  0.15360633356E+02  0.37233702268E+02  0.51100000000E-03 0. -1.
        -11    1    4    4    0    0 -0.19138349447E+01 -0.68209587940E+01  0.34905675374E+00  0.70929601679E+01  0.51100000000E-03 0.  1.
         12    1    4    4    0    0  0.94006256406E+00 -0.96463475367E+00  0.12175265103E+01  0.18156565302E+01  0.00000000000E+00 0. -1.
</event>
<event>
 8    1  0.2962813E-009  0.9118800E+02  0.7816164E-02  0.1184000E+00
        -11   -1    0    0    0    0  0.00000000000E+00  0.00000000000E+00  0.45593999997E+02  0.45594000000E+02  0.51100000000E-03 0. -1.
         11   -1    0    0    0    0 -0.00000000000E+00 -0.00000000000E+00 -0.45593999997E+02  0.45594000000E+02  0.51100000000E-03 0.  1.
         23    2    1    2    0    0  0.00000000000E+00 -0.17763568394E-14  0.00000000000E+00  0.91188000000E+02  0.91188000000E+02 0.  0.
    9900012    2    3    3    0    0 -0.28047911556E+02 -0.12587710990E+02  0.32923816416E+02  0.46142317654E+02  0.99999990226E+01 0.  0.
        -12    1    3    3    0    0  0.28047911556E+02  0.12587710990E+02 -0.32923816416E+02  0.45045682346E+02  0.00000000000E+00 0.  1.
         11    1    4    4    0    0 -0.20242217111E+02 -0.99711798102E+01  0.19314687556E+02  0.29702338898E+02  0.51100000000E-03 0. -1.
        -11    1    4    4    0    0 -0.33186208715E+01 -0.10124039968E+01  0.96163144053E+01  0.10223096857E+02  0.51100000000E-03 0.  1.
         12    1    4    4    0    0 -0.44870735741E+01 -0.16041271834E+01  0.39928144545E+01  0.62168818992E+01  0.00000000000E+00 0. -1.
</event>
<event>
 8    1  0.2962813E-009  0.9118800E+02  0.7816164E-02  0.1184000E+00
        -11   -1    0    0    0    0  0.00000000000E+00  0.00000000000E+00  0.45593999997E+02  0.45594000000E+02  0.51100000000E-03 0.  1.
         11   -1    0    0    0    0 -0.00000000000E+00 -0.00000000000E+00 -0.45593999997E+02  0.45594000000E+02  0.51100000000E-03 0. -1.
         23    2    1    2    0    0  0.00000000000E+00  0.00000000000E+00 -0.35527136788E-14  0.91188000000E+02  0.91188000000E+02 0.  0.
    9900012    2    3    3    0    0  0.20644794680E+02  0.31607745314E+02 -0.24573489615E+02  0.46142317598E+02  0.99999985122E+01 0.  0.
         12    1    3    3    0    0 -0.20644794680E+02 -0.31607745314E+02  0.24573489615E+02  0.45045682402E+02  0.00000000000E+00 0. -1.
         11    1    4    4    0    0  0.73174069251E+01  0.14841782455E+02 -0.13711183148E+02  0.21489985903E+02  0.51100000000E-03 0. -1.
        -11    1    4    4    0    0  0.12535120133E+02  0.12634458160E+02 -0.77121214770E+01  0.19396793232E+02  0.51100000000E-03 0.  1.
        -12    1    4    4    0    0  0.79226762217E+00  0.41315046989E+01 -0.31501849906E+01  0.52555384631E+01  0.00000000000E+00 0.  1.
</event>
<event>
 8    1  0.2962813E-009  0.9118800E+02  0.7816164E-02  0.1184000E+00
        -11   -1    0    0    0    0  0.00000000000E+00  0.00000000000E+00  0.45593999997E+02  0.45594000000E+02  0.51100000000E-03 0. -1.
         11   -1    0    0    0    0 -0.00000000000E+00 -0.00000000000E+00 -0.45593999997E+02  0.45594000000E+02  0.51100000000E-03 0.  1.
         23    2    1    2    0    0  0.00000000000E+00  0.00000000000E+00  0.00000000000E+00  0.91188000000E+02  0.91188000000E+02 0.  0.
    9900012    2    3    3    0    0  0.31177762764E+02  0.23396509003E+02  0.22575738127E+02  0.46142317893E+02  0.10000001203E+02 0.  0.
        -12    1    3    3    0    0 -0.31177762764E+02 -0.23396509003E+02 -0.22575738127E+02  0.45045682107E+02  0.00000000000E+00 0.  1.
         11    1    4    4    0    0  0.64265331138E+01  0.20828294512E+01  0.27964603708E+01  0.73115454763E+01  0.51100000000E-03 0. -1.
        -11    1    4    4    0    0  0.30964899159E+01  0.48305054010E+01  0.60905766132E+01  0.83676254679E+01  0.51100000000E-03 0.  1.
         12    1    4    4    0    0  0.21654739734E+02  0.16483174150E+02  0.13688701143E+02  0.30463146949E+02  0.00000000000E+00 0. -1.
</event>
<event>
 8    1  0.2962813E-009  0.9118800E+02  0.7816164E-02  0.1184000E+00
        -11   -1    0    0    0    0  0.00000000000E+00  0.00000000000E+00  0.45593999997E+02  0.45594000000E+02  0.51100000000E-03 0. -1.
         11   -1    0    0    0    0 -0.00000000000E+00 -0.00000000000E+00 -0.45593999997E+02  0.45594000000E+02  0.51100000000E-03 0.  1.
         23    2    1    2    0    0  0.00000000000E+00  0.00000000000E+00  0.00000000000E+00  0.91188000000E+02  0.91188000000E+02 0.  0.
    9900012    2    3    3    0    0 -0.31276087975E+02 -0.18082524610E+02 -0.26906175133E+02  0.46142316127E+02  0.99999850989E+01 0.  0.
         12    1    3    3    0    0  0.31276087975E+02  0.18082524610E+02  0.26906175133E+02  0.45045683873E+02  0.00000000000E+00 0. -1.
         11    1    4    4    0    0 -0.15797860944E+02 -0.11570088361E+02 -0.11042137958E+02  0.22480395148E+02  0.51100000000E-03 0. -1.
        -11    1    4    4    0    0 -0.52515543792E+01 -0.29804852220E+01 -0.90366797955E+01  0.10868472641E+02  0.51100000000E-03 0.  1.
        -12    1    4    4    0    0 -0.10226672652E+02 -0.35319510277E+01 -0.68273573801E+01  0.12793448338E+02  0.00000000000E+00 0.  1.
</event>
<event>
 8    1  0.2962813E-009  0.9118800E+02  0.7816164E-02  0.1184000E+00
        -11   -1    0    0    0    0  0.00000000000E+00  0.00000000000E+00  0.45593999997E+02  0.45594000000E+02  0.51100000000E-03 0. -1.
         11   -1    0    0    0    0 -0.00000000000E+00 -0.00000000000E+00 -0.45593999997E+02  0.45594000000E+02  0.51100000000E-03 0.  1.
         23    2    1    2    0    0 -0.35527136788E-14  0.35527136788E-14  0.35527136788E-14  0.91188000000E+02  0.91188000000E+02 0.  0.
    9900012    2    3    3    0    0  0.22161283275E+02 -0.29717528107E+02 -0.25590224318E+02  0.46142317257E+02  0.99999954021E+01 0.  0.
         12    1    3    3    0    0 -0.22161283275E+02  0.29717528107E+02  0.25590224318E+02  0.45045682743E+02  0.00000000000E+00 0. -1.
         11    1    4    4    0    0  0.11168230317E+02 -0.15121061028E+02 -0.78447515481E+01  0.20369486546E+02  0.51100000000E-03 0. -1.
        -11    1    4    4    0    0  0.55740872253E+01 -0.45463967550E+01 -0.80326960373E+01  0.10782596057E+02  0.51100000000E-03 0.  1.
         12    1    4    4    0    0  0.54189657330E+01 -0.10050070323E+02 -0.97127767322E+01  0.14990234654E+02  0.00000000000E+00 0. -1.
</event>
<event>
 8    1  0.2962813E-009  0.9118800E+02  0.7816164E-02  0.1184000E+00
        -11   -1    0    0    0    0  0.00000000000E+00  0.00000000000E+00  0.45593999997E+02  0.45594000000E+02  0.51100000000E-03 0. -1.
         11   -1    0    0    0    0 -0.00000000000E+00 -0.00000000000E+00 -0.45593999997E+02  0.45594000000E+02  0.51100000000E-03 0.  1.
         23    2    1    2    0    0  0.00000000000E+00  0.00000000000E+00  0.00000000000E+00  0.91188000000E+02  0.91188000000E+02 0.  0.
    9900012    2    3    3    0    0  0.21829280689E+01 -0.23766880945E+02  0.38203188953E+02  0.46142318176E+02  0.10000003782E+02 0.  0.
        -12    1    3    3    0    0 -0.21829280689E+01  0.23766880945E+02 -0.38203188953E+02  0.45045681824E+02  0.00000000000E+00 0.  1.
         11    1    4    4    0    0  0.53747626315E+01 -0.19152977000E+02  0.32214343016E+02  0.37861438133E+02  0.51100000000E-03 0. -1.
        -11    1    4    4    0    0 -0.10261555466E+01 -0.21822966443E+01  0.20090957516E+01  0.31387704360E+01  0.51100000000E-03 0.  1.
         12    1    4    4    0    0 -0.21656790160E+01 -0.24316073007E+01  0.39797501854E+01  0.51421096063E+01  0.00000000000E+00 0. -1.
</event>
<event>
 8    1  0.2962813E-009  0.9118800E+02  0.7816164E-02  0.1184000E+00
        -11   -1    0    0    0    0  0.00000000000E+00  0.00000000000E+00  0.45593999997E+02  0.45594000000E+02  0.51100000000E-03 0. -1.
         11   -1    0    0    0    0 -0.00000000000E+00 -0.00000000000E+00 -0.45593999997E+02  0.45594000000E+02  0.51100000000E-03 0.  1.
         23    2    1    2    0    0  0.71054273576E-14  0.44408920985E-15 -0.35527136788E-14  0.91188000000E+02  0.91188000000E+02 0.  0.
    9900012    2    3    3    0    0  0.33158650205E+02  0.30171975432E+01 -0.30339971567E+02  0.46142318308E+02  0.10000004983E+02 0.  0.
         12    1    3    3    0    0 -0.33158650205E+02 -0.30171975432E+01  0.30339971567E+02  0.45045681692E+02  0.00000000000E+00 0. -1.
         11    1    4    4    0    0  0.26524526686E+01 -0.47219093061E+00 -0.30689838781E+01  0.40837644079E+01  0.51100000000E-03 0. -1.
        -11    1    4    4    0    0  0.30485972524E+02  0.38313566640E+01 -0.27795131523E+02  0.41432392536E+02  0.51100000000E-03 0.  1.
        -12    1    4    4    0    0  0.20225012695E-01 -0.34196819020E+00  0.52414383417E+00  0.62616136350E+00  0.00000000000E+00 0.  1.
</event>
<event>
 8    1  0.2962813E-009  0.9118800E+02  0.7816164E-02  0.1184000E+00
        -11   -1    0    0    0    0  0.00000000000E+00  0.00000000000E+00  0.45593999997E+02  0.45594000000E+02  0.51100000000E-03 0. -1.
         11   -1    0    0    0    0 -0.00000000000E+00 -0.00000000000E+00 -0.45593999997E+02  0.45594000000E+02  0.51100000000E-03 0.  1.
         23    2    1    2    0    0  0.00000000000E+00  0.00000000000E+00  0.00000000000E+00  0.91188000000E+02  0.91188000000E+02 0.  0.
    9900012    2    3    3    0    0 -0.15891223270E+02 -0.14553175256E+02 -0.39557396094E+02  0.46142317934E+02  0.10000001581E+02 0.  0.
         12    1    3    3    0    0  0.15891223270E+02  0.14553175256E+02  0.39557396094E+02  0.45045682066E+02  0.00000000000E+00 0. -1.
         11    1    4    4    0    0 -0.46277423867E+01 -0.18907845209E+00 -0.86885936694E+01  0.98459844847E+01  0.51100000000E-03 0. -1.
        -11    1    4    4    0    0 -0.33787821597E+01 -0.86317863132E+01 -0.16657734524E+02  0.19063158804E+02  0.51100000000E-03 0.  1.
        -12    1    4    4    0    0 -0.78846987232E+01 -0.57323104907E+01 -0.14211067900E+02  0.17233174646E+02  0.00000000000E+00 0.  1.
</event>
<event>
 8    1  0.2962813E-009  0.9118800E+02  0.7816164E-02  0.1184000E+00
        -11   -1    0    0    0    0  0.00000000000E+00  0.00000000000E+00  0.45593999997E+02  0.45594000000E+02  0.51100000000E-03 0.  1.
         11   -1    0    0    0    0 -0.00000000000E+00 -0.00000000000E+00 -0.45593999997E+02  0.45594000000E+02  0.51100000000E-03 0. -1.
         23    2    1    2    0    0  0.00000000000E+00  0.17763568394E-14  0.00000000000E+00  0.91188000000E+02  0.91188000000E+02 0.  0.
    9900012    2    3    3    0    0  0.43537978535E+02 -0.11536062670E+02  0.69084180121E+00  0.46142316752E+02  0.99999907987E+01 0.  0.
         12    1    3    3    0    0 -0.43537978535E+02  0.11536062670E+02 -0.69084180121E+00  0.45045683248E+02  0.00000000000E+00 0. -1.
         11    1    4    4    0    0  0.61852939752E+01 -0.12321359531E+01 -0.77242413237E+00  0.63539483684E+01  0.51100000000E-03 0. -1.
        -11    1    4    4    0    0  0.33712973654E+02 -0.11575393026E+02  0.26802234931E+01  0.35745460055E+02  0.51100000000E-03 0.  1.
        -12    1    4    4    0    0  0.36397109060E+01  0.12714663085E+01 -0.12169575595E+01  0.40429083287E+01  0.00000000000E+00 0.  1.
</event>
<event>
 8    1  0.2962813E-009  0.9118800E+02  0.7816164E-02  0.1184000E+00
        -11   -1    0    0    0    0  0.00000000000E+00  0.00000000000E+00  0.45593999997E+02  0.45594000000E+02  0.51100000000E-03 0. -1.
         11   -1    0    0    0    0 -0.00000000000E+00 -0.00000000000E+00 -0.45593999997E+02  0.45594000000E+02  0.51100000000E-03 0.  1.
         23    2    1    2    0    0 -0.35527136788E-14  0.17763568394E-14 -0.35527136788E-14  0.91188000000E+02  0.91188000000E+02 0.  0.
    9900012    2    3    3    0    0 -0.28577334793E+02 -0.15200446997E+02 -0.31327237883E+02  0.46142317785E+02  0.10000000220E+02 0.  0.
         12    1    3    3    0    0  0.28577334793E+02  0.15200446997E+02  0.31327237883E+02  0.45045682215E+02  0.00000000000E+00 0. -1.
         11    1    4    4    0    0 -0.18644930531E+02 -0.88611709800E+01 -0.22840586680E+02  0.30787110709E+02  0.51100000000E-03 0. -1.
        -11    1    4    4    0    0 -0.49969205247E-01 -0.19012236334E+01 -0.18354795028E+01  0.26431294883E+01  0.51100000000E-03 0.  1.
         12    1    4    4    0    0 -0.98824350572E+01 -0.44380523838E+01 -0.66511717001E+01  0.12712077588E+02  0.00000000000E+00 0. -1.
</event>
<event>
 8    1  0.2962813E-009  0.9118800E+02  0.7816164E-02  0.1184000E+00
        -11   -1    0    0    0    0  0.00000000000E+00  0.00000000000E+00  0.45593999997E+02  0.45594000000E+02  0.51100000000E-03 0. -1.
         11   -1    0    0    0    0 -0.00000000000E+00 -0.00000000000E+00 -0.45593999997E+02  0.45594000000E+02  0.51100000000E-03 0.  1.
         23    2    1    2    0    0  0.00000000000E+00  0.17763568394E-14 -0.71054273576E-14  0.91188000000E+02  0.91188000000E+02 0.  0.
    9900012    2    3    3    0    0 -0.82002745213E+01 -0.12593047497E+02  0.42465093474E+02  0.46142317507E+02  0.99999976817E+01 0.  0.
        -12    1    3    3    0    0  0.82002745213E+01  0.12593047497E+02 -0.42465093474E+02  0.45045682493E+02  0.00000000000E+00 0.  1.
         11    1    4    4    0    0 -0.48503470921E+01 -0.94859031619E+01  0.31999803388E+02  0.33726779313E+02  0.51100000000E-03 0. -1.
        -11    1    4    4    0    0  0.10311558679E+01 -0.13063627352E+00  0.35853094311E+01  0.37329334628E+01  0.51100000000E-03 0.  1.
         12    1    4    4    0    0 -0.43810832972E+01 -0.29765080614E+01  0.68799806557E+01  0.86826047312E+01  0.00000000000E+00 0. -1.
</event>
<event>
 8    1  0.2962813E-009  0.9118800E+02  0.7816164E-02  0.1184000E+00
        -11   -1    0    0    0    0  0.00000000000E+00  0.00000000000E+00  0.45593999997E+02  0.45594000000E+02  0.51100000000E-03 0. -1.
         11   -1    0    0    0    0 -0.00000000000E+00 -0.00000000000E+00 -0.45593999997E+02  0.45594000000E+02  0.51100000000E-03 0.  1.
         23    2    1    2    0    0 -0.88817841970E-15  0.00000000000E+00 -0.71054273576E-14  0.91188000000E+02  0.91188000000E+02 0.  0.
    9900012    2    3    3    0    0 -0.73108701318E+01  0.22558622194E+01 -0.44391167612E+02  0.46142317650E+02  0.99999989884E+01 0.  0.
         12    1    3    3    0    0  0.73108701318E+01 -0.22558622194E+01  0.44391167612E+02  0.45045682350E+02  0.00000000000E+00 0. -1.
         11    1    4    4    0    0 -0.37416194647E+01  0.32166496178E+01 -0.38789685883E+02  0.39102254182E+02  0.51100000000E-03 0. -1.
        -11    1    4    4    0    0 -0.37381546474E+01 -0.12396050333E+01 -0.51559918840E+01  0.64880407964E+01  0.51100000000E-03 0.  1.
         12    1    4    4    0    0  0.16890398028E+00  0.27881763488E+00 -0.44548984470E+00  0.55202267146E+00  0.00000000000E+00 0. -1.
</event>
<event>
 8    1  0.2962813E-009  0.9118800E+02  0.7816164E-02  0.1184000E+00
        -11   -1    0    0    0    0  0.00000000000E+00  0.00000000000E+00  0.45593999997E+02  0.45594000000E+02  0.51100000000E-03 0. -1.
         11   -1    0    0    0    0 -0.00000000000E+00 -0.00000000000E+00 -0.45593999997E+02  0.45594000000E+02  0.51100000000E-03 0.  1.
         23    2    1    2    0    0  0.00000000000E+00  0.71054273576E-14 -0.35527136788E-14  0.91188000000E+02  0.91188000000E+02 0.  0.
    9900012    2    3    3    0    0  0.16867985903E+02 -0.29611350403E+02  0.29457638753E+02  0.46142317610E+02  0.99999986208E+01 0.  0.
        -12    1    3    3    0    0 -0.16867985903E+02  0.29611350403E+02 -0.29457638753E+02  0.45045682390E+02  0.00000000000E+00 0.  1.
         11    1    4    4    0    0  0.13635615621E+01 -0.60534405716E+01  0.24321332510E+01  0.66647367014E+01  0.51100000000E-03 0. -1.
        -11    1    4    4    0    0  0.12831808282E+02 -0.15058370844E+02  0.17218585148E+02  0.26227647836E+02  0.51100000000E-03 0.  1.
        -12    1    4    4    0    0  0.26726160592E+01 -0.84995389868E+01  0.98069203545E+01  0.13249933073E+02  0.00000000000E+00 0.  1.
</event>
<event>
 8    1  0.2962813E-009  0.9118800E+02  0.7816164E-02  0.1184000E+00
        -11   -1    0    0    0    0  0.00000000000E+00  0.00000000000E+00  0.45593999997E+02  0.45594000000E+02  0.51100000000E-03 0. -1.
         11   -1    0    0    0    0 -0.00000000000E+00 -0.00000000000E+00 -0.45593999997E+02  0.45594000000E+02  0.51100000000E-03 0.  1.
         23    2    1    2    0    0  0.00000000000E+00  0.35527136788E-14  0.00000000000E+00  0.91188000000E+02  0.91188000000E+02 0.  0.
    9900012    2    3    3    0    0  0.23883126763E+01 -0.16043144624E+02  0.42024123303E+02  0.46142318007E+02  0.10000002239E+02 0.  0.
        -12    1    3    3    0    0 -0.23883126763E+01  0.16043144624E+02 -0.42024123303E+02  0.45045681993E+02  0.00000000000E+00 0.  1.
         11    1    4    4    0    0 -0.10495353827E+01 -0.11628688326E+01  0.21018223939E+01  0.26213443264E+01  0.51100000000E-03 0. -1.
        -11    1    4    4    0    0  0.23951809945E+01 -0.31929084521E+01  0.20046869464E+02  0.20440365260E+02  0.51100000000E-03 0.  1.
         12    1    4    4    0    0  0.10426670645E+01 -0.11687367340E+02  0.19875431445E+02  0.23080608420E+02  0.00000000000E+00 0. -1.
</event>
<event>
 8    1  0.2962813E-009  0.9118800E+02  0.7816164E-02  0.1184000E+00
        -11   -1    0    0    0    0  0.00000000000E+00  0.00000000000E+00  0.45593999997E+02  0.45594000000E+02  0.51100000000E-03 0. -1.
         11   -1    0    0    0    0 -0.00000000000E+00 -0.00000000000E+00 -0.45593999997E+02  0.45594000000E+02  0.51100000000E-03 0.  1.
         23    2    1    2    0    0  0.00000000000E+00  0.00000000000E+00  0.00000000000E+00  0.91188000000E+02  0.91188000000E+02 0.  0.
    9900012    2    3    3    0    0 -0.33486387781E+02  0.97521611591E+01  0.28507381007E+02  0.46142316680E+02  0.99999901392E+01 0.  0.
        -12    1    3    3    0    0  0.33486387781E+02 -0.97521611591E+01 -0.28507381007E+02  0.45045683320E+02  0.00000000000E+00 0.  1.
         11    1    4    4    0    0 -0.19068009714E+02  0.52333822567E+01  0.19460493807E+02  0.27743253301E+02  0.51100000000E-03 0. -1.
        -11    1    4    4    0    0 -0.72497813661E+01  0.32907368855E+01  0.75527215549E+01  0.10974146083E+02  0.51100000000E-03 0.  1.
         12    1    4    4    0    0 -0.71685967017E+01  0.12280420169E+01  0.14941656453E+01  0.74249172953E+01  0.00000000000E+00 0. -1.
</event>
<event>
 8    1  0.2962813E-009  0.9118800E+02  0.7816164E-02  0.1184000E+00
        -11   -1    0    0    0    0  0.00000000000E+00  0.00000000000E+00  0.45593999997E+02  0.45594000000E+02  0.51100000000E-03 0. -1.
         11   -1    0    0    0    0 -0.00000000000E+00 -0.00000000000E+00 -0.45593999997E+02  0.45594000000E+02  0.51100000000E-03 0.  1.
         23    2    1    2    0    0  0.00000000000E+00  0.35527136788E-14 -0.71054273576E-14  0.91188000000E+02  0.91188000000E+02 0.  0.
    9900012    2    3    3    0    0 -0.64169744349E+01 -0.22680790616E+02  0.38386425427E+02  0.46142317844E+02  0.10000000757E+02 0.  0.
        -12    1    3    3    0    0  0.64169744349E+01  0.22680790616E+02 -0.38386425427E+02  0.45045682156E+02  0.00000000000E+00 0.  1.
         11    1    4    4    0    0  0.11524620192E+01 -0.12132109923E+02  0.16943893406E+02  0.20871314858E+02  0.51100000000E-03 0. -1.
        -11    1    4    4    0    0 -0.55670036458E+01 -0.51723015316E+01  0.13140120870E+02  0.15179163661E+02  0.51100000000E-03 0.  1.
         12    1    4    4    0    0 -0.20024328083E+01 -0.53763791614E+01  0.83024111511E+01  0.10091839325E+02  0.00000000000E+00 0. -1.
</event>
<event>
 8    1  0.2962813E-009  0.9118800E+02  0.7816164E-02  0.1184000E+00
        -11   -1    0    0    0    0  0.00000000000E+00  0.00000000000E+00  0.45593999997E+02  0.45594000000E+02  0.51100000000E-03 0. -1.
         11   -1    0    0    0    0 -0.00000000000E+00 -0.00000000000E+00 -0.45593999997E+02  0.45594000000E+02  0.51100000000E-03 0.  1.
         23    2    1    2    0    0  0.35527136788E-14  0.35527136788E-14 -0.71054273576E-14  0.91188000000E+02  0.91188000000E+02 0.  0.
    9900012    2    3    3    0    0  0.23416569850E+02  0.21847464487E+02 -0.31677532915E+02  0.46142317192E+02  0.99999948100E+01 0.  0.
         12    1    3    3    0    0 -0.23416569850E+02 -0.21847464487E+02  0.31677532915E+02  0.45045682808E+02  0.00000000000E+00 0. -1.
         11    1    4    4    0    0  0.10100926766E+02  0.38184129378E+01 -0.10780696693E+02  0.15258847280E+02  0.51100000000E-03 0. -1.
        -11    1    4    4    0    0  0.12391366915E+02  0.16377537838E+02 -0.20353958127E+02  0.28914586827E+02  0.51100000000E-03 0.  1.
         12    1    4    4    0    0  0.92427616987E+00  0.16515137107E+01 -0.54287809534E+00  0.19688830847E+01  0.00000000000E+00 0. -1.
</event>
<event>
 8    1  0.2962813E-009  0.9118800E+02  0.7816164E-02  0.1184000E+00
        -11   -1    0    0    0    0  0.00000000000E+00  0.00000000000E+00  0.45593999997E+02  0.45594000000E+02  0.51100000000E-03 0. -1.
         11   -1    0    0    0    0 -0.00000000000E+00 -0.00000000000E+00 -0.45593999997E+02  0.45594000000E+02  0.51100000000E-03 0.  1.
         23    2    1    2    0    0  0.17763568394E-14  0.00000000000E+00 -0.35527136788E-14  0.91188000000E+02  0.91188000000E+02 0.  0.
    9900012    2    3    3    0    0 -0.14269128966E+02 -0.32217320737E+02  0.28063316514E+02  0.46142317291E+02  0.99999957172E+01 0.  0.
        -12    1    3    3    0    0  0.14269128966E+02  0.32217320737E+02 -0.28063316514E+02  0.45045682709E+02  0.00000000000E+00 0.  1.
         11    1    4    4    0    0 -0.92086727417E+01 -0.11459001647E+02  0.15026279042E+02  0.21021356629E+02  0.51100000000E-03 0. -1.
        -11    1    4    4    0    0 -0.13704482487E+01 -0.67066959397E+01  0.30672650320E+01  0.75010675152E+01  0.51100000000E-03 0.  1.
         12    1    4    4    0    0 -0.36900079753E+01 -0.14051623151E+02  0.99697724401E+01  0.17619893148E+02  0.00000000000E+00 0. -1.
</event>
<event>
 8    1  0.2962813E-009  0.9118800E+02  0.7816164E-02  0.1184000E+00
        -11   -1    0    0    0    0  0.00000000000E+00  0.00000000000E+00  0.45593999997E+02  0.45594000000E+02  0.51100000000E-03 0. -1.
         11   -1    0    0    0    0 -0.00000000000E+00 -0.00000000000E+00 -0.45593999997E+02  0.45594000000E+02  0.51100000000E-03 0.  1.
         23    2    1    2    0    0  0.00000000000E+00  0.00000000000E+00  0.00000000000E+00  0.91188000000E+02  0.91188000000E+02 0.  0.
    9900012    2    3    3    0    0  0.25923807013E+02  0.27915794771E+02  0.24037013210E+02  0.46142319056E+02  0.10000011804E+02 0.  0.
        -12    1    3    3    0    0 -0.25923807013E+02 -0.27915794771E+02 -0.24037013210E+02  0.45045680944E+02  0.00000000000E+00 0.  1.
         11    1    4    4    0    0  0.19279794448E+02  0.25068817585E+02  0.18000847327E+02  0.36389374738E+02  0.51100000000E-03 0. -1.
        -11    1    4    4    0    0  0.62781172108E+01  0.18259805910E+01  0.54956304932E+01  0.85411308157E+01  0.51100000000E-03 0.  1.
        -12    1    4    4    0    0  0.36589535356E+00  0.10209965942E+01  0.54053539010E+00  0.12118135018E+01  0.00000000000E+00 0.  1.
</event>
<event>
 8    1  0.2962813E-009  0.9118800E+02  0.7816164E-02  0.1184000E+00
        -11   -1    0    0    0    0  0.00000000000E+00  0.00000000000E+00  0.45593999997E+02  0.45594000000E+02  0.51100000000E-03 0. -1.
         11   -1    0    0    0    0 -0.00000000000E+00 -0.00000000000E+00 -0.45593999997E+02  0.45594000000E+02  0.51100000000E-03 0.  1.
         23    2    1    2    0    0  0.00000000000E+00  0.17763568394E-14  0.00000000000E+00  0.91188000000E+02  0.91188000000E+02 0.  0.
    9900012    2    3    3    0    0 -0.12690234084E+02 -0.12042974281E+02 -0.41509494799E+02  0.46142318419E+02  0.10000005996E+02 0.  0.
         12    1    3    3    0    0  0.12690234084E+02  0.12042974281E+02  0.41509494799E+02  0.45045681581E+02  0.00000000000E+00 0. -1.
         11    1    4    4    0    0 -0.10370590535E+02 -0.35256352074E+01 -0.22670789763E+02  0.25178243791E+02  0.51100000000E-03 0. -1.
        -11    1    4    4    0    0 -0.84668840650E+00 -0.70245061018E+01 -0.13853438593E+02  0.15555652617E+02  0.51100000000E-03 0.  1.
         12    1    4    4    0    0 -0.14729551424E+01 -0.14928329716E+01 -0.49852664431E+01  0.54084220103E+01  0.00000000000E+00 0. -1.
</event>
<event>
 8    1  0.2962813E-009  0.9118800E+02  0.7816164E-02  0.1184000E+00
        -11   -1    0    0    0    0  0.00000000000E+00  0.00000000000E+00  0.45593999997E+02  0.45594000000E+02  0.51100000000E-03 0. -1.
         11   -1    0    0    0    0 -0.00000000000E+00 -0.00000000000E+00 -0.45593999997E+02  0.45594000000E+02  0.51100000000E-03 0.  1.
         23    2    1    2    0    0  0.17763568394E-14  0.00000000000E+00  0.71054273576E-14  0.91188000000E+02  0.91188000000E+02 0.  0.
    9900012    2    3    3    0    0 -0.13830494635E+02 -0.20083225839E+02  0.37874726027E+02  0.46142318591E+02  0.10000007571E+02 0.  0.
        -12    1    3    3    0    0  0.13830494635E+02  0.20083225839E+02 -0.37874726027E+02  0.45045681409E+02  0.00000000000E+00 0.  1.
         11    1    4    4    0    0 -0.11406059233E+02 -0.11530385508E+02  0.24098836712E+02  0.29048268594E+02  0.51100000000E-03 0. -1.
        -11    1    4    4    0    0 -0.10160071504E+01 -0.88066380454E-01  0.20883315877E+00  0.10409792344E+01  0.51100000000E-03 0.  1.
        -12    1    4    4    0    0 -0.14084282521E+01 -0.84647739507E+01  0.13567056156E+02  0.16053070763E+02  0.00000000000E+00 0.  1.
</event>
<event>
 8    1  0.2962813E-009  0.9118800E+02  0.7816164E-02  0.1184000E+00
        -11   -1    0    0    0    0  0.00000000000E+00  0.00000000000E+00  0.45593999997E+02  0.45594000000E+02  0.51100000000E-03 0. -1.
         11   -1    0    0    0    0 -0.00000000000E+00 -0.00000000000E+00 -0.45593999997E+02  0.45594000000E+02  0.51100000000E-03 0.  1.
         23    2    1    2    0    0 -0.35527136788E-14  0.00000000000E+00  0.00000000000E+00  0.91188000000E+02  0.91188000000E+02 0.  0.
    9900012    2    3    3    0    0  0.26996173866E+02 -0.31003271257E+02  0.18415142334E+02  0.46142315421E+02  0.99999786596E+01 0.  0.
        -12    1    3    3    0    0 -0.26996173866E+02  0.31003271257E+02 -0.18415142334E+02  0.45045684579E+02  0.00000000000E+00 0.  1.
         11    1    4    4    0    0  0.50903104759E+01 -0.12274473279E+02  0.61369357736E+01  0.14636800743E+02  0.51100000000E-03 0. -1.
        -11    1    4    4    0    0  0.14463335854E+02 -0.14101360014E+02  0.76981908021E+01  0.21617090002E+02  0.51100000000E-03 0.  1.
        -12    1    4    4    0    0  0.74425275359E+01 -0.46274379632E+01  0.45800157587E+01  0.98884246761E+01  0.00000000000E+00 0.  1.
</event>
<event>
 8    1  0.2962813E-009  0.9118800E+02  0.7816164E-02  0.1184000E+00
        -11   -1    0    0    0    0  0.00000000000E+00  0.00000000000E+00  0.45593999997E+02  0.45594000000E+02  0.51100000000E-03 0. -1.
         11   -1    0    0    0    0 -0.00000000000E+00 -0.00000000000E+00 -0.45593999997E+02  0.45594000000E+02  0.51100000000E-03 0.  1.
         23    2    1    2    0    0 -0.35527136788E-14  0.00000000000E+00  0.00000000000E+00  0.91188000000E+02  0.91188000000E+02 0.  0.
    9900012    2    3    3    0    0  0.24273827540E+02  0.10624164501E+02 -0.36428312029E+02  0.46142317720E+02  0.99999996254E+01 0.  0.
         12    1    3    3    0    0 -0.24273827540E+02 -0.10624164501E+02  0.36428312029E+02  0.45045682280E+02  0.00000000000E+00 0. -1.
         11    1    4    4    0    0  0.38526790921E+01  0.10586042551E+01 -0.31241197680E+01  0.50718737900E+01  0.51100000000E-03 0. -1.
        -11    1    4    4    0    0  0.76065040199E+01  0.55857148038E+00 -0.64804976695E+01  0.10008384276E+02  0.51100000000E-03 0.  1.
        -12    1    4    4    0    0  0.12814644428E+02  0.90069887656E+01 -0.26823694591E+02  0.31062059654E+02  0.00000000000E+00 0.  1.
</event>
<event>
 8    1  0.2962813E-009  0.9118800E+02  0.7816164E-02  0.1184000E+00
        -11   -1    0    0    0    0  0.00000000000E+00  0.00000000000E+00  0.45593999997E+02  0.45594000000E+02  0.51100000000E-03 0. -1.
         11   -1    0    0    0    0 -0.00000000000E+00 -0.00000000000E+00 -0.45593999997E+02  0.45594000000E+02  0.51100000000E-03 0.  1.
         23    2    1    2    0    0  0.00000000000E+00  0.17763568394E-14  0.00000000000E+00  0.91188000000E+02  0.91188000000E+02 0.  0.
    9900012    2    3    3    0    0 -0.26310032470E+02 -0.11642160237E+02 -0.34660581519E+02  0.46142316358E+02  0.99999872072E+01 0.  0.
         12    1    3    3    0    0  0.26310032470E+02  0.11642160237E+02  0.34660581519E+02  0.45045683642E+02  0.00000000000E+00 0. -1.
         11    1    4    4    0    0 -0.31903380198E+01 -0.35308943511E+01 -0.73118045076E+01  0.87239874494E+01  0.51100000000E-03 0. -1.
        -11    1    4    4    0    0 -0.16085723390E+02 -0.86287527506E+01 -0.21873300594E+02  0.28489421724E+02  0.51100000000E-03 0.  1.
         12    1    4    4    0    0 -0.70339710596E+01  0.51748686485E+00 -0.54754764171E+01  0.89289071849E+01  0.00000000000E+00 0. -1.
</event>
<event>
 8    1  0.2962813E-009  0.9118800E+02  0.7816164E-02  0.1184000E+00
        -11   -1    0    0    0    0  0.00000000000E+00  0.00000000000E+00  0.45593999997E+02  0.45594000000E+02  0.51100000000E-03 0. -1.
         11   -1    0    0    0    0 -0.00000000000E+00 -0.00000000000E+00 -0.45593999997E+02  0.45594000000E+02  0.51100000000E-03 0.  1.
         23    2    1    2    0    0  0.00000000000E+00  0.71054273576E-14  0.00000000000E+00  0.91188000000E+02  0.91188000000E+02 0.  0.
    9900012    2    3    3    0    0  0.17877377764E+02  0.24734800890E+02  0.33131593684E+02  0.46142317512E+02  0.99999977264E+01 0.  0.
        -12    1    3    3    0    0 -0.17877377764E+02 -0.24734800890E+02 -0.33131593684E+02  0.45045682488E+02  0.00000000000E+00 0.  1.
         11    1    4    4    0    0  0.52512021741E+01  0.10073657125E+02  0.87865237000E+01  0.14361639570E+02  0.51100000000E-03 0. -1.
        -11    1    4    4    0    0  0.57736674792E+01  0.25175765301E+01  0.96448175927E+01  0.11519372136E+02  0.51100000000E-03 0.  1.
         12    1    4    4    0    0  0.68525081110E+01  0.12143567235E+02  0.14700252391E+02  0.20261305806E+02  0.00000000000E+00 0. -1.
</event>
<event>
 8    1  0.2962813E-009  0.9118800E+02  0.7816164E-02  0.1184000E+00
        -11   -1    0    0    0    0  0.00000000000E+00  0.00000000000E+00  0.45593999997E+02  0.45594000000E+02  0.51100000000E-03 0. -1.
         11   -1    0    0    0    0 -0.00000000000E+00 -0.00000000000E+00 -0.45593999997E+02  0.45594000000E+02  0.51100000000E-03 0.  1.
         23    2    1    2    0    0  0.00000000000E+00  0.00000000000E+00  0.00000000000E+00  0.91188000000E+02  0.91188000000E+02 0.  0.
    9900012    2    3    3    0    0 -0.17513736066E+02 -0.79986225048E+01  0.40723513261E+02  0.46142318240E+02  0.10000004364E+02 0.  0.
        -12    1    3    3    0    0  0.17513736066E+02  0.79986225048E+01 -0.40723513261E+02  0.45045681760E+02  0.00000000000E+00 0.  1.
         11    1    4    4    0    0 -0.87641995442E+01 -0.32694037451E+01  0.17342643193E+02  0.19704503741E+02  0.51100000000E-03 0. -1.
        -11    1    4    4    0    0 -0.88603157788E+01 -0.42775480274E+01  0.14373140457E+02  0.17418087716E+02  0.51100000000E-03 0.  1.
        -12    1    4    4    0    0  0.11077925673E+00 -0.45167073229E+00  0.90077296112E+01  0.90197267831E+01  0.00000000000E+00 0.  1.
</event>
<event>
 8    1  0.2962813E-009  0.9118800E+02  0.7816164E-02  0.1184000E+00
        -11   -1    0    0    0    0  0.00000000000E+00  0.00000000000E+00  0.45593999997E+02  0.45594000000E+02  0.51100000000E-03 0. -1.
         11   -1    0    0    0    0 -0.00000000000E+00 -0.00000000000E+00 -0.45593999997E+02  0.45594000000E+02  0.51100000000E-03 0.  1.
         23    2    1    2    0    0  0.88817841970E-15 -0.88817841970E-15 -0.71054273576E-14  0.91188000000E+02  0.91188000000E+02 0.  0.
    9900012    2    3    3    0    0  0.74632570025E+01 -0.62574855632E+01 -0.43980176426E+02  0.46142331516E+02  0.10000125430E+02 0.  0.
         12    1    3    3    0    0 -0.74632570025E+01  0.62574855632E+01  0.43980176426E+02  0.45045668484E+02  0.00000000000E+00 0. -1.
         11    1    4    4    0    0 -0.49962732345E+00 -0.71404501373E-01 -0.13699723439E+02  0.13709017056E+02  0.51100000000E-03 0. -1.
        -11    1    4    4    0    0  0.25223040007E+01 -0.37445630785E+01 -0.20392802680E+02  0.20886602680E+02  0.51100000000E-03 0.  1.
         12    1    4    4    0    0  0.54405803253E+01 -0.24415179833E+01 -0.98876503075E+01  0.11546711780E+02  0.00000000000E+00 0. -1.
</event>
<event>
 8    1  0.2962813E-009  0.9118800E+02  0.7816164E-02  0.1184000E+00
        -11   -1    0    0    0    0  0.00000000000E+00  0.00000000000E+00  0.45593999997E+02  0.45594000000E+02  0.51100000000E-03 0. -1.
         11   -1    0    0    0    0 -0.00000000000E+00 -0.00000000000E+00 -0.45593999997E+02  0.45594000000E+02  0.51100000000E-03 0.  1.
         23    2    1    2    0    0  0.00000000000E+00  0.00000000000E+00  0.71054273576E-14  0.91188000000E+02  0.91188000000E+02 0.  0.
    9900012    2    3    3    0    0 -0.15960880894E+02 -0.11524192987E+02  0.40516124780E+02  0.46142321960E+02  0.10000038284E+02 0.  0.
        -12    1    3    3    0    0  0.15960880894E+02  0.11524192987E+02 -0.40516124780E+02  0.45045678040E+02  0.00000000000E+00 0.  1.
         11    1    4    4    0    0  0.15898036481E+00 -0.22404334507E+01  0.47295880272E+01  0.52358208498E+01  0.51100000000E-03 0. -1.
        -11    1    4    4    0    0 -0.12073024951E+02 -0.80453712649E+01  0.20985397913E+02  0.25512209942E+02  0.51100000000E-03 0.  1.
         12    1    4    4    0    0 -0.40468363077E+01 -0.12383882711E+01  0.14801138840E+02  0.15394291168E+02  0.00000000000E+00 0. -1.
</event>
<event>
 8    1  0.2962813E-009  0.9118800E+02  0.7816164E-02  0.1184000E+00
        -11   -1    0    0    0    0  0.00000000000E+00  0.00000000000E+00  0.45593999997E+02  0.45594000000E+02  0.51100000000E-03 0. -1.
         11   -1    0    0    0    0 -0.00000000000E+00 -0.00000000000E+00 -0.45593999997E+02  0.45594000000E+02  0.51100000000E-03 0.  1.
         23    2    1    2    0    0  0.00000000000E+00  0.00000000000E+00  0.00000000000E+00  0.91188000000E+02  0.91188000000E+02 0.  0.
    9900012    2    3    3    0    0 -0.35998686274E+02  0.22342361002E+02  0.15297966048E+02  0.46142309043E+02  0.99999205005E+01 0.  0.
        -12    1    3    3    0    0  0.35998686274E+02 -0.22342361002E+02 -0.15297966048E+02  0.45045690957E+02  0.00000000000E+00 0.  1.
         11    1    4    4    0    0 -0.15096392828E+02  0.82336542939E+01  0.35787468707E+01  0.17564212731E+02  0.51100000000E-03 0. -1.
        -11    1    4    4    0    0 -0.21318305429E+02  0.14156168376E+02  0.11748460327E+02  0.28158365893E+02  0.51100000000E-03 0.  1.
        -12    1    4    4    0    0  0.41601198262E+00 -0.47461667975E-01 -0.29241149613E-01  0.41973041877E+00  0.00000000000E+00 0.  1.
</event>
<event>
 8    1  0.2962813E-009  0.9118800E+02  0.7816164E-02  0.1184000E+00
        -11   -1    0    0    0    0  0.00000000000E+00  0.00000000000E+00  0.45593999997E+02  0.45594000000E+02  0.51100000000E-03 0. -1.
         11   -1    0    0    0    0 -0.00000000000E+00 -0.00000000000E+00 -0.45593999997E+02  0.45594000000E+02  0.51100000000E-03 0.  1.
         23    2    1    2    0    0  0.00000000000E+00  0.00000000000E+00  0.00000000000E+00  0.91188000000E+02  0.91188000000E+02 0.  0.
    9900012    2    3    3    0    0 -0.12678992611E+02  0.11558287707E+02 -0.41650482425E+02  0.46142317026E+02  0.99999932993E+01 0.  0.
         12    1    3    3    0    0  0.12678992611E+02 -0.11558287707E+02  0.41650482425E+02  0.45045682974E+02  0.00000000000E+00 0. -1.
         11    1    4    4    0    0 -0.29078991035E+01  0.91553369974E+01 -0.19242799619E+02  0.21507240878E+02  0.51100000000E-03 0. -1.
        -11    1    4    4    0    0 -0.30850288933E+01  0.11600337587E+01 -0.93265429241E+01  0.98917887548E+01  0.51100000000E-03 0.  1.
         12    1    4    4    0    0 -0.66860646143E+01  0.12429169512E+01 -0.13081139881E+02  0.14743287394E+02  0.00000000000E+00 0. -1.
</event>
<event>
 8    1  0.5969629E-009  0.9118800E+02  0.7816164E-02  0.1184000E+00
        -11   -1    0    0    0    0  0.00000000000E+00  0.00000000000E+00  0.45593999997E+02  0.45594000000E+02  0.51100000000E-03 0. -1.
         11   -1    0    0    0    0 -0.00000000000E+00 -0.00000000000E+00 -0.45593999997E+02  0.45594000000E+02  0.51100000000E-03 0.  1.
         23    2    1    2    0    0  0.00000000000E+00  0.17763568394E-14  0.00000000000E+00  0.91188000000E+02  0.91188000000E+02 0.  0.
    9900012    2    3    3    0    0 -0.21383916101E+02 -0.13891590205E+02 -0.37133080626E+02  0.46142314046E+02  0.99999661266E+01 0.  0.
         12    1    3    3    0    0  0.21383916101E+02  0.13891590205E+02  0.37133080626E+02  0.45045685954E+02  0.00000000000E+00 0. -1.
         11    1    4    4    0    0 -0.29508137993E+00 -0.25313348168E+00  0.37732640842E+00  0.54177953074E+00  0.51100000000E-03 0. -1.
        -11    1    4    4    0    0 -0.18998633034E+02 -0.12581301390E+02 -0.36544920084E+02  0.43067022024E+02  0.51100000000E-03 0.  1.
        -12    1    4    4    0    0 -0.20902016872E+01 -0.10571553337E+01 -0.96548695010E+00  0.25335124913E+01  0.00000000000E+00 0.  1.
</event>
<event>
 8    1  0.2962813E-009  0.9118800E+02  0.7816164E-02  0.1184000E+00
        -11   -1    0    0    0    0  0.00000000000E+00  0.00000000000E+00  0.45593999997E+02  0.45594000000E+02  0.51100000000E-03 0. -1.
         11   -1    0    0    0    0 -0.00000000000E+00 -0.00000000000E+00 -0.45593999997E+02  0.45594000000E+02  0.51100000000E-03 0.  1.
         23    2    1    2    0    0 -0.71054273576E-14 -0.71054273576E-14 -0.35527136788E-14  0.91188000000E+02  0.91188000000E+02 0.  0.
    9900012    2    3    3    0    0 -0.25696709119E+02 -0.19449701070E+02 -0.31472236646E+02  0.46142318622E+02  0.10000007849E+02 0.  0.
         12    1    3    3    0    0  0.25696709119E+02  0.19449701070E+02  0.31472236646E+02  0.45045681378E+02  0.00000000000E+00 0. -1.
         11    1    4    4    0    0 -0.34962830149E+01 -0.33593181192E+01 -0.81084036993E+01  0.94474982910E+01  0.51100000000E-03 0. -1.
        -11    1    4    4    0    0 -0.22405541487E+02 -0.14658576808E+02 -0.22704456003E+02  0.35105191725E+02  0.51100000000E-03 0.  1.
        -12    1    4    4    0    0  0.20511538251E+00 -0.14318061432E+01 -0.65937694402E+00  0.15896286064E+01  0.00000000000E+00 0.  1.
</event>
<event>
 8    1  0.2962813E-009  0.9118800E+02  0.7816164E-02  0.1184000E+00
        -11   -1    0    0    0    0  0.00000000000E+00  0.00000000000E+00  0.45593999997E+02  0.45594000000E+02  0.51100000000E-03 0. -1.
         11   -1    0    0    0    0 -0.00000000000E+00 -0.00000000000E+00 -0.45593999997E+02  0.45594000000E+02  0.51100000000E-03 0.  1.
         23    2    1    2    0    0  0.00000000000E+00 -0.35527136788E-14  0.71054273576E-14  0.91188000000E+02  0.91188000000E+02 0.  0.
    9900012    2    3    3    0    0 -0.86648715784E+01 -0.18427232827E+02  0.40180474784E+02  0.46142318043E+02  0.10000002567E+02 0.  0.
        -12    1    3    3    0    0  0.86648715784E+01  0.18427232827E+02 -0.40180474784E+02  0.45045681957E+02  0.00000000000E+00 0.  1.
         11    1    4    4    0    0 -0.50817559303E+01 -0.14910417477E+02  0.27772365510E+02  0.31928812677E+02  0.51100000000E-03 0. -1.
        -11    1    4    4    0    0 -0.39817490496E+00  0.56232527839E+00  0.56979475720E+01  0.57394564000E+01  0.51100000000E-03 0.  1.
        -12    1    4    4    0    0 -0.31849407432E+01 -0.40791406287E+01  0.67101617022E+01  0.84740489658E+01  0.00000000000E+00 0.  1.
</event>
<event>
 8    1  0.2962813E-009  0.9118800E+02  0.7816164E-02  0.1184000E+00
        -11   -1    0    0    0    0  0.00000000000E+00  0.00000000000E+00  0.45593999997E+02  0.45594000000E+02  0.51100000000E-03 0.  1.
         11   -1    0    0    0    0 -0.00000000000E+00 -0.00000000000E+00 -0.45593999997E+02  0.45594000000E+02  0.51100000000E-03 0. -1.
         23    2    1    2    0    0 -0.35527136788E-14  0.35527136788E-14  0.00000000000E+00  0.91188000000E+02  0.91188000000E+02 0.  0.
    9900012    2    3    3    0    0  0.26786015287E+02 -0.29845658481E+02  0.20514859981E+02  0.46142318463E+02  0.10000006397E+02 0.  0.
        -12    1    3    3    0    0 -0.26786015287E+02  0.29845658481E+02 -0.20514859981E+02  0.45045681537E+02  0.00000000000E+00 0.  1.
         11    1    4    4    0    0  0.30145571227E+01 -0.19956407599E+01  0.34628911027E+01  0.50061713653E+01  0.51100000000E-03 0. -1.
        -11    1    4    4    0    0  0.10362908004E+02 -0.17810784239E+02  0.10729898048E+02  0.23232404307E+02  0.51100000000E-03 0.  1.
        -12    1    4    4    0    0  0.13408550161E+02 -0.10039233482E+02  0.63220708304E+01  0.17903742791E+02  0.00000000000E+00 0.  1.
</event>
<event>
 8    1  0.2962813E-009  0.9118800E+02  0.7816164E-02  0.1184000E+00
        -11   -1    0    0    0    0  0.00000000000E+00  0.00000000000E+00  0.45593999997E+02  0.45594000000E+02  0.51100000000E-03 0. -1.
         11   -1    0    0    0    0 -0.00000000000E+00 -0.00000000000E+00 -0.45593999997E+02  0.45594000000E+02  0.51100000000E-03 0.  1.
         23    2    1    2    0    0  0.00000000000E+00  0.00000000000E+00  0.00000000000E+00  0.91188000000E+02  0.91188000000E+02 0.  0.
    9900012    2    3    3    0    0 -0.34542329378E+02 -0.18234001035E+02  0.22437962583E+02  0.46142317882E+02  0.10000001104E+02 0.  0.
        -12    1    3    3    0    0  0.34542329378E+02  0.18234001035E+02 -0.22437962583E+02  0.45045682118E+02  0.00000000000E+00 0.  1.
         11    1    4    4    0    0 -0.20601892346E+02 -0.11528986756E+02  0.89017181289E+01  0.25230855907E+02  0.51100000000E-03 0. -1.
        -11    1    4    4    0    0 -0.85159933461E+01 -0.20213664377E+01  0.69201196520E+01  0.11157782988E+02  0.51100000000E-03 0.  1.
        -12    1    4    4    0    0 -0.54244436851E+01 -0.46836478415E+01  0.66161248021E+01  0.97536789876E+01  0.00000000000E+00 0.  1.
</event>
<event>
 8    1  0.2962813E-009  0.9118800E+02  0.7816164E-02  0.1184000E+00
        -11   -1    0    0    0    0  0.00000000000E+00  0.00000000000E+00  0.45593999997E+02  0.45594000000E+02  0.51100000000E-03 0. -1.
         11   -1    0    0    0    0 -0.00000000000E+00 -0.00000000000E+00 -0.45593999997E+02  0.45594000000E+02  0.51100000000E-03 0.  1.
         23    2    1    2    0    0  0.35527136788E-14  0.00000000000E+00  0.00000000000E+00  0.91188000000E+02  0.91188000000E+02 0.  0.
    9900012    2    3    3    0    0  0.23330740920E+02  0.33352304340E+02  0.19298020640E+02  0.46142320104E+02  0.10000021361E+02 0.  0.
        -12    1    3    3    0    0 -0.23330740920E+02 -0.33352304340E+02 -0.19298020640E+02  0.45045679896E+02  0.00000000000E+00 0.  1.
         11    1    4    4    0    0  0.26925068982E+00  0.31568630534E+00 -0.14177925326E+00  0.43846937763E+00  0.51100000000E-03 0.  1.
        -11    1    4    4    0    0  0.19383436331E+02  0.24076237387E+02  0.10851571894E+02  0.32758806808E+02  0.51100000000E-03 0. -1.
        -12    1    4    4    0    0  0.36780538995E+01  0.89603806486E+01  0.85882279994E+01  0.12945043917E+02  0.00000000000E+00 0.  1.
</event>
<event>
 8    1  0.3928881E-009  0.9118800E+02  0.7816164E-02  0.1184000E+00
        -11   -1    0    0    0    0  0.00000000000E+00  0.00000000000E+00  0.45593999997E+02  0.45594000000E+02  0.51100000000E-03 0. -1.
         11   -1    0    0    0    0 -0.00000000000E+00 -0.00000000000E+00 -0.45593999997E+02  0.45594000000E+02  0.51100000000E-03 0.  1.
         23    2    1    2    0    0  0.00000000000E+00  0.00000000000E+00  0.71054273576E-14  0.91188000000E+02  0.91188000000E+02 0.  0.
    9900012    2    3    3    0    0 -0.14803786388E+02 -0.14674886224E+02 -0.39932557108E+02  0.46142317695E+02  0.99999993995E+01 0.  0.
         12    1    3    3    0    0  0.14803786388E+02  0.14674886224E+02  0.39932557108E+02  0.45045682305E+02  0.00000000000E+00 0. -1.
         11    1    4    4    0    0 -0.23959600586E+00 -0.19234472763E+01 -0.65070831993E+01  0.67896382595E+01  0.51100000000E-03 0. -1.
        -11    1    4    4    0    0 -0.12140899054E+02 -0.11138918968E+02 -0.21558004867E+02  0.27133457571E+02  0.51100000000E-03 0.  1.
        -12    1    4    4    0    0 -0.24232913283E+01 -0.16125199805E+01 -0.11867469041E+02  0.12219221865E+02  0.00000000000E+00 0.  1.
</event>
<event>
 8    1  0.2962813E-009  0.9118800E+02  0.7816164E-02  0.1184000E+00
        -11   -1    0    0    0    0  0.00000000000E+00  0.00000000000E+00  0.45593999997E+02  0.45594000000E+02  0.51100000000E-03 0. -1.
         11   -1    0    0    0    0 -0.00000000000E+00 -0.00000000000E+00 -0.45593999997E+02  0.45594000000E+02  0.51100000000E-03 0.  1.
         23    2    1    2    0    0  0.00000000000E+00  0.35527136788E-14  0.00000000000E+00  0.91188000000E+02  0.91188000000E+02 0.  0.
    9900012    2    3    3    0    0 -0.10489193064E+02  0.29026147569E+02 -0.32811173469E+02  0.46142317429E+02  0.99999969747E+01 0.  0.
         12    1    3    3    0    0  0.10489193064E+02 -0.29026147569E+02  0.32811173469E+02  0.45045682571E+02  0.00000000000E+00 0. -1.
         11    1    4    4    0    0 -0.98066753477E+01  0.17744265557E+02 -0.19609128045E+02  0.28205455935E+02  0.51100000000E-03 0. -1.
        -11    1    4    4    0    0 -0.48141173949E+00  0.11545462992E+02 -0.13272441046E+02  0.17597930689E+02  0.51100000000E-03 0.  1.
        -12    1    4    4    0    0 -0.20110597723E+00 -0.26358097979E+00  0.70395622648E-01  0.33893080514E+00  0.00000000000E+00 0.  1.
</event>
<event>
 8    1  0.2962813E-009  0.9118800E+02  0.7816164E-02  0.1184000E+00
        -11   -1    0    0    0    0  0.00000000000E+00  0.00000000000E+00  0.45593999997E+02  0.45594000000E+02  0.51100000000E-03 0.  1.
         11   -1    0    0    0    0 -0.00000000000E+00 -0.00000000000E+00 -0.45593999997E+02  0.45594000000E+02  0.51100000000E-03 0. -1.
         23    2    1    2    0    0 -0.35527136788E-14 -0.71054273576E-14  0.17763568394E-14  0.91188000000E+02  0.91188000000E+02 0.  0.
    9900012    2    3    3    0    0 -0.29022651780E+02 -0.33676123110E+02  0.72607099736E+01  0.46142317706E+02  0.99999994936E+01 0.  0.
        -12    1    3    3    0    0  0.29022651780E+02  0.33676123110E+02 -0.72607099736E+01  0.45045682294E+02  0.00000000000E+00 0.  1.
         11    1    4    4    0    0 -0.18767070301E+02 -0.16353088877E+02  0.53075020704E+01  0.25451837301E+02  0.51100000000E-03 0. -1.
        -11    1    4    4    0    0 -0.13601740777E+01 -0.62339966673E+01  0.71712200307E+00  0.64208295569E+01  0.51100000000E-03 0.  1.
        -12    1    4    4    0    0 -0.88954074007E+01 -0.11089037566E+02  0.12360859001E+01  0.14269650848E+02  0.00000000000E+00 0.  1.
</event>
<event>
 8    1  0.2962813E-009  0.9118800E+02  0.7816164E-02  0.1184000E+00
        -11   -1    0    0    0    0  0.00000000000E+00  0.00000000000E+00  0.45593999997E+02  0.45594000000E+02  0.51100000000E-03 0. -1.
         11   -1    0    0    0    0 -0.00000000000E+00 -0.00000000000E+00 -0.45593999997E+02  0.45594000000E+02  0.51100000000E-03 0.  1.
         23    2    1    2    0    0 -0.17763568394E-14  0.35527136788E-14  0.35527136788E-14  0.91188000000E+02  0.91188000000E+02 0.  0.
    9900012    2    3    3    0    0 -0.14560158199E+02 -0.31363629640E+02 -0.28869325280E+02  0.46142318596E+02  0.10000007613E+02 0.  0.
         12    1    3    3    0    0  0.14560158199E+02  0.31363629640E+02  0.28869325280E+02  0.45045681404E+02  0.00000000000E+00 0. -1.
         11    1    4    4    0    0 -0.10187150450E+01 -0.52672849377E+01 -0.15538481048E+01  0.55853840648E+01  0.51100000000E-03 0. -1.
        -11    1    4    4    0    0 -0.12332538220E+02 -0.18923957960E+02 -0.19065359416E+02  0.29558342541E+02  0.51100000000E-03 0.  1.
        -12    1    4    4    0    0 -0.12089049337E+01 -0.71723867430E+01 -0.82501177593E+01  0.10998591990E+02  0.00000000000E+00 0.  1.
</event>
<event>
 8    1  0.2962813E-009  0.9118800E+02  0.7816164E-02  0.1184000E+00
        -11   -1    0    0    0    0  0.00000000000E+00  0.00000000000E+00  0.45593999997E+02  0.45594000000E+02  0.51100000000E-03 0. -1.
         11   -1    0    0    0    0 -0.00000000000E+00 -0.00000000000E+00 -0.45593999997E+02  0.45594000000E+02  0.51100000000E-03 0.  1.
         23    2    1    2    0    0  0.00000000000E+00  0.00000000000E+00  0.00000000000E+00  0.91188000000E+02  0.91188000000E+02 0.  0.
    9900012    2    3    3    0    0  0.12943016873E+02 -0.52565221074E+01 -0.42824768314E+02  0.46142317725E+02  0.99999996713E+01 0.  0.
         12    1    3    3    0    0 -0.12943016873E+02  0.52565221074E+01  0.42824768314E+02  0.45045682275E+02  0.00000000000E+00 0. -1.
         11    1    4    4    0    0 -0.18973975436E+00 -0.67989801025E-01 -0.52706352048E-01  0.20833148609E+00  0.51100000000E-03 0. -1.
        -11    1    4    4    0    0  0.62324757971E+01 -0.50755782768E+01 -0.12322898725E+02  0.14712548476E+02  0.51100000000E-03 0.  1.
        -12    1    4    4    0    0  0.69002808300E+01 -0.11295402954E+00 -0.30449163237E+02  0.31221437763E+02  0.00000000000E+00 0.  1.
</event>
<event>
 8    1  0.2962813E-009  0.9118800E+02  0.7816164E-02  0.1184000E+00
        -11   -1    0    0    0    0  0.00000000000E+00  0.00000000000E+00  0.45593999997E+02  0.45594000000E+02  0.51100000000E-03 0. -1.
         11   -1    0    0    0    0 -0.00000000000E+00 -0.00000000000E+00 -0.45593999997E+02  0.45594000000E+02  0.51100000000E-03 0.  1.
         23    2    1    2    0    0  0.00000000000E+00  0.00000000000E+00  0.71054273576E-14  0.91188000000E+02  0.91188000000E+02 0.  0.
    9900012    2    3    3    0    0  0.95540575047E+01  0.20190592841E+02 -0.39117431208E+02  0.46142317872E+02  0.10000001013E+02 0.  0.
         12    1    3    3    0    0 -0.95540575047E+01 -0.20190592841E+02  0.39117431208E+02  0.45045682128E+02  0.00000000000E+00 0. -1.
         11    1    4    4    0    0  0.37796470526E+01  0.28360289350E+01 -0.61167349085E+01  0.77293750177E+01  0.51100000000E-03 0.  1.
        -11    1    4    4    0    0  0.32963312941E+01  0.74680898644E+01 -0.21752708974E+02  0.23233994797E+02  0.51100000000E-03 0. -1.
         12    1    4    4    0    0  0.24780791579E+01  0.98864740412E+01 -0.11247987325E+02  0.15178948058E+02  0.00000000000E+00 0. -1.
</event>
<event>
 8    1  0.2962813E-009  0.9118800E+02  0.7816164E-02  0.1184000E+00
        -11   -1    0    0    0    0  0.00000000000E+00  0.00000000000E+00  0.45593999997E+02  0.45594000000E+02  0.51100000000E-03 0.  1.
         11   -1    0    0    0    0 -0.00000000000E+00 -0.00000000000E+00 -0.45593999997E+02  0.45594000000E+02  0.51100000000E-03 0. -1.
         23    2    1    2    0    0  0.00000000000E+00 -0.35527136788E-14 -0.88817841970E-15  0.91188000000E+02  0.91188000000E+02 0.  0.
    9900012    2    3    3    0    0  0.40243174115E+02 -0.19476593962E+02 -0.55011570462E+01  0.46142317587E+02  0.99999984097E+01 0.  0.
        -12    1    3    3    0    0 -0.40243174115E+02  0.19476593962E+02  0.55011570462E+01  0.45045682413E+02  0.00000000000E+00 0.  1.
         11    1    4    4    0    0  0.16173046795E+02 -0.56939933249E+01 -0.66208046411E+01  0.18379990669E+02  0.51100000000E-03 0. -1.
        -11    1    4    4    0    0  0.20279511564E+02 -0.11489662189E+02  0.10431642094E+01  0.23331504845E+02  0.51100000000E-03 0.  1.
         12    1    4    4    0    0  0.37906157560E+01 -0.22929384480E+01  0.76483385533E-01  0.44308220732E+01  0.00000000000E+00 0. -1.
</event>
<event>
 8    1  0.2962813E-009  0.9118800E+02  0.7816164E-02  0.1184000E+00
        -11   -1    0    0    0    0  0.00000000000E+00  0.00000000000E+00  0.45593999997E+02  0.45594000000E+02  0.51100000000E-03 0.  1.
         11   -1    0    0    0    0 -0.00000000000E+00 -0.00000000000E+00 -0.45593999997E+02  0.45594000000E+02  0.51100000000E-03 0. -1.
         23    2    1    2    0    0  0.35527136788E-14  0.00000000000E+00  0.17763568394E-14  0.91188000000E+02  0.91188000000E+02 0.  0.
    9900012    2    3    3    0    0  0.26549707680E+02 -0.33948404448E+02  0.13104651006E+02  0.46142322955E+02  0.10000047361E+02 0.  0.
        -12    1    3    3    0    0 -0.26549707680E+02  0.33948404448E+02 -0.13104651006E+02  0.45045677045E+02  0.00000000000E+00 0.  1.
         11    1    4    4    0    0  0.15811399314E+02 -0.25541222782E+02  0.68336443228E+01  0.30806705511E+02  0.51100000000E-03 0. -1.
        -11    1    4    4    0    0  0.90871707950E+01 -0.83107701840E+01  0.58247110793E+01  0.13622512012E+02  0.51100000000E-03 0.  1.
         12    1    4    4    0    0  0.16511375710E+01 -0.96411481863E-01  0.44629560429E+00  0.17131054312E+01  0.00000000000E+00 0. -1.
</event>
<event>
 8    1  0.2962813E-009  0.9118800E+02  0.7816164E-02  0.1184000E+00
        -11   -1    0    0    0    0  0.00000000000E+00  0.00000000000E+00  0.45593999997E+02  0.45594000000E+02  0.51100000000E-03 0.  1.
         11   -1    0    0    0    0 -0.00000000000E+00 -0.00000000000E+00 -0.45593999997E+02  0.45594000000E+02  0.51100000000E-03 0. -1.
         23    2    1    2    0    0  0.22204460493E-15  0.00000000000E+00  0.17763568394E-14  0.91188000000E+02  0.91188000000E+02 0.  0.
    9900012    2    3    3    0    0 -0.60113732225E+00 -0.42622728859E+02  0.14562110976E+02  0.46142318103E+02  0.10000003117E+02 0.  0.
        -12    1    3    3    0    0  0.60113732225E+00  0.42622728859E+02 -0.14562110976E+02  0.45045681897E+02  0.00000000000E+00 0.  1.
         11    1    4    4    0    0 -0.13419002230E+01 -0.23505114068E+02  0.80014606702E+01  0.24865929637E+02  0.51100000000E-03 0. -1.
        -11    1    4    4    0    0 -0.27790780876E+01 -0.60143538518E+01  0.14810243937E+01  0.67888998215E+01  0.51100000000E-03 0.  1.
        -12    1    4    4    0    0  0.35198409883E+01 -0.13103260939E+02  0.50796259119E+01  0.14487488645E+02  0.00000000000E+00 0.  1.
</event>
<event>
 8    1  0.2962813E-009  0.9118800E+02  0.7816164E-02  0.1184000E+00
        -11   -1    0    0    0    0  0.00000000000E+00  0.00000000000E+00  0.45593999997E+02  0.45594000000E+02  0.51100000000E-03 0. -1.
         11   -1    0    0    0    0 -0.00000000000E+00 -0.00000000000E+00 -0.45593999997E+02  0.45594000000E+02  0.51100000000E-03 0.  1.
         23    2    1    2    0    0 -0.22204460493E-15  0.00000000000E+00  0.00000000000E+00  0.91188000000E+02  0.91188000000E+02 0.  0.
    9900012    2    3    3    0    0  0.54751497700E+00  0.69559936384E+01  0.44501998528E+02  0.46142317708E+02  0.99999995181E+01 0.  0.
        -12    1    3    3    0    0 -0.54751497700E+00 -0.69559936384E+01 -0.44501998528E+02  0.45045682292E+02  0.00000000000E+00 0.  1.
         11    1    4    4    0    0 -0.23384822811E+01  0.35169957595E+00  0.40601090957E+01  0.46985825629E+01  0.51100000000E-03 0. -1.
        -11    1    4    4    0    0 -0.45423885813E+00  0.11523588831E+00  0.14395204467E+00  0.49023943383E+00  0.51100000000E-03 0.  1.
         12    1    4    4    0    0  0.33402361162E+01  0.64890581741E+01  0.40297937388E+02  0.40953495712E+02  0.00000000000E+00 0. -1.
</event>
<event>
 8    1  0.2962813E-009  0.9118800E+02  0.7816164E-02  0.1184000E+00
        -11   -1    0    0    0    0  0.00000000000E+00  0.00000000000E+00  0.45593999997E+02  0.45594000000E+02  0.51100000000E-03 0. -1.
         11   -1    0    0    0    0 -0.00000000000E+00 -0.00000000000E+00 -0.45593999997E+02  0.45594000000E+02  0.51100000000E-03 0.  1.
         23    2    1    2    0    0  0.35527136788E-14  0.71054273576E-14 -0.55511151231E-16  0.91188000000E+02  0.91188000000E+02 0.  0.
    9900012    2    3    3    0    0 -0.25024792202E+02 -0.37454674226E+02  0.14450555364E+00  0.46142315101E+02  0.99999757471E+01 0.  0.
        -12    1    3    3    0    0  0.25024792202E+02  0.37454674226E+02 -0.14450555364E+00  0.45045684899E+02  0.00000000000E+00 0.  1.
         11    1    4    4    0    0 -0.12564761722E+02 -0.17933621390E+02 -0.17365512170E+00  0.21897903317E+02  0.51100000000E-03 0. -1.
        -11    1    4    4    0    0 -0.47748917789E+01 -0.13384542242E+02 -0.13294840773E+01  0.14272809489E+02  0.51100000000E-03 0.  1.
        -12    1    4    4    0    0 -0.76851387007E+01 -0.61365105933E+01  0.16476447526E+01  0.99716022956E+01  0.00000000000E+00 0.  1.
</event>
<event>
 8    1  0.2962813E-009  0.9118800E+02  0.7816164E-02  0.1184000E+00
        -11   -1    0    0    0    0  0.00000000000E+00  0.00000000000E+00  0.45593999997E+02  0.45594000000E+02  0.51100000000E-03 0. -1.
         11   -1    0    0    0    0 -0.00000000000E+00 -0.00000000000E+00 -0.45593999997E+02  0.45594000000E+02  0.51100000000E-03 0.  1.
         23    2    1    2    0    0 -0.71054273576E-14  0.00000000000E+00  0.00000000000E+00  0.91188000000E+02  0.91188000000E+02 0.  0.
    9900012    2    3    3    0    0  0.37343024646E+02  0.13580369993E+02  0.21217607087E+02  0.46142303320E+02  0.99998683140E+01 0.  0.
        -12    1    3    3    0    0 -0.37343024646E+02 -0.13580369993E+02 -0.21217607087E+02  0.45045696680E+02  0.00000000000E+00 0.  1.
         11    1    4    4    0    0  0.13094368926E+02  0.44912998680E+01  0.58745432369E+01  0.15038102625E+02  0.51100000000E-03 0. -1.
        -11    1    4    4    0    0 -0.32665650103E-01 -0.79309983807E+00  0.79202690396E+00  0.11213301367E+01  0.51100000000E-03 0.  1.
        -12    1    4    4    0    0  0.24281321371E+02  0.98821699629E+01  0.14551036946E+02  0.29982870558E+02  0.00000000000E+00 0.  1.
</event>
<event>
 8    1  0.2962813E-009  0.9118800E+02  0.7816164E-02  0.1184000E+00
        -11   -1    0    0    0    0  0.00000000000E+00  0.00000000000E+00  0.45593999997E+02  0.45594000000E+02  0.51100000000E-03 0. -1.
         11   -1    0    0    0    0 -0.00000000000E+00 -0.00000000000E+00 -0.45593999997E+02  0.45594000000E+02  0.51100000000E-03 0.  1.
         23    2    1    2    0    0 -0.71054273576E-14 -0.35527136788E-14  0.00000000000E+00  0.91188000000E+02  0.91188000000E+02 0.  0.
    9900012    2    3    3    0    0 -0.28623819278E+02 -0.26686832667E+02 -0.22307022026E+02  0.46142319857E+02  0.10000019114E+02 0.  0.
         12    1    3    3    0    0  0.28623819278E+02  0.26686832667E+02  0.22307022026E+02  0.45045680143E+02  0.00000000000E+00 0. -1.
         11    1    4    4    0    0 -0.26519074310E+01 -0.31002584325E+01 -0.70627161959E-01  0.40803435919E+01  0.51100000000E-03 0. -1.
        -11    1    4    4    0    0 -0.24279181115E+02 -0.23289017842E+02 -0.19664186438E+02  0.38968413057E+02  0.51100000000E-03 0.  1.
         12    1    4    4    0    0 -0.16927307327E+01 -0.29755639238E+00 -0.25722084254E+01  0.30935632083E+01  0.00000000000E+00 0. -1.
</event>
<event>
 8    1  0.2962813E-009  0.9118800E+02  0.7816164E-02  0.1184000E+00
        -11   -1    0    0    0    0  0.00000000000E+00  0.00000000000E+00  0.45593999997E+02  0.45594000000E+02  0.51100000000E-03 0. -1.
         11   -1    0    0    0    0 -0.00000000000E+00 -0.00000000000E+00 -0.45593999997E+02  0.45594000000E+02  0.51100000000E-03 0.  1.
         23    2    1    2    0    0  0.00000000000E+00 -0.35527136788E-14  0.00000000000E+00  0.91188000000E+02  0.91188000000E+02 0.  0.
    9900012    2    3    3    0    0  0.21226479549E+02  0.22117053945E+02  0.33005846147E+02  0.46142318862E+02  0.10000010039E+02 0.  0.
        -12    1    3    3    0    0 -0.21226479549E+02 -0.22117053945E+02 -0.33005846147E+02  0.45045681138E+02  0.00000000000E+00 0.  1.
         11    1    4    4    0    0  0.17135637480E+02  0.20768084580E+02  0.25781227602E+02  0.37277541576E+02  0.51100000000E-03 0. -1.
        -11    1    4    4    0    0  0.31793619544E+01  0.14162628246E+01  0.31678105788E+01  0.47062901472E+01  0.51100000000E-03 0.  1.
         12    1    4    4    0    0  0.91148011459E+00 -0.67293459735E-01  0.40568079661E+01  0.41584871387E+01  0.00000000000E+00 0. -1.
</event>
<event>
 8    1  0.2962813E-009  0.9118800E+02  0.7816164E-02  0.1184000E+00
        -11   -1    0    0    0    0  0.00000000000E+00  0.00000000000E+00  0.45593999997E+02  0.45594000000E+02  0.51100000000E-03 0. -1.
         11   -1    0    0    0    0 -0.00000000000E+00 -0.00000000000E+00 -0.45593999997E+02  0.45594000000E+02  0.51100000000E-03 0.  1.
         23    2    1    2    0    0  0.88817841970E-15  0.00000000000E+00  0.00000000000E+00  0.91188000000E+02  0.91188000000E+02 0.  0.
    9900012    2    3    3    0    0 -0.48086377058E+01  0.14352435763E+01 -0.44765283321E+02  0.46142317504E+02  0.99999976536E+01 0.  0.
         12    1    3    3    0    0  0.48086377058E+01 -0.14352435763E+01  0.44765283321E+02  0.45045682496E+02  0.00000000000E+00 0. -1.
         11    1    4    4    0    0 -0.10154341267E+01 -0.90432746156E+00 -0.15887410619E+02  0.15945492500E+02  0.51100000000E-03 0. -1.
        -11    1    4    4    0    0 -0.42213511740E+00  0.26083560030E+01 -0.26163860451E+01  0.37184936861E+01  0.51100000000E-03 0.  1.
        -12    1    4    4    0    0 -0.33710684618E+01 -0.26878496514E+00 -0.26261486657E+02  0.26478331318E+02  0.00000000000E+00 0.  1.
</event>
<event>
 8    1  0.2962813E-009  0.9118800E+02  0.7816164E-02  0.1184000E+00
        -11   -1    0    0    0    0  0.00000000000E+00  0.00000000000E+00  0.45593999997E+02  0.45594000000E+02  0.51100000000E-03 0. -1.
         11   -1    0    0    0    0 -0.00000000000E+00 -0.00000000000E+00 -0.45593999997E+02  0.45594000000E+02  0.51100000000E-03 0.  1.
         23    2    1    2    0    0  0.35527136788E-14  0.00000000000E+00  0.00000000000E+00  0.91188000000E+02  0.91188000000E+02 0.  0.
    9900012    2    3    3    0    0 -0.18211676670E+02 -0.37591478518E+02 -0.16862061097E+02  0.46142317313E+02  0.99999959136E+01 0.  0.
         12    1    3    3    0    0  0.18211676670E+02  0.37591478518E+02  0.16862061097E+02  0.45045682687E+02  0.00000000000E+00 0. -1.
         11    1    4    4    0    0 -0.41152841218E+01 -0.38035769756E+01 -0.52269442652E+01  0.76631395540E+01  0.51100000000E-03 0. -1.
        -11    1    4    4    0    0 -0.73574060293E+00 -0.30661838758E+01 -0.13938868632E+01  0.34475670615E+01  0.51100000000E-03 0.  1.
         12    1    4    4    0    0 -0.13360651945E+02 -0.30721717667E+02 -0.10241229969E+02  0.35031610697E+02  0.00000000000E+00 0. -1.
</event>
<event>
 8    1  0.2962813E-009  0.9118800E+02  0.7816164E-02  0.1184000E+00
        -11   -1    0    0    0    0  0.00000000000E+00  0.00000000000E+00  0.45593999997E+02  0.45594000000E+02  0.51100000000E-03 0. -1.
         11   -1    0    0    0    0 -0.00000000000E+00 -0.00000000000E+00 -0.45593999997E+02  0.45594000000E+02  0.51100000000E-03 0.  1.
         23    2    1    2    0    0  0.00000000000E+00  0.00000000000E+00 -0.17763568394E-14  0.91188000000E+02  0.91188000000E+02 0.  0.
    9900012    2    3    3    0    0 -0.24861685904E+02  0.36227808703E+02  0.99275282611E+01  0.46142319111E+02  0.10000012308E+02 0.  0.
        -12    1    3    3    0    0  0.24861685904E+02 -0.36227808703E+02 -0.99275282611E+01  0.45045680889E+02  0.00000000000E+00 0.  1.
         11    1    4    4    0    0 -0.50301456748E+01  0.14541269217E+02  0.29096539166E+01  0.15659404910E+02  0.51100000000E-03 0. -1.
        -11    1    4    4    0    0 -0.17208021546E+02  0.17216886214E+02  0.68908317924E+01  0.25298631178E+02  0.51100000000E-03 0.  1.
        -12    1    4    4    0    0 -0.26235186829E+01  0.44696532718E+01  0.12704255204E+00  0.51842830228E+01  0.00000000000E+00 0.  1.
</event>
<event>
 8    1  0.2962813E-009  0.9118800E+02  0.7816164E-02  0.1184000E+00
        -11   -1    0    0    0    0  0.00000000000E+00  0.00000000000E+00  0.45593999997E+02  0.45594000000E+02  0.51100000000E-03 0. -1.
         11   -1    0    0    0    0 -0.00000000000E+00 -0.00000000000E+00 -0.45593999997E+02  0.45594000000E+02  0.51100000000E-03 0.  1.
         23    2    1    2    0    0 -0.17763568394E-14 -0.17763568394E-14  0.00000000000E+00  0.91188000000E+02  0.91188000000E+02 0.  0.
    9900012    2    3    3    0    0 -0.11382817858E+02 -0.86346191968E+01 -0.42719881931E+02  0.46142317596E+02  0.99999984961E+01 0.  0.
         12    1    3    3    0    0  0.11382817858E+02  0.86346191968E+01  0.42719881931E+02  0.45045682404E+02  0.00000000000E+00 0. -1.
         11    1    4    4    0    0 -0.56569453638E+01 -0.44945450532E+00 -0.14452823013E+02  0.15526980824E+02  0.51100000000E-03 0. -1.
        -11    1    4    4    0    0 -0.66284424752E+01 -0.47373211427E+01 -0.18352914869E+02  0.20080038489E+02  0.51100000000E-03 0.  1.
         12    1    4    4    0    0  0.90256998105E+00 -0.34478435487E+01 -0.99141440484E+01  0.10535298283E+02  0.00000000000E+00 0. -1.
</event>
<event>
 8    1  0.2962813E-009  0.9118800E+02  0.7816164E-02  0.1184000E+00
        -11   -1    0    0    0    0  0.00000000000E+00  0.00000000000E+00  0.45593999997E+02  0.45594000000E+02  0.51100000000E-03 0. -1.
         11   -1    0    0    0    0 -0.00000000000E+00 -0.00000000000E+00 -0.45593999997E+02  0.45594000000E+02  0.51100000000E-03 0.  1.
         23    2    1    2    0    0 -0.35527136788E-14  0.00000000000E+00 -0.71054273576E-14  0.91188000000E+02  0.91188000000E+02 0.  0.
    9900012    2    3    3    0    0 -0.19340693556E+02 -0.14031572922E+02 -0.38185944014E+02  0.46142314456E+02  0.99999698583E+01 0.  0.
         12    1    3    3    0    0  0.19340693556E+02  0.14031572922E+02  0.38185944014E+02  0.45045685544E+02  0.00000000000E+00 0. -1.
         11    1    4    4    0    0 -0.87298341450E+01 -0.27913514222E+01 -0.10031873698E+02  0.13588235247E+02  0.51100000000E-03 0. -1.
        -11    1    4    4    0    0 -0.58954142511E+01 -0.75942737739E+01 -0.21885356507E+02  0.23903927147E+02  0.51100000000E-03 0.  1.
        -12    1    4    4    0    0 -0.47154451598E+01 -0.36459477259E+01 -0.62687138088E+01  0.86501520617E+01  0.00000000000E+00 0.  1.
</event>
<event>
 8    1  0.2962813E-009  0.9118800E+02  0.7816164E-02  0.1184000E+00
        -11   -1    0    0    0    0  0.00000000000E+00  0.00000000000E+00  0.45593999997E+02  0.45594000000E+02  0.51100000000E-03 0. -1.
         11   -1    0    0    0    0 -0.00000000000E+00 -0.00000000000E+00 -0.45593999997E+02  0.45594000000E+02  0.51100000000E-03 0.  1.
         23    2    1    2    0    0  0.55511151231E-16 -0.11102230246E-15  0.00000000000E+00  0.91188000000E+02  0.91188000000E+02 0.  0.
    9900012    2    3    3    0    0 -0.37947151470E+00  0.34870387053E+00 -0.45042736379E+02  0.46142315484E+02  0.99999792359E+01 0.  0.
         12    1    3    3    0    0  0.37947151470E+00 -0.34870387053E+00  0.45042736379E+02  0.45045684516E+02  0.00000000000E+00 0. -1.
         11    1    4    4    0    0 -0.19206422172E+01  0.18441015169E+01 -0.54027673540E+01  0.60232443312E+01  0.51100000000E-03 0. -1.
        -11    1    4    4    0    0  0.24234964660E+01 -0.27041950372E+01 -0.14984019649E+02  0.15417744680E+02  0.51100000000E-03 0.  1.
        -12    1    4    4    0    0 -0.88232576353E+00  0.12087973908E+01 -0.24655949376E+02  0.24701326473E+02  0.00000000000E+00 0.  1.
</event>
<event>
 8    1  0.2962813E-009  0.9118800E+02  0.7816164E-02  0.1184000E+00
        -11   -1    0    0    0    0  0.00000000000E+00  0.00000000000E+00  0.45593999997E+02  0.45594000000E+02  0.51100000000E-03 0. -1.
         11   -1    0    0    0    0 -0.00000000000E+00 -0.00000000000E+00 -0.45593999997E+02  0.45594000000E+02  0.51100000000E-03 0.  1.
         23    2    1    2    0    0  0.00000000000E+00  0.00000000000E+00 -0.71054273576E-14  0.91188000000E+02  0.91188000000E+02 0.  0.
    9900012    2    3    3    0    0 -0.11988777404E+02  0.49250731642E+01  0.43140773816E+02  0.46142317690E+02  0.99999993491E+01 0.  0.
        -12    1    3    3    0    0  0.11988777404E+02 -0.49250731642E+01 -0.43140773816E+02  0.45045682310E+02  0.00000000000E+00 0.  1.
         11    1    4    4    0    0 -0.95777082353E+01  0.75091931108E+01  0.34301998573E+02  0.36397082062E+02  0.51100000000E-03 0. -1.
        -11    1    4    4    0    0 -0.24377253133E+01 -0.24270684360E+01  0.89243761751E+01  0.95643952382E+01  0.51100000000E-03 0.  1.
         12    1    4    4    0    0  0.26656144242E-01 -0.15705151063E+00 -0.85600932155E-01  0.18084038986E+00  0.00000000000E+00 0. -1.
</event>
<event>
 8    1  0.2962813E-009  0.9118800E+02  0.7816164E-02  0.1184000E+00
        -11   -1    0    0    0    0  0.00000000000E+00  0.00000000000E+00  0.45593999997E+02  0.45594000000E+02  0.51100000000E-03 0. -1.
         11   -1    0    0    0    0 -0.00000000000E+00 -0.00000000000E+00 -0.45593999997E+02  0.45594000000E+02  0.51100000000E-03 0.  1.
         23    2    1    2    0    0  0.00000000000E+00 -0.88817841970E-15  0.71054273576E-14  0.91188000000E+02  0.91188000000E+02 0.  0.
    9900012    2    3    3    0    0  0.64813879829E+01  0.78754836650E+01 -0.43875753502E+02  0.46142318980E+02  0.10000011119E+02 0.  0.
         12    1    3    3    0    0 -0.64813879829E+01 -0.78754836650E+01  0.43875753502E+02  0.45045681020E+02  0.00000000000E+00 0. -1.
         11    1    4    4    0    0  0.55722151744E+00  0.49316236513E+01 -0.86858285601E+01  0.10003750581E+02  0.51100000000E-03 0. -1.
        -11    1    4    4    0    0  0.18994314549E+01  0.34545116290E+01 -0.21568051864E+02  0.21925381455E+02  0.51100000000E-03 0.  1.
         12    1    4    4    0    0  0.40247350105E+01 -0.51065161530E+00 -0.13621873077E+02  0.14213186944E+02  0.00000000000E+00 0. -1.
</event>
<event>
 8    1  0.2962813E-009  0.9118800E+02  0.7816164E-02  0.1184000E+00
        -11   -1    0    0    0    0  0.00000000000E+00  0.00000000000E+00  0.45593999997E+02  0.45594000000E+02  0.51100000000E-03 0. -1.
         11   -1    0    0    0    0 -0.00000000000E+00 -0.00000000000E+00 -0.45593999997E+02  0.45594000000E+02  0.51100000000E-03 0.  1.
         23    2    1    2    0    0 -0.71054273576E-14  0.00000000000E+00 -0.11102230246E-15  0.91188000000E+02  0.91188000000E+02 0.  0.
    9900012    2    3    3    0    0 -0.34016418987E+02 -0.29514222327E+02  0.95259467403E+00  0.46142317445E+02  0.99999971154E+01 0.  0.
        -12    1    3    3    0    0  0.34016418987E+02  0.29514222327E+02 -0.95259467403E+00  0.45045682555E+02  0.00000000000E+00 0.  1.
         11    1    4    4    0    0 -0.11856404034E+02 -0.74544840436E+01  0.58175953831E+00  0.14017207047E+02  0.51100000000E-03 0. -1.
        -11    1    4    4    0    0 -0.11276080212E+02 -0.12593977571E+02 -0.33398447578E+01  0.17231158384E+02  0.51100000000E-03 0.  1.
        -12    1    4    4    0    0 -0.10883934741E+02 -0.94657607131E+01  0.37106798935E+01  0.14893952014E+02  0.00000000000E+00 0.  1.
</event>
<event>
 8    1  0.2962813E-009  0.9118800E+02  0.7816164E-02  0.1184000E+00
        -11   -1    0    0    0    0  0.00000000000E+00  0.00000000000E+00  0.45593999997E+02  0.45594000000E+02  0.51100000000E-03 0. -1.
         11   -1    0    0    0    0 -0.00000000000E+00 -0.00000000000E+00 -0.45593999997E+02  0.45594000000E+02  0.51100000000E-03 0.  1.
         23    2    1    2    0    0  0.00000000000E+00  0.00000000000E+00  0.00000000000E+00  0.91188000000E+02  0.91188000000E+02 0.  0.
    9900012    2    3    3    0    0 -0.14770191889E+01 -0.53463976308E+01 -0.44702883894E+02  0.46142318944E+02  0.10000010788E+02 0.  0.
         12    1    3    3    0    0  0.14770191889E+01  0.53463976308E+01  0.44702883894E+02  0.45045681056E+02  0.00000000000E+00 0. -1.
         11    1    4    4    0    0 -0.41961498101E+01 -0.40096811587E+01 -0.16922984199E+02  0.17890573236E+02  0.51100000000E-03 0. -1.
        -11    1    4    4    0    0  0.14403735143E+01 -0.16902779350E+01 -0.25625832208E+02  0.25721877691E+02  0.51100000000E-03 0.  1.
         12    1    4    4    0    0  0.12787571069E+01  0.35356146296E+00 -0.21540674873E+01  0.25298680175E+01  0.00000000000E+00 0. -1.
</event>
<event>
 8    1  0.2962813E-009  0.9118800E+02  0.7816164E-02  0.1184000E+00
        -11   -1    0    0    0    0  0.00000000000E+00  0.00000000000E+00  0.45593999997E+02  0.45594000000E+02  0.51100000000E-03 0. -1.
         11   -1    0    0    0    0 -0.00000000000E+00 -0.00000000000E+00 -0.45593999997E+02  0.45594000000E+02  0.51100000000E-03 0.  1.
         23    2    1    2    0    0  0.44408920985E-15  0.00000000000E+00 -0.35527136788E-14  0.91188000000E+02  0.91188000000E+02 0.  0.
    9900012    2    3    3    0    0  0.26359978793E+01  0.32373166934E+02 -0.31211265969E+02  0.46142317127E+02  0.99999942139E+01 0.  0.
         12    1    3    3    0    0 -0.26359978793E+01 -0.32373166934E+02  0.31211265969E+02  0.45045682873E+02  0.00000000000E+00 0. -1.
         11    1    4    4    0    0  0.21422685675E+01  0.32034459188E+01 -0.73849975073E+01  0.83300401448E+01  0.51100000000E-03 0. -1.
        -11    1    4    4    0    0 -0.63116904460E+00  0.25460673489E+02 -0.21102255940E+02  0.33074907028E+02  0.51100000000E-03 0.  1.
        -12    1    4    4    0    0  0.11248983565E+01  0.37090475263E+01 -0.27240125215E+01  0.47373699541E+01  0.00000000000E+00 0.  1.
</event>
<event>
 8    1  0.2962813E-009  0.9118800E+02  0.7816164E-02  0.1184000E+00
        -11   -1    0    0    0    0  0.00000000000E+00  0.00000000000E+00  0.45593999997E+02  0.45594000000E+02  0.51100000000E-03 0. -1.
         11   -1    0    0    0    0 -0.00000000000E+00 -0.00000000000E+00 -0.45593999997E+02  0.45594000000E+02  0.51100000000E-03 0.  1.
         23    2    1    2    0    0  0.00000000000E+00  0.00000000000E+00  0.00000000000E+00  0.91188000000E+02  0.91188000000E+02 0.  0.
    9900012    2    3    3    0    0 -0.88281498383E+01 -0.29222064586E+02  0.33124736833E+02  0.46142317871E+02  0.10000001003E+02 0.  0.
        -12    1    3    3    0    0  0.88281498383E+01  0.29222064586E+02 -0.33124736833E+02  0.45045682129E+02  0.00000000000E+00 0.  1.
         11    1    4    4    0    0 -0.16366691277E+00  0.32551747903E+00 -0.55054927254E-01  0.36848309815E+00  0.51100000000E-03 0. -1.
        -11    1    4    4    0    0 -0.14419792728E+01 -0.20776396943E+01  0.69522552744E+00  0.26228285719E+01  0.51100000000E-03 0.  1.
         12    1    4    4    0    0 -0.72225036527E+01 -0.27469942370E+02  0.32484566233E+02  0.43151006201E+02  0.00000000000E+00 0. -1.
</event>
<event>
 8    1  0.2962813E-009  0.9118800E+02  0.7816164E-02  0.1184000E+00
        -11   -1    0    0    0    0  0.00000000000E+00  0.00000000000E+00  0.45593999997E+02  0.45594000000E+02  0.51100000000E-03 0. -1.
         11   -1    0    0    0    0 -0.00000000000E+00 -0.00000000000E+00 -0.45593999997E+02  0.45594000000E+02  0.51100000000E-03 0.  1.
         23    2    1    2    0    0  0.00000000000E+00  0.00000000000E+00  0.71054273576E-14  0.91188000000E+02  0.91188000000E+02 0.  0.
    9900012    2    3    3    0    0 -0.18166440907E+02  0.16103720374E+02 -0.37944223405E+02  0.46142317911E+02  0.10000001365E+02 0.  0.
         12    1    3    3    0    0  0.18166440907E+02 -0.16103720374E+02  0.37944223405E+02  0.45045682089E+02  0.00000000000E+00 0. -1.
         11    1    4    4    0    0 -0.32959366698E+01  0.63628244649E+01 -0.13273050849E+02  0.15083852717E+02  0.51100000000E-03 0.  1.
        -11    1    4    4    0    0 -0.90560192727E+00 -0.81327899483E+00 -0.27391461077E+01  0.29974087533E+01  0.51100000000E-03 0. -1.
        -12    1    4    4    0    0 -0.13964902310E+02  0.10554174903E+02 -0.21932026448E+02  0.28061056440E+02  0.00000000000E+00 0.  1.
</event>
<event>
 8    1  0.2962813E-009  0.9118800E+02  0.7816164E-02  0.1184000E+00
        -11   -1    0    0    0    0  0.00000000000E+00  0.00000000000E+00  0.45593999997E+02  0.45594000000E+02  0.51100000000E-03 0. -1.
         11   -1    0    0    0    0 -0.00000000000E+00 -0.00000000000E+00 -0.45593999997E+02  0.45594000000E+02  0.51100000000E-03 0.  1.
         23    2    1    2    0    0  0.35527136788E-14  0.00000000000E+00  0.00000000000E+00  0.91188000000E+02  0.91188000000E+02 0.  0.
    9900012    2    3    3    0    0 -0.27458129635E+02 -0.14475838634E+02  0.32643756323E+02  0.46142316365E+02  0.99999872722E+01 0.  0.
        -12    1    3    3    0    0  0.27458129635E+02  0.14475838634E+02 -0.32643756323E+02  0.45045683635E+02  0.00000000000E+00 0.  1.
         11    1    4    4    0    0 -0.10884082317E+02 -0.10630796278E+02  0.12773066247E+02  0.19865253559E+02  0.51100000000E-03 0.  1.
        -11    1    4    4    0    0 -0.10353867690E+02 -0.32775635491E+01  0.11309706773E+02  0.15679747017E+02  0.51100000000E-03 0. -1.
        -12    1    4    4    0    0 -0.62201796284E+01 -0.56747880691E+00  0.85609833041E+01  0.10597315789E+02  0.00000000000E+00 0.  1.
</event>
<event>
 8    1  0.2962813E-009  0.9118800E+02  0.7816164E-02  0.1184000E+00
        -11   -1    0    0    0    0  0.00000000000E+00  0.00000000000E+00  0.45593999997E+02  0.45594000000E+02  0.51100000000E-03 0.  1.
         11   -1    0    0    0    0 -0.00000000000E+00 -0.00000000000E+00 -0.45593999997E+02  0.45594000000E+02  0.51100000000E-03 0. -1.
         23    2    1    2    0    0  0.71054273576E-14  0.35527136788E-14 -0.44408920985E-15  0.91188000000E+02  0.91188000000E+02 0.  0.
    9900012    2    3    3    0    0 -0.41850442246E+02 -0.16342780526E+02  0.32507698540E+01  0.46142317675E+02  0.99999992113E+01 0.  0.
        -12    1    3    3    0    0  0.41850442246E+02  0.16342780526E+02 -0.32507698540E+01  0.45045682325E+02  0.00000000000E+00 0.  1.
         11    1    4    4    0    0 -0.35255999709E+02 -0.14703138487E+02  0.38046019080E+01  0.38388055340E+02  0.51100000000E-03 0. -1.
        -11    1    4    4    0    0 -0.24386794422E+01 -0.39103157787E+00 -0.20024069843E+01  0.31795749886E+01  0.51100000000E-03 0.  1.
         12    1    4    4    0    0 -0.41557630951E+01 -0.12486104614E+01  0.14485749303E+01  0.45746873462E+01  0.00000000000E+00 0. -1.
</event>
<event>
 8    1  0.2962813E-009  0.9118800E+02  0.7816164E-02  0.1184000E+00
        -11   -1    0    0    0    0  0.00000000000E+00  0.00000000000E+00  0.45593999997E+02  0.45594000000E+02  0.51100000000E-03 0.  1.
         11   -1    0    0    0    0 -0.00000000000E+00 -0.00000000000E+00 -0.45593999997E+02  0.45594000000E+02  0.51100000000E-03 0. -1.
         23    2    1    2    0    0  0.22204460493E-15  0.00000000000E+00  0.00000000000E+00  0.91188000000E+02  0.91188000000E+02 0.  0.
    9900012    2    3    3    0    0  0.13047711129E+01  0.40656049391E+02 -0.19351915669E+02  0.46142318523E+02  0.10000006944E+02 0.  0.
         12    1    3    3    0    0 -0.13047711129E+01 -0.40656049391E+02  0.19351915669E+02  0.45045681477E+02  0.00000000000E+00 0. -1.
         11    1    4    4    0    0  0.22318167642E+01  0.23630192753E+02 -0.78136043474E+01  0.24988385878E+02  0.51100000000E-03 0.  1.
        -11    1    4    4    0    0  0.15282462549E+01  0.63139579131E+01 -0.26351241282E+01  0.70103837681E+01  0.51100000000E-03 0. -1.
         12    1    4    4    0    0 -0.24552919062E+01  0.10711898724E+02 -0.89031871932E+01  0.14143548876E+02  0.00000000000E+00 0. -1.
</event>
<event>
 8    1  0.2962813E-009  0.9118800E+02  0.7816164E-02  0.1184000E+00
        -11   -1    0    0    0    0  0.00000000000E+00  0.00000000000E+00  0.45593999997E+02  0.45594000000E+02  0.51100000000E-03 0. -1.
         11   -1    0    0    0    0 -0.00000000000E+00 -0.00000000000E+00 -0.45593999997E+02  0.45594000000E+02  0.51100000000E-03 0.  1.
         23    2    1    2    0    0 -0.44408920985E-15 -0.71054273576E-14  0.00000000000E+00  0.91188000000E+02  0.91188000000E+02 0.  0.
    9900012    2    3    3    0    0 -0.36564029752E+01 -0.28555816251E+02 -0.34645484627E+02  0.46142317304E+02  0.99999958327E+01 0.  0.
         12    1    3    3    0    0  0.36564029752E+01  0.28555816251E+02  0.34645484627E+02  0.45045682696E+02  0.00000000000E+00 0. -1.
         11    1    4    4    0    0  0.22047609093E+01 -0.43675310039E+01 -0.29117327781E+01  0.56933720912E+01  0.51100000000E-03 0. -1.
        -11    1    4    4    0    0 -0.56468871736E+01 -0.17502710627E+02 -0.23464401453E+02  0.29812922531E+02  0.51100000000E-03 0.  1.
        -12    1    4    4    0    0 -0.21427671087E+00 -0.66855746204E+01 -0.82693503960E+01  0.10636022682E+02  0.00000000000E+00 0.  1.
</event>
<event>
 8    1  0.2962813E-009  0.9118800E+02  0.7816164E-02  0.1184000E+00
        -11   -1    0    0    0    0  0.00000000000E+00  0.00000000000E+00  0.45593999997E+02  0.45594000000E+02  0.51100000000E-03 0. -1.
         11   -1    0    0    0    0 -0.00000000000E+00 -0.00000000000E+00 -0.45593999997E+02  0.45594000000E+02  0.51100000000E-03 0.  1.
         23    2    1    2    0    0  0.00000000000E+00 -0.35527136788E-14  0.35527136788E-14  0.91188000000E+02  0.91188000000E+02 0.  0.
    9900012    2    3    3    0    0  0.24386308144E+02 -0.24436083217E+02  0.28936123214E+02  0.46142318581E+02  0.10000007476E+02 0.  0.
        -12    1    3    3    0    0 -0.24386308144E+02  0.24436083217E+02 -0.28936123214E+02  0.45045681419E+02  0.00000000000E+00 0.  1.
         11    1    4    4    0    0  0.18972834380E+02 -0.20949375021E+02  0.22937709173E+02  0.36400319512E+02  0.51100000000E-03 0. -1.
        -11    1    4    4    0    0  0.30591749580E+01 -0.22951231546E+00  0.79847696031E+00  0.31699831299E+01  0.51100000000E-03 0.  1.
        -12    1    4    4    0    0  0.23542988064E+01 -0.32571958799E+01  0.51999370800E+01  0.65720159393E+01  0.00000000000E+00 0.  1.
</event>
<event>
 8    1  0.2962813E-009  0.9118800E+02  0.7816164E-02  0.1184000E+00
        -11   -1    0    0    0    0  0.00000000000E+00  0.00000000000E+00  0.45593999997E+02  0.45594000000E+02  0.51100000000E-03 0. -1.
         11   -1    0    0    0    0 -0.00000000000E+00 -0.00000000000E+00 -0.45593999997E+02  0.45594000000E+02  0.51100000000E-03 0.  1.
         23    2    1    2    0    0  0.35527136788E-14 -0.35527136788E-14 -0.35527136788E-14  0.91188000000E+02  0.91188000000E+02 0.  0.
    9900012    2    3    3    0    0 -0.24750935087E+02  0.23502468343E+02  0.29396235099E+02  0.46142318255E+02  0.10000004504E+02 0.  0.
        -12    1    3    3    0    0  0.24750935087E+02 -0.23502468343E+02 -0.29396235099E+02  0.45045681745E+02  0.00000000000E+00 0.  1.
         11    1    4    4    0    0 -0.70238122739E+00  0.20455523997E+01  0.10033115845E+01  0.23841682838E+01  0.51100000000E-03 0. -1.
        -11    1    4    4    0    0 -0.20204947189E+01  0.32913823027E+01  0.59231235380E+00  0.39072279889E+01  0.51100000000E-03 0.  1.
         12    1    4    4    0    0 -0.22028059141E+02  0.18165533641E+02  0.27800611160E+02  0.39850921982E+02  0.00000000000E+00 0. -1.
</event>
<event>
 8    1  0.2962813E-009  0.9118800E+02  0.7816164E-02  0.1184000E+00
        -11   -1    0    0    0    0  0.00000000000E+00  0.00000000000E+00  0.45593999997E+02  0.45594000000E+02  0.51100000000E-03 0. -1.
         11   -1    0    0    0    0 -0.00000000000E+00 -0.00000000000E+00 -0.45593999997E+02  0.45594000000E+02  0.51100000000E-03 0.  1.
         23    2    1    2    0    0  0.00000000000E+00  0.00000000000E+00  0.00000000000E+00  0.91188000000E+02  0.91188000000E+02 0.  0.
    9900012    2    3    3    0    0 -0.48140771736E+01  0.87446943497E+01  0.43925714928E+02  0.46142318184E+02  0.10000003858E+02 0.  0.
        -12    1    3    3    0    0  0.48140771736E+01 -0.87446943497E+01 -0.43925714928E+02  0.45045681816E+02  0.00000000000E+00 0.  1.
         11    1    4    4    0    0  0.13092802224E+01 -0.13009787249E+01  0.39046663430E+01  0.43189327218E+01  0.51100000000E-03 0. -1.
        -11    1    4    4    0    0 -0.22312993172E+01  0.64738698546E+01  0.21548144573E+02  0.22610002705E+02  0.51100000000E-03 0.  1.
         12    1    4    4    0    0 -0.38920580789E+01  0.35718032200E+01  0.18472904012E+02  0.19213382757E+02  0.00000000000E+00 0. -1.
</event>
<event>
 8    1  0.2962813E-009  0.9118800E+02  0.7816164E-02  0.1184000E+00
        -11   -1    0    0    0    0  0.00000000000E+00  0.00000000000E+00  0.45593999997E+02  0.45594000000E+02  0.51100000000E-03 0. -1.
         11   -1    0    0    0    0 -0.00000000000E+00 -0.00000000000E+00 -0.45593999997E+02  0.45594000000E+02  0.51100000000E-03 0.  1.
         23    2    1    2    0    0  0.00000000000E+00 -0.17763568394E-14  0.00000000000E+00  0.91188000000E+02  0.91188000000E+02 0.  0.
    9900012    2    3    3    0    0  0.26270979244E+01 -0.91460471104E+01  0.44029100664E+02  0.46142317337E+02  0.99999961342E+01 0.  0.
        -12    1    3    3    0    0 -0.26270979244E+01  0.91460471104E+01 -0.44029100664E+02  0.45045682663E+02  0.00000000000E+00 0.  1.
         11    1    4    4    0    0  0.50440984517E+00 -0.57046089270E+01  0.39219826243E+02  0.39635738458E+02  0.51100000000E-03 0. -1.
        -11    1    4    4    0    0  0.85590653783E-01 -0.31296866395E+00 -0.99592672547E-01  0.33940257243E+00  0.51100000000E-03 0.  1.
         12    1    4    4    0    0  0.20370974255E+01 -0.31284695195E+01  0.49088670937E+01  0.61671763068E+01  0.00000000000E+00 0. -1.
</event>
<event>
 8    1  0.2962813E-009  0.9118800E+02  0.7816164E-02  0.1184000E+00
        -11   -1    0    0    0    0  0.00000000000E+00  0.00000000000E+00  0.45593999997E+02  0.45594000000E+02  0.51100000000E-03 0.  1.
         11   -1    0    0    0    0 -0.00000000000E+00 -0.00000000000E+00 -0.45593999997E+02  0.45594000000E+02  0.51100000000E-03 0. -1.
         23    2    1    2    0    0 -0.66613381478E-15  0.00000000000E+00  0.00000000000E+00  0.91188000000E+02  0.91188000000E+02 0.  0.
    9900012    2    3    3    0    0  0.13477257287E+01  0.40844836560E+02  0.18947201939E+02  0.46142317637E+02  0.99999988682E+01 0.  0.
         12    1    3    3    0    0 -0.13477257287E+01 -0.40844836560E+02 -0.18947201939E+02  0.45045682363E+02  0.00000000000E+00 0. -1.
         11    1    4    4    0    0  0.30042923308E+01  0.76795199381E+01  0.51971765601E+01  0.97473813584E+01  0.51100000000E-03 0. -1.
        -11    1    4    4    0    0  0.15387151337E+01  0.52237654322E+01  0.34391199321E+01  0.64407232297E+01  0.51100000000E-03 0.  1.
         12    1    4    4    0    0 -0.31952817358E+01  0.27941551189E+02  0.10310905447E+02  0.29954213049E+02  0.00000000000E+00 0. -1.
</event>
<event>
 8    1  0.2962813E-009  0.9118800E+02  0.7816164E-02  0.1184000E+00
        -11   -1    0    0    0    0  0.00000000000E+00  0.00000000000E+00  0.45593999997E+02  0.45594000000E+02  0.51100000000E-03 0. -1.
         11   -1    0    0    0    0 -0.00000000000E+00 -0.00000000000E+00 -0.45593999997E+02  0.45594000000E+02  0.51100000000E-03 0.  1.
         23    2    1    2    0    0 -0.35527136788E-14  0.71054273576E-14  0.14210854715E-13  0.91188000000E+02  0.91188000000E+02 0.  0.
    9900012    2    3    3    0    0  0.16882579819E+02 -0.18263678240E+02 -0.37557022198E+02  0.46142319180E+02  0.10000012934E+02 0.  0.
         12    1    3    3    0    0 -0.16882579819E+02  0.18263678240E+02  0.37557022198E+02  0.45045680820E+02  0.00000000000E+00 0. -1.
         11    1    4    4    0    0  0.52817754222E+01 -0.52840575049E+00 -0.56229280859E+01  0.77326376333E+01  0.51100000000E-03 0. -1.
        -11    1    4    4    0    0  0.11586447452E+02 -0.17663583778E+02 -0.31977215894E+02  0.38324799974E+02  0.51100000000E-03 0.  1.
        -12    1    4    4    0    0  0.14356944412E-01 -0.71688711126E-01  0.43121782142E-01  0.84881571916E-01  0.00000000000E+00 0.  1.
</event>
<event>
 8    1  0.2962813E-009  0.9118800E+02  0.7816164E-02  0.1184000E+00
        -11   -1    0    0    0    0  0.00000000000E+00  0.00000000000E+00  0.45593999997E+02  0.45594000000E+02  0.51100000000E-03 0. -1.
         11   -1    0    0    0    0 -0.00000000000E+00 -0.00000000000E+00 -0.45593999997E+02  0.45594000000E+02  0.51100000000E-03 0.  1.
         23    2    1    2    0    0 -0.44408920985E-15  0.00000000000E+00  0.00000000000E+00  0.91188000000E+02  0.91188000000E+02 0.  0.
    9900012    2    3    3    0    0 -0.23156719872E+01  0.30936738564E+01  0.44879620787E+02  0.46142317447E+02  0.99999971360E+01 0.  0.
        -12    1    3    3    0    0  0.23156719872E+01 -0.30936738564E+01 -0.44879620787E+02  0.45045682553E+02  0.00000000000E+00 0.  1.
         11    1    4    4    0    0  0.75125132779E-01  0.21799511016E+01  0.50987592634E+01  0.55457350169E+01  0.51100000000E-03 0. -1.
        -11    1    4    4    0    0  0.10766328567E+01 -0.12132903246E+01  0.29436211165E+02  0.29480870742E+02  0.51100000000E-03 0.  1.
        -12    1    4    4    0    0 -0.34674299767E+01  0.21270130794E+01  0.10344650359E+02  0.11115711688E+02  0.00000000000E+00 0.  1.
</event>
<event>
 8    1  0.2962813E-009  0.9118800E+02  0.7816164E-02  0.1184000E+00
        -11   -1    0    0    0    0  0.00000000000E+00  0.00000000000E+00  0.45593999997E+02  0.45594000000E+02  0.51100000000E-03 0. -1.
         11   -1    0    0    0    0 -0.00000000000E+00 -0.00000000000E+00 -0.45593999997E+02  0.45594000000E+02  0.51100000000E-03 0.  1.
         23    2    1    2    0    0  0.35527136788E-14  0.00000000000E+00  0.00000000000E+00  0.91188000000E+02  0.91188000000E+02 0.  0.
    9900012    2    3    3    0    0 -0.19945416632E+02 -0.21935891581E+02  0.33913284989E+02  0.46142313382E+02  0.99999600708E+01 0.  0.
        -12    1    3    3    0    0  0.19945416632E+02  0.21935891581E+02 -0.33913284989E+02  0.45045686618E+02  0.00000000000E+00 0.  1.
         11    1    4    4    0    0 -0.67218394068E+01 -0.72400046351E+01  0.11376372396E+02  0.15067270532E+02  0.51100000000E-03 0. -1.
        -11    1    4    4    0    0 -0.53010948533E+01 -0.97905640981E+00  0.74818692316E+01  0.92216335623E+01  0.51100000000E-03 0.  1.
        -12    1    4    4    0    0 -0.79224823719E+01 -0.13716830536E+02  0.15055043362E+02  0.21853409289E+02  0.00000000000E+00 0.  1.
</event>
<event>
 8    1  0.2962813E-009  0.9118800E+02  0.7816164E-02  0.1184000E+00
        -11   -1    0    0    0    0  0.00000000000E+00  0.00000000000E+00  0.45593999997E+02  0.45594000000E+02  0.51100000000E-03 0. -1.
         11   -1    0    0    0    0 -0.00000000000E+00 -0.00000000000E+00 -0.45593999997E+02  0.45594000000E+02  0.51100000000E-03 0.  1.
         23    2    1    2    0    0 -0.22204460493E-15  0.00000000000E+00  0.00000000000E+00  0.91188000000E+02  0.91188000000E+02 0.  0.
    9900012    2    3    3    0    0 -0.66279807743E+00  0.83401925843E+01 -0.44261895418E+02  0.46142317636E+02  0.99999988599E+01 0.  0.
         12    1    3    3    0    0  0.66279807743E+00 -0.83401925843E+01  0.44261895418E+02  0.45045682364E+02  0.00000000000E+00 0. -1.
         11    1    4    4    0    0 -0.20948890805E+01  0.31872157553E+01 -0.58797510831E+01  0.70084504415E+01  0.51100000000E-03 0. -1.
        -11    1    4    4    0    0  0.27357821015E+01  0.22579288627E+01 -0.29275107588E+02  0.29489229746E+02  0.51100000000E-03 0.  1.
         12    1    4    4    0    0 -0.13036910984E+01  0.28950479663E+01 -0.91070367470E+01  0.96446374487E+01  0.00000000000E+00 0. -1.
</event>
<event>
 8    1  0.2962813E-009  0.9118800E+02  0.7816164E-02  0.1184000E+00
        -11   -1    0    0    0    0  0.00000000000E+00  0.00000000000E+00  0.45593999997E+02  0.45594000000E+02  0.51100000000E-03 0. -1.
         11   -1    0    0    0    0 -0.00000000000E+00 -0.00000000000E+00 -0.45593999997E+02  0.45594000000E+02  0.51100000000E-03 0.  1.
         23    2    1    2    0    0 -0.71054273576E-14  0.00000000000E+00 -0.35527136788E-14  0.91188000000E+02  0.91188000000E+02 0.  0.
    9900012    2    3    3    0    0 -0.37796952315E+02 -0.24249111943E+01 -0.24384903859E+02  0.46142319466E+02  0.10000015543E+02 0.  0.
         12    1    3    3    0    0  0.37796952315E+02  0.24249111943E+01  0.24384903859E+02  0.45045680534E+02  0.00000000000E+00 0. -1.
         11    1    4    4    0    0 -0.10257484126E+02  0.10548680767E+01 -0.75160941770E+01  0.12760109686E+02  0.51100000000E-03 0. -1.
        -11    1    4    4    0    0 -0.18889527189E+02 -0.59480737613E+01 -0.11247401099E+02  0.22774939092E+02  0.51100000000E-03 0.  1.
        -12    1    4    4    0    0 -0.86499409994E+01  0.24682944903E+01 -0.56214085836E+01  0.10607270688E+02  0.00000000000E+00 0.  1.
</event>
<event>
 8    1  0.3017599E-009  0.9118800E+02  0.7816164E-02  0.1184000E+00
        -11   -1    0    0    0    0  0.00000000000E+00  0.00000000000E+00  0.45593999997E+02  0.45594000000E+02  0.51100000000E-03 0. -1.
         11   -1    0    0    0    0 -0.00000000000E+00 -0.00000000000E+00 -0.45593999997E+02  0.45594000000E+02  0.51100000000E-03 0.  1.
         23    2    1    2    0    0 -0.17763568394E-14  0.17763568394E-14  0.00000000000E+00  0.91188000000E+02  0.91188000000E+02 0.  0.
    9900012    2    3    3    0    0 -0.70606860844E+01  0.83018567737E+01 -0.43707428992E+02  0.46142318043E+02  0.10000002571E+02 0.  0.
         12    1    3    3    0    0  0.70606860844E+01 -0.83018567737E+01  0.43707428992E+02  0.45045681957E+02  0.00000000000E+00 0. -1.
         11    1    4    4    0    0 -0.43079891600E+01  0.28116404004E+01 -0.10045336429E+02  0.11285959267E+02  0.51100000000E-03 0. -1.
        -11    1    4    4    0    0 -0.18212559457E+01  0.26302004639E+01 -0.29750442888E+02  0.29921961500E+02  0.51100000000E-03 0.  1.
        -12    1    4    4    0    0 -0.93144097867E+00  0.28600159094E+01 -0.39116496747E+01  0.49343972759E+01  0.00000000000E+00 0.  1.
</event>
<event>
 8    1  0.2962813E-009  0.9118800E+02  0.7816164E-02  0.1184000E+00
        -11   -1    0    0    0    0  0.00000000000E+00  0.00000000000E+00  0.45593999997E+02  0.45594000000E+02  0.51100000000E-03 0. -1.
         11   -1    0    0    0    0 -0.00000000000E+00 -0.00000000000E+00 -0.45593999997E+02  0.45594000000E+02  0.51100000000E-03 0.  1.
         23    2    1    2    0    0  0.88817841970E-15  0.00000000000E+00  0.00000000000E+00  0.91188000000E+02  0.91188000000E+02 0.  0.
    9900012    2    3    3    0    0  0.67330870633E+01  0.17124468836E+02  0.41116075708E+02  0.46142316789E+02  0.99999911340E+01 0.  0.
        -12    1    3    3    0    0 -0.67330870633E+01 -0.17124468836E+02 -0.41116075708E+02  0.45045683211E+02  0.00000000000E+00 0.  1.
         11    1    4    4    0    0  0.91318058466E-01  0.86366083674E+01  0.21568512255E+02  0.23233597746E+02  0.51100000000E-03 0. -1.
        -11    1    4    4    0    0  0.61685519190E+01  0.42852042922E+01  0.14447452086E+02  0.16283208549E+02  0.51100000000E-03 0.  1.
        -12    1    4    4    0    0  0.47321708584E+00  0.42026561761E+01  0.51001113674E+01  0.66255104939E+01  0.00000000000E+00 0.  1.
</event>
<event>
 8    1  0.2962813E-009  0.9118800E+02  0.7816164E-02  0.1184000E+00
        -11   -1    0    0    0    0  0.00000000000E+00  0.00000000000E+00  0.45593999997E+02  0.45594000000E+02  0.51100000000E-03 0. -1.
         11   -1    0    0    0    0 -0.00000000000E+00 -0.00000000000E+00 -0.45593999997E+02  0.45594000000E+02  0.51100000000E-03 0.  1.
         23    2    1    2    0    0  0.00000000000E+00  0.00000000000E+00  0.00000000000E+00  0.91188000000E+02  0.91188000000E+02 0.  0.
    9900012    2    3    3    0    0  0.47606616071E+01  0.16280913051E+02  0.41729866731E+02  0.46142314234E+02  0.99999678391E+01 0.  0.
        -12    1    3    3    0    0 -0.47606616071E+01 -0.16280913051E+02 -0.41729866731E+02  0.45045685766E+02  0.00000000000E+00 0.  1.
         11    1    4    4    0    0 -0.40580077138E+00  0.20518439114E+01  0.89224372315E+00  0.22739474104E+01  0.51100000000E-03 0. -1.
        -11    1    4    4    0    0  0.57650850277E+01  0.12995352781E+02  0.39377421380E+02  0.41865220817E+02  0.51100000000E-03 0.  1.
         12    1    4    4    0    0 -0.59862264922E+00  0.12337163583E+01  0.14602016281E+01  0.20031460066E+01  0.00000000000E+00 0. -1.
</event>
<event>
 8    1  0.2962813E-009  0.9118800E+02  0.7816164E-02  0.1184000E+00
        -11   -1    0    0    0    0  0.00000000000E+00  0.00000000000E+00  0.45593999997E+02  0.45594000000E+02  0.51100000000E-03 0. -1.
         11   -1    0    0    0    0 -0.00000000000E+00 -0.00000000000E+00 -0.45593999997E+02  0.45594000000E+02  0.51100000000E-03 0.  1.
         23    2    1    2    0    0  0.00000000000E+00 -0.44408920985E-15  0.00000000000E+00  0.91188000000E+02  0.91188000000E+02 0.  0.
    9900012    2    3    3    0    0  0.34320283457E+02  0.23613303046E+01  0.29080160404E+02  0.46142318004E+02  0.10000002214E+02 0.  0.
        -12    1    3    3    0    0 -0.34320283457E+02 -0.23613303046E+01 -0.29080160404E+02  0.45045681996E+02  0.00000000000E+00 0.  1.
         11    1    4    4    0    0  0.23060644331E+02  0.23275092912E+00  0.17376785134E+02  0.28875597861E+02  0.51100000000E-03 0. -1.
        -11    1    4    4    0    0  0.70223724680E+01  0.24350289616E+01  0.39286170364E+01  0.84069681338E+01  0.51100000000E-03 0.  1.
         12    1    4    4    0    0  0.42372666580E+01 -0.30644958611E+00  0.77747582333E+01  0.88597520093E+01  0.00000000000E+00 0. -1.
</event>
<event>
 8    1  0.2962813E-009  0.9118800E+02  0.7816164E-02  0.1184000E+00
        -11   -1    0    0    0    0  0.00000000000E+00  0.00000000000E+00  0.45593999997E+02  0.45594000000E+02  0.51100000000E-03 0. -1.
         11   -1    0    0    0    0 -0.00000000000E+00 -0.00000000000E+00 -0.45593999997E+02  0.45594000000E+02  0.51100000000E-03 0.  1.
         23    2    1    2    0    0  0.00000000000E+00  0.00000000000E+00  0.71054273576E-14  0.91188000000E+02  0.91188000000E+02 0.  0.
    9900012    2    3    3    0    0 -0.75537309620E+01 -0.24404218305E+02  0.37101061468E+02  0.46142317803E+02  0.10000000384E+02 0.  0.
        -12    1    3    3    0    0  0.75537309620E+01  0.24404218305E+02 -0.37101061468E+02  0.45045682197E+02  0.00000000000E+00 0.  1.
         11    1    4    4    0    0 -0.46658058899E+00 -0.83866163956E+01  0.10101402120E+02  0.13137402980E+02  0.51100000000E-03 0. -1.
        -11    1    4    4    0    0 -0.82812637139E+01 -0.11956164255E+02  0.18720769138E+02  0.23706463038E+02  0.51100000000E-03 0.  1.
        -12    1    4    4    0    0  0.11941133409E+01 -0.40614376544E+01  0.82788902102E+01  0.92984517853E+01  0.00000000000E+00 0.  1.
</event>
<event>
 8    1  0.2962813E-009  0.9118800E+02  0.7816164E-02  0.1184000E+00
        -11   -1    0    0    0    0  0.00000000000E+00  0.00000000000E+00  0.45593999997E+02  0.45594000000E+02  0.51100000000E-03 0. -1.
         11   -1    0    0    0    0 -0.00000000000E+00 -0.00000000000E+00 -0.45593999997E+02  0.45594000000E+02  0.51100000000E-03 0.  1.
         23    2    1    2    0    0  0.00000000000E+00  0.00000000000E+00  0.00000000000E+00  0.91188000000E+02  0.91188000000E+02 0.  0.
    9900012    2    3    3    0    0 -0.10510215338E+02  0.20603838157E+02 -0.38653986600E+02  0.46142318150E+02  0.10000003546E+02 0.  0.
         12    1    3    3    0    0  0.10510215338E+02 -0.20603838157E+02  0.38653986600E+02  0.45045681850E+02  0.00000000000E+00 0. -1.
         11    1    4    4    0    0 -0.75852769762E+01  0.10344769068E+02 -0.14958485472E+02  0.19705505874E+02  0.51100000000E-03 0. -1.
        -11    1    4    4    0    0  0.10721249791E+01  0.37988500961E+01 -0.10402246576E+02  0.11125980771E+02  0.51100000000E-03 0.  1.
        -12    1    4    4    0    0 -0.39970633414E+01  0.64602189932E+01 -0.13293254552E+02  0.15310831505E+02  0.00000000000E+00 0.  1.
</event>
<event>
 8    1  0.2962813E-009  0.9118800E+02  0.7816164E-02  0.1184000E+00
        -11   -1    0    0    0    0  0.00000000000E+00  0.00000000000E+00  0.45593999997E+02  0.45594000000E+02  0.51100000000E-03 0.  1.
         11   -1    0    0    0    0 -0.00000000000E+00 -0.00000000000E+00 -0.45593999997E+02  0.45594000000E+02  0.51100000000E-03 0. -1.
         23    2    1    2    0    0  0.71054273576E-14  0.00000000000E+00  0.00000000000E+00  0.91188000000E+02  0.91188000000E+02 0.  0.
    9900012    2    3    3    0    0 -0.38610618106E+02  0.17535589233E+02 -0.15193313460E+02  0.46142317697E+02  0.99999994161E+01 0.  0.
         12    1    3    3    0    0  0.38610618106E+02 -0.17535589233E+02  0.15193313460E+02  0.45045682303E+02  0.00000000000E+00 0. -1.
         11    1    4    4    0    0 -0.13585602192E+02  0.16126127544E+01 -0.30791309588E+01  0.14023200581E+02  0.51100000000E-03 0. -1.
        -11    1    4    4    0    0 -0.12823855709E+02  0.86834328850E+01 -0.74407147150E+01  0.17181895054E+02  0.51100000000E-03 0.  1.
         12    1    4    4    0    0 -0.12201160205E+02  0.72395435935E+01 -0.46734677861E+01  0.14937222062E+02  0.00000000000E+00 0. -1.
</event>
<event>
 8    1  0.2962813E-009  0.9118800E+02  0.7816164E-02  0.1184000E+00
        -11   -1    0    0    0    0  0.00000000000E+00  0.00000000000E+00  0.45593999997E+02  0.45594000000E+02  0.51100000000E-03 0. -1.
         11   -1    0    0    0    0 -0.00000000000E+00 -0.00000000000E+00 -0.45593999997E+02  0.45594000000E+02  0.51100000000E-03 0.  1.
         23    2    1    2    0    0  0.17763568394E-14 -0.17763568394E-14  0.00000000000E+00  0.91188000000E+02  0.91188000000E+02 0.  0.
    9900012    2    3    3    0    0 -0.15635531080E+02 -0.86371330297E+01  0.41352680508E+02  0.46142311146E+02  0.99999396791E+01 0.  0.
        -12    1    3    3    0    0  0.15635531080E+02  0.86371330297E+01 -0.41352680508E+02  0.45045688854E+02  0.00000000000E+00 0.  1.
         11    1    4    4    0    0 -0.10613075285E+02 -0.71408221286E+01  0.25277476228E+02  0.28329834317E+02  0.51100000000E-03 0. -1.
        -11    1    4    4    0    0 -0.16828297527E+01 -0.22877544894E+01  0.24158924688E+01  0.37285752322E+01  0.51100000000E-03 0.  1.
        -12    1    4    4    0    0 -0.33396260427E+01  0.79144358829E+00  0.13659311811E+02  0.14083901597E+02  0.00000000000E+00 0.  1.
</event>
<event>
 8    1  0.2962813E-009  0.9118800E+02  0.7816164E-02  0.1184000E+00
        -11   -1    0    0    0    0  0.00000000000E+00  0.00000000000E+00  0.45593999997E+02  0.45594000000E+02  0.51100000000E-03 0.  1.
         11   -1    0    0    0    0 -0.00000000000E+00 -0.00000000000E+00 -0.45593999997E+02  0.45594000000E+02  0.51100000000E-03 0. -1.
         23    2    1    2    0    0 -0.35527136788E-14  0.00000000000E+00 -0.44408920985E-15  0.91188000000E+02  0.91188000000E+02 0.  0.
    9900012    2    3    3    0    0 -0.31536261445E+02  0.32091984124E+02 -0.21635378986E+01  0.46142332871E+02  0.10000137780E+02 0.  0.
         12    1    3    3    0    0  0.31536261445E+02 -0.32091984124E+02  0.21635378986E+01  0.45045667129E+02  0.00000000000E+00 0. -1.
         11    1    4    4    0    0 -0.78609063753E+01  0.10503671401E+02 -0.46223257552E+01  0.13909955341E+02  0.51100000000E-03 0. -1.
        -11    1    4    4    0    0 -0.88891439519E+01  0.91838584989E+01  0.41869053238E-01  0.12781310199E+02  0.51100000000E-03 0.  1.
         12    1    4    4    0    0 -0.14786211117E+02  0.12404454224E+02  0.24169188034E+01  0.19451067331E+02  0.00000000000E+00 0. -1.
</event>
<event>
 8    1  0.2962813E-009  0.9118800E+02  0.7816164E-02  0.1184000E+00
        -11   -1    0    0    0    0  0.00000000000E+00  0.00000000000E+00  0.45593999997E+02  0.45594000000E+02  0.51100000000E-03 0.  1.
         11   -1    0    0    0    0 -0.00000000000E+00 -0.00000000000E+00 -0.45593999997E+02  0.45594000000E+02  0.51100000000E-03 0. -1.
         23    2    1    2    0    0 -0.35527136788E-14  0.00000000000E+00  0.88817841970E-15  0.91188000000E+02  0.91188000000E+02 0.  0.
    9900012    2    3    3    0    0  0.27494075548E+02  0.34951792568E+02 -0.71806276974E+01  0.46142318652E+02  0.10000008126E+02 0.  0.
        -12    1    3    3    0    0 -0.27494075548E+02 -0.34951792568E+02  0.71806276974E+01  0.45045681348E+02  0.00000000000E+00 0.  1.
         11    1    4    4    0    0  0.10486286392E+02  0.17245612702E+02  0.63204109942E+00  0.20193385946E+02  0.51100000000E-03 0. -1.
        -11    1    4    4    0    0  0.44540968963E+01  0.62548502583E+01 -0.33706980010E+01  0.83859248858E+01  0.51100000000E-03 0.  1.
         12    1    4    4    0    0  0.12553692260E+02  0.11451329607E+02 -0.44419707957E+01  0.17563007820E+02  0.00000000000E+00 0. -1.
</event>
<event>
 8    1  0.2962813E-009  0.9118800E+02  0.7816164E-02  0.1184000E+00
        -11   -1    0    0    0    0  0.00000000000E+00  0.00000000000E+00  0.45593999997E+02  0.45594000000E+02  0.51100000000E-03 0. -1.
         11   -1    0    0    0    0 -0.00000000000E+00 -0.00000000000E+00 -0.45593999997E+02  0.45594000000E+02  0.51100000000E-03 0.  1.
         23    2    1    2    0    0  0.71054273576E-14 -0.17763568394E-14  0.00000000000E+00  0.91188000000E+02  0.91188000000E+02 0.  0.
    9900012    2    3    3    0    0 -0.43810625439E+02 -0.90070995065E+01  0.53492739375E+01  0.46142317915E+02  0.10000001404E+02 0.  0.
        -12    1    3    3    0    0  0.43810625439E+02  0.90070995065E+01 -0.53492739375E+01  0.45045682085E+02  0.00000000000E+00 0.  1.
         11    1    4    4    0    0 -0.42948597529E+02 -0.10048368714E+02  0.54881812217E+01  0.44448530649E+02  0.51100000000E-03 0. -1.
        -11    1    4    4    0    0 -0.99369144330E-01  0.55171237952E+00 -0.46734544646E+00  0.72984436971E+00  0.51100000000E-03 0.  1.
         12    1    4    4    0    0 -0.76265876547E+00  0.48955682811E+00  0.32843816232E+00  0.96394289611E+00  0.00000000000E+00 0. -1.
</event>
<event>
 8    1  0.2962813E-009  0.9118800E+02  0.7816164E-02  0.1184000E+00
        -11   -1    0    0    0    0  0.00000000000E+00  0.00000000000E+00  0.45593999997E+02  0.45594000000E+02  0.51100000000E-03 0. -1.
         11   -1    0    0    0    0 -0.00000000000E+00 -0.00000000000E+00 -0.45593999997E+02  0.45594000000E+02  0.51100000000E-03 0.  1.
         23    2    1    2    0    0  0.00000000000E+00 -0.88817841970E-15  0.00000000000E+00  0.91188000000E+02  0.91188000000E+02 0.  0.
    9900012    2    3    3    0    0  0.25162584448E+02 -0.69886691580E+01  0.36703083957E+02  0.46142317358E+02  0.99999963276E+01 0.  0.
        -12    1    3    3    0    0 -0.25162584448E+02  0.69886691580E+01 -0.36703083957E+02  0.45045682642E+02  0.00000000000E+00 0.  1.
         11    1    4    4    0    0  0.19925795009E+02 -0.90750607849E+01  0.29192330672E+02  0.36490905789E+02  0.51100000000E-03 0. -1.
        -11    1    4    4    0    0  0.49750644666E+01  0.19994985103E+01  0.76504269232E+01  0.93422852187E+01  0.51100000000E-03 0.  1.
         12    1    4    4    0    0  0.26172497318E+00  0.86893116678E-01 -0.13967363865E+00  0.30912635062E+00  0.00000000000E+00 0. -1.
</event>
<event>
 8    1  0.3103950E-009  0.9118800E+02  0.7816164E-02  0.1184000E+00
        -11   -1    0    0    0    0  0.00000000000E+00  0.00000000000E+00  0.45593999997E+02  0.45594000000E+02  0.51100000000E-03 0. -1.
         11   -1    0    0    0    0 -0.00000000000E+00 -0.00000000000E+00 -0.45593999997E+02  0.45594000000E+02  0.51100000000E-03 0.  1.
         23    2    1    2    0    0 -0.35527136788E-14  0.00000000000E+00 -0.35527136788E-14  0.91188000000E+02  0.91188000000E+02 0.  0.
    9900012    2    3    3    0    0 -0.30703778314E+02 -0.16857098076E+02 -0.28323660290E+02  0.46142317738E+02  0.99999997848E+01 0.  0.
         12    1    3    3    0    0  0.30703778314E+02  0.16857098076E+02  0.28323660290E+02  0.45045682262E+02  0.00000000000E+00 0. -1.
         11    1    4    4    0    0 -0.12516516361E+02 -0.23866321120E+01 -0.10206633015E+02  0.16325885962E+02  0.51100000000E-03 0. -1.
        -11    1    4    4    0    0 -0.13284783839E+02 -0.80460736670E+01 -0.12974693416E+02  0.20237772916E+02  0.51100000000E-03 0.  1.
         12    1    4    4    0    0 -0.49024781133E+01 -0.64243922975E+01 -0.51423338588E+01  0.95786588601E+01  0.00000000000E+00 0. -1.
</event>
<event>
 8    1  0.2962813E-009  0.9118800E+02  0.7816164E-02  0.1184000E+00
        -11   -1    0    0    0    0  0.00000000000E+00  0.00000000000E+00  0.45593999997E+02  0.45594000000E+02  0.51100000000E-03 0. -1.
         11   -1    0    0    0    0 -0.00000000000E+00 -0.00000000000E+00 -0.45593999997E+02  0.45594000000E+02  0.51100000000E-03 0.  1.
         23    2    1    2    0    0  0.00000000000E+00  0.00000000000E+00  0.71054273576E-14  0.91188000000E+02  0.91188000000E+02 0.  0.
    9900012    2    3    3    0    0 -0.44372362543E+01  0.21405203610E+02 -0.39385798561E+02  0.46142323898E+02  0.10000055964E+02 0.  0.
         12    1    3    3    0    0  0.44372362543E+01 -0.21405203610E+02  0.39385798561E+02  0.45045676102E+02  0.00000000000E+00 0. -1.
         11    1    4    4    0    0 -0.24540823653E+01  0.16214832698E+01 -0.96934756882E+01  0.10129916062E+02  0.51100000000E-03 0. -1.
        -11    1    4    4    0    0  0.70383433304E+00  0.11564223003E+02 -0.19091444331E+02  0.22331813256E+02  0.51100000000E-03 0.  1.
        -12    1    4    4    0    0 -0.26869882221E+01  0.82194973380E+01 -0.10600878542E+02  0.13680594580E+02  0.00000000000E+00 0.  1.
</event>
<event>
 8    1  0.2962813E-009  0.9118800E+02  0.7816164E-02  0.1184000E+00
        -11   -1    0    0    0    0  0.00000000000E+00  0.00000000000E+00  0.45593999997E+02  0.45594000000E+02  0.51100000000E-03 0. -1.
         11   -1    0    0    0    0 -0.00000000000E+00 -0.00000000000E+00 -0.45593999997E+02  0.45594000000E+02  0.51100000000E-03 0.  1.
         23    2    1    2    0    0  0.00000000000E+00  0.26645352591E-14 -0.71054273576E-14  0.91188000000E+02  0.91188000000E+02 0.  0.
    9900012    2    3    3    0    0  0.76367959198E+01  0.77302760585E+01 -0.43715393799E+02  0.46142317911E+02  0.10000001367E+02 0.  0.
         12    1    3    3    0    0 -0.76367959198E+01 -0.77302760585E+01  0.43715393799E+02  0.45045682089E+02  0.00000000000E+00 0. -1.
         11    1    4    4    0    0 -0.51005534672E+00  0.32449311176E+01 -0.95273692988E+01  0.10077722979E+02  0.51100000000E-03 0. -1.
        -11    1    4    4    0    0  0.85487696470E+01  0.53162929316E+01 -0.33281987494E+02  0.34771182390E+02  0.51100000000E-03 0.  1.
        -12    1    4    4    0    0 -0.40191838044E+00 -0.83094799068E+00 -0.90603700639E+00  0.12934125423E+01  0.00000000000E+00 0.  1.
</event>
<event>
 8    1  0.2962813E-009  0.9118800E+02  0.7816164E-02  0.1184000E+00
        -11   -1    0    0    0    0  0.00000000000E+00  0.00000000000E+00  0.45593999997E+02  0.45594000000E+02  0.51100000000E-03 0. -1.
         11   -1    0    0    0    0 -0.00000000000E+00 -0.00000000000E+00 -0.45593999997E+02  0.45594000000E+02  0.51100000000E-03 0.  1.
         23    2    1    2    0    0  0.00000000000E+00  0.00000000000E+00 -0.71054273576E-14  0.91188000000E+02  0.91188000000E+02 0.  0.
    9900012    2    3    3    0    0  0.54318232234E+01 -0.81913077233E+01  0.43960337210E+02  0.46142317928E+02  0.10000001519E+02 0.  0.
        -12    1    3    3    0    0 -0.54318232234E+01  0.81913077233E+01 -0.43960337210E+02  0.45045682072E+02  0.00000000000E+00 0.  1.
         11    1    4    4    0    0  0.55048732012E+01 -0.77564103369E+01  0.35576616246E+02  0.36826093386E+02  0.51100000000E-03 0. -1.
        -11    1    4    4    0    0  0.11090495263E+01  0.11771141314E+01  0.59547201567E+01  0.61704360410E+01  0.51100000000E-03 0.  1.
        -12    1    4    4    0    0 -0.11820995040E+01 -0.16120115178E+01  0.24290008068E+01  0.31457885005E+01  0.00000000000E+00 0.  1.
</event>
<event>
 8    1  0.2962813E-009  0.9118800E+02  0.7816164E-02  0.1184000E+00
        -11   -1    0    0    0    0  0.00000000000E+00  0.00000000000E+00  0.45593999997E+02  0.45594000000E+02  0.51100000000E-03 0. -1.
         11   -1    0    0    0    0 -0.00000000000E+00 -0.00000000000E+00 -0.45593999997E+02  0.45594000000E+02  0.51100000000E-03 0.  1.
         23    2    1    2    0    0  0.00000000000E+00  0.00000000000E+00  0.00000000000E+00  0.91188000000E+02  0.91188000000E+02 0.  0.
    9900012    2    3    3    0    0 -0.73817403997E+01  0.21446204687E+02 -0.38918937841E+02  0.46142317527E+02  0.99999978656E+01 0.  0.
         12    1    3    3    0    0  0.73817403997E+01 -0.21446204687E+02  0.38918937841E+02  0.45045682473E+02  0.00000000000E+00 0. -1.
         11    1    4    4    0    0 -0.19402785297E+01  0.33950696796E+01 -0.42989843652E+01  0.58114065195E+01  0.51100000000E-03 0. -1.
        -11    1    4    4    0    0  0.17179254109E+01  0.81507199845E+01 -0.11766405453E+02  0.14416442055E+02  0.51100000000E-03 0.  1.
        -12    1    4    4    0    0 -0.71593872809E+01  0.99004150226E+01 -0.22853548023E+02  0.25914468952E+02  0.00000000000E+00 0.  1.
</event>
<event>
 8    1  0.2962813E-009  0.9118800E+02  0.7816164E-02  0.1184000E+00
        -11   -1    0    0    0    0  0.00000000000E+00  0.00000000000E+00  0.45593999997E+02  0.45594000000E+02  0.51100000000E-03 0. -1.
         11   -1    0    0    0    0 -0.00000000000E+00 -0.00000000000E+00 -0.45593999997E+02  0.45594000000E+02  0.51100000000E-03 0.  1.
         23    2    1    2    0    0  0.00000000000E+00 -0.71054273576E-14  0.00000000000E+00  0.91188000000E+02  0.91188000000E+02 0.  0.
    9900012    2    3    3    0    0  0.34648711232E+02  0.22299896837E+02  0.18201506012E+02  0.46142318630E+02  0.10000007922E+02 0.  0.
        -12    1    3    3    0    0 -0.34648711232E+02 -0.22299896837E+02 -0.18201506012E+02  0.45045681370E+02  0.00000000000E+00 0.  1.
         11    1    4    4    0    0  0.26434377814E+02  0.18743945659E+02  0.11878214953E+02  0.34513820710E+02  0.51100000000E-03 0. -1.
        -11    1    4    4    0    0  0.65065418489E+01  0.38932776968E+01  0.63459593371E+01  0.98875628051E+01  0.51100000000E-03 0.  1.
         12    1    4    4    0    0  0.17077915693E+01 -0.33732651832E+00 -0.22668277294E-01  0.17409351151E+01  0.00000000000E+00 0. -1.
</event>
<event>
 8    1  0.2962813E-009  0.9118800E+02  0.7816164E-02  0.1184000E+00
        -11   -1    0    0    0    0  0.00000000000E+00  0.00000000000E+00  0.45593999997E+02  0.45594000000E+02  0.51100000000E-03 0.  1.
         11   -1    0    0    0    0 -0.00000000000E+00 -0.00000000000E+00 -0.45593999997E+02  0.45594000000E+02  0.51100000000E-03 0. -1.
         23    2    1    2    0    0  0.00000000000E+00  0.71054273576E-14  0.00000000000E+00  0.91188000000E+02  0.91188000000E+02 0.  0.
    9900012    2    3    3    0    0 -0.17320581813E+02 -0.41281260043E+02  0.49968494802E+01  0.46142317745E+02  0.99999998529E+01 0.  0.
         12    1    3    3    0    0  0.17320581813E+02  0.41281260043E+02 -0.49968494802E+01  0.45045682255E+02  0.00000000000E+00 0. -1.
         11    1    4    4    0    0 -0.69538409195E+00 -0.45604233348E+01 -0.16330990962E+01  0.48936727462E+01  0.51100000000E-03 0. -1.
        -11    1    4    4    0    0 -0.73303393894E+01 -0.10281509465E+02  0.30964301012E+01  0.13001199640E+02  0.51100000000E-03 0.  1.
         12    1    4    4    0    0 -0.92948583320E+01 -0.26439327244E+02  0.35335184752E+01  0.28247445359E+02  0.00000000000E+00 0. -1.
</event>
<event>
 8    1  0.2962813E-009  0.9118800E+02  0.7816164E-02  0.1184000E+00
        -11   -1    0    0    0    0  0.00000000000E+00  0.00000000000E+00  0.45593999997E+02  0.45594000000E+02  0.51100000000E-03 0. -1.
         11   -1    0    0    0    0 -0.00000000000E+00 -0.00000000000E+00 -0.45593999997E+02  0.45594000000E+02  0.51100000000E-03 0.  1.
         23    2    1    2    0    0  0.35527136788E-14  0.88817841970E-15 -0.71054273576E-14  0.91188000000E+02  0.91188000000E+02 0.  0.
    9900012    2    3    3    0    0 -0.23490417141E+02 -0.67902987210E+01  0.37831278570E+02  0.46142317715E+02  0.99999995841E+01 0.  0.
        -12    1    3    3    0    0  0.23490417141E+02  0.67902987210E+01 -0.37831278570E+02  0.45045682285E+02  0.00000000000E+00 0.  1.
         11    1    4    4    0    0 -0.20983602726E+02 -0.71269263707E+01  0.37117889823E+02  0.43230109971E+02  0.51100000000E-03 0. -1.
        -11    1    4    4    0    0 -0.17205589440E+01  0.58009483041E+00 -0.11001912943E-01  0.18157517438E+01  0.51100000000E-03 0.  1.
        -12    1    4    4    0    0 -0.78625547113E+00 -0.24346718067E+00  0.72439066014E+00  0.10964560011E+01  0.00000000000E+00 0.  1.
</event>
<event>
 8    1  0.2962813E-009  0.9118800E+02  0.7816164E-02  0.1184000E+00
        -11   -1    0    0    0    0  0.00000000000E+00  0.00000000000E+00  0.45593999997E+02  0.45594000000E+02  0.51100000000E-03 0. -1.
         11   -1    0    0    0    0 -0.00000000000E+00 -0.00000000000E+00 -0.45593999997E+02  0.45594000000E+02  0.51100000000E-03 0.  1.
         23    2    1    2    0    0 -0.71054273576E-14  0.00000000000E+00  0.00000000000E+00  0.91188000000E+02  0.91188000000E+02 0.  0.
    9900012    2    3    3    0    0  0.23735942116E+02 -0.32787326480E+02  0.19766377814E+02  0.46142318546E+02  0.10000007154E+02 0.  0.
        -12    1    3    3    0    0 -0.23735942116E+02  0.32787326480E+02 -0.19766377814E+02  0.45045681454E+02  0.00000000000E+00 0.  1.
         11    1    4    4    0    0  0.13839907339E+02 -0.17847900170E+02  0.15527379581E+02  0.27407847280E+02  0.51100000000E-03 0. -1.
        -11    1    4    4    0    0  0.71401025946E+01 -0.11318029575E+02  0.46458093192E+01  0.14165535748E+02  0.51100000000E-03 0.  1.
         12    1    4    4    0    0  0.27559321825E+01 -0.36213967343E+01 -0.40681108684E+00  0.45689355173E+01  0.00000000000E+00 0. -1.
</event>
<event>
 8    1  0.2962813E-009  0.9118800E+02  0.7816164E-02  0.1184000E+00
        -11   -1    0    0    0    0  0.00000000000E+00  0.00000000000E+00  0.45593999997E+02  0.45594000000E+02  0.51100000000E-03 0. -1.
         11   -1    0    0    0    0 -0.00000000000E+00 -0.00000000000E+00 -0.45593999997E+02  0.45594000000E+02  0.51100000000E-03 0.  1.
         23    2    1    2    0    0  0.00000000000E+00  0.00000000000E+00 -0.71054273576E-14  0.91188000000E+02  0.91188000000E+02 0.  0.
    9900012    2    3    3    0    0 -0.57216800611E+01 -0.14367394727E+02 -0.42307845686E+02  0.46142318070E+02  0.10000002816E+02 0.  0.
         12    1    3    3    0    0  0.57216800611E+01  0.14367394727E+02  0.42307845686E+02  0.45045681930E+02  0.00000000000E+00 0. -1.
         11    1    4    4    0    0 -0.42079232947E+01 -0.10539772435E+02 -0.17527204403E+02  0.20880524799E+02  0.51100000000E-03 0.  1.
        -11    1    4    4    0    0 -0.20137185251E+01 -0.16080397348E+01 -0.15021971691E+02  0.15241407016E+02  0.51100000000E-03 0. -1.
         12    1    4    4    0    0  0.49996175873E+00 -0.22195825564E+01 -0.97586695917E+01  0.10020386254E+02  0.00000000000E+00 0. -1.
</event>
<event>
 8    1  0.2962813E-009  0.9118800E+02  0.7816164E-02  0.1184000E+00
        -11   -1    0    0    0    0  0.00000000000E+00  0.00000000000E+00  0.45593999997E+02  0.45594000000E+02  0.51100000000E-03 0. -1.
         11   -1    0    0    0    0 -0.00000000000E+00 -0.00000000000E+00 -0.45593999997E+02  0.45594000000E+02  0.51100000000E-03 0.  1.
         23    2    1    2    0    0  0.00000000000E+00  0.00000000000E+00  0.00000000000E+00  0.91188000000E+02  0.91188000000E+02 0.  0.
    9900012    2    3    3    0    0  0.37066745745E+02  0.17485778474E+02 -0.18692710790E+02  0.46142317348E+02  0.99999962287E+01 0.  0.
         12    1    3    3    0    0 -0.37066745745E+02 -0.17485778474E+02  0.18692710790E+02  0.45045682652E+02  0.00000000000E+00 0. -1.
         11    1    4    4    0    0  0.78690132384E+01  0.17855294560E+01 -0.95702757665E+00  0.81256007056E+01  0.51100000000E-03 0. -1.
        -11    1    4    4    0    0  0.17766068707E+02  0.11849040870E+02 -0.92731676013E+01  0.23281421874E+02  0.51100000000E-03 0.  1.
        -12    1    4    4    0    0  0.11431663799E+02  0.38512081483E+01 -0.84625156122E+01  0.14735294768E+02  0.00000000000E+00 0.  1.
</event>
<event>
 8    1  0.2962813E-009  0.9118800E+02  0.7816164E-02  0.1184000E+00
        -11   -1    0    0    0    0  0.00000000000E+00  0.00000000000E+00  0.45593999997E+02  0.45594000000E+02  0.51100000000E-03 0.  1.
         11   -1    0    0    0    0 -0.00000000000E+00 -0.00000000000E+00 -0.45593999997E+02  0.45594000000E+02  0.51100000000E-03 0. -1.
         23    2    1    2    0    0  0.00000000000E+00 -0.71054273576E-14 -0.17763568394E-14  0.91188000000E+02  0.91188000000E+02 0.  0.
    9900012    2    3    3    0    0  0.36591810121E+00 -0.43869170762E+02 -0.10221332317E+02  0.46142315703E+02  0.99999812340E+01 0.  0.
         12    1    3    3    0    0 -0.36591810121E+00  0.43869170762E+02  0.10221332317E+02  0.45045684297E+02  0.00000000000E+00 0. -1.
         11    1    4    4    0    0  0.12916050519E+01 -0.99607302620E+01 -0.59701306915E+01  0.11684470536E+02  0.51100000000E-03 0. -1.
        -11    1    4    4    0    0 -0.10841960847E+01 -0.33919401970E+02 -0.44231142961E+01  0.34223752738E+02  0.51100000000E-03 0.  1.
         12    1    4    4    0    0  0.15850913399E+00  0.10961469212E-01  0.17191267050E+00  0.23409242970E+00  0.00000000000E+00 0. -1.
</event>
<event>
 8    1  0.2962813E-009  0.9118800E+02  0.7816164E-02  0.1184000E+00
        -11   -1    0    0    0    0  0.00000000000E+00  0.00000000000E+00  0.45593999997E+02  0.45594000000E+02  0.51100000000E-03 0. -1.
         11   -1    0    0    0    0 -0.00000000000E+00 -0.00000000000E+00 -0.45593999997E+02  0.45594000000E+02  0.51100000000E-03 0.  1.
         23    2    1    2    0    0  0.00000000000E+00 -0.35527136788E-14  0.00000000000E+00  0.91188000000E+02  0.91188000000E+02 0.  0.
    9900012    2    3    3    0    0 -0.31897359301E+02  0.29664047188E+02 -0.11476768042E+02  0.46142318402E+02  0.10000005842E+02 0.  0.
         12    1    3    3    0    0  0.31897359301E+02 -0.29664047188E+02  0.11476768042E+02  0.45045681598E+02  0.00000000000E+00 0. -1.
         11    1    4    4    0    0 -0.14417905856E+02  0.13459995836E+02 -0.15499373912E+01  0.19785090431E+02  0.51100000000E-03 0. -1.
        -11    1    4    4    0    0 -0.11848928910E+02  0.86201135312E+01 -0.39366571493E+01  0.15172367758E+02  0.51100000000E-03 0.  1.
        -12    1    4    4    0    0 -0.56305245348E+01  0.75839378205E+01 -0.59901735014E+01  0.11184860213E+02  0.00000000000E+00 0.  1.
</event>
<event>
 8    1  0.2962813E-009  0.9118800E+02  0.7816164E-02  0.1184000E+00
        -11   -1    0    0    0    0  0.00000000000E+00  0.00000000000E+00  0.45593999997E+02  0.45594000000E+02  0.51100000000E-03 0.  1.
         11   -1    0    0    0    0 -0.00000000000E+00 -0.00000000000E+00 -0.45593999997E+02  0.45594000000E+02  0.51100000000E-03 0. -1.
         23    2    1    2    0    0  0.00000000000E+00  0.17763568394E-14  0.00000000000E+00  0.91188000000E+02  0.91188000000E+02 0.  0.
    9900012    2    3    3    0    0  0.41601318490E+02  0.15803193201E+02 -0.69787018675E+01  0.46142324345E+02  0.10000060041E+02 0.  0.
         12    1    3    3    0    0 -0.41601318490E+02 -0.15803193201E+02  0.69787018675E+01  0.45045675655E+02  0.00000000000E+00 0. -1.
         11    1    4    4    0    0  0.61393059810E+01  0.41219444772E+01  0.13465406594E+01  0.75162940476E+01  0.51100000000E-03 0. -1.
        -11    1    4    4    0    0  0.64626347866E+01  0.41357202739E+01 -0.27252340502E+01  0.81422804827E+01  0.51100000000E-03 0.  1.
         12    1    4    4    0    0  0.28999377722E+02  0.75455284501E+01 -0.56000084766E+01  0.30483749815E+02  0.00000000000E+00 0. -1.
</event>
<event>
 8    1  0.2962813E-009  0.9118800E+02  0.7816164E-02  0.1184000E+00
        -11   -1    0    0    0    0  0.00000000000E+00  0.00000000000E+00  0.45593999997E+02  0.45594000000E+02  0.51100000000E-03 0. -1.
         11   -1    0    0    0    0 -0.00000000000E+00 -0.00000000000E+00 -0.45593999997E+02  0.45594000000E+02  0.51100000000E-03 0.  1.
         23    2    1    2    0    0  0.00000000000E+00 -0.44408920985E-15  0.71054273576E-14  0.91188000000E+02  0.91188000000E+02 0.  0.
    9900012    2    3    3    0    0  0.24818874976E+02 -0.10968666816E+01  0.37575707972E+02  0.46142317619E+02  0.99999987053E+01 0.  0.
        -12    1    3    3    0    0 -0.24818874976E+02  0.10968666816E+01 -0.37575707972E+02  0.45045682381E+02  0.00000000000E+00 0.  1.
         11    1    4    4    0    0  0.12194256445E+02  0.49016234959E+00  0.19428400289E+02  0.22943471564E+02  0.51100000000E-03 0. -1.
        -11    1    4    4    0    0  0.86295003219E+01 -0.40111038892E+01  0.14134035287E+02  0.17039019455E+02  0.51100000000E-03 0.  1.
        -12    1    4    4    0    0  0.39951182095E+01  0.24240748580E+01  0.40132723950E+01  0.61598265999E+01  0.00000000000E+00 0.  1.
</event>
<event>
 8    1  0.2962813E-009  0.9118800E+02  0.7816164E-02  0.1184000E+00
        -11   -1    0    0    0    0  0.00000000000E+00  0.00000000000E+00  0.45593999997E+02  0.45594000000E+02  0.51100000000E-03 0.  1.
         11   -1    0    0    0    0 -0.00000000000E+00 -0.00000000000E+00 -0.45593999997E+02  0.45594000000E+02  0.51100000000E-03 0. -1.
         23    2    1    2    0    0 -0.71054273576E-14 -0.35527136788E-14  0.00000000000E+00  0.91188000000E+02  0.91188000000E+02 0.  0.
    9900012    2    3    3    0    0 -0.36117247694E+02 -0.26574719644E+02  0.42944372962E+01  0.46142317667E+02  0.99999991425E+01 0.  0.
        -12    1    3    3    0    0  0.36117247694E+02  0.26574719644E+02 -0.42944372962E+01  0.45045682333E+02  0.00000000000E+00 0.  1.
         11    1    4    4    0    0 -0.19962003550E+02 -0.18261188661E+02  0.25913615638E+00  0.27055863484E+02  0.51100000000E-03 0. -1.
        -11    1    4    4    0    0 -0.15286324924E+02 -0.68648393503E+01  0.27898452631E+01  0.16987671584E+02  0.51100000000E-03 0.  1.
        -12    1    4    4    0    0 -0.86891921915E+00 -0.14486916326E+01  0.12454558767E+01  0.20987825987E+01  0.00000000000E+00 0.  1.
</event>
<event>
 8    1  0.2962813E-009  0.9118800E+02  0.7816164E-02  0.1184000E+00
        -11   -1    0    0    0    0  0.00000000000E+00  0.00000000000E+00  0.45593999997E+02  0.45594000000E+02  0.51100000000E-03 0. -1.
         11   -1    0    0    0    0 -0.00000000000E+00 -0.00000000000E+00 -0.45593999997E+02  0.45594000000E+02  0.51100000000E-03 0.  1.
         23    2    1    2    0    0 -0.35527136788E-14  0.35527136788E-14  0.00000000000E+00  0.91188000000E+02  0.91188000000E+02 0.  0.
    9900012    2    3    3    0    0  0.16810435891E+02 -0.23042125535E+02  0.34865214616E+02  0.46142317696E+02  0.99999994060E+01 0.  0.
        -12    1    3    3    0    0 -0.16810435891E+02  0.23042125535E+02 -0.34865214616E+02  0.45045682304E+02  0.00000000000E+00 0.  1.
         11    1    4    4    0    0 -0.67851224655E-01  0.16336497751E+00 -0.45221460025E+00  0.48558234149E+00  0.51100000000E-03 0.  1.
        -11    1    4    4    0    0  0.47712072432E+01 -0.95062550753E+01  0.13721576905E+02  0.17361306896E+02  0.51100000000E-03 0. -1.
        -12    1    4    4    0    0  0.12107079872E+02 -0.13699235437E+02  0.21595852311E+02  0.28295428458E+02  0.00000000000E+00 0.  1.
</event>
<event>
 8    1  0.2962813E-009  0.9118800E+02  0.7816164E-02  0.1184000E+00
        -11   -1    0    0    0    0  0.00000000000E+00  0.00000000000E+00  0.45593999997E+02  0.45594000000E+02  0.51100000000E-03 0. -1.
         11   -1    0    0    0    0 -0.00000000000E+00 -0.00000000000E+00 -0.45593999997E+02  0.45594000000E+02  0.51100000000E-03 0.  1.
         23    2    1    2    0    0  0.35527136788E-14  0.71054273576E-14 -0.13877787808E-15  0.91188000000E+02  0.91188000000E+02 0.  0.
    9900012    2    3    3    0    0  0.17378568543E+02  0.41557889412E+02 -0.20166779832E+00  0.46142317778E+02  0.10000000153E+02 0.  0.
         12    1    3    3    0    0 -0.17378568543E+02 -0.41557889412E+02  0.20166779832E+00  0.45045682222E+02  0.00000000000E+00 0. -1.
         11    1    4    4    0    0  0.34671131862E+01  0.10643155372E+02 -0.37551187600E+01  0.11806716194E+02  0.51100000000E-03 0. -1.
        -11    1    4    4    0    0  0.12760342463E+02  0.28403425972E+02  0.20870160887E+01  0.31207957048E+02  0.51100000000E-03 0.  1.
         12    1    4    4    0    0  0.11511128934E+01  0.25113080685E+01  0.14664348730E+01  0.31276445363E+01  0.00000000000E+00 0. -1.
</event>
<event>
 8    1  0.2962813E-009  0.9118800E+02  0.7816164E-02  0.1184000E+00
        -11   -1    0    0    0    0  0.00000000000E+00  0.00000000000E+00  0.45593999997E+02  0.45594000000E+02  0.51100000000E-03 0. -1.
         11   -1    0    0    0    0 -0.00000000000E+00 -0.00000000000E+00 -0.45593999997E+02  0.45594000000E+02  0.51100000000E-03 0.  1.
         23    2    1    2    0    0  0.00000000000E+00  0.22204460493E-15  0.71054273576E-14  0.91188000000E+02  0.91188000000E+02 0.  0.
    9900012    2    3    3    0    0 -0.74742871684E+01  0.13137079811E+01  0.44401832668E+02  0.46142317170E+02  0.99999946095E+01 0.  0.
        -12    1    3    3    0    0  0.74742871684E+01 -0.13137079811E+01 -0.44401832668E+02  0.45045682830E+02  0.00000000000E+00 0.  1.
         11    1    4    4    0    0 -0.11491600371E+01  0.12592246559E+01  0.18867565495E+02  0.18944425129E+02  0.51100000000E-03 0. -1.
        -11    1    4    4    0    0  0.13055812373E+01  0.30315420981E+00  0.16656263680E+01  0.21379327167E+01  0.51100000000E-03 0.  1.
        -12    1    4    4    0    0 -0.76307083687E+01 -0.24867088460E+00  0.23868640805E+02  0.25059959324E+02  0.00000000000E+00 0.  1.
</event>
<event>
 8    1  0.2962813E-009  0.9118800E+02  0.7816164E-02  0.1184000E+00
        -11   -1    0    0    0    0  0.00000000000E+00  0.00000000000E+00  0.45593999997E+02  0.45594000000E+02  0.51100000000E-03 0. -1.
         11   -1    0    0    0    0 -0.00000000000E+00 -0.00000000000E+00 -0.45593999997E+02  0.45594000000E+02  0.51100000000E-03 0.  1.
         23    2    1    2    0    0 -0.17763568394E-14  0.17763568394E-14  0.71054273576E-14  0.91188000000E+02  0.91188000000E+02 0.  0.
    9900012    2    3    3    0    0  0.90726133547E+01 -0.11964681414E+02 -0.42469372106E+02  0.46142317838E+02  0.10000000700E+02 0.  0.
         12    1    3    3    0    0 -0.90726133547E+01  0.11964681414E+02  0.42469372106E+02  0.45045682162E+02  0.00000000000E+00 0. -1.
         11    1    4    4    0    0 -0.88834651589E+00 -0.39736163801E+01 -0.10862028535E+02  0.11600105639E+02  0.51100000000E-03 0. -1.
        -11    1    4    4    0    0  0.82392176875E+01 -0.83581909187E+01 -0.29758684657E+02  0.31989426008E+02  0.51100000000E-03 0.  1.
         12    1    4    4    0    0  0.17217421831E+01  0.36712588526E+00 -0.18486589130E+01  0.25527861911E+01  0.00000000000E+00 0. -1.
</event>
<event>
 8    1  0.2962813E-009  0.9118800E+02  0.7816164E-02  0.1184000E+00
        -11   -1    0    0    0    0  0.00000000000E+00  0.00000000000E+00  0.45593999997E+02  0.45594000000E+02  0.51100000000E-03 0. -1.
         11   -1    0    0    0    0 -0.00000000000E+00 -0.00000000000E+00 -0.45593999997E+02  0.45594000000E+02  0.51100000000E-03 0.  1.
         23    2    1    2    0    0  0.00000000000E+00  0.17763568394E-14  0.00000000000E+00  0.91188000000E+02  0.91188000000E+02 0.  0.
    9900012    2    3    3    0    0 -0.32214816210E+02 -0.15993449739E+02 -0.27120629942E+02  0.46142318892E+02  0.10000010311E+02 0.  0.
         12    1    3    3    0    0  0.32214816210E+02  0.15993449739E+02  0.27120629942E+02  0.45045681108E+02  0.00000000000E+00 0. -1.
         11    1    4    4    0    0 -0.50203747209E+00 -0.21419124898E+01 -0.34808445794E+01  0.41177797397E+01  0.51100000000E-03 0. -1.
        -11    1    4    4    0    0 -0.20540382536E+02 -0.10544098642E+02 -0.16039482149E+02  0.28113169846E+02  0.51100000000E-03 0.  1.
         12    1    4    4    0    0 -0.11172396202E+02 -0.33074386074E+01 -0.76003032135E+01  0.13911369306E+02  0.00000000000E+00 0. -1.
</event>
<event>
 8    1  0.2962813E-009  0.9118800E+02  0.7816164E-02  0.1184000E+00
        -11   -1    0    0    0    0  0.00000000000E+00  0.00000000000E+00  0.45593999997E+02  0.45594000000E+02  0.51100000000E-03 0. -1.
         11   -1    0    0    0    0 -0.00000000000E+00 -0.00000000000E+00 -0.45593999997E+02  0.45594000000E+02  0.51100000000E-03 0.  1.
         23    2    1    2    0    0 -0.35527136788E-14  0.00000000000E+00  0.00000000000E+00  0.91188000000E+02  0.91188000000E+02 0.  0.
    9900012    2    3    3    0    0  0.18946804341E+02  0.26592844181E+02 -0.31031478350E+02  0.46142318687E+02  0.10000008440E+02 0.  0.
         12    1    3    3    0    0 -0.18946804341E+02 -0.26592844181E+02  0.31031478350E+02  0.45045681313E+02  0.00000000000E+00 0. -1.
         11    1    4    4    0    0  0.13890212623E+01  0.35026688454E+01 -0.43994832069E+00  0.37936293827E+01  0.51100000000E-03 0. -1.
        -11    1    4    4    0    0  0.10626732774E+02  0.13570216227E+02 -0.20952802285E+02  0.27131128649E+02  0.51100000000E-03 0.  1.
        -12    1    4    4    0    0  0.69310503043E+01  0.95199591089E+01 -0.96387277444E+01  0.15217560655E+02  0.00000000000E+00 0.  1.
</event>
<event>
 8    1  0.2962813E-009  0.9118800E+02  0.7816164E-02  0.1184000E+00
        -11   -1    0    0    0    0  0.00000000000E+00  0.00000000000E+00  0.45593999997E+02  0.45594000000E+02  0.51100000000E-03 0. -1.
         11   -1    0    0    0    0 -0.00000000000E+00 -0.00000000000E+00 -0.45593999997E+02  0.45594000000E+02  0.51100000000E-03 0.  1.
         23    2    1    2    0    0  0.00000000000E+00 -0.35527136788E-14  0.00000000000E+00  0.91188000000E+02  0.91188000000E+02 0.  0.
    9900012    2    3    3    0    0  0.38368951750E+02  0.18726731412E+02  0.14361287125E+02  0.46142317680E+02  0.99999992609E+01 0.  0.
        -12    1    3    3    0    0 -0.38368951750E+02 -0.18726731412E+02 -0.14361287125E+02  0.45045682320E+02  0.00000000000E+00 0.  1.
         11    1    4    4    0    0  0.32529114021E+02  0.16074946228E+02  0.14193654864E+02  0.38961609231E+02  0.51100000000E-03 0. -1.
        -11    1    4    4    0    0 -0.33561414596E+00 -0.65321910854E-02  0.30852571081E+00  0.45592532266E+00  0.51100000000E-03 0.  1.
         12    1    4    4    0    0  0.61754518759E+01  0.26583173751E+01 -0.14089345006E+00  0.67247831268E+01  0.00000000000E+00 0. -1.
</event>
<event>
 8    1  0.2962813E-009  0.9118800E+02  0.7816164E-02  0.1184000E+00
        -11   -1    0    0    0    0  0.00000000000E+00  0.00000000000E+00  0.45593999997E+02  0.45594000000E+02  0.51100000000E-03 0. -1.
         11   -1    0    0    0    0 -0.00000000000E+00 -0.00000000000E+00 -0.45593999997E+02  0.45594000000E+02  0.51100000000E-03 0.  1.
         23    2    1    2    0    0  0.00000000000E+00  0.00000000000E+00  0.35527136788E-14  0.91188000000E+02  0.91188000000E+02 0.  0.
    9900012    2    3    3    0    0 -0.30568414990E+02 -0.24093901484E+02  0.22675311333E+02  0.46142313994E+02  0.99999656458E+01 0.  0.
        -12    1    3    3    0    0  0.30568414990E+02  0.24093901484E+02 -0.22675311333E+02  0.45045686006E+02  0.00000000000E+00 0.  1.
         11    1    4    4    0    0 -0.26349055981E+02 -0.18886659096E+02  0.16011029557E+02  0.36157042338E+02  0.51100000000E-03 0. -1.
        -11    1    4    4    0    0 -0.36315057450E+01 -0.36522312195E+01  0.65310471011E+01  0.83175238716E+01  0.51100000000E-03 0.  1.
         12    1    4    4    0    0 -0.58785326410E+00 -0.15550111679E+01  0.13323467548E+00  0.16677477840E+01  0.00000000000E+00 0. -1.
</event>
<event>
 8    1  0.2962813E-009  0.9118800E+02  0.7816164E-02  0.1184000E+00
        -11   -1    0    0    0    0  0.00000000000E+00  0.00000000000E+00  0.45593999997E+02  0.45594000000E+02  0.51100000000E-03 0. -1.
         11   -1    0    0    0    0 -0.00000000000E+00 -0.00000000000E+00 -0.45593999997E+02  0.45594000000E+02  0.51100000000E-03 0.  1.
         23    2    1    2    0    0  0.71054273576E-14  0.00000000000E+00 -0.35527136788E-14  0.91188000000E+02  0.91188000000E+02 0.  0.
    9900012    2    3    3    0    0 -0.36179218078E+02 -0.13334009211E+02  0.23289093710E+02  0.46142317541E+02  0.99999979918E+01 0.  0.
        -12    1    3    3    0    0  0.36179218078E+02  0.13334009211E+02 -0.23289093710E+02  0.45045682459E+02  0.00000000000E+00 0.  1.
         11    1    4    4    0    0 -0.10488227473E+02 -0.14875944532E+01  0.86111171836E+01  0.13651636978E+02  0.51100000000E-03 0. -1.
        -11    1    4    4    0    0 -0.22329544478E+02 -0.92882168874E+01  0.14632207939E+02  0.28266252651E+02  0.51100000000E-03 0.  1.
        -12    1    4    4    0    0 -0.33614461276E+01 -0.25581978702E+01  0.45768587381E-01  0.42244279110E+01  0.00000000000E+00 0.  1.
</event>
<event>
 8    1  0.2962813E-009  0.9118800E+02  0.7816164E-02  0.1184000E+00
        -11   -1    0    0    0    0  0.00000000000E+00  0.00000000000E+00  0.45593999997E+02  0.45594000000E+02  0.51100000000E-03 0. -1.
         11   -1    0    0    0    0 -0.00000000000E+00 -0.00000000000E+00 -0.45593999997E+02  0.45594000000E+02  0.51100000000E-03 0.  1.
         23    2    1    2    0    0  0.35527136788E-14  0.88817841970E-15  0.00000000000E+00  0.91188000000E+02  0.91188000000E+02 0.  0.
    9900012    2    3    3    0    0 -0.17873258087E+02 -0.56926186070E+01 -0.40954294494E+02  0.46142317646E+02  0.99999989490E+01 0.  0.
         12    1    3    3    0    0  0.17873258087E+02  0.56926186070E+01  0.40954294494E+02  0.45045682354E+02  0.00000000000E+00 0. -1.
         11    1    4    4    0    0 -0.77493788416E+01 -0.54939931341E+01 -0.14145784646E+02  0.17039367844E+02  0.51100000000E-03 0. -1.
        -11    1    4    4    0    0 -0.44293168297E+01  0.30438723339E+00 -0.18448585923E+02  0.18975295043E+02  0.51100000000E-03 0.  1.
        -12    1    4    4    0    0 -0.56945624153E+01 -0.50301270624E+00 -0.83599239248E+01  0.10127654759E+02  0.00000000000E+00 0.  1.
</event>
<event>
 8    1  0.2962813E-009  0.9118800E+02  0.7816164E-02  0.1184000E+00
        -11   -1    0    0    0    0  0.00000000000E+00  0.00000000000E+00  0.45593999997E+02  0.45594000000E+02  0.51100000000E-03 0. -1.
         11   -1    0    0    0    0 -0.00000000000E+00 -0.00000000000E+00 -0.45593999997E+02  0.45594000000E+02  0.51100000000E-03 0.  1.
         23    2    1    2    0    0  0.35527136788E-14 -0.35527136788E-14  0.00000000000E+00  0.91188000000E+02  0.91188000000E+02 0.  0.
    9900012    2    3    3    0    0  0.26141742146E+02  0.26207173340E+02 -0.25669181423E+02  0.46142317723E+02  0.99999996488E+01 0.  0.
         12    1    3    3    0    0 -0.26141742146E+02 -0.26207173340E+02  0.25669181423E+02  0.45045682277E+02  0.00000000000E+00 0. -1.
         11    1    4    4    0    0  0.34040664229E+01  0.52335556885E+01 -0.16722457185E+01  0.64632947759E+01  0.51100000000E-03 0. -1.
        -11    1    4    4    0    0  0.10334727318E+02  0.13034661792E+02 -0.10284345033E+02  0.19557012803E+02  0.51100000000E-03 0.  1.
         12    1    4    4    0    0  0.12402948405E+02  0.79389558596E+01 -0.13712590672E+02  0.20122010144E+02  0.00000000000E+00 0. -1.
</event>
<event>
 8    1  0.2962813E-009  0.9118800E+02  0.7816164E-02  0.1184000E+00
        -11   -1    0    0    0    0  0.00000000000E+00  0.00000000000E+00  0.45593999997E+02  0.45594000000E+02  0.51100000000E-03 0. -1.
         11   -1    0    0    0    0 -0.00000000000E+00 -0.00000000000E+00 -0.45593999997E+02  0.45594000000E+02  0.51100000000E-03 0.  1.
         23    2    1    2    0    0  0.00000000000E+00  0.26367796835E-15  0.00000000000E+00  0.91188000000E+02  0.91188000000E+02 0.  0.
    9900012    2    3    3    0    0 -0.66197052518E+01  0.64893580142E-01 -0.44556579648E+02  0.46142317646E+02  0.99999989520E+01 0.  0.
         12    1    3    3    0    0  0.66197052518E+01 -0.64893580142E-01  0.44556579648E+02  0.45045682354E+02  0.00000000000E+00 0. -1.
         11    1    4    4    0    0 -0.47174737192E+01  0.39375181456E+01 -0.26622343517E+02  0.27322294597E+02  0.51100000000E-03 0. -1.
        -11    1    4    4    0    0 -0.18717451752E+01 -0.32589091121E+01 -0.17798226321E+02  0.18190678355E+02  0.51100000000E-03 0.  1.
         12    1    4    4    0    0 -0.30486357484E-01 -0.61371545339E+00 -0.13600981052E+00  0.62934469433E+00  0.00000000000E+00 0. -1.
</event>
<event>
 8    1  0.2962813E-009  0.9118800E+02  0.7816164E-02  0.1184000E+00
        -11   -1    0    0    0    0  0.00000000000E+00  0.00000000000E+00  0.45593999997E+02  0.45594000000E+02  0.51100000000E-03 0.  1.
         11   -1    0    0    0    0 -0.00000000000E+00 -0.00000000000E+00 -0.45593999997E+02  0.45594000000E+02  0.51100000000E-03 0. -1.
         23    2    1    2    0    0  0.00000000000E+00  0.17763568394E-14 -0.17763568394E-14  0.91188000000E+02  0.91188000000E+02 0.  0.
    9900012    2    3    3    0    0  0.41484686918E+02 -0.89684443280E+01 -0.15089773115E+02  0.46142317688E+02  0.99999993306E+01 0.  0.
         12    1    3    3    0    0 -0.41484686918E+02  0.89684443280E+01  0.15089773115E+02  0.45045682312E+02  0.00000000000E+00 0. -1.
         11    1    4    4    0    0  0.17846092593E+02 -0.87708034785E+01 -0.62178409264E+01  0.20834384093E+02  0.51100000000E-03 0. -1.
        -11    1    4    4    0    0  0.75393806486E+01  0.72503273142E+00 -0.26781291551E+01  0.80336983425E+01  0.51100000000E-03 0.  1.
         12    1    4    4    0    0  0.16099213676E+02 -0.92267358099E+00 -0.61938030333E+01  0.17274235252E+02  0.00000000000E+00 0. -1.
</event>
<event>
 8    1  0.2962813E-009  0.9118800E+02  0.7816164E-02  0.1184000E+00
        -11   -1    0    0    0    0  0.00000000000E+00  0.00000000000E+00  0.45593999997E+02  0.45594000000E+02  0.51100000000E-03 0. -1.
         11   -1    0    0    0    0 -0.00000000000E+00 -0.00000000000E+00 -0.45593999997E+02  0.45594000000E+02  0.51100000000E-03 0.  1.
         23    2    1    2    0    0  0.00000000000E+00  0.00000000000E+00  0.00000000000E+00  0.91188000000E+02  0.91188000000E+02 0.  0.
    9900012    2    3    3    0    0 -0.12483612895E+02  0.11433699191E+02 -0.41743783953E+02  0.46142316890E+02  0.99999920609E+01 0.  0.
         12    1    3    3    0    0  0.12483612895E+02 -0.11433699191E+02  0.41743783953E+02  0.45045683110E+02  0.00000000000E+00 0. -1.
         11    1    4    4    0    0  0.25253983436E+00 -0.57017903785E+00 -0.13806352248E+01  0.15149370905E+01  0.51100000000E-03 0. -1.
        -11    1    4    4    0    0 -0.41107577650E+01  0.14844958350E+01 -0.45102720649E+01  0.62804945384E+01  0.51100000000E-03 0.  1.
        -12    1    4    4    0    0 -0.86253949643E+01  0.10519382394E+02 -0.35852876663E+02  0.38346885262E+02  0.00000000000E+00 0.  1.
</event>
<event>
 8    1  0.2962813E-009  0.9118800E+02  0.7816164E-02  0.1184000E+00
        -11   -1    0    0    0    0  0.00000000000E+00  0.00000000000E+00  0.45593999997E+02  0.45594000000E+02  0.51100000000E-03 0. -1.
         11   -1    0    0    0    0 -0.00000000000E+00 -0.00000000000E+00 -0.45593999997E+02  0.45594000000E+02  0.51100000000E-03 0.  1.
         23    2    1    2    0    0  0.00000000000E+00  0.00000000000E+00  0.00000000000E+00  0.91188000000E+02  0.91188000000E+02 0.  0.
    9900012    2    3    3    0    0 -0.19802358612E+02 -0.18219458614E+02 -0.36125218147E+02  0.46142318021E+02  0.10000002374E+02 0.  0.
         12    1    3    3    0    0  0.19802358612E+02  0.18219458614E+02  0.36125218147E+02  0.45045681979E+02  0.00000000000E+00 0. -1.
         11    1    4    4    0    0 -0.48095658406E+01 -0.44852644512E+01 -0.63966560724E+01  0.91742427449E+01  0.51100000000E-03 0. -1.
        -11    1    4    4    0    0 -0.66136929886E+01 -0.21258140319E+01 -0.56483476941E+01  0.89534268400E+01  0.51100000000E-03 0.  1.
        -12    1    4    4    0    0 -0.83790997828E+01 -0.11608380130E+02 -0.24080214380E+02  0.28014648437E+02  0.00000000000E+00 0.  1.
</event>
<event>
 8    1  0.2962813E-009  0.9118800E+02  0.7816164E-02  0.1184000E+00
        -11   -1    0    0    0    0  0.00000000000E+00  0.00000000000E+00  0.45593999997E+02  0.45594000000E+02  0.51100000000E-03 0. -1.
         11   -1    0    0    0    0 -0.00000000000E+00 -0.00000000000E+00 -0.45593999997E+02  0.45594000000E+02  0.51100000000E-03 0.  1.
         23    2    1    2    0    0  0.00000000000E+00  0.00000000000E+00  0.00000000000E+00  0.91188000000E+02  0.91188000000E+02 0.  0.
    9900012    2    3    3    0    0 -0.19860111023E+02 -0.12736043183E+02 -0.38372941741E+02  0.46142318035E+02  0.10000002498E+02 0.  0.
         12    1    3    3    0    0  0.19860111023E+02  0.12736043183E+02  0.38372941741E+02  0.45045681965E+02  0.00000000000E+00 0. -1.
         11    1    4    4    0    0 -0.68654624609E+01 -0.32573717393E+01 -0.19665520442E+02  0.21082640725E+02  0.51100000000E-03 0. -1.
        -11    1    4    4    0    0 -0.11176772960E+01 -0.14329986584E+01 -0.45723636724E+01  0.49202842913E+01  0.51100000000E-03 0.  1.
         12    1    4    4    0    0 -0.11876971266E+02 -0.80456727854E+01 -0.14135057627E+02  0.20139393019E+02  0.00000000000E+00 0. -1.
</event>
<event>
 8    1  0.2962813E-009  0.9118800E+02  0.7816164E-02  0.1184000E+00
        -11   -1    0    0    0    0  0.00000000000E+00  0.00000000000E+00  0.45593999997E+02  0.45594000000E+02  0.51100000000E-03 0. -1.
         11   -1    0    0    0    0 -0.00000000000E+00 -0.00000000000E+00 -0.45593999997E+02  0.45594000000E+02  0.51100000000E-03 0.  1.
         23    2    1    2    0    0  0.00000000000E+00  0.00000000000E+00  0.00000000000E+00  0.91188000000E+02  0.91188000000E+02 0.  0.
    9900012    2    3    3    0    0 -0.19990103423E+02 -0.37385668400E+02  0.15225667218E+02  0.46142318977E+02  0.10000011087E+02 0.  0.
        -12    1    3    3    0    0  0.19990103423E+02  0.37385668400E+02 -0.15225667218E+02  0.45045681023E+02  0.00000000000E+00 0.  1.
         11    1    4    4    0    0 -0.13392803511E+02 -0.17763133210E+02  0.10786090675E+02  0.24723184253E+02  0.51100000000E-03 0. -1.
        -11    1    4    4    0    0 -0.49771421965E+01 -0.13593791097E+02  0.16113337948E+01  0.14565695922E+02  0.51100000000E-03 0.  1.
        -12    1    4    4    0    0 -0.16201577159E+01 -0.60287440925E+01  0.28282427486E+01  0.68534388012E+01  0.00000000000E+00 0.  1.
</event>
<event>
 8    1  0.2962813E-009  0.9118800E+02  0.7816164E-02  0.1184000E+00
        -11   -1    0    0    0    0  0.00000000000E+00  0.00000000000E+00  0.45593999997E+02  0.45594000000E+02  0.51100000000E-03 0. -1.
         11   -1    0    0    0    0 -0.00000000000E+00 -0.00000000000E+00 -0.45593999997E+02  0.45594000000E+02  0.51100000000E-03 0.  1.
         23    2    1    2    0    0  0.00000000000E+00  0.00000000000E+00  0.71054273576E-14  0.91188000000E+02  0.91188000000E+02 0.  0.
    9900012    2    3    3    0    0 -0.24101719327E+01  0.85806648883E+01 -0.44155142439E+02  0.46142319381E+02  0.10000014768E+02 0.  0.
         12    1    3    3    0    0  0.24101719327E+01 -0.85806648883E+01  0.44155142439E+02  0.45045680619E+02  0.00000000000E+00 0. -1.
         11    1    4    4    0    0 -0.70269039842E+00  0.50922269275E+01 -0.90537565445E+01  0.10411294670E+02  0.51100000000E-03 0. -1.
        -11    1    4    4    0    0  0.12673251432E+01  0.31224254503E+01 -0.23865809447E+02  0.24102541661E+02  0.51100000000E-03 0.  1.
         12    1    4    4    0    0 -0.29748066775E+01  0.36601251040E+00 -0.11235576447E+02  0.11628483049E+02  0.00000000000E+00 0. -1.
</event>
<event>
 8    1  0.3759104E-009  0.9118800E+02  0.7816164E-02  0.1184000E+00
        -11   -1    0    0    0    0  0.00000000000E+00  0.00000000000E+00  0.45593999997E+02  0.45594000000E+02  0.51100000000E-03 0. -1.
         11   -1    0    0    0    0 -0.00000000000E+00 -0.00000000000E+00 -0.45593999997E+02  0.45594000000E+02  0.51100000000E-03 0.  1.
         23    2    1    2    0    0  0.00000000000E+00  0.88817841970E-15  0.71054273576E-14  0.91188000000E+02  0.91188000000E+02 0.  0.
    9900012    2    3    3    0    0 -0.29923241770E+01 -0.65983981142E+01 -0.44459207125E+02  0.46142312528E+02  0.99999522800E+01 0.  0.
         12    1    3    3    0    0  0.29923241770E+01  0.65983981142E+01  0.44459207125E+02  0.45045687472E+02  0.00000000000E+00 0. -1.
         11    1    4    4    0    0  0.15177514327E+01  0.14794172436E+01 -0.81350672094E+01  0.84066380649E+01  0.51100000000E-03 0. -1.
        -11    1    4    4    0    0 -0.27729426208E+01 -0.50227049775E+01 -0.29574645134E+02  0.30126008881E+02  0.51100000000E-03 0.  1.
         12    1    4    4    0    0 -0.17371329889E+01 -0.30551103802E+01 -0.67494947817E+01  0.76096655817E+01  0.00000000000E+00 0. -1.
</event>
<event>
 8    1  0.2962813E-009  0.9118800E+02  0.7816164E-02  0.1184000E+00
        -11   -1    0    0    0    0  0.00000000000E+00  0.00000000000E+00  0.45593999997E+02  0.45594000000E+02  0.51100000000E-03 0. -1.
         11   -1    0    0    0    0 -0.00000000000E+00 -0.00000000000E+00 -0.45593999997E+02  0.45594000000E+02  0.51100000000E-03 0.  1.
         23    2    1    2    0    0  0.71054273576E-14  0.00000000000E+00 -0.35527136788E-14  0.91188000000E+02  0.91188000000E+02 0.  0.
    9900012    2    3    3    0    0  0.35718035196E+02 -0.19748866849E+02 -0.19060894423E+02  0.46142317895E+02  0.10000001220E+02 0.  0.
         12    1    3    3    0    0 -0.35718035196E+02  0.19748866849E+02  0.19060894423E+02  0.45045682105E+02  0.00000000000E+00 0. -1.
         11    1    4    4    0    0  0.56112378569E+00 -0.16090351764E+01 -0.27285061018E+01  0.32169239827E+01  0.51100000000E-03 0. -1.
        -11    1    4    4    0    0  0.52856761574E+01 -0.36762200857E+01 -0.17327902217E+01  0.66674979395E+01  0.51100000000E-03 0.  1.
         12    1    4    4    0    0  0.29871235253E+02 -0.14463611587E+02 -0.14599598100E+02  0.36257895973E+02  0.00000000000E+00 0. -1.
</event>
<event>
 8    1  0.2962813E-009  0.9118800E+02  0.7816164E-02  0.1184000E+00
        -11   -1    0    0    0    0  0.00000000000E+00  0.00000000000E+00  0.45593999997E+02  0.45594000000E+02  0.51100000000E-03 0. -1.
         11   -1    0    0    0    0 -0.00000000000E+00 -0.00000000000E+00 -0.45593999997E+02  0.45594000000E+02  0.51100000000E-03 0.  1.
         23    2    1    2    0    0  0.00000000000E+00 -0.88817841970E-15  0.00000000000E+00  0.91188000000E+02  0.91188000000E+02 0.  0.
    9900012    2    3    3    0    0 -0.85992128015E+01  0.79101401154E+01  0.43503984715E+02  0.46142318037E+02  0.10000002515E+02 0.  0.
        -12    1    3    3    0    0  0.85992128015E+01 -0.79101401154E+01 -0.43503984715E+02  0.45045681963E+02  0.00000000000E+00 0.  1.
         11    1    4    4    0    0 -0.35640513168E+01  0.21857087464E+01  0.65660566020E+01  0.77841431175E+01  0.51100000000E-03 0. -1.
        -11    1    4    4    0    0 -0.36026564684E+01  0.10586699228E+01  0.63018299378E+01  0.73357328510E+01  0.51100000000E-03 0.  1.
         12    1    4    4    0    0 -0.14325050162E+01  0.46657614462E+01  0.30636098175E+02  0.31022442068E+02  0.00000000000E+00 0. -1.
</event>
<event>
 8    1  0.2962813E-009  0.9118800E+02  0.7816164E-02  0.1184000E+00
        -11   -1    0    0    0    0  0.00000000000E+00  0.00000000000E+00  0.45593999997E+02  0.45594000000E+02  0.51100000000E-03 0. -1.
         11   -1    0    0    0    0 -0.00000000000E+00 -0.00000000000E+00 -0.45593999997E+02  0.45594000000E+02  0.51100000000E-03 0.  1.
         23    2    1    2    0    0  0.00000000000E+00  0.11102230246E-15  0.00000000000E+00  0.91188000000E+02  0.91188000000E+02 0.  0.
    9900012    2    3    3    0    0  0.23469794827E+02 -0.39897263953E+00  0.38446365669E+02  0.46142317836E+02  0.10000000686E+02 0.  0.
        -12    1    3    3    0    0 -0.23469794827E+02  0.39897263953E+00 -0.38446365669E+02  0.45045682164E+02  0.00000000000E+00 0.  1.
         11    1    4    4    0    0  0.11772853500E+02  0.39403969076E+01  0.19878757131E+02  0.23436974904E+02  0.51100000000E-03 0. -1.
        -11    1    4    4    0    0  0.37220798075E+01 -0.14062523009E+00  0.33012974169E+01  0.49771697223E+01  0.51100000000E-03 0.  1.
         12    1    4    4    0    0  0.79748615200E+01 -0.41987443171E+01  0.15266311121E+02  0.17728173210E+02  0.00000000000E+00 0. -1.
</event>
<event>
 8    1  0.2962813E-009  0.9118800E+02  0.7816164E-02  0.1184000E+00
        -11   -1    0    0    0    0  0.00000000000E+00  0.00000000000E+00  0.45593999997E+02  0.45594000000E+02  0.51100000000E-03 0. -1.
         11   -1    0    0    0    0 -0.00000000000E+00 -0.00000000000E+00 -0.45593999997E+02  0.45594000000E+02  0.51100000000E-03 0.  1.
         23    2    1    2    0    0  0.00000000000E+00  0.00000000000E+00 -0.71054273576E-14  0.91188000000E+02  0.91188000000E+02 0.  0.
    9900012    2    3    3    0    0  0.93736632020E+01 -0.39088760219E+01  0.43885857964E+02  0.46142318711E+02  0.10000008661E+02 0.  0.
        -12    1    3    3    0    0 -0.93736632020E+01  0.39088760219E+01 -0.43885857964E+02  0.45045681289E+02  0.00000000000E+00 0.  1.
         11    1    4    4    0    0 -0.15884705472E+01 -0.58438381894E+00  0.60108319132E+01  0.62445851485E+01  0.51100000000E-03 0. -1.
        -11    1    4    4    0    0  0.23240150171E+01  0.81437253690E+00  0.40247128991E+01  0.47183220121E+01  0.51100000000E-03 0.  1.
        -12    1    4    4    0    0  0.86381187322E+01 -0.41388647398E+01  0.33850313152E+02  0.35179411550E+02  0.00000000000E+00 0.  1.
</event>
<event>
 8    1  0.2962813E-009  0.9118800E+02  0.7816164E-02  0.1184000E+00
        -11   -1    0    0    0    0  0.00000000000E+00  0.00000000000E+00  0.45593999997E+02  0.45594000000E+02  0.51100000000E-03 0. -1.
         11   -1    0    0    0    0 -0.00000000000E+00 -0.00000000000E+00 -0.45593999997E+02  0.45594000000E+02  0.51100000000E-03 0.  1.
         23    2    1    2    0    0  0.17763568394E-14  0.00000000000E+00  0.00000000000E+00  0.91188000000E+02  0.91188000000E+02 0.  0.
    9900012    2    3    3    0    0 -0.13264571351E+02  0.46236874743E+01  0.42799370277E+02  0.46142318352E+02  0.10000005392E+02 0.  0.
        -12    1    3    3    0    0  0.13264571351E+02 -0.46236874743E+01 -0.42799370277E+02  0.45045681648E+02  0.00000000000E+00 0.  1.
         11    1    4    4    0    0 -0.10560633923E+02  0.59446140641E+00  0.27948725162E+02  0.29883299879E+02  0.51100000000E-03 0. -1.
        -11    1    4    4    0    0 -0.43715973352E+00  0.43121560431E+01  0.96213753790E+01  0.10552566646E+02  0.51100000000E-03 0.  1.
        -12    1    4    4    0    0 -0.22667776950E+01 -0.28292997519E+00  0.52292697358E+01  0.57064518275E+01  0.00000000000E+00 0.  1.
</event>
<event>
 8    1  0.2962813E-009  0.9118800E+02  0.7816164E-02  0.1184000E+00
        -11   -1    0    0    0    0  0.00000000000E+00  0.00000000000E+00  0.45593999997E+02  0.45594000000E+02  0.51100000000E-03 0. -1.
         11   -1    0    0    0    0 -0.00000000000E+00 -0.00000000000E+00 -0.45593999997E+02  0.45594000000E+02  0.51100000000E-03 0.  1.
         23    2    1    2    0    0  0.00000000000E+00  0.00000000000E+00  0.00000000000E+00  0.91188000000E+02  0.91188000000E+02 0.  0.
    9900012    2    3    3    0    0 -0.36925273403E+01 -0.62738404426E+01  0.44453543695E+02  0.46142318974E+02  0.10000011063E+02 0.  0.
        -12    1    3    3    0    0  0.36925273403E+01  0.62738404426E+01 -0.44453543695E+02  0.45045681026E+02  0.00000000000E+00 0.  1.
         11    1    4    4    0    0 -0.52324905084E+00 -0.45352785533E+01  0.10523844263E+02  0.11471435806E+02  0.51100000000E-03 0. -1.
        -11    1    4    4    0    0  0.72512572269E+00  0.14888238150E+01  0.42123709554E+01  0.45261985145E+01  0.51100000000E-03 0.  1.
        -12    1    4    4    0    0 -0.38944040122E+01 -0.32273857044E+01  0.29717328476E+02  0.30144684654E+02  0.00000000000E+00 0.  1.
</event>
<event>
 8    1  0.2962813E-009  0.9118800E+02  0.7816164E-02  0.1184000E+00
        -11   -1    0    0    0    0  0.00000000000E+00  0.00000000000E+00  0.45593999997E+02  0.45594000000E+02  0.51100000000E-03 0.  1.
         11   -1    0    0    0    0 -0.00000000000E+00 -0.00000000000E+00 -0.45593999997E+02  0.45594000000E+02  0.51100000000E-03 0. -1.
         23    2    1    2    0    0  0.00000000000E+00  0.00000000000E+00  0.00000000000E+00  0.91188000000E+02  0.91188000000E+02 0.  0.
    9900012    2    3    3    0    0  0.16862860584E+02  0.39024316077E+02  0.14894987037E+02  0.46142312624E+02  0.99999531520E+01 0.  0.
        -12    1    3    3    0    0 -0.16862860584E+02 -0.39024316077E+02 -0.14894987037E+02  0.45045687376E+02  0.00000000000E+00 0.  1.
         11    1    4    4    0    0  0.51302900479E+01  0.10101156728E+02  0.20204507892E+01  0.11508060865E+02  0.51100000000E-03 0. -1.
        -11    1    4    4    0    0 -0.72921224887E+00  0.40890022168E+01  0.30880689565E+01  0.51756989648E+01  0.51100000000E-03 0.  1.
        -12    1    4    4    0    0  0.12461782785E+02  0.24834157132E+02  0.97864672912E+01  0.29458552794E+02  0.00000000000E+00 0.  1.
</event>
<event>
 8    1  0.2962813E-009  0.9118800E+02  0.7816164E-02  0.1184000E+00
        -11   -1    0    0    0    0  0.00000000000E+00  0.00000000000E+00  0.45593999997E+02  0.45594000000E+02  0.51100000000E-03 0. -1.
         11   -1    0    0    0    0 -0.00000000000E+00 -0.00000000000E+00 -0.45593999997E+02  0.45594000000E+02  0.51100000000E-03 0.  1.
         23    2    1    2    0    0  0.11102230246E-15  0.00000000000E+00  0.00000000000E+00  0.91188000000E+02  0.91188000000E+02 0.  0.
    9900012    2    3    3    0    0  0.87620668485E+00 -0.42116751810E+02  0.15953841528E+02  0.46142316736E+02  0.99999906549E+01 0.  0.
        -12    1    3    3    0    0 -0.87620668485E+00  0.42116751810E+02 -0.15953841528E+02  0.45045683264E+02  0.00000000000E+00 0.  1.
         11    1    4    4    0    0  0.50490521386E+01 -0.16661980269E+02  0.73260286129E+01  0.18888758812E+02  0.51100000000E-03 0. -1.
        -11    1    4    4    0    0 -0.17490404960E+01 -0.15283613842E+02  0.47198604155E+01  0.16091149037E+02  0.51100000000E-03 0.  1.
         12    1    4    4    0    0 -0.24238049577E+01 -0.10171157700E+02  0.39079525000E+01  0.11162408887E+02  0.00000000000E+00 0. -1.
</event>
<event>
 8    1  0.2962813E-009  0.9118800E+02  0.7816164E-02  0.1184000E+00
        -11   -1    0    0    0    0  0.00000000000E+00  0.00000000000E+00  0.45593999997E+02  0.45594000000E+02  0.51100000000E-03 0. -1.
         11   -1    0    0    0    0 -0.00000000000E+00 -0.00000000000E+00 -0.45593999997E+02  0.45594000000E+02  0.51100000000E-03 0.  1.
         23    2    1    2    0    0 -0.44408920985E-15  0.00000000000E+00  0.00000000000E+00  0.91188000000E+02  0.91188000000E+02 0.  0.
    9900012    2    3    3    0    0  0.39621394123E+01 -0.39932837579E+02 -0.20464197647E+02  0.46142318173E+02  0.10000003760E+02 0.  0.
         12    1    3    3    0    0 -0.39621394123E+01  0.39932837579E+02  0.20464197647E+02  0.45045681827E+02  0.00000000000E+00 0. -1.
         11    1    4    4    0    0  0.31151476062E+01 -0.80144771767E+01 -0.20641018634E+01  0.88428788179E+01  0.51100000000E-03 0. -1.
        -11    1    4    4    0    0  0.12728945081E+01 -0.26103001301E+02 -0.17365316882E+02  0.31377399001E+02  0.51100000000E-03 0.  1.
        -12    1    4    4    0    0 -0.42590270202E+00 -0.58153591015E+01 -0.10347789020E+01  0.59220403550E+01  0.00000000000E+00 0.  1.
</event>
<event>
 8    1  0.2962813E-009  0.9118800E+02  0.7816164E-02  0.1184000E+00
        -11   -1    0    0    0    0  0.00000000000E+00  0.00000000000E+00  0.45593999997E+02  0.45594000000E+02  0.51100000000E-03 0. -1.
         11   -1    0    0    0    0 -0.00000000000E+00 -0.00000000000E+00 -0.45593999997E+02  0.45594000000E+02  0.51100000000E-03 0.  1.
         23    2    1    2    0    0  0.00000000000E+00  0.00000000000E+00 -0.71054273576E-14  0.91188000000E+02  0.91188000000E+02 0.  0.
    9900012    2    3    3    0    0  0.71899132449E+01  0.62069389019E+01  0.44032857655E+02  0.46142317674E+02  0.99999992039E+01 0.  0.
        -12    1    3    3    0    0 -0.71899132449E+01 -0.62069389019E+01 -0.44032857655E+02  0.45045682326E+02  0.00000000000E+00 0.  1.
         11    1    4    4    0    0 -0.61341801112E+00  0.30455018787E+01  0.52120117253E+01  0.60676543932E+01  0.51100000000E-03 0. -1.
        -11    1    4    4    0    0  0.34506827868E+01 -0.13221151875E+01  0.14792555648E+02  0.15247127700E+02  0.51100000000E-03 0.  1.
        -12    1    4    4    0    0  0.43526484692E+01  0.44835522107E+01  0.24028290282E+02  0.24827535580E+02  0.00000000000E+00 0.  1.
</event>
<event>
 8    1  0.2962813E-009  0.9118800E+02  0.7816164E-02  0.1184000E+00
        -11   -1    0    0    0    0  0.00000000000E+00  0.00000000000E+00  0.45593999997E+02  0.45594000000E+02  0.51100000000E-03 0. -1.
         11   -1    0    0    0    0 -0.00000000000E+00 -0.00000000000E+00 -0.45593999997E+02  0.45594000000E+02  0.51100000000E-03 0.  1.
         23    2    1    2    0    0 -0.22204460493E-15  0.00000000000E+00  0.71054273576E-14  0.91188000000E+02  0.91188000000E+02 0.  0.
    9900012    2    3    3    0    0  0.18079578758E+01  0.60449062513E+01  0.44601612408E+02  0.46142318379E+02  0.10000005638E+02 0.  0.
        -12    1    3    3    0    0 -0.18079578758E+01 -0.60449062513E+01 -0.44601612408E+02  0.45045681621E+02  0.00000000000E+00 0.  1.
         11    1    4    4    0    0 -0.11882878774E+01  0.11760433584E+01  0.16340687395E+02  0.16425990712E+02  0.51100000000E-03 0. -1.
        -11    1    4    4    0    0  0.59012536899E+00  0.30506661307E+01  0.31488475045E+01  0.44238052240E+01  0.51100000000E-03 0.  1.
        -12    1    4    4    0    0  0.24061203842E+01  0.18181967623E+01  0.25112077508E+02  0.25292522444E+02  0.00000000000E+00 0.  1.
</event>
<event>
 8    1  0.2962813E-009  0.9118800E+02  0.7816164E-02  0.1184000E+00
        -11   -1    0    0    0    0  0.00000000000E+00  0.00000000000E+00  0.45593999997E+02  0.45594000000E+02  0.51100000000E-03 0. -1.
         11   -1    0    0    0    0 -0.00000000000E+00 -0.00000000000E+00 -0.45593999997E+02  0.45594000000E+02  0.51100000000E-03 0.  1.
         23    2    1    2    0    0 -0.17763568394E-14  0.00000000000E+00 -0.71054273576E-14  0.91188000000E+02  0.91188000000E+02 0.  0.
    9900012    2    3    3    0    0  0.61377887871E+01 -0.10807923411E+02 -0.43296995653E+02  0.46142317718E+02  0.99999996090E+01 0.  0.
         12    1    3    3    0    0 -0.61377887871E+01  0.10807923411E+02  0.43296995653E+02  0.45045682282E+02  0.00000000000E+00 0. -1.
         11    1    4    4    0    0  0.66759899242E+01 -0.54477922630E+01 -0.21281143793E+02  0.22959406861E+02  0.51100000000E-03 0. -1.
        -11    1    4    4    0    0  0.14634726954E+01 -0.91208235679E+00 -0.11015264935E+02  0.11149426371E+02  0.51100000000E-03 0.  1.
         12    1    4    4    0    0 -0.20016738326E+01 -0.44480487915E+01 -0.11000586924E+02  0.12033484485E+02  0.00000000000E+00 0. -1.
</event>
<event>
 8    1  0.2992933E-009  0.9118800E+02  0.7816164E-02  0.1184000E+00
        -11   -1    0    0    0    0  0.00000000000E+00  0.00000000000E+00  0.45593999997E+02  0.45594000000E+02  0.51100000000E-03 0. -1.
         11   -1    0    0    0    0 -0.00000000000E+00 -0.00000000000E+00 -0.45593999997E+02  0.45594000000E+02  0.51100000000E-03 0.  1.
         23    2    1    2    0    0  0.00000000000E+00 -0.17763568394E-14  0.00000000000E+00  0.91188000000E+02  0.91188000000E+02 0.  0.
    9900012    2    3    3    0    0  0.13371001099E+02 -0.11475787565E+02 -0.41456437446E+02  0.46142316785E+02  0.99999910972E+01 0.  0.
         12    1    3    3    0    0 -0.13371001099E+02  0.11475787565E+02  0.41456437446E+02  0.45045683215E+02  0.00000000000E+00 0. -1.
         11    1    4    4    0    0  0.45484170562E+01 -0.61451909572E+01 -0.25994946527E+02  0.27095916940E+02  0.51100000000E-03 0. -1.
        -11    1    4    4    0    0  0.87401089334E+01 -0.43283268409E+01 -0.15103614834E+02  0.17978962671E+02  0.51100000000E-03 0.  1.
         12    1    4    4    0    0  0.82475109561E-01 -0.10022697665E+01 -0.35787608540E+00  0.10674371743E+01  0.00000000000E+00 0. -1.
</event>
<event>
 8    1  0.2962813E-009  0.9118800E+02  0.7816164E-02  0.1184000E+00
        -11   -1    0    0    0    0  0.00000000000E+00  0.00000000000E+00  0.45593999997E+02  0.45594000000E+02  0.51100000000E-03 0. -1.
         11   -1    0    0    0    0 -0.00000000000E+00 -0.00000000000E+00 -0.45593999997E+02  0.45594000000E+02  0.51100000000E-03 0.  1.
         23    2    1    2    0    0 -0.88817841970E-15  0.00000000000E+00 -0.71054273576E-14  0.91188000000E+02  0.91188000000E+02 0.  0.
    9900012    2    3    3    0    0  0.28400904647E+01  0.18979753807E+02  0.40753106928E+02  0.46142324373E+02  0.10000060294E+02 0.  0.
        -12    1    3    3    0    0 -0.28400904647E+01 -0.18979753807E+02 -0.40753106928E+02  0.45045675627E+02  0.00000000000E+00 0.  1.
         11    1    4    4    0    0 -0.18793115144E+01  0.29333263972E+01  0.65473452434E+01  0.74164644891E+01  0.51100000000E-03 0. -1.
        -11    1    4    4    0    0  0.56059958050E+01  0.10854861482E+02  0.18582982151E+02  0.22239209353E+02  0.51100000000E-03 0.  1.
        -12    1    4    4    0    0 -0.88659382589E+00  0.51915659281E+01  0.15622779533E+02  0.16486650531E+02  0.00000000000E+00 0.  1.
</event>
<event>
 8    1  0.2962813E-009  0.9118800E+02  0.7816164E-02  0.1184000E+00
        -11   -1    0    0    0    0  0.00000000000E+00  0.00000000000E+00  0.45593999997E+02  0.45594000000E+02  0.51100000000E-03 0. -1.
         11   -1    0    0    0    0 -0.00000000000E+00 -0.00000000000E+00 -0.45593999997E+02  0.45594000000E+02  0.51100000000E-03 0.  1.
         23    2    1    2    0    0 -0.35527136788E-14  0.00000000000E+00  0.00000000000E+00  0.91188000000E+02  0.91188000000E+02 0.  0.
    9900012    2    3    3    0    0  0.22861026937E+02 -0.60259944351E+01 -0.38342852245E+02  0.46142317856E+02  0.10000000863E+02 0.  0.
         12    1    3    3    0    0 -0.22861026937E+02  0.60259944351E+01  0.38342852245E+02  0.45045682144E+02  0.00000000000E+00 0. -1.
         11    1    4    4    0    0  0.12077422724E+02 -0.50598713701E+01 -0.15992852786E+02  0.20669730971E+02  0.51100000000E-03 0. -1.
        -11    1    4    4    0    0  0.68468653541E+01  0.24287736570E-01 -0.78566473152E+01  0.10421471219E+02  0.51100000000E-03 0.  1.
        -12    1    4    4    0    0  0.39367388588E+01 -0.99041080158E+00 -0.14493352144E+02  0.15051115666E+02  0.00000000000E+00 0.  1.
</event>
<event>
 8    1  0.2962813E-009  0.9118800E+02  0.7816164E-02  0.1184000E+00
        -11   -1    0    0    0    0  0.00000000000E+00  0.00000000000E+00  0.45593999997E+02  0.45594000000E+02  0.51100000000E-03 0. -1.
         11   -1    0    0    0    0 -0.00000000000E+00 -0.00000000000E+00 -0.45593999997E+02  0.45594000000E+02  0.51100000000E-03 0.  1.
         23    2    1    2    0    0  0.35527136788E-14  0.35527136788E-14  0.00000000000E+00  0.91188000000E+02  0.91188000000E+02 0.  0.
    9900012    2    3    3    0    0 -0.18507572466E+02 -0.23151372311E+02 -0.33920453261E+02  0.46142318432E+02  0.10000006117E+02 0.  0.
         12    1    3    3    0    0  0.18507572466E+02  0.23151372311E+02  0.33920453261E+02  0.45045681568E+02  0.00000000000E+00 0. -1.
         11    1    4    4    0    0 -0.26851908596E+01 -0.22520270576E+01 -0.13064119709E+01  0.37401321259E+01  0.51100000000E-03 0. -1.
        -11    1    4    4    0    0 -0.80439053695E+01 -0.11081157449E+02 -0.11636970221E+02  0.17969850868E+02  0.51100000000E-03 0.  1.
        -12    1    4    4    0    0 -0.77784762366E+01 -0.98181878044E+01 -0.20977071069E+02  0.24432335438E+02  0.00000000000E+00 0.  1.
</event>
<event>
 8    1  0.2962813E-009  0.9118800E+02  0.7816164E-02  0.1184000E+00
        -11   -1    0    0    0    0  0.00000000000E+00  0.00000000000E+00  0.45593999997E+02  0.45594000000E+02  0.51100000000E-03 0. -1.
         11   -1    0    0    0    0 -0.00000000000E+00 -0.00000000000E+00 -0.45593999997E+02  0.45594000000E+02  0.51100000000E-03 0.  1.
         23    2    1    2    0    0 -0.35527136788E-14 -0.44408920985E-15  0.00000000000E+00  0.91188000000E+02  0.91188000000E+02 0.  0.
    9900012    2    3    3    0    0 -0.22982818441E+02 -0.29947369839E+01  0.38625565019E+02  0.46142326888E+02  0.10000083225E+02 0.  0.
        -12    1    3    3    0    0  0.22982818441E+02  0.29947369839E+01 -0.38625565019E+02  0.45045673112E+02  0.00000000000E+00 0.  1.
         11    1    4    4    0    0 -0.19085670395E+02 -0.17346439965E+00  0.26922198824E+02  0.33001480181E+02  0.51100000000E-03 0. -1.
        -11    1    4    4    0    0 -0.97902497380E-01 -0.18252704468E+01  0.55271465613E+01  0.58215587667E+01  0.51100000000E-03 0.  1.
        -12    1    4    4    0    0 -0.37992455486E+01 -0.99600213751E+00  0.61762196332E+01  0.73192879404E+01  0.00000000000E+00 0.  1.
</event>
<event>
 8    1  0.2962813E-009  0.9118800E+02  0.7816164E-02  0.1184000E+00
        -11   -1    0    0    0    0  0.00000000000E+00  0.00000000000E+00  0.45593999997E+02  0.45594000000E+02  0.51100000000E-03 0. -1.
         11   -1    0    0    0    0 -0.00000000000E+00 -0.00000000000E+00 -0.45593999997E+02  0.45594000000E+02  0.51100000000E-03 0.  1.
         23    2    1    2    0    0  0.71054273576E-14  0.00000000000E+00  0.00000000000E+00  0.91188000000E+02  0.91188000000E+02 0.  0.
    9900012    2    3    3    0    0  0.36027089399E+02 -0.59319840708E+01  0.26381312863E+02  0.46142320141E+02  0.10000021700E+02 0.  0.
        -12    1    3    3    0    0 -0.36027089399E+02  0.59319840708E+01 -0.26381312863E+02  0.45045679859E+02  0.00000000000E+00 0.  1.
         11    1    4    4    0    0  0.95579409786E+01  0.20598763041E+01  0.60781255727E+01  0.11512642480E+02  0.51100000000E-03 0.  1.
        -11    1    4    4    0    0  0.23580129620E+02 -0.85637799953E+01  0.18572030811E+02  0.31213477368E+02  0.51100000000E-03 0. -1.
         12    1    4    4    0    0  0.28890188005E+01  0.57191962044E+00  0.17311564792E+01  0.34162002924E+01  0.00000000000E+00 0. -1.
</event>
<event>
 8    1  0.2962813E-009  0.9118800E+02  0.7816164E-02  0.1184000E+00
        -11   -1    0    0    0    0  0.00000000000E+00  0.00000000000E+00  0.45593999997E+02  0.45594000000E+02  0.51100000000E-03 0. -1.
         11   -1    0    0    0    0 -0.00000000000E+00 -0.00000000000E+00 -0.45593999997E+02  0.45594000000E+02  0.51100000000E-03 0.  1.
         23    2    1    2    0    0  0.00000000000E+00  0.00000000000E+00  0.35527136788E-14  0.91188000000E+02  0.91188000000E+02 0.  0.
    9900012    2    3    3    0    0 -0.57428715593E+01  0.35927221120E+02 -0.26558759969E+02  0.46142317385E+02  0.99999965736E+01 0.  0.
         12    1    3    3    0    0  0.57428715593E+01 -0.35927221120E+02  0.26558759969E+02  0.45045682615E+02  0.00000000000E+00 0. -1.
         11    1    4    4    0    0 -0.54121515095E+00 -0.80693184542E-02  0.42456326384E+00  0.68791945723E+00  0.51100000000E-03 0. -1.
        -11    1    4    4    0    0 -0.17337209773E+01  0.43513254790E+01 -0.22921067412E+01  0.52147459598E+01  0.51100000000E-03 0.  1.
         12    1    4    4    0    0 -0.34679354310E+01  0.31583964959E+02 -0.24691216492E+02  0.40239651968E+02  0.00000000000E+00 0. -1.
</event>
<event>
 8    1  0.2962813E-009  0.9118800E+02  0.7816164E-02  0.1184000E+00
        -11   -1    0    0    0    0  0.00000000000E+00  0.00000000000E+00  0.45593999997E+02  0.45594000000E+02  0.51100000000E-03 0. -1.
         11   -1    0    0    0    0 -0.00000000000E+00 -0.00000000000E+00 -0.45593999997E+02  0.45594000000E+02  0.51100000000E-03 0.  1.
         23    2    1    2    0    0  0.00000000000E+00  0.00000000000E+00  0.00000000000E+00  0.91188000000E+02  0.91188000000E+02 0.  0.
    9900012    2    3    3    0    0 -0.15592057324E+02  0.61730706422E+01  0.41807828070E+02  0.46142317181E+02  0.99999947072E+01 0.  0.
        -12    1    3    3    0    0  0.15592057324E+02 -0.61730706422E+01 -0.41807828070E+02  0.45045682819E+02  0.00000000000E+00 0.  1.
         11    1    4    4    0    0 -0.17608220808E+01 -0.10299925610E+01  0.17258705477E+01  0.26720794308E+01  0.51100000000E-03 0.  1.
        -11    1    4    4    0    0 -0.13082955397E+02  0.44649982004E+01  0.30711727006E+02  0.33679520584E+02  0.51100000000E-03 0. -1.
        -12    1    4    4    0    0 -0.74827984601E+00  0.27380650027E+01  0.93702305166E+01  0.97907171658E+01  0.00000000000E+00 0.  1.
</event>
<event>
 8    1  0.2962813E-009  0.9118800E+02  0.7816164E-02  0.1184000E+00
        -11   -1    0    0    0    0  0.00000000000E+00  0.00000000000E+00  0.45593999997E+02  0.45594000000E+02  0.51100000000E-03 0. -1.
         11   -1    0    0    0    0 -0.00000000000E+00 -0.00000000000E+00 -0.45593999997E+02  0.45594000000E+02  0.51100000000E-03 0.  1.
         23    2    1    2    0    0  0.00000000000E+00  0.71054273576E-14  0.00000000000E+00  0.91188000000E+02  0.91188000000E+02 0.  0.
    9900012    2    3    3    0    0 -0.13420719034E+02  0.40618355450E+02  0.14111934943E+02  0.46142320887E+02  0.10000028508E+02 0.  0.
        -12    1    3    3    0    0  0.13420719034E+02 -0.40618355450E+02 -0.14111934943E+02  0.45045679113E+02  0.00000000000E+00 0.  1.
         11    1    4    4    0    0 -0.30725186885E+01  0.19598226429E+02  0.65227406743E+01  0.20882456667E+02  0.51100000000E-03 0. -1.
        -11    1    4    4    0    0 -0.76209277795E+01  0.16498313141E+02  0.33307350370E+01  0.18476110869E+02  0.51100000000E-03 0.  1.
         12    1    4    4    0    0 -0.27272725661E+01  0.45218158801E+01  0.42584592316E+01  0.67837533513E+01  0.00000000000E+00 0. -1.
</event>
<event>
 8    1  0.2962813E-009  0.9118800E+02  0.7816164E-02  0.1184000E+00
        -11   -1    0    0    0    0  0.00000000000E+00  0.00000000000E+00  0.45593999997E+02  0.45594000000E+02  0.51100000000E-03 0. -1.
         11   -1    0    0    0    0 -0.00000000000E+00 -0.00000000000E+00 -0.45593999997E+02  0.45594000000E+02  0.51100000000E-03 0.  1.
         23    2    1    2    0    0  0.00000000000E+00  0.00000000000E+00  0.00000000000E+00  0.91188000000E+02  0.91188000000E+02 0.  0.
    9900012    2    3    3    0    0  0.15633008774E+01 -0.36537339414E+02 -0.26300047076E+02  0.46142316996E+02  0.99999930238E+01 0.  0.
         12    1    3    3    0    0 -0.15633008774E+01  0.36537339414E+02  0.26300047076E+02  0.45045683004E+02  0.00000000000E+00 0. -1.
         11    1    4    4    0    0  0.63741161257E+00 -0.20981455320E+02 -0.20568824859E+02  0.29388846818E+02  0.51100000000E-03 0. -1.
        -11    1    4    4    0    0 -0.56983059566E-01 -0.12478685953E+02 -0.49875473717E+01  0.13438618948E+02  0.51100000000E-03 0.  1.
         12    1    4    4    0    0  0.98287232445E+00 -0.30771981408E+01 -0.74367484460E+00  0.33148512302E+01  0.00000000000E+00 0. -1.
</event>
<event>
 8    1  0.2962813E-009  0.9118800E+02  0.7816164E-02  0.1184000E+00
        -11   -1    0    0    0    0  0.00000000000E+00  0.00000000000E+00  0.45593999997E+02  0.45594000000E+02  0.51100000000E-03 0. -1.
         11   -1    0    0    0    0 -0.00000000000E+00 -0.00000000000E+00 -0.45593999997E+02  0.45594000000E+02  0.51100000000E-03 0.  1.
         23    2    1    2    0    0  0.00000000000E+00 -0.35527136788E-14  0.88817841970E-15  0.91188000000E+02  0.91188000000E+02 0.  0.
    9900012    2    3    3    0    0  0.36499495024E+02  0.25194290410E+02 -0.78834060575E+01  0.46142317661E+02  0.99999990914E+01 0.  0.
         12    1    3    3    0    0 -0.36499495024E+02 -0.25194290410E+02  0.78834060575E+01  0.45045682339E+02  0.00000000000E+00 0. -1.
         11    1    4    4    0    0  0.15411452466E+02  0.99297063630E+01 -0.15492994219E+01  0.18398702795E+02  0.51100000000E-03 0. -1.
        -11    1    4    4    0    0  0.19256769757E+02  0.15824280554E+02 -0.66651975277E+01  0.25800308038E+02  0.51100000000E-03 0.  1.
        -12    1    4    4    0    0  0.18312728011E+01 -0.55969650669E+00  0.33109089210E+00  0.19433068287E+01  0.00000000000E+00 0.  1.
</event>
<event>
 8    1  0.2962813E-009  0.9118800E+02  0.7816164E-02  0.1184000E+00
        -11   -1    0    0    0    0  0.00000000000E+00  0.00000000000E+00  0.45593999997E+02  0.45594000000E+02  0.51100000000E-03 0. -1.
         11   -1    0    0    0    0 -0.00000000000E+00 -0.00000000000E+00 -0.45593999997E+02  0.45594000000E+02  0.51100000000E-03 0.  1.
         23    2    1    2    0    0  0.17763568394E-14  0.00000000000E+00  0.00000000000E+00  0.91188000000E+02  0.91188000000E+02 0.  0.
    9900012    2    3    3    0    0 -0.83283225146E+01 -0.26582679445E+02  0.35399345987E+02  0.46142317647E+02  0.99999989553E+01 0.  0.
        -12    1    3    3    0    0  0.83283225146E+01  0.26582679445E+02 -0.35399345987E+02  0.45045682353E+02  0.00000000000E+00 0.  1.
         11    1    4    4    0    0 -0.66546503940E+01 -0.14777427661E+02  0.25897985489E+02  0.30550980226E+02  0.51100000000E-03 0. -1.
        -11    1    4    4    0    0 -0.16581033667E+01 -0.11910613183E+02  0.96429022667E+01  0.15414200516E+02  0.51100000000E-03 0.  1.
         12    1    4    4    0    0 -0.15568753916E-01  0.10536139945E+00 -0.14154176833E+00  0.17713690404E+00  0.00000000000E+00 0. -1.
</event>
<event>
 8    1  0.2962813E-009  0.9118800E+02  0.7816164E-02  0.1184000E+00
        -11   -1    0    0    0    0  0.00000000000E+00  0.00000000000E+00  0.45593999997E+02  0.45594000000E+02  0.51100000000E-03 0. -1.
         11   -1    0    0    0    0 -0.00000000000E+00 -0.00000000000E+00 -0.45593999997E+02  0.45594000000E+02  0.51100000000E-03 0.  1.
         23    2    1    2    0    0 -0.88817841970E-15  0.00000000000E+00  0.71054273576E-14  0.91188000000E+02  0.91188000000E+02 0.  0.
    9900012    2    3    3    0    0 -0.74133391458E+01  0.12066995808E+01  0.44415085186E+02  0.46142317485E+02  0.99999974840E+01 0.  0.
        -12    1    3    3    0    0  0.74133391458E+01 -0.12066995808E+01 -0.44415085186E+02  0.45045682515E+02  0.00000000000E+00 0.  1.
         11    1    4    4    0    0 -0.22457621497E+01  0.20129173358E+01  0.85280587437E+01  0.90456105395E+01  0.51100000000E-03 0. -1.
        -11    1    4    4    0    0  0.18048371738E+01 -0.12735310307E+01  0.12280810240E+02  0.12477885194E+02  0.51100000000E-03 0.  1.
        -12    1    4    4    0    0 -0.69724141699E+01  0.46731327575E+00  0.23606216202E+02  0.24618821752E+02  0.00000000000E+00 0.  1.
</event>
<event>
 8    1  0.2962813E-009  0.9118800E+02  0.7816164E-02  0.1184000E+00
        -11   -1    0    0    0    0  0.00000000000E+00  0.00000000000E+00  0.45593999997E+02  0.45594000000E+02  0.51100000000E-03 0. -1.
         11   -1    0    0    0    0 -0.00000000000E+00 -0.00000000000E+00 -0.45593999997E+02  0.45594000000E+02  0.51100000000E-03 0.  1.
         23    2    1    2    0    0  0.00000000000E+00  0.00000000000E+00  0.00000000000E+00  0.91188000000E+02  0.91188000000E+02 0.  0.
    9900012    2    3    3    0    0 -0.39930208496E+02  0.78548327947E+01 -0.19313039406E+02  0.46142318299E+02  0.10000004907E+02 0.  0.
         12    1    3    3    0    0  0.39930208496E+02 -0.78548327947E+01  0.19313039406E+02  0.45045681701E+02  0.00000000000E+00 0. -1.
         11    1    4    4    0    0 -0.18272497370E+02  0.66624184119E+01 -0.71181696100E+01  0.20710874392E+02  0.51100000000E-03 0. -1.
        -11    1    4    4    0    0 -0.14137088517E+02 -0.10175265574E+01 -0.98123645462E+01  0.17238768236E+02  0.51100000000E-03 0.  1.
        -12    1    4    4    0    0 -0.75206226093E+01  0.22099409402E+01 -0.23825052499E+01  0.81926756714E+01  0.00000000000E+00 0.  1.
</event>
<event>
 8    1  0.2962813E-009  0.9118800E+02  0.7816164E-02  0.1184000E+00
        -11   -1    0    0    0    0  0.00000000000E+00  0.00000000000E+00  0.45593999997E+02  0.45594000000E+02  0.51100000000E-03 0.  1.
         11   -1    0    0    0    0 -0.00000000000E+00 -0.00000000000E+00 -0.45593999997E+02  0.45594000000E+02  0.51100000000E-03 0. -1.
         23    2    1    2    0    0  0.35527136788E-14  0.00000000000E+00  0.71054273576E-14  0.91188000000E+02  0.91188000000E+02 0.  0.
    9900012    2    3    3    0    0 -0.23957022837E+02  0.12620470446E+02  0.35998586806E+02  0.46142317970E+02  0.10000001909E+02 0.  0.
        -12    1    3    3    0    0  0.23957022837E+02 -0.12620470446E+02 -0.35998586806E+02  0.45045682030E+02  0.00000000000E+00 0.  1.
         11    1    4    4    0    0 -0.97021985477E+01  0.19130715801E+01  0.19371844824E+02  0.21749962567E+02  0.51100000000E-03 0. -1.
        -11    1    4    4    0    0 -0.70202726194E+01  0.57632629138E+01  0.86506195512E+01  0.12543231081E+02  0.51100000000E-03 0.  1.
         12    1    4    4    0    0 -0.72345516703E+01  0.49441359523E+01  0.79761224301E+01  0.11849124322E+02  0.00000000000E+00 0. -1.
</event>
<event>
 8    1  0.2962813E-009  0.9118800E+02  0.7816164E-02  0.1184000E+00
        -11   -1    0    0    0    0  0.00000000000E+00  0.00000000000E+00  0.45593999997E+02  0.45594000000E+02  0.51100000000E-03 0. -1.
         11   -1    0    0    0    0 -0.00000000000E+00 -0.00000000000E+00 -0.45593999997E+02  0.45594000000E+02  0.51100000000E-03 0.  1.
         23    2    1    2    0    0  0.17763568394E-14  0.00000000000E+00  0.71054273576E-14  0.91188000000E+02  0.91188000000E+02 0.  0.
    9900012    2    3    3    0    0 -0.10602561579E+02  0.82274918300E+01 -0.43000087865E+02  0.46142317741E+02  0.99999998133E+01 0.  0.
         12    1    3    3    0    0  0.10602561579E+02 -0.82274918300E+01  0.43000087865E+02  0.45045682259E+02  0.00000000000E+00 0. -1.
         11    1    4    4    0    0  0.11413382280E+01  0.24180433894E+01 -0.97291865777E+01  0.10089928568E+02  0.51100000000E-03 0. -1.
        -11    1    4    4    0    0 -0.62928372869E+01  0.50673713488E+01 -0.15962912569E+02  0.17891132761E+02  0.51100000000E-03 0.  1.
        -12    1    4    4    0    0 -0.54510625201E+01  0.74207709183E+00 -0.17307988718E+02  0.18161256412E+02  0.00000000000E+00 0.  1.
</event>
<event>
 8    1  0.2962813E-009  0.9118800E+02  0.7816164E-02  0.1184000E+00
        -11   -1    0    0    0    0  0.00000000000E+00  0.00000000000E+00  0.45593999997E+02  0.45594000000E+02  0.51100000000E-03 0. -1.
         11   -1    0    0    0    0 -0.00000000000E+00 -0.00000000000E+00 -0.45593999997E+02  0.45594000000E+02  0.51100000000E-03 0.  1.
         23    2    1    2    0    0  0.35527136788E-14  0.11102230246E-15  0.71054273576E-14  0.91188000000E+02  0.91188000000E+02 0.  0.
    9900012    2    3    3    0    0 -0.16594049348E+02 -0.88818355274E+00  0.41868388218E+02  0.46142320121E+02  0.10000021516E+02 0.  0.
        -12    1    3    3    0    0  0.16594049348E+02  0.88818355274E+00 -0.41868388218E+02  0.45045679879E+02  0.00000000000E+00 0.  1.
         11    1    4    4    0    0 -0.15573189384E+01  0.15186973072E+01  0.11588609728E+01  0.24646790465E+01  0.51100000000E-03 0. -1.
        -11    1    4    4    0    0 -0.72132088701E+01 -0.10961355289E+01  0.25507187328E+02  0.26530143251E+02  0.51100000000E-03 0.  1.
         12    1    4    4    0    0 -0.78235215398E+01 -0.13107453310E+01  0.15202339918E+02  0.17147497823E+02  0.00000000000E+00 0. -1.
</event>
<event>
 8    1  0.2962813E-009  0.9118800E+02  0.7816164E-02  0.1184000E+00
        -11   -1    0    0    0    0  0.00000000000E+00  0.00000000000E+00  0.45593999997E+02  0.45594000000E+02  0.51100000000E-03 0. -1.
         11   -1    0    0    0    0 -0.00000000000E+00 -0.00000000000E+00 -0.45593999997E+02  0.45594000000E+02  0.51100000000E-03 0.  1.
         23    2    1    2    0    0  0.00000000000E+00  0.00000000000E+00  0.71054273576E-14  0.91188000000E+02  0.91188000000E+02 0.  0.
    9900012    2    3    3    0    0  0.71063309967E+01  0.17388457716E+02 -0.40942094591E+02  0.46142317505E+02  0.99999976606E+01 0.  0.
         12    1    3    3    0    0 -0.71063309967E+01 -0.17388457716E+02  0.40942094591E+02  0.45045682495E+02  0.00000000000E+00 0. -1.
         11    1    4    4    0    0  0.63756717855E+01  0.72757267113E+01 -0.26097344550E+02  0.27832656767E+02  0.51100000000E-03 0. -1.
        -11    1    4    4    0    0  0.47613558055E+00  0.10047212482E+02 -0.14956431019E+02  0.18024095340E+02  0.51100000000E-03 0.  1.
         12    1    4    4    0    0  0.25452363062E+00  0.65518522754E-01  0.11168097771E+00  0.28556539733E+00  0.00000000000E+00 0. -1.
</event>
<event>
 8    1  0.2962813E-009  0.9118800E+02  0.7816164E-02  0.1184000E+00
        -11   -1    0    0    0    0  0.00000000000E+00  0.00000000000E+00  0.45593999997E+02  0.45594000000E+02  0.51100000000E-03 0.  1.
         11   -1    0    0    0    0 -0.00000000000E+00 -0.00000000000E+00 -0.45593999997E+02  0.45594000000E+02  0.51100000000E-03 0. -1.
         23    2    1    2    0    0  0.17763568394E-14  0.00000000000E+00 -0.13322676296E-14  0.91188000000E+02  0.91188000000E+02 0.  0.
    9900012    2    3    3    0    0 -0.13759488352E+02 -0.42765113536E+02  0.33068249428E+01  0.46142317114E+02  0.99999940990E+01 0.  0.
         12    1    3    3    0    0  0.13759488352E+02  0.42765113536E+02 -0.33068249428E+01  0.45045682886E+02  0.00000000000E+00 0. -1.
         11    1    4    4    0    0 -0.82204269040E+01 -0.14279355065E+02  0.20719844008E+01  0.16606279511E+02  0.51100000000E-03 0. -1.
        -11    1    4    4    0    0 -0.46083695515E+01 -0.26356834145E+02  0.25299117250E+01  0.26876015882E+02  0.51100000000E-03 0.  1.
        -12    1    4    4    0    0 -0.93069189648E+00 -0.21289243257E+01 -0.12950711830E+01  0.26600217217E+01  0.00000000000E+00 0.  1.
</event>
<event>
 8    1  0.2962813E-009  0.9118800E+02  0.7816164E-02  0.1184000E+00
        -11   -1    0    0    0    0  0.00000000000E+00  0.00000000000E+00  0.45593999997E+02  0.45594000000E+02  0.51100000000E-03 0. -1.
         11   -1    0    0    0    0 -0.00000000000E+00 -0.00000000000E+00 -0.45593999997E+02  0.45594000000E+02  0.51100000000E-03 0.  1.
         23    2    1    2    0    0 -0.17763568394E-14  0.00000000000E+00  0.71054273576E-14  0.91188000000E+02  0.91188000000E+02 0.  0.
    9900012    2    3    3    0    0 -0.13175108985E+02  0.15031686491E+02  0.40368037618E+02  0.46142317003E+02  0.99999930838E+01 0.  0.
        -12    1    3    3    0    0  0.13175108985E+02 -0.15031686491E+02 -0.40368037618E+02  0.45045682997E+02  0.00000000000E+00 0.  1.
         11    1    4    4    0    0 -0.38391444412E+01  0.10054994704E+02  0.19474451698E+02  0.22250757689E+02  0.51100000000E-03 0. -1.
        -11    1    4    4    0    0 -0.64029450485E+01  0.34564650286E+01  0.91407175902E+01  0.11683217627E+02  0.51100000000E-03 0.  1.
        -12    1    4    4    0    0 -0.29330194953E+01  0.15202267585E+01  0.11752868330E+02  0.12208341687E+02  0.00000000000E+00 0.  1.
</event>
<event>
 8    1  0.2962813E-009  0.9118800E+02  0.7816164E-02  0.1184000E+00
        -11   -1    0    0    0    0  0.00000000000E+00  0.00000000000E+00  0.45593999997E+02  0.45594000000E+02  0.51100000000E-03 0. -1.
         11   -1    0    0    0    0 -0.00000000000E+00 -0.00000000000E+00 -0.45593999997E+02  0.45594000000E+02  0.51100000000E-03 0.  1.
         23    2    1    2    0    0  0.35527136788E-14 -0.35527136788E-14  0.71054273576E-14  0.91188000000E+02  0.91188000000E+02 0.  0.
    9900012    2    3    3    0    0 -0.28062080616E+02  0.14087492634E+02 -0.32298224394E+02  0.46142321892E+02  0.10000037667E+02 0.  0.
         12    1    3    3    0    0  0.28062080616E+02 -0.14087492634E+02  0.32298224394E+02  0.45045678108E+02  0.00000000000E+00 0. -1.
         11    1    4    4    0    0 -0.88073236832E+01  0.14124871895E+01 -0.14382251453E+02  0.16923747446E+02  0.51100000000E-03 0. -1.
        -11    1    4    4    0    0 -0.17857615909E+02  0.11403862107E+02 -0.16597887583E+02  0.26915281707E+02  0.51100000000E-03 0.  1.
         12    1    4    4    0    0 -0.13971410238E+01  0.12711433378E+01 -0.13180853587E+01  0.23032927384E+01  0.00000000000E+00 0. -1.
</event>
<event>
 8    1  0.2962813E-009  0.9118800E+02  0.7816164E-02  0.1184000E+00
        -11   -1    0    0    0    0  0.00000000000E+00  0.00000000000E+00  0.45593999997E+02  0.45594000000E+02  0.51100000000E-03 0. -1.
         11   -1    0    0    0    0 -0.00000000000E+00 -0.00000000000E+00 -0.45593999997E+02  0.45594000000E+02  0.51100000000E-03 0.  1.
         23    2    1    2    0    0  0.00000000000E+00 -0.35527136788E-14  0.71054273576E-14  0.91188000000E+02  0.91188000000E+02 0.  0.
    9900012    2    3    3    0    0  0.44066535256E+01  0.18738414264E+02  0.40725514170E+02  0.46142309099E+02  0.99999210073E+01 0.  0.
        -12    1    3    3    0    0 -0.44066535256E+01 -0.18738414264E+02 -0.40725514170E+02  0.45045690901E+02  0.00000000000E+00 0.  1.
         11    1    4    4    0    0  0.45465115151E+01  0.15890072681E+02  0.35488941775E+02  0.39148820740E+02  0.51100000000E-03 0. -1.
        -11    1    4    4    0    0 -0.15113506342E+01  0.22260643263E+01  0.17884420178E+01  0.32307999375E+01  0.51100000000E-03 0.  1.
        -12    1    4    4    0    0  0.13714926446E+01  0.62227725668E+00  0.34481303769E+01  0.37626884212E+01  0.00000000000E+00 0.  1.
</event>
<event>
 8    1  0.2962813E-009  0.9118800E+02  0.7816164E-02  0.1184000E+00
        -11   -1    0    0    0    0  0.00000000000E+00  0.00000000000E+00  0.45593999997E+02  0.45594000000E+02  0.51100000000E-03 0. -1.
         11   -1    0    0    0    0 -0.00000000000E+00 -0.00000000000E+00 -0.45593999997E+02  0.45594000000E+02  0.51100000000E-03 0.  1.
         23    2    1    2    0    0  0.00000000000E+00  0.00000000000E+00  0.00000000000E+00  0.91188000000E+02  0.91188000000E+02 0.  0.
    9900012    2    3    3    0    0 -0.38334918101E+02  0.21927850817E+02  0.88722528496E+01  0.46142318100E+02  0.10000003087E+02 0.  0.
        -12    1    3    3    0    0  0.38334918101E+02 -0.21927850817E+02 -0.88722528496E+01  0.45045681900E+02  0.00000000000E+00 0.  1.
         11    1    4    4    0    0 -0.46700201563E+01  0.19254172803E+01  0.24447214915E+01  0.56118609566E+01  0.51100000000E-03 0. -1.
        -11    1    4    4    0    0 -0.33552878073E+01 -0.21088686101E+00 -0.63340360105E+00  0.34210568427E+01  0.51100000000E-03 0.  1.
        -12    1    4    4    0    0 -0.30309610137E+02  0.20213320397E+02  0.70609349591E+01  0.37109400300E+02  0.00000000000E+00 0.  1.
</event>
<event>
 8    1  0.2962813E-009  0.9118800E+02  0.7816164E-02  0.1184000E+00
        -11   -1    0    0    0    0  0.00000000000E+00  0.00000000000E+00  0.45593999997E+02  0.45594000000E+02  0.51100000000E-03 0. -1.
         11   -1    0    0    0    0 -0.00000000000E+00 -0.00000000000E+00 -0.45593999997E+02  0.45594000000E+02  0.51100000000E-03 0.  1.
         23    2    1    2    0    0 -0.17763568394E-14  0.35527136788E-14  0.00000000000E+00  0.91188000000E+02  0.91188000000E+02 0.  0.
    9900012    2    3    3    0    0  0.15164998836E+02 -0.13993533776E+02  0.40041453394E+02  0.46142310227E+02  0.99999312991E+01 0.  0.
        -12    1    3    3    0    0 -0.15164998836E+02  0.13993533776E+02 -0.40041453394E+02  0.45045689773E+02  0.00000000000E+00 0.  1.
         11    1    4    4    0    0  0.12019068640E+02 -0.65829404780E+01  0.23135732268E+02  0.26889686203E+02  0.51100000000E-03 0. -1.
        -11    1    4    4    0    0  0.36390258262E+01 -0.56269543958E+01  0.95422161881E+01  0.11660146430E+02  0.51100000000E-03 0.  1.
        -12    1    4    4    0    0 -0.49309562980E+00 -0.17836389020E+01  0.73635049381E+01  0.75924775934E+01  0.00000000000E+00 0.  1.
</event>
<event>
 8    1  0.2962813E-009  0.9118800E+02  0.7816164E-02  0.1184000E+00
        -11   -1    0    0    0    0  0.00000000000E+00  0.00000000000E+00  0.45593999997E+02  0.45594000000E+02  0.51100000000E-03 0. -1.
         11   -1    0    0    0    0 -0.00000000000E+00 -0.00000000000E+00 -0.45593999997E+02  0.45594000000E+02  0.51100000000E-03 0.  1.
         23    2    1    2    0    0  0.00000000000E+00 -0.17763568394E-14  0.71054273576E-14  0.91188000000E+02  0.91188000000E+02 0.  0.
    9900012    2    3    3    0    0 -0.23924313121E+02 -0.14363547026E+02 -0.35361410844E+02  0.46142316319E+02  0.99999868493E+01 0.  0.
         12    1    3    3    0    0  0.23924313121E+02  0.14363547026E+02  0.35361410844E+02  0.45045683681E+02  0.00000000000E+00 0. -1.
         11    1    4    4    0    0 -0.99413352960E+01 -0.16182332408E+01 -0.10649400154E+02  0.14658054107E+02  0.51100000000E-03 0. -1.
        -11    1    4    4    0    0 -0.13628150582E+02 -0.12639328029E+02 -0.22238889785E+02  0.28983569836E+02  0.51100000000E-03 0.  1.
         12    1    4    4    0    0 -0.35482724239E+00 -0.10598575552E+00 -0.24731209041E+01  0.25006923758E+01  0.00000000000E+00 0. -1.
</event>
<event>
 8    1  0.2962813E-009  0.9118800E+02  0.7816164E-02  0.1184000E+00
        -11   -1    0    0    0    0  0.00000000000E+00  0.00000000000E+00  0.45593999997E+02  0.45594000000E+02  0.51100000000E-03 0. -1.
         11   -1    0    0    0    0 -0.00000000000E+00 -0.00000000000E+00 -0.45593999997E+02  0.45594000000E+02  0.51100000000E-03 0.  1.
         23    2    1    2    0    0  0.00000000000E+00  0.00000000000E+00 -0.71054273576E-14  0.91188000000E+02  0.91188000000E+02 0.  0.
    9900012    2    3    3    0    0  0.19349121778E+02 -0.14913133235E+02  0.37846049239E+02  0.46142317638E+02  0.99999988752E+01 0.  0.
        -12    1    3    3    0    0 -0.19349121778E+02  0.14913133235E+02 -0.37846049239E+02  0.45045682362E+02  0.00000000000E+00 0.  1.
         11    1    4    4    0    0  0.53323443062E+01 -0.10262439195E+01  0.63382081129E+01  0.83462539337E+01  0.51100000000E-03 0. -1.
        -11    1    4    4    0    0  0.78593926261E+01 -0.12148784698E+02  0.21348092810E+02  0.25789612037E+02  0.51100000000E-03 0.  1.
        -12    1    4    4    0    0  0.61573848456E+01 -0.17381046169E+01  0.10159748316E+02  0.12006451667E+02  0.00000000000E+00 0.  1.
</event>
<event>
 8    1  0.2962813E-009  0.9118800E+02  0.7816164E-02  0.1184000E+00
        -11   -1    0    0    0    0  0.00000000000E+00  0.00000000000E+00  0.45593999997E+02  0.45594000000E+02  0.51100000000E-03 0.  1.
         11   -1    0    0    0    0 -0.00000000000E+00 -0.00000000000E+00 -0.45593999997E+02  0.45594000000E+02  0.51100000000E-03 0. -1.
         23    2    1    2    0    0  0.00000000000E+00 -0.88817841970E-15  0.00000000000E+00  0.91188000000E+02  0.91188000000E+02 0.  0.
    9900012    2    3    3    0    0  0.43564751172E+02 -0.54673092180E+01  0.10066508868E+02  0.46142316349E+02  0.99999871238E+01 0.  0.
        -12    1    3    3    0    0 -0.43564751172E+02  0.54673092180E+01 -0.10066508868E+02  0.45045683651E+02  0.00000000000E+00 0.  1.
         11    1    4    4    0    0  0.57597113744E+01  0.18887124537E+00 -0.97742959262E+00  0.58451104638E+01  0.51100000000E-03 0. -1.
        -11    1    4    4    0    0  0.82948885190E+01 -0.31244949687E+01  0.57331076806E+00  0.88823606012E+01  0.51100000000E-03 0.  1.
         12    1    4    4    0    0  0.29510151279E+02 -0.25316854946E+01  0.10470627692E+02  0.31414845284E+02  0.00000000000E+00 0. -1.
</event>
<event>
 8    1  0.2962813E-009  0.9118800E+02  0.7816164E-02  0.1184000E+00
        -11   -1    0    0    0    0  0.00000000000E+00  0.00000000000E+00  0.45593999997E+02  0.45594000000E+02  0.51100000000E-03 0. -1.
         11   -1    0    0    0    0 -0.00000000000E+00 -0.00000000000E+00 -0.45593999997E+02  0.45594000000E+02  0.51100000000E-03 0.  1.
         23    2    1    2    0    0  0.35527136788E-14  0.00000000000E+00  0.71054273576E-14  0.91188000000E+02  0.91188000000E+02 0.  0.
    9900012    2    3    3    0    0  0.29776585786E+02 -0.31043690334E+01  0.33657562484E+02  0.46142315628E+02  0.99999805531E+01 0.  0.
        -12    1    3    3    0    0 -0.29776585786E+02  0.31043690334E+01 -0.33657562484E+02  0.45045684372E+02  0.00000000000E+00 0.  1.
         11    1    4    4    0    0  0.13431713554E+02 -0.63786923797E+01  0.15600283825E+02  0.21551508095E+02  0.51100000000E-03 0. -1.
        -11    1    4    4    0    0  0.13579445178E+02  0.23859965901E+01  0.14988138697E+02  0.20365132283E+02  0.51100000000E-03 0.  1.
         12    1    4    4    0    0  0.27654270535E+01  0.88832675614E+00  0.30691399620E+01  0.42256752502E+01  0.00000000000E+00 0. -1.
</event>
<event>
 8    1  0.2962813E-009  0.9118800E+02  0.7816164E-02  0.1184000E+00
        -11   -1    0    0    0    0  0.00000000000E+00  0.00000000000E+00  0.45593999997E+02  0.45594000000E+02  0.51100000000E-03 0. -1.
         11   -1    0    0    0    0 -0.00000000000E+00 -0.00000000000E+00 -0.45593999997E+02  0.45594000000E+02  0.51100000000E-03 0.  1.
         23    2    1    2    0    0  0.00000000000E+00 -0.71054273576E-14  0.17763568394E-14  0.91188000000E+02  0.91188000000E+02 0.  0.
    9900012    2    3    3    0    0 -0.16746204872E+02  0.40907979936E+02 -0.86726714937E+01  0.46142318399E+02  0.10000005819E+02 0.  0.
         12    1    3    3    0    0  0.16746204872E+02 -0.40907979936E+02  0.86726714937E+01  0.45045681601E+02  0.00000000000E+00 0. -1.
         11    1    4    4    0    0 -0.50818174102E+00 -0.80655327165E-01  0.41304141400E+00  0.65981621267E+00  0.51100000000E-03 0. -1.
        -11    1    4    4    0    0 -0.70219404818E+01  0.10938300922E+02 -0.10548719014E+01  0.13040967379E+02  0.51100000000E-03 0.  1.
         12    1    4    4    0    0 -0.92160826493E+01  0.30050334341E+02 -0.80308410063E+01  0.32441534807E+02  0.00000000000E+00 0. -1.
</event>
<event>
 8    1  0.2962813E-009  0.9118800E+02  0.7816164E-02  0.1184000E+00
        -11   -1    0    0    0    0  0.00000000000E+00  0.00000000000E+00  0.45593999997E+02  0.45594000000E+02  0.51100000000E-03 0.  1.
         11   -1    0    0    0    0 -0.00000000000E+00 -0.00000000000E+00 -0.45593999997E+02  0.45594000000E+02  0.51100000000E-03 0. -1.
         23    2    1    2    0    0  0.00000000000E+00  0.00000000000E+00  0.00000000000E+00  0.91188000000E+02  0.91188000000E+02 0.  0.
    9900012    2    3    3    0    0 -0.36122482356E+02  0.22706671621E+02 -0.14445994739E+02  0.46142318390E+02  0.10000005739E+02 0.  0.
         12    1    3    3    0    0  0.36122482356E+02 -0.22706671621E+02  0.14445994739E+02  0.45045681610E+02  0.00000000000E+00 0. -1.
         11    1    4    4    0    0 -0.71959295340E+01  0.67316158565E+01 -0.48423330770E+01  0.10979264264E+02  0.51100000000E-03 0. -1.
        -11    1    4    4    0    0 -0.91165939521E+01  0.70308465025E+01 -0.64599177406E+01  0.13201349374E+02  0.51100000000E-03 0.  1.
        -12    1    4    4    0    0 -0.19809958870E+02  0.89442092616E+01 -0.31437439219E+01  0.21961704752E+02  0.00000000000E+00 0.  1.
</event>
<event>
 8    1  0.2962813E-009  0.9118800E+02  0.7816164E-02  0.1184000E+00
        -11   -1    0    0    0    0  0.00000000000E+00  0.00000000000E+00  0.45593999997E+02  0.45594000000E+02  0.51100000000E-03 0. -1.
         11   -1    0    0    0    0 -0.00000000000E+00 -0.00000000000E+00 -0.45593999997E+02  0.45594000000E+02  0.51100000000E-03 0.  1.
         23    2    1    2    0    0  0.00000000000E+00 -0.71054273576E-14  0.35527136788E-14  0.91188000000E+02  0.91188000000E+02 0.  0.
    9900012    2    3    3    0    0  0.15835711207E+02  0.35323781651E+02 -0.23034195679E+02  0.46142317963E+02  0.10000001845E+02 0.  0.
         12    1    3    3    0    0 -0.15835711207E+02 -0.35323781651E+02  0.23034195679E+02  0.45045682037E+02  0.00000000000E+00 0. -1.
         11    1    4    4    0    0 -0.61362105892E+00  0.72104158061E+00 -0.12902403162E+01  0.16003599906E+01  0.51100000000E-03 0.  1.
        -11    1    4    4    0    0  0.41583688880E+00  0.26085255700E+00 -0.14908090268E+01  0.15695464919E+01  0.51100000000E-03 0. -1.
        -12    1    4    4    0    0  0.16033495377E+02  0.34341887513E+02 -0.20253146336E+02  0.42972411481E+02  0.00000000000E+00 0.  1.
</event>
<event>
 8    1  0.2962813E-009  0.9118800E+02  0.7816164E-02  0.1184000E+00
        -11   -1    0    0    0    0  0.00000000000E+00  0.00000000000E+00  0.45593999997E+02  0.45594000000E+02  0.51100000000E-03 0. -1.
         11   -1    0    0    0    0 -0.00000000000E+00 -0.00000000000E+00 -0.45593999997E+02  0.45594000000E+02  0.51100000000E-03 0.  1.
         23    2    1    2    0    0  0.00000000000E+00  0.35527136788E-14 -0.35527136788E-14  0.91188000000E+02  0.91188000000E+02 0.  0.
    9900012    2    3    3    0    0  0.18106525204E+02 -0.31752711747E+02  0.26325497158E+02  0.46142325858E+02  0.10000073838E+02 0.  0.
        -12    1    3    3    0    0 -0.18106525204E+02  0.31752711747E+02 -0.26325497158E+02  0.45045674142E+02  0.00000000000E+00 0.  1.
         11    1    4    4    0    0  0.20579265078E+01 -0.57635933232E+01  0.39229145672E+01  0.72693416806E+01  0.51100000000E-03 0. -1.
        -11    1    4    4    0    0  0.67178920294E+01 -0.11412562126E+02  0.15110384982E+02  0.20092296587E+02  0.51100000000E-03 0.  1.
        -12    1    4    4    0    0  0.93307066663E+01 -0.14576556298E+02  0.72921976094E+01  0.18780687591E+02  0.00000000000E+00 0.  1.
</event>
<event>
 8    1  0.2962813E-009  0.9118800E+02  0.7816164E-02  0.1184000E+00
        -11   -1    0    0    0    0  0.00000000000E+00  0.00000000000E+00  0.45593999997E+02  0.45594000000E+02  0.51100000000E-03 0. -1.
         11   -1    0    0    0    0 -0.00000000000E+00 -0.00000000000E+00 -0.45593999997E+02  0.45594000000E+02  0.51100000000E-03 0.  1.
         23    2    1    2    0    0  0.00000000000E+00  0.00000000000E+00  0.17763568394E-14  0.91188000000E+02  0.91188000000E+02 0.  0.
    9900012    2    3    3    0    0 -0.32502383090E+02 -0.27114366098E+02 -0.15411678344E+02  0.46142316691E+02  0.99999902398E+01 0.  0.
         12    1    3    3    0    0  0.32502383090E+02  0.27114366098E+02  0.15411678344E+02  0.45045683309E+02  0.00000000000E+00 0. -1.
         11    1    4    4    0    0 -0.13772826729E+01 -0.41980285623E+00 -0.27668071793E+01  0.31190325788E+01  0.51100000000E-03 0. -1.
        -11    1    4    4    0    0 -0.16927822817E+02 -0.16364069681E+02 -0.79200837072E+01  0.24840726399E+02  0.51100000000E-03 0.  1.
         12    1    4    4    0    0 -0.14197277600E+02 -0.10330493560E+02 -0.47247874580E+01  0.18182557713E+02  0.00000000000E+00 0. -1.
</event>
<event>
 8    1  0.2962813E-009  0.9118800E+02  0.7816164E-02  0.1184000E+00
        -11   -1    0    0    0    0  0.00000000000E+00  0.00000000000E+00  0.45593999997E+02  0.45594000000E+02  0.51100000000E-03 0. -1.
         11   -1    0    0    0    0 -0.00000000000E+00 -0.00000000000E+00 -0.45593999997E+02  0.45594000000E+02  0.51100000000E-03 0.  1.
         23    2    1    2    0    0  0.00000000000E+00  0.00000000000E+00 -0.71054273576E-14  0.91188000000E+02  0.91188000000E+02 0.  0.
    9900012    2    3    3    0    0 -0.12730040691E+02  0.10172466726E+02  0.41995005670E+02  0.46142317449E+02  0.99999971543E+01 0.  0.
        -12    1    3    3    0    0  0.12730040691E+02 -0.10172466726E+02 -0.41995005670E+02  0.45045682551E+02  0.00000000000E+00 0.  1.
         11    1    4    4    0    0 -0.28915136029E+01  0.23675237551E+01  0.38789200212E+01  0.53862826178E+01  0.51100000000E-03 0. -1.
        -11    1    4    4    0    0 -0.85536747716E+01  0.69871087921E+01  0.37534455600E+02  0.39125699978E+02  0.51100000000E-03 0.  1.
        -12    1    4    4    0    0 -0.12848523167E+01  0.81783417849E+00  0.58163004899E+00  0.16303348530E+01  0.00000000000E+00 0.  1.
</event>
<event>
 8    1  0.2962813E-009  0.9118800E+02  0.7816164E-02  0.1184000E+00
        -11   -1    0    0    0    0  0.00000000000E+00  0.00000000000E+00  0.45593999997E+02  0.45594000000E+02  0.51100000000E-03 0. -1.
         11   -1    0    0    0    0 -0.00000000000E+00 -0.00000000000E+00 -0.45593999997E+02  0.45594000000E+02  0.51100000000E-03 0.  1.
         23    2    1    2    0    0  0.00000000000E+00  0.00000000000E+00  0.00000000000E+00  0.91188000000E+02  0.91188000000E+02 0.  0.
    9900012    2    3    3    0    0  0.10769810745E+02  0.15939081948E+02  0.40731686214E+02  0.46142318535E+02  0.10000007054E+02 0.  0.
        -12    1    3    3    0    0 -0.10769810745E+02 -0.15939081948E+02 -0.40731686214E+02  0.45045681465E+02  0.00000000000E+00 0.  1.
         11    1    4    4    0    0 -0.59688196212E+00  0.39846157850E+01  0.50121486178E+01  0.64307903915E+01  0.51100000000E-03 0. -1.
        -11    1    4    4    0    0  0.17733394088E+01  0.45353169063E+01  0.14175659909E+02  0.14988768002E+02  0.51100000000E-03 0.  1.
         12    1    4    4    0    0  0.95933532981E+01  0.74191492570E+01  0.21543877687E+02  0.24722760141E+02  0.00000000000E+00 0. -1.
</event>
<event>
 8    1  0.2962813E-009  0.9118800E+02  0.7816164E-02  0.1184000E+00
        -11   -1    0    0    0    0  0.00000000000E+00  0.00000000000E+00  0.45593999997E+02  0.45594000000E+02  0.51100000000E-03 0. -1.
         11   -1    0    0    0    0 -0.00000000000E+00 -0.00000000000E+00 -0.45593999997E+02  0.45594000000E+02  0.51100000000E-03 0.  1.
         23    2    1    2    0    0  0.00000000000E+00  0.00000000000E+00  0.00000000000E+00  0.91188000000E+02  0.91188000000E+02 0.  0.
    9900012    2    3    3    0    0  0.31681102409E+02  0.84629296859E+01  0.30883653046E+02  0.46142318141E+02  0.10000003460E+02 0.  0.
        -12    1    3    3    0    0 -0.31681102409E+02 -0.84629296859E+01 -0.30883653046E+02  0.45045681859E+02  0.00000000000E+00 0.  1.
         11    1    4    4    0    0  0.63972772677E+00 -0.58309367156E+00  0.20516059847E+01  0.22267323979E+01  0.51100000000E-03 0. -1.
        -11    1    4    4    0    0  0.13961208450E+02  0.20739946250E+01  0.85667822963E+01  0.16510801139E+02  0.51100000000E-03 0.  1.
        -12    1    4    4    0    0  0.17080166232E+02  0.69720287324E+01  0.20265264765E+02  0.27404784604E+02  0.00000000000E+00 0.  1.
</event>
<event>
 8    1  0.2962813E-009  0.9118800E+02  0.7816164E-02  0.1184000E+00
        -11   -1    0    0    0    0  0.00000000000E+00  0.00000000000E+00  0.45593999997E+02  0.45594000000E+02  0.51100000000E-03 0. -1.
         11   -1    0    0    0    0 -0.00000000000E+00 -0.00000000000E+00 -0.45593999997E+02  0.45594000000E+02  0.51100000000E-03 0.  1.
         23    2    1    2    0    0  0.00000000000E+00 -0.35527136788E-14  0.00000000000E+00  0.91188000000E+02  0.91188000000E+02 0.  0.
    9900012    2    3    3    0    0 -0.13053297924E+02 -0.31148984264E+02  0.29807141563E+02  0.46142317682E+02  0.99999992748E+01 0.  0.
        -12    1    3    3    0    0  0.13053297924E+02  0.31148984264E+02 -0.29807141563E+02  0.45045682318E+02  0.00000000000E+00 0.  1.
         11    1    4    4    0    0 -0.60554473693E+01 -0.16618794349E+02  0.14483465531E+02  0.22860961102E+02  0.51100000000E-03 0. -1.
        -11    1    4    4    0    0 -0.41070945910E+01 -0.18474599201E+01  0.35151111009E+01  0.57129099808E+01  0.51100000000E-03 0.  1.
        -12    1    4    4    0    0 -0.28907559640E+01 -0.12682729995E+02  0.11808564931E+02  0.17568446599E+02  0.00000000000E+00 0.  1.
</event>
<event>
 8    1  0.2962813E-009  0.9118800E+02  0.7816164E-02  0.1184000E+00
        -11   -1    0    0    0    0  0.00000000000E+00  0.00000000000E+00  0.45593999997E+02  0.45594000000E+02  0.51100000000E-03 0.  1.
         11   -1    0    0    0    0 -0.00000000000E+00 -0.00000000000E+00 -0.45593999997E+02  0.45594000000E+02  0.51100000000E-03 0. -1.
         23    2    1    2    0    0  0.00000000000E+00  0.35527136788E-14  0.00000000000E+00  0.91188000000E+02  0.91188000000E+02 0.  0.
    9900012    2    3    3    0    0  0.37519434371E+02 -0.23428118101E+02 -0.85164096306E+01  0.46142313123E+02  0.99999577027E+01 0.  0.
         12    1    3    3    0    0 -0.37519434371E+02  0.23428118101E+02  0.85164096306E+01  0.45045686877E+02  0.00000000000E+00 0. -1.
         11    1    4    4    0    0  0.22358750135E+02 -0.16825687357E+02 -0.89082229505E+01  0.29366203347E+02  0.51100000000E-03 0. -1.
        -11    1    4    4    0    0  0.14538757876E+02 -0.66928841780E+01 -0.54286467006E-01  0.16005409288E+02  0.51100000000E-03 0.  1.
         12    1    4    4    0    0  0.62192636038E+00  0.90453434702E-01  0.44609978689E+00  0.77070048751E+00  0.00000000000E+00 0. -1.
</event>
<event>
 8    1  0.2962813E-009  0.9118800E+02  0.7816164E-02  0.1184000E+00
        -11   -1    0    0    0    0  0.00000000000E+00  0.00000000000E+00  0.45593999997E+02  0.45594000000E+02  0.51100000000E-03 0. -1.
         11   -1    0    0    0    0 -0.00000000000E+00 -0.00000000000E+00 -0.45593999997E+02  0.45594000000E+02  0.51100000000E-03 0.  1.
         23    2    1    2    0    0 -0.88817841970E-15 -0.35527136788E-14  0.71054273576E-14  0.91188000000E+02  0.91188000000E+02 0.  0.
    9900012    2    3    3    0    0 -0.74700103751E+01 -0.19301950660E+02  0.40009335074E+02  0.46142320437E+02  0.10000024400E+02 0.  0.
        -12    1    3    3    0    0  0.74700103751E+01  0.19301950660E+02 -0.40009335074E+02  0.45045679563E+02  0.00000000000E+00 0.  1.
         11    1    4    4    0    0 -0.28139057413E+00 -0.13570177425E+01  0.99275352292E+00  0.17047690832E+01  0.51100000000E-03 0. -1.
        -11    1    4    4    0    0 -0.36102375887E+01 -0.15357892369E+02  0.35303478461E+02  0.38668259143E+02  0.51100000000E-03 0.  1.
        -12    1    4    4    0    0 -0.35783822122E+01 -0.25870405483E+01  0.37131030898E+01  0.57692922105E+01  0.00000000000E+00 0.  1.
</event>
<event>
 8    1  0.2962813E-009  0.9118800E+02  0.7816164E-02  0.1184000E+00
        -11   -1    0    0    0    0  0.00000000000E+00  0.00000000000E+00  0.45593999997E+02  0.45594000000E+02  0.51100000000E-03 0. -1.
         11   -1    0    0    0    0 -0.00000000000E+00 -0.00000000000E+00 -0.45593999997E+02  0.45594000000E+02  0.51100000000E-03 0.  1.
         23    2    1    2    0    0  0.00000000000E+00  0.00000000000E+00 -0.71054273576E-14  0.91188000000E+02  0.91188000000E+02 0.  0.
    9900012    2    3    3    0    0  0.84335672897E+01  0.10010274378E+02  0.43102005766E+02  0.46142317061E+02  0.99999936190E+01 0.  0.
        -12    1    3    3    0    0 -0.84335672897E+01 -0.10010274378E+02 -0.43102005766E+02  0.45045682939E+02  0.00000000000E+00 0.  1.
         11    1    4    4    0    0  0.34472178009E+01  0.39173096097E+01  0.73096091870E+01  0.89810362360E+01  0.51100000000E-03 0. -1.
        -11    1    4    4    0    0  0.11019462353E+01  0.34102798723E+01  0.26472458079E+02  0.26713953869E+02  0.51100000000E-03 0.  1.
        -12    1    4    4    0    0  0.38844032535E+01  0.26826848963E+01  0.93199385005E+01  0.10447326957E+02  0.00000000000E+00 0.  1.
</event>
<event>
 8    1  0.2962813E-009  0.9118800E+02  0.7816164E-02  0.1184000E+00
        -11   -1    0    0    0    0  0.00000000000E+00  0.00000000000E+00  0.45593999997E+02  0.45594000000E+02  0.51100000000E-03 0. -1.
         11   -1    0    0    0    0 -0.00000000000E+00 -0.00000000000E+00 -0.45593999997E+02  0.45594000000E+02  0.51100000000E-03 0.  1.
         23    2    1    2    0    0  0.00000000000E+00  0.00000000000E+00  0.00000000000E+00  0.91188000000E+02  0.91188000000E+02 0.  0.
    9900012    2    3    3    0    0  0.87651717191E+01 -0.11012287427E+02  0.42790371596E+02  0.46142305301E+02  0.99998863754E+01 0.  0.
        -12    1    3    3    0    0 -0.87651717191E+01  0.11012287427E+02 -0.42790371596E+02  0.45045694699E+02  0.00000000000E+00 0.  1.
         11    1    4    4    0    0  0.38707026437E+01 -0.10976437691E+01  0.92982800194E+01  0.10131395382E+02  0.51100000000E-03 0. -1.
        -11    1    4    4    0    0 -0.12598989809E+01 -0.45272035509E+00  0.11817254547E+01  0.17857145555E+01  0.51100000000E-03 0.  1.
        -12    1    4    4    0    0  0.61543680564E+01 -0.94619233028E+01  0.32310366122E+02  0.34225195364E+02  0.00000000000E+00 0.  1.
</event>
<event>
 8    1  0.2966489E-009  0.9118800E+02  0.7816164E-02  0.1184000E+00
        -11   -1    0    0    0    0  0.00000000000E+00  0.00000000000E+00  0.45593999997E+02  0.45594000000E+02  0.51100000000E-03 0. -1.
         11   -1    0    0    0    0 -0.00000000000E+00 -0.00000000000E+00 -0.45593999997E+02  0.45594000000E+02  0.51100000000E-03 0.  1.
         23    2    1    2    0    0  0.17763568394E-14  0.35527136788E-14 -0.71054273576E-14  0.91188000000E+02  0.91188000000E+02 0.  0.
    9900012    2    3    3    0    0 -0.11216819221E+02 -0.24314742673E+02 -0.36222779062E+02  0.46142317991E+02  0.10000002094E+02 0.  0.
         12    1    3    3    0    0  0.11216819221E+02  0.24314742673E+02  0.36222779062E+02  0.45045682009E+02  0.00000000000E+00 0. -1.
         11    1    4    4    0    0 -0.13248926629E+01 -0.35297268258E+01 -0.10561038752E+02  0.11213824139E+02  0.51100000000E-03 0. -1.
        -11    1    4    4    0    0 -0.73337414757E+00 -0.14157328480E+01 -0.13239971371E+00  0.15998959599E+01  0.51100000000E-03 0.  1.
        -12    1    4    4    0    0 -0.91585524105E+01 -0.19369282999E+02 -0.25529340597E+02  0.33328597892E+02  0.00000000000E+00 0.  1.
</event>
<event>
 8    1  0.2962813E-009  0.9118800E+02  0.7816164E-02  0.1184000E+00
        -11   -1    0    0    0    0  0.00000000000E+00  0.00000000000E+00  0.45593999997E+02  0.45594000000E+02  0.51100000000E-03 0. -1.
         11   -1    0    0    0    0 -0.00000000000E+00 -0.00000000000E+00 -0.45593999997E+02  0.45594000000E+02  0.51100000000E-03 0.  1.
         23    2    1    2    0    0  0.00000000000E+00  0.00000000000E+00 -0.35527136788E-14  0.91188000000E+02  0.91188000000E+02 0.  0.
    9900012    2    3    3    0    0  0.21655554339E+02  0.23326372137E+02 -0.31875237383E+02  0.46142318420E+02  0.10000006004E+02 0.  0.
         12    1    3    3    0    0 -0.21655554339E+02 -0.23326372137E+02  0.31875237383E+02  0.45045681580E+02  0.00000000000E+00 0. -1.
         11    1    4    4    0    0  0.93732919302E+01  0.82144695187E+01 -0.67322129389E+01  0.14165408656E+02  0.51100000000E-03 0. -1.
        -11    1    4    4    0    0  0.39456855450E+01  0.26100927142E+01 -0.60347447051E+01  0.76680611834E+01  0.51100000000E-03 0.  1.
         12    1    4    4    0    0  0.83365768642E+01  0.12501809904E+02 -0.19108279739E+02  0.24308848580E+02  0.00000000000E+00 0. -1.
</event>
<event>
 8    1  0.2962813E-009  0.9118800E+02  0.7816164E-02  0.1184000E+00
        -11   -1    0    0    0    0  0.00000000000E+00  0.00000000000E+00  0.45593999997E+02  0.45594000000E+02  0.51100000000E-03 0. -1.
         11   -1    0    0    0    0 -0.00000000000E+00 -0.00000000000E+00 -0.45593999997E+02  0.45594000000E+02  0.51100000000E-03 0.  1.
         23    2    1    2    0    0  0.00000000000E+00  0.00000000000E+00  0.00000000000E+00  0.91188000000E+02  0.91188000000E+02 0.  0.
    9900012    2    3    3    0    0 -0.30498817382E+02 -0.10725221453E+02  0.31367263381E+02  0.46142318199E+02  0.10000003992E+02 0.  0.
        -12    1    3    3    0    0  0.30498817382E+02  0.10725221453E+02 -0.31367263381E+02  0.45045681801E+02  0.00000000000E+00 0.  1.
         11    1    4    4    0    0 -0.15326650440E+02 -0.35493297109E+01  0.15443440927E+02  0.22045494393E+02  0.51100000000E-03 0. -1.
        -11    1    4    4    0    0 -0.69940332397E+01 -0.64444266842E+01  0.10922842589E+02  0.14482942613E+02  0.51100000000E-03 0.  1.
        -12    1    4    4    0    0 -0.81781337019E+01 -0.73146505807E+00  0.50009798650E+01  0.96138811927E+01  0.00000000000E+00 0.  1.
</event>
<event>
 8    1  0.2962813E-009  0.9118800E+02  0.7816164E-02  0.1184000E+00
        -11   -1    0    0    0    0  0.00000000000E+00  0.00000000000E+00  0.45593999997E+02  0.45594000000E+02  0.51100000000E-03 0. -1.
         11   -1    0    0    0    0 -0.00000000000E+00 -0.00000000000E+00 -0.45593999997E+02  0.45594000000E+02  0.51100000000E-03 0.  1.
         23    2    1    2    0    0  0.00000000000E+00  0.88817841970E-15  0.00000000000E+00  0.91188000000E+02  0.91188000000E+02 0.  0.
    9900012    2    3    3    0    0 -0.21219035205E+02 -0.76488737427E+01  0.38991801049E+02  0.46142320145E+02  0.10000021737E+02 0.  0.
        -12    1    3    3    0    0  0.21219035205E+02  0.76488737427E+01 -0.38991801049E+02  0.45045679855E+02  0.00000000000E+00 0.  1.
         11    1    4    4    0    0 -0.16673858630E+02 -0.14667686034E+01  0.23946632923E+02  0.29216608297E+02  0.51100000000E-03 0. -1.
        -11    1    4    4    0    0 -0.40920584611E+01 -0.56578916851E+01  0.12861067243E+02  0.14634334001E+02  0.51100000000E-03 0.  1.
         12    1    4    4    0    0 -0.45311811404E+00 -0.52421345412E+00  0.21841008830E+01  0.22913778470E+01  0.00000000000E+00 0. -1.
</event>
<event>
 8    1  0.2962813E-009  0.9118800E+02  0.7816164E-02  0.1184000E+00
        -11   -1    0    0    0    0  0.00000000000E+00  0.00000000000E+00  0.45593999997E+02  0.45594000000E+02  0.51100000000E-03 0.  1.
         11   -1    0    0    0    0 -0.00000000000E+00 -0.00000000000E+00 -0.45593999997E+02  0.45594000000E+02  0.51100000000E-03 0. -1.
         23    2    1    2    0    0  0.00000000000E+00 -0.35527136788E-14  0.00000000000E+00  0.91188000000E+02  0.91188000000E+02 0.  0.
    9900012    2    3    3    0    0  0.33623496184E+02  0.28448206371E+02  0.94484675205E+01  0.46142317855E+02  0.10000000859E+02 0.  0.
         12    1    3    3    0    0 -0.33623496184E+02 -0.28448206371E+02 -0.94484675205E+01  0.45045682145E+02  0.00000000000E+00 0. -1.
         11    1    4    4    0    0  0.54510433262E+01  0.46155465634E+01  0.53042983574E+01  0.88967817074E+01  0.51100000000E-03 0. -1.
        -11    1    4    4    0    0  0.25750312690E+02  0.21333025191E+02  0.45257883739E+01  0.33744026554E+02  0.51100000000E-03 0.  1.
        -12    1    4    4    0    0  0.24221401676E+01  0.24996346172E+01 -0.38161921086E+00  0.35015095935E+01  0.00000000000E+00 0.  1.
</event>
<event>
 8    1  0.2962813E-009  0.9118800E+02  0.7816164E-02  0.1184000E+00
        -11   -1    0    0    0    0  0.00000000000E+00  0.00000000000E+00  0.45593999997E+02  0.45594000000E+02  0.51100000000E-03 0. -1.
         11   -1    0    0    0    0 -0.00000000000E+00 -0.00000000000E+00 -0.45593999997E+02  0.45594000000E+02  0.51100000000E-03 0.  1.
         23    2    1    2    0    0  0.71054273576E-14  0.00000000000E+00  0.88817841970E-15  0.91188000000E+02  0.91188000000E+02 0.  0.
    9900012    2    3    3    0    0  0.44131830194E+02 -0.61591769028E+01  0.65999666213E+01  0.46142318123E+02  0.10000003300E+02 0.  0.
         12    1    3    3    0    0 -0.44131830194E+02  0.61591769028E+01 -0.65999666213E+01  0.45045681877E+02  0.00000000000E+00 0. -1.
         11    1    4    4    0    0  0.18355792299E+02 -0.54053495604E+01 -0.25845888102E+00  0.19136867979E+02  0.51100000000E-03 0. -1.
        -11    1    4    4    0    0  0.96696223288E+01  0.16708230207E+01  0.20779064560E+01  0.10030500538E+02  0.51100000000E-03 0.  1.
         12    1    4    4    0    0  0.16106415566E+02 -0.24246503632E+01  0.47805190464E+01  0.16974949606E+02  0.00000000000E+00 0. -1.
</event>
<event>
 8    1  0.2962813E-009  0.9118800E+02  0.7816164E-02  0.1184000E+00
        -11   -1    0    0    0    0  0.00000000000E+00  0.00000000000E+00  0.45593999997E+02  0.45594000000E+02  0.51100000000E-03 0. -1.
         11   -1    0    0    0    0 -0.00000000000E+00 -0.00000000000E+00 -0.45593999997E+02  0.45594000000E+02  0.51100000000E-03 0.  1.
         23    2    1    2    0    0 -0.35527136788E-14  0.00000000000E+00 -0.71054273576E-14  0.91188000000E+02  0.91188000000E+02 0.  0.
    9900012    2    3    3    0    0  0.20381599071E+02 -0.48130884000E+01 -0.39881550193E+02  0.46142318227E+02  0.10000004246E+02 0.  0.
         12    1    3    3    0    0 -0.20381599071E+02  0.48130884000E+01  0.39881550193E+02  0.45045681773E+02  0.00000000000E+00 0. -1.
         11    1    4    4    0    0  0.93146762438E+01 -0.45443585318E+01 -0.14633603329E+02  0.17932003085E+02  0.51100000000E-03 0. -1.
        -11    1    4    4    0    0  0.41413733841E+01  0.19808440561E+01 -0.14645459273E+02  0.15348100673E+02  0.51100000000E-03 0.  1.
        -12    1    4    4    0    0  0.69255494436E+01 -0.22495739244E+01 -0.10602487591E+02  0.12862214469E+02  0.00000000000E+00 0.  1.
</event>
<event>
 8    1  0.2962813E-009  0.9118800E+02  0.7816164E-02  0.1184000E+00
        -11   -1    0    0    0    0  0.00000000000E+00  0.00000000000E+00  0.45593999997E+02  0.45594000000E+02  0.51100000000E-03 0. -1.
         11   -1    0    0    0    0 -0.00000000000E+00 -0.00000000000E+00 -0.45593999997E+02  0.45594000000E+02  0.51100000000E-03 0.  1.
         23    2    1    2    0    0 -0.66613381478E-15  0.00000000000E+00 -0.35527136788E-14  0.91188000000E+02  0.91188000000E+02 0.  0.
    9900012    2    3    3    0    0  0.14710658719E+01 -0.37171923016E+02  0.25400740123E+02  0.46142317695E+02  0.99999993975E+01 0.  0.
        -12    1    3    3    0    0 -0.14710658719E+01  0.37171923016E+02 -0.25400740123E+02  0.45045682305E+02  0.00000000000E+00 0.  1.
         11    1    4    4    0    0 -0.19322959831E+01 -0.49690513392E+01  0.21191462792E+01  0.57372484862E+01  0.51100000000E-03 0. -1.
        -11    1    4    4    0    0 -0.13832076561E+01 -0.36715342352E+01  0.15349630839E+01  0.42130201745E+01  0.51100000000E-03 0.  1.
         12    1    4    4    0    0  0.47865695112E+01 -0.28531337442E+02  0.21746630760E+02  0.36192049034E+02  0.00000000000E+00 0. -1.
</event>
<event>
 8    1  0.2962813E-009  0.9118800E+02  0.7816164E-02  0.1184000E+00
        -11   -1    0    0    0    0  0.00000000000E+00  0.00000000000E+00  0.45593999997E+02  0.45594000000E+02  0.51100000000E-03 0. -1.
         11   -1    0    0    0    0 -0.00000000000E+00 -0.00000000000E+00 -0.45593999997E+02  0.45594000000E+02  0.51100000000E-03 0.  1.
         23    2    1    2    0    0  0.71054273576E-14  0.00000000000E+00  0.17763568394E-14  0.91188000000E+02  0.91188000000E+02 0.  0.
    9900012    2    3    3    0    0 -0.37651231341E+02 -0.19152512255E+02 -0.15642238370E+02  0.46142316873E+02  0.99999919004E+01 0.  0.
         12    1    3    3    0    0  0.37651231341E+02  0.19152512255E+02  0.15642238370E+02  0.45045683127E+02  0.00000000000E+00 0. -1.
         11    1    4    4    0    0 -0.66372647772E+01 -0.75218338034E+01 -0.36535228833E+01  0.10676118078E+02  0.51100000000E-03 0. -1.
        -11    1    4    4    0    0 -0.25844925258E+02 -0.11206016170E+02 -0.96495851062E+01  0.29776659534E+02  0.51100000000E-03 0.  1.
         12    1    4    4    0    0 -0.51690413055E+01 -0.42466228162E+00 -0.23391303802E+01  0.56895392614E+01  0.00000000000E+00 0. -1.
</event>
<event>
 8    1  0.2962813E-009  0.9118800E+02  0.7816164E-02  0.1184000E+00
        -11   -1    0    0    0    0  0.00000000000E+00  0.00000000000E+00  0.45593999997E+02  0.45594000000E+02  0.51100000000E-03 0. -1.
         11   -1    0    0    0    0 -0.00000000000E+00 -0.00000000000E+00 -0.45593999997E+02  0.45594000000E+02  0.51100000000E-03 0.  1.
         23    2    1    2    0    0 -0.71054273576E-14  0.00000000000E+00  0.00000000000E+00  0.91188000000E+02  0.91188000000E+02 0.  0.
    9900012    2    3    3    0    0  0.36783083028E+02  0.49196988637E+01 -0.25532625043E+02  0.46142316794E+02  0.99999911774E+01 0.  0.
         12    1    3    3    0    0 -0.36783083028E+02 -0.49196988637E+01  0.25532625043E+02  0.45045683206E+02  0.00000000000E+00 0. -1.
         11    1    4    4    0    0  0.49558728324E+01 -0.22265151863E+01 -0.26428188051E+01  0.60417329388E+01  0.51100000000E-03 0. -1.
        -11    1    4    4    0    0  0.12905418685E+02  0.36347691768E+01 -0.11970874803E+02  0.17973959559E+02  0.51100000000E-03 0.  1.
         12    1    4    4    0    0  0.18921791511E+02  0.35114448732E+01 -0.10918931434E+02  0.22126624296E+02  0.00000000000E+00 0. -1.
</event>
<event>
 8    1  0.2962813E-009  0.9118800E+02  0.7816164E-02  0.1184000E+00
        -11   -1    0    0    0    0  0.00000000000E+00  0.00000000000E+00  0.45593999997E+02  0.45594000000E+02  0.51100000000E-03 0. -1.
         11   -1    0    0    0    0 -0.00000000000E+00 -0.00000000000E+00 -0.45593999997E+02  0.45594000000E+02  0.51100000000E-03 0.  1.
         23    2    1    2    0    0  0.35527136788E-14  0.35527136788E-14  0.00000000000E+00  0.91188000000E+02  0.91188000000E+02 0.  0.
    9900012    2    3    3    0    0 -0.21549593842E+02 -0.25785998885E+02  0.29996846267E+02  0.46142317419E+02  0.99999968795E+01 0.  0.
        -12    1    3    3    0    0  0.21549593842E+02  0.25785998885E+02 -0.29996846267E+02  0.45045682581E+02  0.00000000000E+00 0.  1.
         11    1    4    4    0    0 -0.12359295910E+02 -0.18269860033E+02  0.18913353667E+02  0.29056065256E+02  0.51100000000E-03 0. -1.
        -11    1    4    4    0    0 -0.83743570834E+01 -0.70745263366E+01  0.72524311733E+01  0.13144448928E+02  0.51100000000E-03 0.  1.
        -12    1    4    4    0    0 -0.81594084928E+00 -0.44161251564E+00  0.38310614265E+01  0.39418032342E+01  0.00000000000E+00 0.  1.
</event>
<event>
 8    1  0.2962813E-009  0.9118800E+02  0.7816164E-02  0.1184000E+00
        -11   -1    0    0    0    0  0.00000000000E+00  0.00000000000E+00  0.45593999997E+02  0.45594000000E+02  0.51100000000E-03 0. -1.
         11   -1    0    0    0    0 -0.00000000000E+00 -0.00000000000E+00 -0.45593999997E+02  0.45594000000E+02  0.51100000000E-03 0.  1.
         23    2    1    2    0    0  0.00000000000E+00  0.00000000000E+00 -0.35527136788E-14  0.91188000000E+02  0.91188000000E+02 0.  0.
    9900012    2    3    3    0    0 -0.33553101161E+02  0.22525214160E+02 -0.19897679476E+02  0.46142317421E+02  0.99999969017E+01 0.  0.
         12    1    3    3    0    0  0.33553101161E+02 -0.22525214160E+02  0.19897679476E+02  0.45045682579E+02  0.00000000000E+00 0. -1.
         11    1    4    4    0    0 -0.65565113123E+01  0.22589191703E+01 -0.41931942372E+01  0.81039147687E+01  0.51100000000E-03 0. -1.
        -11    1    4    4    0    0 -0.23721465168E+02  0.19645305410E+02 -0.12000771704E+02  0.33055475433E+02  0.51100000000E-03 0.  1.
        -12    1    4    4    0    0 -0.32751246806E+01  0.62098958000E+00 -0.37037135339E+01  0.49829272193E+01  0.00000000000E+00 0.  1.
</event>
<event>
 8    1  0.2962813E-009  0.9118800E+02  0.7816164E-02  0.1184000E+00
        -11   -1    0    0    0    0  0.00000000000E+00  0.00000000000E+00  0.45593999997E+02  0.45594000000E+02  0.51100000000E-03 0. -1.
         11   -1    0    0    0    0 -0.00000000000E+00 -0.00000000000E+00 -0.45593999997E+02  0.45594000000E+02  0.51100000000E-03 0.  1.
         23    2    1    2    0    0  0.11102230246E-15  0.17763568394E-14  0.00000000000E+00  0.91188000000E+02  0.91188000000E+02 0.  0.
    9900012    2    3    3    0    0  0.46031991300E+00 -0.99386726196E+01  0.43933181118E+02  0.46142317510E+02  0.99999977078E+01 0.  0.
        -12    1    3    3    0    0 -0.46031991300E+00  0.99386726196E+01 -0.43933181118E+02  0.45045682490E+02  0.00000000000E+00 0.  1.
         11    1    4    4    0    0  0.66733419360E+00 -0.20062245304E+01  0.13666156996E+02  0.13828742498E+02  0.51100000000E-03 0. -1.
        -11    1    4    4    0    0 -0.11514499448E+01 -0.78567555685E+01  0.30341324952E+02  0.31363202087E+02  0.51100000000E-03 0.  1.
         12    1    4    4    0    0  0.94443566416E+00 -0.75692520687E-01 -0.74300830142E-01  0.95037292406E+00  0.00000000000E+00 0. -1.
</event>
<event>
 8    1  0.2962813E-009  0.9118800E+02  0.7816164E-02  0.1184000E+00
        -11   -1    0    0    0    0  0.00000000000E+00  0.00000000000E+00  0.45593999997E+02  0.45594000000E+02  0.51100000000E-03 0. -1.
         11   -1    0    0    0    0 -0.00000000000E+00 -0.00000000000E+00 -0.45593999997E+02  0.45594000000E+02  0.51100000000E-03 0.  1.
         23    2    1    2    0    0  0.00000000000E+00  0.71054273576E-14  0.00000000000E+00  0.91188000000E+02  0.91188000000E+02 0.  0.
    9900012    2    3    3    0    0 -0.28640065644E+02  0.33828113508E+02  0.80323623646E+01  0.46142317979E+02  0.10000001983E+02 0.  0.
        -12    1    3    3    0    0  0.28640065644E+02 -0.33828113508E+02 -0.80323623646E+01  0.45045682021E+02  0.00000000000E+00 0.  1.
         11    1    4    4    0    0 -0.16557343643E+02  0.23705903542E+02  0.57335132985E+01  0.29478613710E+02  0.51100000000E-03 0. -1.
        -11    1    4    4    0    0 -0.64180316232E+01  0.75922399989E+01 -0.27914006813E+00  0.99454088682E+01  0.51100000000E-03 0.  1.
         12    1    4    4    0    0 -0.56646903777E+01  0.25299699675E+01  0.25779891342E+01  0.67182954004E+01  0.00000000000E+00 0. -1.
</event>
<event>
 8    1  0.2962813E-009  0.9118800E+02  0.7816164E-02  0.1184000E+00
        -11   -1    0    0    0    0  0.00000000000E+00  0.00000000000E+00  0.45593999997E+02  0.45594000000E+02  0.51100000000E-03 0. -1.
         11   -1    0    0    0    0 -0.00000000000E+00 -0.00000000000E+00 -0.45593999997E+02  0.45594000000E+02  0.51100000000E-03 0.  1.
         23    2    1    2    0    0  0.00000000000E+00  0.35527136788E-14  0.35527136788E-14  0.91188000000E+02  0.91188000000E+02 0.  0.
    9900012    2    3    3    0    0 -0.21341350809E+02 -0.31931999361E+02 -0.23537363306E+02  0.46142319753E+02  0.10000018164E+02 0.  0.
         12    1    3    3    0    0  0.21341350809E+02  0.31931999361E+02  0.23537363306E+02  0.45045680247E+02  0.00000000000E+00 0. -1.
         11    1    4    4    0    0 -0.12486947148E+01 -0.77870227822E+01 -0.29017672846E+01  0.84034050204E+01  0.51100000000E-03 0. -1.
        -11    1    4    4    0    0 -0.17261446367E+02 -0.22256028841E+02 -0.17898041129E+02  0.33371068712E+02  0.51100000000E-03 0.  1.
         12    1    4    4    0    0 -0.28312097274E+01 -0.18889477373E+01 -0.27375548922E+01  0.43678460210E+01  0.00000000000E+00 0. -1.
</event>
<event>
 8    1  0.2962813E-009  0.9118800E+02  0.7816164E-02  0.1184000E+00
        -11   -1    0    0    0    0  0.00000000000E+00  0.00000000000E+00  0.45593999997E+02  0.45594000000E+02  0.51100000000E-03 0. -1.
         11   -1    0    0    0    0 -0.00000000000E+00 -0.00000000000E+00 -0.45593999997E+02  0.45594000000E+02  0.51100000000E-03 0.  1.
         23    2    1    2    0    0 -0.35527136788E-14  0.71054273576E-14  0.00000000000E+00  0.91188000000E+02  0.91188000000E+02 0.  0.
    9900012    2    3    3    0    0 -0.24842546548E+02  0.37120345902E+02 -0.58344930563E+01  0.46142317542E+02  0.99999980038E+01 0.  0.
         12    1    3    3    0    0  0.24842546548E+02 -0.37120345902E+02  0.58344930563E+01  0.45045682458E+02  0.00000000000E+00 0. -1.
         11    1    4    4    0    0 -0.15636228773E+02  0.19202853082E+02 -0.59452977526E+00  0.24770843398E+02  0.51100000000E-03 0. -1.
        -11    1    4    4    0    0 -0.94578226899E+01  0.15513528035E+02 -0.38142850102E+01  0.18565256059E+02  0.51100000000E-03 0.  1.
         12    1    4    4    0    0  0.25150491557E+00  0.24039647848E+01 -0.14256782709E+01  0.28062180851E+01  0.00000000000E+00 0. -1.
</event>
<event>
 8    1  0.2962813E-009  0.9118800E+02  0.7816164E-02  0.1184000E+00
        -11   -1    0    0    0    0  0.00000000000E+00  0.00000000000E+00  0.45593999997E+02  0.45594000000E+02  0.51100000000E-03 0. -1.
         11   -1    0    0    0    0 -0.00000000000E+00 -0.00000000000E+00 -0.45593999997E+02  0.45594000000E+02  0.51100000000E-03 0.  1.
         23    2    1    2    0    0  0.00000000000E+00 -0.44408920985E-15  0.00000000000E+00  0.91188000000E+02  0.91188000000E+02 0.  0.
    9900012    2    3    3    0    0  0.20979575154E+01  0.12266980923E+01  0.44980076125E+02  0.46142318052E+02  0.10000002649E+02 0.  0.
        -12    1    3    3    0    0 -0.20979575154E+01 -0.12266980923E+01 -0.44980076125E+02  0.45045681948E+02  0.00000000000E+00 0.  1.
         11    1    4    4    0    0  0.39090931599E+01  0.45369247395E+01  0.30483143955E+02  0.31065845571E+02  0.51100000000E-03 0. -1.
        -11    1    4    4    0    0 -0.29262001256E+00 -0.51897351111E+00  0.70407129510E+00  0.92232132508E+00  0.51100000000E-03 0.  1.
         12    1    4    4    0    0 -0.15185156319E+01 -0.27912531361E+01  0.13792860876E+02  0.14154151155E+02  0.00000000000E+00 0. -1.
</event>
<event>
 8    1  0.2962813E-009  0.9118800E+02  0.7816164E-02  0.1184000E+00
        -11   -1    0    0    0    0  0.00000000000E+00  0.00000000000E+00  0.45593999997E+02  0.45594000000E+02  0.51100000000E-03 0. -1.
         11   -1    0    0    0    0 -0.00000000000E+00 -0.00000000000E+00 -0.45593999997E+02  0.45594000000E+02  0.51100000000E-03 0.  1.
         23    2    1    2    0    0  0.17763568394E-14 -0.35527136788E-14  0.71054273576E-14  0.91188000000E+02  0.91188000000E+02 0.  0.
    9900012    2    3    3    0    0  0.13306348789E+02 -0.22511844002E+02  0.36677944233E+02  0.46142316171E+02  0.99999854994E+01 0.  0.
        -12    1    3    3    0    0 -0.13306348789E+02  0.22511844002E+02 -0.36677944233E+02  0.45045683829E+02  0.00000000000E+00 0.  1.
         11    1    4    4    0    0  0.14133729787E+02 -0.19566746045E+02  0.30813797469E+02  0.39142176526E+02  0.51100000000E-03 0. -1.
        -11    1    4    4    0    0 -0.13312491310E+01 -0.30280888865E+01  0.49614739574E+01  0.59630336779E+01  0.51100000000E-03 0.  1.
         12    1    4    4    0    0  0.50386813321E+00  0.82990929943E-01  0.90267280723E+00  0.10371059671E+01  0.00000000000E+00 0. -1.
</event>
<event>
 8    1  0.2962813E-009  0.9118800E+02  0.7816164E-02  0.1184000E+00
        -11   -1    0    0    0    0  0.00000000000E+00  0.00000000000E+00  0.45593999997E+02  0.45594000000E+02  0.51100000000E-03 0. -1.
         11   -1    0    0    0    0 -0.00000000000E+00 -0.00000000000E+00 -0.45593999997E+02  0.45594000000E+02  0.51100000000E-03 0.  1.
         23    2    1    2    0    0  0.00000000000E+00  0.00000000000E+00 -0.71054273576E-14  0.91188000000E+02  0.91188000000E+02 0.  0.
    9900012    2    3    3    0    0 -0.22883565936E+02  0.23953884359E+01  0.38726193319E+02  0.46142317358E+02  0.99999963233E+01 0.  0.
        -12    1    3    3    0    0  0.22883565936E+02 -0.23953884359E+01 -0.38726193319E+02  0.45045682642E+02  0.00000000000E+00 0.  1.
         11    1    4    4    0    0 -0.16317538129E+02  0.83025517564E+00  0.24602491505E+02  0.29533607344E+02  0.51100000000E-03 0. -1.
        -11    1    4    4    0    0 -0.69842196227E+01  0.22380522078E+00  0.13174940272E+02  0.14913365279E+02  0.51100000000E-03 0.  1.
        -12    1    4    4    0    0  0.41819181626E+00  0.13413280395E+01  0.94876154216E+00  0.16953447344E+01  0.00000000000E+00 0.  1.
</event>
<event>
 8    1  0.2962813E-009  0.9118800E+02  0.7816164E-02  0.1184000E+00
        -11   -1    0    0    0    0  0.00000000000E+00  0.00000000000E+00  0.45593999997E+02  0.45594000000E+02  0.51100000000E-03 0. -1.
         11   -1    0    0    0    0 -0.00000000000E+00 -0.00000000000E+00 -0.45593999997E+02  0.45594000000E+02  0.51100000000E-03 0.  1.
         23    2    1    2    0    0  0.00000000000E+00 -0.44408920985E-15  0.00000000000E+00  0.91188000000E+02  0.91188000000E+02 0.  0.
    9900012    2    3    3    0    0  0.15694521101E+02  0.19495838395E+01  0.42178130323E+02  0.46142317108E+02  0.99999940405E+01 0.  0.
        -12    1    3    3    0    0 -0.15694521101E+02 -0.19495838395E+01 -0.42178130323E+02  0.45045682892E+02  0.00000000000E+00 0.  1.
         11    1    4    4    0    0  0.36378131756E+01  0.12154393084E+01  0.61063499705E+01  0.72109976866E+01  0.51100000000E-03 0. -1.
        -11    1    4    4    0    0  0.86781152560E+01  0.17921230574E+01  0.13939055677E+02  0.16517223219E+02  0.51100000000E-03 0.  1.
        -12    1    4    4    0    0  0.33785926690E+01 -0.10579785263E+01  0.22132724675E+02  0.22414096202E+02  0.00000000000E+00 0.  1.
</event>
<event>
 8    1  0.2962813E-009  0.9118800E+02  0.7816164E-02  0.1184000E+00
        -11   -1    0    0    0    0  0.00000000000E+00  0.00000000000E+00  0.45593999997E+02  0.45594000000E+02  0.51100000000E-03 0.  1.
         11   -1    0    0    0    0 -0.00000000000E+00 -0.00000000000E+00 -0.45593999997E+02  0.45594000000E+02  0.51100000000E-03 0. -1.
         23    2    1    2    0    0  0.00000000000E+00  0.00000000000E+00  0.00000000000E+00  0.91188000000E+02  0.91188000000E+02 0.  0.
    9900012    2    3    3    0    0 -0.38280300846E+02 -0.22626613636E+02 -0.71950277404E+01  0.46142317613E+02  0.99999986535E+01 0.  0.
         12    1    3    3    0    0  0.38280300846E+02  0.22626613636E+02  0.71950277404E+01  0.45045682387E+02  0.00000000000E+00 0. -1.
         11    1    4    4    0    0 -0.11006624564E+02 -0.30412706821E+01 -0.27872885375E+01  0.11754322154E+02  0.51100000000E-03 0. -1.
        -11    1    4    4    0    0 -0.90218090617E+00 -0.10051903797E+01 -0.14679284678E+01  0.19947812748E+01  0.51100000000E-03 0.  1.
        -12    1    4    4    0    0 -0.26371495376E+02 -0.18580152574E+02 -0.29398107351E+01  0.32393214184E+02  0.00000000000E+00 0.  1.
</event>
<event>
 8    1  0.2962813E-009  0.9118800E+02  0.7816164E-02  0.1184000E+00
        -11   -1    0    0    0    0  0.00000000000E+00  0.00000000000E+00  0.45593999997E+02  0.45594000000E+02  0.51100000000E-03 0. -1.
         11   -1    0    0    0    0 -0.00000000000E+00 -0.00000000000E+00 -0.45593999997E+02  0.45594000000E+02  0.51100000000E-03 0.  1.
         23    2    1    2    0    0  0.00000000000E+00  0.17763568394E-14  0.00000000000E+00  0.91188000000E+02  0.91188000000E+02 0.  0.
    9900012    2    3    3    0    0  0.25028717743E+02  0.13378956127E+02  0.34981143592E+02  0.46142316678E+02  0.99999901262E+01 0.  0.
        -12    1    3    3    0    0 -0.25028717743E+02 -0.13378956127E+02 -0.34981143592E+02  0.45045683322E+02  0.00000000000E+00 0.  1.
         11    1    4    4    0    0  0.23553892248E+02  0.12755793422E+02  0.27652239005E+02  0.38498602937E+02  0.51100000000E-03 0. -1.
        -11    1    4    4    0    0  0.52971903256E+00 -0.28751163919E+00  0.43088549857E+01  0.43508041492E+01  0.51100000000E-03 0.  1.
         12    1    4    4    0    0  0.94510646256E+00  0.91067434482E+00  0.30200496016E+01  0.32929095924E+01  0.00000000000E+00 0. -1.
</event>
<event>
 8    1  0.2962813E-009  0.9118800E+02  0.7816164E-02  0.1184000E+00
        -11   -1    0    0    0    0  0.00000000000E+00  0.00000000000E+00  0.45593999997E+02  0.45594000000E+02  0.51100000000E-03 0. -1.
         11   -1    0    0    0    0 -0.00000000000E+00 -0.00000000000E+00 -0.45593999997E+02  0.45594000000E+02  0.51100000000E-03 0.  1.
         23    2    1    2    0    0  0.00000000000E+00  0.22204460493E-15 -0.71054273576E-14  0.91188000000E+02  0.91188000000E+02 0.  0.
    9900012    2    3    3    0    0 -0.49232250839E+01 -0.18865455656E+01  0.44736071052E+02  0.46142320378E+02  0.10000023866E+02 0.  0.
        -12    1    3    3    0    0  0.49232250839E+01  0.18865455656E+01 -0.44736071052E+02  0.45045679622E+02  0.00000000000E+00 0.  1.
         11    1    4    4    0    0 -0.34183464649E+01  0.67291830402E+00  0.35649099903E+02  0.35818936832E+02  0.51100000000E-03 0. -1.
        -11    1    4    4    0    0  0.10065437242E+01  0.59232563159E-01  0.83567331648E+00  0.13095758543E+01  0.51100000000E-03 0.  1.
        -12    1    4    4    0    0 -0.25114223432E+01 -0.26186964328E+01  0.82512978323E+01  0.90138076921E+01  0.00000000000E+00 0.  1.
</event>
<event>
 8    1  0.2962813E-009  0.9118800E+02  0.7816164E-02  0.1184000E+00
        -11   -1    0    0    0    0  0.00000000000E+00  0.00000000000E+00  0.45593999997E+02  0.45594000000E+02  0.51100000000E-03 0. -1.
         11   -1    0    0    0    0 -0.00000000000E+00 -0.00000000000E+00 -0.45593999997E+02  0.45594000000E+02  0.51100000000E-03 0.  1.
         23    2    1    2    0    0  0.71054273576E-14  0.17763568394E-14 -0.17763568394E-14  0.91188000000E+02  0.91188000000E+02 0.  0.
    9900012    2    3    3    0    0 -0.41485326817E+02  0.10741034587E+02  0.13882068337E+02  0.46142312233E+02  0.99999495914E+01 0.  0.
        -12    1    3    3    0    0  0.41485326817E+02 -0.10741034587E+02 -0.13882068337E+02  0.45045687767E+02  0.00000000000E+00 0.  1.
         11    1    4    4    0    0 -0.17055581029E+02  0.25298295297E+01  0.21022594499E+01  0.17369869796E+02  0.51100000000E-03 0. -1.
        -11    1    4    4    0    0 -0.16637024444E+02  0.77924041100E+01  0.72591360286E+01  0.19753662959E+02  0.51100000000E-03 0.  1.
        -12    1    4    4    0    0 -0.77927213435E+01  0.41880094694E+00  0.45206728580E+01  0.90187794773E+01  0.00000000000E+00 0.  1.
</event>
<event>
 8    1  0.2962813E-009  0.9118800E+02  0.7816164E-02  0.1184000E+00
        -11   -1    0    0    0    0  0.00000000000E+00  0.00000000000E+00  0.45593999997E+02  0.45594000000E+02  0.51100000000E-03 0. -1.
         11   -1    0    0    0    0 -0.00000000000E+00 -0.00000000000E+00 -0.45593999997E+02  0.45594000000E+02  0.51100000000E-03 0.  1.
         23    2    1    2    0    0 -0.35527136788E-14  0.71054273576E-14 -0.17763568394E-14  0.91188000000E+02  0.91188000000E+02 0.  0.
    9900012    2    3    3    0    0 -0.20697951802E+02  0.36877010176E+02  0.15517552036E+02  0.46142317526E+02  0.99999978582E+01 0.  0.
        -12    1    3    3    0    0  0.20697951802E+02 -0.36877010176E+02 -0.15517552036E+02  0.45045682474E+02  0.00000000000E+00 0.  1.
         11    1    4    4    0    0 -0.73487986028E+01  0.77283721152E+01  0.19457026912E+01  0.10840587423E+02  0.51100000000E-03 0. -1.
        -11    1    4    4    0    0 -0.13775166668E+02  0.28524817701E+02  0.13739136169E+02  0.34528022019E+02  0.51100000000E-03 0.  1.
        -12    1    4    4    0    0  0.42601346943E+00  0.62382036030E+00 -0.16728682398E+00  0.77370808419E+00  0.00000000000E+00 0.  1.
</event>
<event>
 8    1  0.2962813E-009  0.9118800E+02  0.7816164E-02  0.1184000E+00
        -11   -1    0    0    0    0  0.00000000000E+00  0.00000000000E+00  0.45593999997E+02  0.45594000000E+02  0.51100000000E-03 0. -1.
         11   -1    0    0    0    0 -0.00000000000E+00 -0.00000000000E+00 -0.45593999997E+02  0.45594000000E+02  0.51100000000E-03 0.  1.
         23    2    1    2    0    0  0.71054273576E-14 -0.17763568394E-14 -0.71054273576E-14  0.91188000000E+02  0.91188000000E+02 0.  0.
    9900012    2    3    3    0    0 -0.24260127959E+02  0.11206559403E+02  0.36262545633E+02  0.46142323203E+02  0.10000049628E+02 0.  0.
        -12    1    3    3    0    0  0.24260127959E+02 -0.11206559403E+02 -0.36262545633E+02  0.45045676797E+02  0.00000000000E+00 0.  1.
         11    1    4    4    0    0 -0.16635309059E+02  0.85024493906E+01  0.23272450327E+02  0.29843459881E+02  0.51100000000E-03 0. -1.
        -11    1    4    4    0    0 -0.29690914720E+01  0.44583940246E+00  0.97307293759E+01  0.10183387029E+02  0.51100000000E-03 0.  1.
        -12    1    4    4    0    0 -0.46557274278E+01  0.22582706104E+01  0.32593659298E+01  0.61154762935E+01  0.00000000000E+00 0.  1.
</event>
<event>
 8    1  0.2962813E-009  0.9118800E+02  0.7816164E-02  0.1184000E+00
        -11   -1    0    0    0    0  0.00000000000E+00  0.00000000000E+00  0.45593999997E+02  0.45594000000E+02  0.51100000000E-03 0. -1.
         11   -1    0    0    0    0 -0.00000000000E+00 -0.00000000000E+00 -0.45593999997E+02  0.45594000000E+02  0.51100000000E-03 0.  1.
         23    2    1    2    0    0  0.00000000000E+00 -0.71054273576E-14  0.00000000000E+00  0.91188000000E+02  0.91188000000E+02 0.  0.
    9900012    2    3    3    0    0 -0.21761762049E+02  0.36494592313E+02  0.14956067799E+02  0.46142317414E+02  0.99999968381E+01 0.  0.
        -12    1    3    3    0    0  0.21761762049E+02 -0.36494592313E+02 -0.14956067799E+02  0.45045682586E+02  0.00000000000E+00 0.  1.
         11    1    4    4    0    0 -0.12065022542E+02  0.11327804696E+02  0.57251873013E+01  0.17511758851E+02  0.51100000000E-03 0. -1.
        -11    1    4    4    0    0 -0.78091064288E+01  0.17819635187E+02  0.57746670470E+01  0.20294539196E+02  0.51100000000E-03 0.  1.
         12    1    4    4    0    0 -0.18876330788E+01  0.73471524307E+01  0.34562134508E+01  0.83360193676E+01  0.00000000000E+00 0. -1.
</event>
<event>
 8    1  0.2962813E-009  0.9118800E+02  0.7816164E-02  0.1184000E+00
        -11   -1    0    0    0    0  0.00000000000E+00  0.00000000000E+00  0.45593999997E+02  0.45594000000E+02  0.51100000000E-03 0. -1.
         11   -1    0    0    0    0 -0.00000000000E+00 -0.00000000000E+00 -0.45593999997E+02  0.45594000000E+02  0.51100000000E-03 0.  1.
         23    2    1    2    0    0  0.88817841970E-15  0.00000000000E+00  0.00000000000E+00  0.91188000000E+02  0.91188000000E+02 0.  0.
    9900012    2    3    3    0    0  0.78366596667E+01 -0.14916115892E+01 -0.44333680752E+02  0.46142318866E+02  0.10000010072E+02 0.  0.
         12    1    3    3    0    0 -0.78366596667E+01  0.14916115892E+01  0.44333680752E+02  0.45045681134E+02  0.00000000000E+00 0. -1.
         11    1    4    4    0    0  0.29564516288E+01  0.22605852582E+01 -0.95558923548E+01  0.10255044169E+02  0.51100000000E-03 0. -1.
        -11    1    4    4    0    0 -0.94023662126E+00  0.73587742729E+00 -0.91102563309E+01  0.91881625567E+01  0.51100000000E-03 0.  1.
        -12    1    4    4    0    0  0.58204446592E+01 -0.44880742746E+01 -0.25667532066E+02  0.26699112140E+02  0.00000000000E+00 0.  1.
</event>
<event>
 8    1  0.2962813E-009  0.9118800E+02  0.7816164E-02  0.1184000E+00
        -11   -1    0    0    0    0  0.00000000000E+00  0.00000000000E+00  0.45593999997E+02  0.45594000000E+02  0.51100000000E-03 0. -1.
         11   -1    0    0    0    0 -0.00000000000E+00 -0.00000000000E+00 -0.45593999997E+02  0.45594000000E+02  0.51100000000E-03 0.  1.
         23    2    1    2    0    0  0.00000000000E+00 -0.35527136788E-14  0.00000000000E+00  0.91188000000E+02  0.91188000000E+02 0.  0.
    9900012    2    3    3    0    0  0.23485608150E+02  0.27711112909E+02 -0.26638956511E+02  0.46142316824E+02  0.99999914575E+01 0.  0.
         12    1    3    3    0    0 -0.23485608150E+02 -0.27711112909E+02  0.26638956511E+02  0.45045683176E+02  0.00000000000E+00 0. -1.
         11    1    4    4    0    0  0.10467705606E+02  0.16366863966E+02 -0.13501864694E+02  0.23658982379E+02  0.51100000000E-03 0. -1.
        -11    1    4    4    0    0  0.13050129666E+02  0.89131388212E+01 -0.11111423898E+02  0.19318738811E+02  0.51100000000E-03 0.  1.
        -12    1    4    4    0    0 -0.32227122980E-01  0.24311101218E+01 -0.20256679179E+01  0.31645956338E+01  0.00000000000E+00 0.  1.
</event>
<event>
 8    1  0.2962813E-009  0.9118800E+02  0.7816164E-02  0.1184000E+00
        -11   -1    0    0    0    0  0.00000000000E+00  0.00000000000E+00  0.45593999997E+02  0.45594000000E+02  0.51100000000E-03 0. -1.
         11   -1    0    0    0    0 -0.00000000000E+00 -0.00000000000E+00 -0.45593999997E+02  0.45594000000E+02  0.51100000000E-03 0.  1.
         23    2    1    2    0    0  0.35527136788E-14  0.00000000000E+00 -0.71054273576E-14  0.91188000000E+02  0.91188000000E+02 0.  0.
    9900012    2    3    3    0    0  0.25516312318E+02 -0.44606062119E+01  0.36852872946E+02  0.46142318226E+02  0.10000004238E+02 0.  0.
        -12    1    3    3    0    0 -0.25516312318E+02  0.44606062119E+01 -0.36852872946E+02  0.45045681774E+02  0.00000000000E+00 0.  1.
         11    1    4    4    0    0  0.11584344048E+02 -0.26045140038E+01  0.14089600160E+02  0.18425453947E+02  0.51100000000E-03 0. -1.
        -11    1    4    4    0    0  0.53131967141E+01  0.19703297185E+01  0.47900462210E+01  0.74200270608E+01  0.51100000000E-03 0.  1.
        -12    1    4    4    0    0  0.86187715568E+01 -0.38264219266E+01  0.17973226565E+02  0.20296837218E+02  0.00000000000E+00 0.  1.
</event>
<event>
 8    1  0.2962813E-009  0.9118800E+02  0.7816164E-02  0.1184000E+00
        -11   -1    0    0    0    0  0.00000000000E+00  0.00000000000E+00  0.45593999997E+02  0.45594000000E+02  0.51100000000E-03 0. -1.
         11   -1    0    0    0    0 -0.00000000000E+00 -0.00000000000E+00 -0.45593999997E+02  0.45594000000E+02  0.51100000000E-03 0.  1.
         23    2    1    2    0    0  0.00000000000E+00  0.71054273576E-14  0.35527136788E-14  0.91188000000E+02  0.91188000000E+02 0.  0.
    9900012    2    3    3    0    0 -0.20865002407E+02  0.32589697033E+02  0.23058118849E+02  0.46142317377E+02  0.99999964974E+01 0.  0.
        -12    1    3    3    0    0  0.20865002407E+02 -0.32589697033E+02 -0.23058118849E+02  0.45045682623E+02  0.00000000000E+00 0.  1.
         11    1    4    4    0    0 -0.82153444105E+01  0.20028692131E+02  0.15929508764E+02  0.26877307194E+02  0.51100000000E-03 0. -1.
        -11    1    4    4    0    0 -0.46159803604E+01  0.56843009027E+01  0.28728384194E+01  0.78658599203E+01  0.51100000000E-03 0.  1.
        -12    1    4    4    0    0 -0.80336776360E+01  0.68767039988E+01  0.42557716654E+01  0.11399150263E+02  0.00000000000E+00 0.  1.
</event>
<event>
 8    1  0.2962813E-009  0.9118800E+02  0.7816164E-02  0.1184000E+00
        -11   -1    0    0    0    0  0.00000000000E+00  0.00000000000E+00  0.45593999997E+02  0.45594000000E+02  0.51100000000E-03 0. -1.
         11   -1    0    0    0    0 -0.00000000000E+00 -0.00000000000E+00 -0.45593999997E+02  0.45594000000E+02  0.51100000000E-03 0.  1.
         23    2    1    2    0    0 -0.88817841970E-15  0.00000000000E+00  0.00000000000E+00  0.91188000000E+02  0.91188000000E+02 0.  0.
    9900012    2    3    3    0    0  0.35293622504E+01  0.36327577707E+02  0.26400080587E+02  0.46142317022E+02  0.99999932562E+01 0.  0.
        -12    1    3    3    0    0 -0.35293622504E+01 -0.36327577707E+02 -0.26400080587E+02  0.45045682978E+02  0.00000000000E+00 0.  1.
         11    1    4    4    0    0 -0.31657394583E+00  0.40832896215E+01  0.33616569843E+01  0.52985102753E+01  0.51100000000E-03 0. -1.
        -11    1    4    4    0    0  0.58769147163E+01  0.11845321210E+02  0.87607656174E+01  0.15861928496E+02  0.51100000000E-03 0.  1.
        -12    1    4    4    0    0 -0.20309785201E+01  0.20398966876E+02  0.14277657985E+02  0.24981878250E+02  0.00000000000E+00 0.  1.
</event>
<event>
 8    1  0.2962813E-009  0.9118800E+02  0.7816164E-02  0.1184000E+00
        -11   -1    0    0    0    0  0.00000000000E+00  0.00000000000E+00  0.45593999997E+02  0.45594000000E+02  0.51100000000E-03 0.  1.
         11   -1    0    0    0    0 -0.00000000000E+00 -0.00000000000E+00 -0.45593999997E+02  0.45594000000E+02  0.51100000000E-03 0. -1.
         23    2    1    2    0    0  0.00000000000E+00 -0.17763568394E-14  0.17763568394E-14  0.91188000000E+02  0.91188000000E+02 0.  0.
    9900012    2    3    3    0    0 -0.39456999465E+02  0.15882655828E+02 -0.14832392602E+02  0.46142318373E+02  0.10000005577E+02 0.  0.
         12    1    3    3    0    0  0.39456999465E+02 -0.15882655828E+02  0.14832392602E+02  0.45045681627E+02  0.00000000000E+00 0. -1.
         11    1    4    4    0    0 -0.18892084623E+02  0.96355638834E+01 -0.81603007711E+01  0.22723236163E+02  0.51100000000E-03 0. -1.
        -11    1    4    4    0    0 -0.14537357240E+02  0.20798398236E+01 -0.22402304431E+01  0.14855272530E+02  0.51100000000E-03 0.  1.
         12    1    4    4    0    0 -0.60275576017E+01  0.41672521210E+01 -0.44318613880E+01  0.85638096805E+01  0.00000000000E+00 0. -1.
</event>
<event>
 8    1  0.2962813E-009  0.9118800E+02  0.7816164E-02  0.1184000E+00
        -11   -1    0    0    0    0  0.00000000000E+00  0.00000000000E+00  0.45593999997E+02  0.45594000000E+02  0.51100000000E-03 0. -1.
         11   -1    0    0    0    0 -0.00000000000E+00 -0.00000000000E+00 -0.45593999997E+02  0.45594000000E+02  0.51100000000E-03 0.  1.
         23    2    1    2    0    0  0.71054273576E-14  0.35527136788E-14  0.00000000000E+00  0.91188000000E+02  0.91188000000E+02 0.  0.
    9900012    2    3    3    0    0 -0.26345074155E+02 -0.17192760868E+02 -0.32240647709E+02  0.46142319595E+02  0.10000016722E+02 0.  0.
         12    1    3    3    0    0  0.26345074155E+02  0.17192760868E+02  0.32240647709E+02  0.45045680405E+02  0.00000000000E+00 0. -1.
         11    1    4    4    0    0 -0.76774287600E+01 -0.27791866458E+01 -0.13103274384E+02  0.15438995777E+02  0.51100000000E-03 0.  1.
        -11    1    4    4    0    0 -0.59721959301E+01 -0.63769617062E+01 -0.49675118107E+01  0.10050320327E+02  0.51100000000E-03 0. -1.
         12    1    4    4    0    0 -0.12695449465E+02 -0.80366125159E+01 -0.14169861514E+02  0.20653003490E+02  0.00000000000E+00 0. -1.
</event>
<event>
 8    1  0.2962813E-009  0.9118800E+02  0.7816164E-02  0.1184000E+00
        -11   -1    0    0    0    0  0.00000000000E+00  0.00000000000E+00  0.45593999997E+02  0.45594000000E+02  0.51100000000E-03 0. -1.
         11   -1    0    0    0    0 -0.00000000000E+00 -0.00000000000E+00 -0.45593999997E+02  0.45594000000E+02  0.51100000000E-03 0.  1.
         23    2    1    2    0    0  0.00000000000E+00  0.00000000000E+00  0.00000000000E+00  0.91188000000E+02  0.91188000000E+02 0.  0.
    9900012    2    3    3    0    0 -0.12680380314E+02 -0.12350652343E+02  0.41422012495E+02  0.46142314553E+02  0.99999707499E+01 0.  0.
        -12    1    3    3    0    0  0.12680380314E+02  0.12350652343E+02 -0.41422012495E+02  0.45045685447E+02  0.00000000000E+00 0.  1.
         11    1    4    4    0    0 -0.73940003954E+01 -0.27430479015E+01  0.13741651518E+02  0.15843880217E+02  0.51100000000E-03 0. -1.
        -11    1    4    4    0    0 -0.53723193441E-02 -0.28947339946E+01  0.12962265645E+02  0.13281560325E+02  0.51100000000E-03 0.  1.
         12    1    4    4    0    0 -0.52810075988E+01 -0.67128704465E+01  0.14718095333E+02  0.17016874011E+02  0.00000000000E+00 0. -1.
</event>
<event>
 8    1  0.2962813E-009  0.9118800E+02  0.7816164E-02  0.1184000E+00
        -11   -1    0    0    0    0  0.00000000000E+00  0.00000000000E+00  0.45593999997E+02  0.45594000000E+02  0.51100000000E-03 0. -1.
         11   -1    0    0    0    0 -0.00000000000E+00 -0.00000000000E+00 -0.45593999997E+02  0.45594000000E+02  0.51100000000E-03 0.  1.
         23    2    1    2    0    0  0.35527136788E-14 -0.88817841970E-15 -0.71054273576E-14  0.91188000000E+02  0.91188000000E+02 0.  0.
    9900012    2    3    3    0    0 -0.17916826245E+02  0.23687279403E+01  0.41261239339E+02  0.46142318669E+02  0.10000008279E+02 0.  0.
        -12    1    3    3    0    0  0.17916826245E+02 -0.23687279403E+01 -0.41261239339E+02  0.45045681331E+02  0.00000000000E+00 0.  1.
         11    1    4    4    0    0 -0.11499424966E+01 -0.12908564987E+01  0.32453420255E+01  0.36770808217E+01  0.51100000000E-03 0. -1.
        -11    1    4    4    0    0 -0.14061960899E+01  0.71395206918E+00  0.26052319660E+00  0.15984328567E+01  0.51100000000E-03 0.  1.
         12    1    4    4    0    0 -0.15360687659E+02  0.29456323698E+01  0.37755374117E+02  0.40866804991E+02  0.00000000000E+00 0. -1.
</event>
<event>
 8    1  0.2962813E-009  0.9118800E+02  0.7816164E-02  0.1184000E+00
        -11   -1    0    0    0    0  0.00000000000E+00  0.00000000000E+00  0.45593999997E+02  0.45594000000E+02  0.51100000000E-03 0. -1.
         11   -1    0    0    0    0 -0.00000000000E+00 -0.00000000000E+00 -0.45593999997E+02  0.45594000000E+02  0.51100000000E-03 0.  1.
         23    2    1    2    0    0  0.00000000000E+00 -0.35527136788E-14  0.00000000000E+00  0.91188000000E+02  0.91188000000E+02 0.  0.
    9900012    2    3    3    0    0  0.17296705376E+02  0.18778546456E+02 -0.37112041738E+02  0.46142318012E+02  0.10000002288E+02 0.  0.
         12    1    3    3    0    0 -0.17296705376E+02 -0.18778546456E+02  0.37112041738E+02  0.45045681988E+02  0.00000000000E+00 0. -1.
         11    1    4    4    0    0  0.13104644804E+02  0.10860772807E+02 -0.17833710889E+02  0.24652167161E+02  0.51100000000E-03 0. -1.
        -11    1    4    4    0    0  0.34863872189E+01  0.37585143029E+01 -0.12443992202E+02  0.13458613145E+02  0.51100000000E-03 0.  1.
        -12    1    4    4    0    0  0.70567335288E+00  0.41592593457E+01 -0.68343386466E+01  0.80315377060E+01  0.00000000000E+00 0.  1.
</event>
<event>
 8    1  0.2962813E-009  0.9118800E+02  0.7816164E-02  0.1184000E+00
        -11   -1    0    0    0    0  0.00000000000E+00  0.00000000000E+00  0.45593999997E+02  0.45594000000E+02  0.51100000000E-03 0. -1.
         11   -1    0    0    0    0 -0.00000000000E+00 -0.00000000000E+00 -0.45593999997E+02  0.45594000000E+02  0.51100000000E-03 0.  1.
         23    2    1    2    0    0  0.00000000000E+00 -0.35527136788E-14  0.00000000000E+00  0.91188000000E+02  0.91188000000E+02 0.  0.
    9900012    2    3    3    0    0  0.32272433056E+02 -0.28929202619E+02 -0.12276189503E+02  0.46142317318E+02  0.99999959622E+01 0.  0.
         12    1    3    3    0    0 -0.32272433056E+02  0.28929202619E+02  0.12276189503E+02  0.45045682682E+02  0.00000000000E+00 0. -1.
         11    1    4    4    0    0  0.51005405974E+01 -0.72835510940E+01  0.81535786553E+00  0.89291903124E+01  0.51100000000E-03 0. -1.
        -11    1    4    4    0    0  0.24090178951E+02 -0.18949918824E+02 -0.10659504018E+02  0.32450904016E+02  0.51100000000E-03 0.  1.
        -12    1    4    4    0    0  0.30817135082E+01 -0.26957327011E+01 -0.24320433508E+01  0.47622229896E+01  0.00000000000E+00 0.  1.
</event>
<event>
 8    1  0.2962813E-009  0.9118800E+02  0.7816164E-02  0.1184000E+00
        -11   -1    0    0    0    0  0.00000000000E+00  0.00000000000E+00  0.45593999997E+02  0.45594000000E+02  0.51100000000E-03 0. -1.
         11   -1    0    0    0    0 -0.00000000000E+00 -0.00000000000E+00 -0.45593999997E+02  0.45594000000E+02  0.51100000000E-03 0.  1.
         23    2    1    2    0    0  0.35527136788E-14 -0.88817841970E-15  0.71054273576E-14  0.91188000000E+02  0.91188000000E+02 0.  0.
    9900012    2    3    3    0    0 -0.17414127943E+02  0.47562192152E+01 -0.41270328655E+02  0.46142317626E+02  0.99999987710E+01 0.  0.
         12    1    3    3    0    0  0.17414127943E+02 -0.47562192152E+01  0.41270328655E+02  0.45045682374E+02  0.00000000000E+00 0. -1.
         11    1    4    4    0    0 -0.12399668802E+00  0.29605195217E+01 -0.57097112001E+01  0.64327951364E+01  0.51100000000E-03 0. -1.
        -11    1    4    4    0    0 -0.10922454448E+02  0.10237805201E+01 -0.18846178565E+02  0.21806572049E+02  0.51100000000E-03 0.  1.
        -12    1    4    4    0    0 -0.63676768067E+01  0.77191917338E+00 -0.16714438889E+02  0.17902950441E+02  0.00000000000E+00 0.  1.
</event>
<event>
 8    1  0.2962813E-009  0.9118800E+02  0.7816164E-02  0.1184000E+00
        -11   -1    0    0    0    0  0.00000000000E+00  0.00000000000E+00  0.45593999997E+02  0.45594000000E+02  0.51100000000E-03 0. -1.
         11   -1    0    0    0    0 -0.00000000000E+00 -0.00000000000E+00 -0.45593999997E+02  0.45594000000E+02  0.51100000000E-03 0.  1.
         23    2    1    2    0    0  0.00000000000E+00  0.00000000000E+00 -0.71054273576E-14  0.91188000000E+02  0.91188000000E+02 0.  0.
    9900012    2    3    3    0    0 -0.43567928737E+01 -0.26632086163E+02  0.36067489654E+02  0.46142317993E+02  0.10000002116E+02 0.  0.
        -12    1    3    3    0    0  0.43567928737E+01  0.26632086163E+02 -0.36067489654E+02  0.45045682007E+02  0.00000000000E+00 0.  1.
         11    1    4    4    0    0 -0.53314970757E+00 -0.23771658790E+02  0.28901915363E+02  0.37425883051E+02  0.51100000000E-03 0. -1.
        -11    1    4    4    0    0 -0.12062551710E+01 -0.11140629532E+01  0.14434640786E+01  0.21862700219E+01  0.51100000000E-03 0.  1.
         12    1    4    4    0    0 -0.26173879951E+01 -0.17463644198E+01  0.57221102127E+01  0.65301649206E+01  0.00000000000E+00 0. -1.
</event>
<event>
 8    1  0.2962813E-009  0.9118800E+02  0.7816164E-02  0.1184000E+00
        -11   -1    0    0    0    0  0.00000000000E+00  0.00000000000E+00  0.45593999997E+02  0.45594000000E+02  0.51100000000E-03 0. -1.
         11   -1    0    0    0    0 -0.00000000000E+00 -0.00000000000E+00 -0.45593999997E+02  0.45594000000E+02  0.51100000000E-03 0.  1.
         23    2    1    2    0    0  0.00000000000E+00  0.00000000000E+00  0.00000000000E+00  0.91188000000E+02  0.91188000000E+02 0.  0.
    9900012    2    3    3    0    0  0.13804207007E+02 -0.15553010155E+02 -0.39958243546E+02  0.46142317818E+02  0.10000000518E+02 0.  0.
         12    1    3    3    0    0 -0.13804207007E+02  0.15553010155E+02  0.39958243546E+02  0.45045682182E+02  0.00000000000E+00 0. -1.
         11    1    4    4    0    0  0.88796834347E+01 -0.67343323260E+01 -0.19578061026E+02  0.22527771385E+02  0.51100000000E-03 0. -1.
        -11    1    4    4    0    0  0.44984753168E+01 -0.47476332503E+01 -0.68167666934E+01  0.94469365441E+01  0.51100000000E-03 0.  1.
        -12    1    4    4    0    0  0.42604825534E+00 -0.40710445783E+01 -0.13563415827E+02  0.14167609889E+02  0.00000000000E+00 0.  1.
</event>
<event>
 8    1  0.2962813E-009  0.9118800E+02  0.7816164E-02  0.1184000E+00
        -11   -1    0    0    0    0  0.00000000000E+00  0.00000000000E+00  0.45593999997E+02  0.45594000000E+02  0.51100000000E-03 0. -1.
         11   -1    0    0    0    0 -0.00000000000E+00 -0.00000000000E+00 -0.45593999997E+02  0.45594000000E+02  0.51100000000E-03 0.  1.
         23    2    1    2    0    0 -0.33306690739E-15  0.00000000000E+00 -0.71054273576E-14  0.91188000000E+02  0.91188000000E+02 0.  0.
    9900012    2    3    3    0    0 -0.70659996016E+00 -0.31326385885E+02 -0.32361578508E+02  0.46142317636E+02  0.99999988560E+01 0.  0.
         12    1    3    3    0    0  0.70659996016E+00  0.31326385885E+02  0.32361578508E+02  0.45045682364E+02  0.00000000000E+00 0. -1.
         11    1    4    4    0    0  0.39284370022E+01 -0.16539625329E+02 -0.17978505892E+02  0.24743049482E+02  0.51100000000E-03 0. -1.
        -11    1    4    4    0    0 -0.27535460138E+01 -0.40596018341E+01 -0.52576132008E+01  0.71906105118E+01  0.51100000000E-03 0.  1.
        -12    1    4    4    0    0 -0.18814909486E+01 -0.10727158723E+02 -0.91254594151E+01  0.14208657642E+02  0.00000000000E+00 0.  1.
</event>
<event>
 8    1  0.2962813E-009  0.9118800E+02  0.7816164E-02  0.1184000E+00
        -11   -1    0    0    0    0  0.00000000000E+00  0.00000000000E+00  0.45593999997E+02  0.45594000000E+02  0.51100000000E-03 0. -1.
         11   -1    0    0    0    0 -0.00000000000E+00 -0.00000000000E+00 -0.45593999997E+02  0.45594000000E+02  0.51100000000E-03 0.  1.
         23    2    1    2    0    0  0.71054273576E-14 -0.17763568394E-14 -0.71054273576E-14  0.91188000000E+02  0.91188000000E+02 0.  0.
    9900012    2    3    3    0    0 -0.31083794945E+02  0.79409981363E+01  0.31620432183E+02  0.46142317731E+02  0.99999997267E+01 0.  0.
        -12    1    3    3    0    0  0.31083794945E+02 -0.79409981363E+01 -0.31620432183E+02  0.45045682269E+02  0.00000000000E+00 0.  1.
         11    1    4    4    0    0 -0.23965181236E+02  0.52255263230E+01  0.27796240943E+02  0.37071107994E+02  0.51100000000E-03 0. -1.
        -11    1    4    4    0    0 -0.64695387541E+01  0.14136686565E+01  0.24232054086E+01  0.70516179331E+01  0.51100000000E-03 0.  1.
         12    1    4    4    0    0 -0.64907495500E+00  0.13018031569E+01  0.14009858315E+01  0.20195918044E+01  0.00000000000E+00 0. -1.
</event>
<event>
 8    1  0.2962813E-009  0.9118800E+02  0.7816164E-02  0.1184000E+00
        -11   -1    0    0    0    0  0.00000000000E+00  0.00000000000E+00  0.45593999997E+02  0.45594000000E+02  0.51100000000E-03 0. -1.
         11   -1    0    0    0    0 -0.00000000000E+00 -0.00000000000E+00 -0.45593999997E+02  0.45594000000E+02  0.51100000000E-03 0.  1.
         23    2    1    2    0    0  0.00000000000E+00  0.00000000000E+00  0.00000000000E+00  0.91188000000E+02  0.91188000000E+02 0.  0.
    9900012    2    3    3    0    0  0.99820985728E+01 -0.22437050407E+02  0.37763076677E+02  0.46142317820E+02  0.10000000540E+02 0.  0.
        -12    1    3    3    0    0 -0.99820985728E+01  0.22437050407E+02 -0.37763076677E+02  0.45045682180E+02  0.00000000000E+00 0.  1.
         11    1    4    4    0    0  0.33000900950E+01 -0.96511786689E+01  0.15215822897E+02  0.18318218009E+02  0.51100000000E-03 0. -1.
        -11    1    4    4    0    0  0.51922731618E+00  0.92436991234E+00  0.28892399115E+01  0.30776231524E+01  0.51100000000E-03 0.  1.
        -12    1    4    4    0    0  0.61627811616E+01 -0.13710241650E+02  0.19658013869E+02  0.24746476659E+02  0.00000000000E+00 0.  1.
</event>
<event>
 8    1  0.3946711E-009  0.9118800E+02  0.7816164E-02  0.1184000E+00
        -11   -1    0    0    0    0  0.00000000000E+00  0.00000000000E+00  0.45593999997E+02  0.45594000000E+02  0.51100000000E-03 0. -1.
         11   -1    0    0    0    0 -0.00000000000E+00 -0.00000000000E+00 -0.45593999997E+02  0.45594000000E+02  0.51100000000E-03 0.  1.
         23    2    1    2    0    0  0.00000000000E+00 -0.24980018054E-15  0.00000000000E+00  0.91188000000E+02  0.91188000000E+02 0.  0.
    9900012    2    3    3    0    0 -0.26303481889E+01 -0.17151809166E+00 -0.44968492080E+02  0.46142318409E+02  0.10000005908E+02 0.  0.
         12    1    3    3    0    0  0.26303481889E+01  0.17151809166E+00  0.44968492080E+02  0.45045681591E+02  0.00000000000E+00 0. -1.
         11    1    4    4    0    0 -0.16886364125E+01  0.33370241594E+01 -0.84567261873E+01  0.92468070836E+01  0.51100000000E-03 0. -1.
        -11    1    4    4    0    0 -0.15781782751E+01 -0.31913434921E+01 -0.35381309314E+02  0.35559982691E+02  0.51100000000E-03 0.  1.
        -12    1    4    4    0    0  0.63646649866E+00 -0.31719875896E+00 -0.11304565787E+01  0.13355286343E+01  0.00000000000E+00 0.  1.
</event>
<event>
 8    1  0.2962813E-009  0.9118800E+02  0.7816164E-02  0.1184000E+00
        -11   -1    0    0    0    0  0.00000000000E+00  0.00000000000E+00  0.45593999997E+02  0.45594000000E+02  0.51100000000E-03 0. -1.
         11   -1    0    0    0    0 -0.00000000000E+00 -0.00000000000E+00 -0.45593999997E+02  0.45594000000E+02  0.51100000000E-03 0.  1.
         23    2    1    2    0    0  0.00000000000E+00  0.00000000000E+00  0.00000000000E+00  0.91188000000E+02  0.91188000000E+02 0.  0.
    9900012    2    3    3    0    0 -0.29379472561E+02 -0.29217590191E+02 -0.17671804351E+02  0.46142315927E+02  0.99999832754E+01 0.  0.
         12    1    3    3    0    0  0.29379472561E+02  0.29217590191E+02  0.17671804351E+02  0.45045684073E+02  0.00000000000E+00 0. -1.
         11    1    4    4    0    0 -0.35378301549E+01 -0.15212306394E+01 -0.65419676064E+00  0.39061948909E+01  0.51100000000E-03 0. -1.
        -11    1    4    4    0    0 -0.62828008499E+01 -0.10653956796E+02 -0.81853399652E+01  0.14831728575E+02  0.51100000000E-03 0.  1.
        -12    1    4    4    0    0 -0.19558841556E+02 -0.17042402756E+02 -0.88322676256E+01  0.27404392461E+02  0.00000000000E+00 0.  1.
</event>
<event>
 8    1  0.2962813E-009  0.9118800E+02  0.7816164E-02  0.1184000E+00
        -11   -1    0    0    0    0  0.00000000000E+00  0.00000000000E+00  0.45593999997E+02  0.45594000000E+02  0.51100000000E-03 0. -1.
         11   -1    0    0    0    0 -0.00000000000E+00 -0.00000000000E+00 -0.45593999997E+02  0.45594000000E+02  0.51100000000E-03 0.  1.
         23    2    1    2    0    0  0.35527136788E-14  0.00000000000E+00  0.00000000000E+00  0.91188000000E+02  0.91188000000E+02 0.  0.
    9900012    2    3    3    0    0  0.28508827621E+02 -0.67357393874E+01  0.34219735530E+02  0.46142314999E+02  0.99999748159E+01 0.  0.
        -12    1    3    3    0    0 -0.28508827621E+02  0.67357393874E+01 -0.34219735530E+02  0.45045685001E+02  0.00000000000E+00 0.  1.
         11    1    4    4    0    0  0.11082145502E+02 -0.16524324207E+01  0.14981915724E+02  0.18708347892E+02  0.51100000000E-03 0. -1.
        -11    1    4    4    0    0  0.22361159741E+01  0.17223056208E+00  0.66488437068E+01  0.70169082162E+01  0.51100000000E-03 0.  1.
        -12    1    4    4    0    0  0.15190566145E+02 -0.52555375288E+01  0.12588976099E+02  0.20417058891E+02  0.00000000000E+00 0.  1.
</event>
<event>
 8    1  0.2962813E-009  0.9118800E+02  0.7816164E-02  0.1184000E+00
        -11   -1    0    0    0    0  0.00000000000E+00  0.00000000000E+00  0.45593999997E+02  0.45594000000E+02  0.51100000000E-03 0. -1.
         11   -1    0    0    0    0 -0.00000000000E+00 -0.00000000000E+00 -0.45593999997E+02  0.45594000000E+02  0.51100000000E-03 0.  1.
         23    2    1    2    0    0 -0.17763568394E-14  0.71054273576E-14  0.17763568394E-14  0.91188000000E+02  0.91188000000E+02 0.  0.
    9900012    2    3    3    0    0  0.13349264813E+02 -0.41822883931E+02 -0.10087474729E+02  0.46142316102E+02  0.99999848748E+01 0.  0.
         12    1    3    3    0    0 -0.13349264813E+02  0.41822883931E+02  0.10087474729E+02  0.45045683898E+02  0.00000000000E+00 0. -1.
         11    1    4    4    0    0  0.48380251046E+01 -0.13264188846E+02 -0.10978719926E+01  0.14161585922E+02  0.51100000000E-03 0. -1.
        -11    1    4    4    0    0  0.74886417847E+01 -0.12328899841E+02 -0.39598397587E+01  0.14958671674E+02  0.51100000000E-03 0.  1.
         12    1    4    4    0    0  0.10225979239E+01 -0.16229795244E+02 -0.50297629775E+01  0.17022058506E+02  0.00000000000E+00 0. -1.
</event>
<event>
 8    1  0.2962813E-009  0.9118800E+02  0.7816164E-02  0.1184000E+00
        -11   -1    0    0    0    0  0.00000000000E+00  0.00000000000E+00  0.45593999997E+02  0.45594000000E+02  0.51100000000E-03 0. -1.
         11   -1    0    0    0    0 -0.00000000000E+00 -0.00000000000E+00 -0.45593999997E+02  0.45594000000E+02  0.51100000000E-03 0.  1.
         23    2    1    2    0    0  0.00000000000E+00 -0.44408920985E-15  0.00000000000E+00  0.91188000000E+02  0.91188000000E+02 0.  0.
    9900012    2    3    3    0    0 -0.17879085125E+02 -0.17333389393E+01  0.41309168753E+02  0.46142316834E+02  0.99999915493E+01 0.  0.
        -12    1    3    3    0    0  0.17879085125E+02  0.17333389393E+01 -0.41309168753E+02  0.45045683166E+02  0.00000000000E+00 0.  1.
         11    1    4    4    0    0 -0.16570264851E+02 -0.29565136680E+01  0.29368973461E+02  0.33850424704E+02  0.51100000000E-03 0. -1.
        -11    1    4    4    0    0 -0.81988370040E-01  0.86881188021E+00  0.94794705324E+01  0.95195545070E+01  0.51100000000E-03 0.  1.
         12    1    4    4    0    0 -0.12268319041E+01  0.35436284851E+00  0.24607247603E+01  0.27723376228E+01  0.00000000000E+00 0. -1.
</event>
<event>
 8    1  0.2962813E-009  0.9118800E+02  0.7816164E-02  0.1184000E+00
        -11   -1    0    0    0    0  0.00000000000E+00  0.00000000000E+00  0.45593999997E+02  0.45594000000E+02  0.51100000000E-03 0. -1.
         11   -1    0    0    0    0 -0.00000000000E+00 -0.00000000000E+00 -0.45593999997E+02  0.45594000000E+02  0.51100000000E-03 0.  1.
         23    2    1    2    0    0  0.00000000000E+00  0.00000000000E+00  0.00000000000E+00  0.91188000000E+02  0.91188000000E+02 0.  0.
    9900012    2    3    3    0    0 -0.10743508012E+02 -0.20022230531E+02 -0.38894739973E+02  0.46142317883E+02  0.10000001107E+02 0.  0.
         12    1    3    3    0    0  0.10743508012E+02  0.20022230531E+02  0.38894739973E+02  0.45045682117E+02  0.00000000000E+00 0. -1.
         11    1    4    4    0    0  0.91139827121E+00 -0.62133659361E+01 -0.81238651707E+01  0.10268093720E+02  0.51100000000E-03 0. -1.
        -11    1    4    4    0    0 -0.34038385792E+01 -0.17769868469E+01 -0.69742084066E+01  0.79613681291E+01  0.51100000000E-03 0.  1.
         12    1    4    4    0    0 -0.82510677040E+01 -0.12031877748E+02 -0.23796666396E+02  0.27912856034E+02  0.00000000000E+00 0. -1.
</event>
<event>
 8    1  0.2962813E-009  0.9118800E+02  0.7816164E-02  0.1184000E+00
        -11   -1    0    0    0    0  0.00000000000E+00  0.00000000000E+00  0.45593999997E+02  0.45594000000E+02  0.51100000000E-03 0. -1.
         11   -1    0    0    0    0 -0.00000000000E+00 -0.00000000000E+00 -0.45593999997E+02  0.45594000000E+02  0.51100000000E-03 0.  1.
         23    2    1    2    0    0  0.17763568394E-14  0.00000000000E+00  0.35527136788E-14  0.91188000000E+02  0.91188000000E+02 0.  0.
    9900012    2    3    3    0    0  0.13831463515E+02  0.32553688079E+02  0.27893753547E+02  0.46142317882E+02  0.10000001107E+02 0.  0.
        -12    1    3    3    0    0 -0.13831463515E+02 -0.32553688079E+02 -0.27893753547E+02  0.45045682118E+02  0.00000000000E+00 0.  1.
         11    1    4    4    0    0  0.38404715763E+01  0.16389951895E+01  0.24461523448E+01  0.48393376318E+01  0.51100000000E-03 0. -1.
        -11    1    4    4    0    0  0.43497019043E+01  0.15960278330E+02  0.13368503640E+02  0.21268927590E+02  0.51100000000E-03 0.  1.
         12    1    4    4    0    0  0.56412900346E+01  0.14954414560E+02  0.12079097562E+02  0.20034052660E+02  0.00000000000E+00 0. -1.
</event>
<event>
 8    1  0.2962813E-009  0.9118800E+02  0.7816164E-02  0.1184000E+00
        -11   -1    0    0    0    0  0.00000000000E+00  0.00000000000E+00  0.45593999997E+02  0.45594000000E+02  0.51100000000E-03 0. -1.
         11   -1    0    0    0    0 -0.00000000000E+00 -0.00000000000E+00 -0.45593999997E+02  0.45594000000E+02  0.51100000000E-03 0.  1.
         23    2    1    2    0    0 -0.71054273576E-14 -0.35527136788E-14  0.71054273576E-14  0.91188000000E+02  0.91188000000E+02 0.  0.
    9900012    2    3    3    0    0 -0.19874357521E+02 -0.19715626053E+02  0.35290471988E+02  0.46142318624E+02  0.10000007866E+02 0.  0.
        -12    1    3    3    0    0  0.19874357521E+02  0.19715626053E+02 -0.35290471988E+02  0.45045681376E+02  0.00000000000E+00 0.  1.
         11    1    4    4    0    0 -0.71672487329E+01 -0.66324364626E+01  0.11423815229E+02  0.15028713268E+02  0.51100000000E-03 0. -1.
        -11    1    4    4    0    0 -0.11143039728E+02 -0.12409396284E+02  0.16166922359E+02  0.23227781412E+02  0.51100000000E-03 0.  1.
        -12    1    4    4    0    0 -0.15640690601E+01 -0.67379330594E+00  0.76997344001E+01  0.78858239440E+01  0.00000000000E+00 0.  1.
</event>
<event>
 8    1  0.2962813E-009  0.9118800E+02  0.7816164E-02  0.1184000E+00
        -11   -1    0    0    0    0  0.00000000000E+00  0.00000000000E+00  0.45593999997E+02  0.45594000000E+02  0.51100000000E-03 0. -1.
         11   -1    0    0    0    0 -0.00000000000E+00 -0.00000000000E+00 -0.45593999997E+02  0.45594000000E+02  0.51100000000E-03 0.  1.
         23    2    1    2    0    0  0.35527136788E-14  0.00000000000E+00  0.00000000000E+00  0.91188000000E+02  0.91188000000E+02 0.  0.
    9900012    2    3    3    0    0 -0.20817534273E+02 -0.48899288743E+01 -0.39646348046E+02  0.46142311516E+02  0.99999430538E+01 0.  0.
         12    1    3    3    0    0  0.20817534273E+02  0.48899288743E+01  0.39646348046E+02  0.45045688484E+02  0.00000000000E+00 0. -1.
         11    1    4    4    0    0 -0.10289758925E+02 -0.34930746243E+01 -0.29220021535E+02  0.31175156260E+02  0.51100000000E-03 0. -1.
        -11    1    4    4    0    0 -0.88764424790E+01 -0.74460087721E+00 -0.80922779187E+01  0.12034559557E+02  0.51100000000E-03 0.  1.
        -12    1    4    4    0    0 -0.16513328685E+01 -0.65225337285E+00 -0.23340485923E+01  0.29325956994E+01  0.00000000000E+00 0.  1.
</event>
<event>
 8    1  0.2962813E-009  0.9118800E+02  0.7816164E-02  0.1184000E+00
        -11   -1    0    0    0    0  0.00000000000E+00  0.00000000000E+00  0.45593999997E+02  0.45594000000E+02  0.51100000000E-03 0.  1.
         11   -1    0    0    0    0 -0.00000000000E+00 -0.00000000000E+00 -0.45593999997E+02  0.45594000000E+02  0.51100000000E-03 0. -1.
         23    2    1    2    0    0  0.00000000000E+00  0.00000000000E+00  0.00000000000E+00  0.91188000000E+02  0.91188000000E+02 0.  0.
    9900012    2    3    3    0    0  0.46110990275E+01 -0.40702709228E+02  0.18738747110E+02  0.46142318565E+02  0.10000007327E+02 0.  0.
        -12    1    3    3    0    0 -0.46110990275E+01  0.40702709228E+02 -0.18738747110E+02  0.45045681435E+02  0.00000000000E+00 0.  1.
         11    1    4    4    0    0  0.26429978250E+01 -0.71087662664E+01  0.79708304660E+00  0.76259646588E+01  0.51100000000E-03 0. -1.
        -11    1    4    4    0    0 -0.80778369584E+00 -0.18253501004E+01  0.21400371953E+01  0.29264615061E+01  0.51100000000E-03 0.  1.
         12    1    4    4    0    0  0.27758848983E+01 -0.31768592861E+02  0.15801626869E+02  0.35589892400E+02  0.00000000000E+00 0. -1.
</event>
<event>
 8    1  0.2962813E-009  0.9118800E+02  0.7816164E-02  0.1184000E+00
        -11   -1    0    0    0    0  0.00000000000E+00  0.00000000000E+00  0.45593999997E+02  0.45594000000E+02  0.51100000000E-03 0. -1.
         11   -1    0    0    0    0 -0.00000000000E+00 -0.00000000000E+00 -0.45593999997E+02  0.45594000000E+02  0.51100000000E-03 0.  1.
         23    2    1    2    0    0  0.71054273576E-14 -0.44408920985E-15  0.00000000000E+00  0.91188000000E+02  0.91188000000E+02 0.  0.
    9900012    2    3    3    0    0 -0.37905288878E+02  0.37711054107E+01  0.24043322577E+02  0.46142317394E+02  0.99999966512E+01 0.  0.
        -12    1    3    3    0    0  0.37905288878E+02 -0.37711054107E+01 -0.24043322577E+02  0.45045682606E+02  0.00000000000E+00 0.  1.
         11    1    4    4    0    0 -0.13627768983E+02 -0.67190785478E+00  0.10670692007E+02  0.17321409174E+02  0.51100000000E-03 0. -1.
        -11    1    4    4    0    0 -0.18591320919E+02  0.60032420430E+01  0.91796079891E+01  0.21585674223E+02  0.51100000000E-03 0.  1.
        -12    1    4    4    0    0 -0.56861989757E+01 -0.15602287775E+01  0.41930225807E+01  0.72352339970E+01  0.00000000000E+00 0.  1.
</event>
<event>
 8    1  0.2962813E-009  0.9118800E+02  0.7816164E-02  0.1184000E+00
        -11   -1    0    0    0    0  0.00000000000E+00  0.00000000000E+00  0.45593999997E+02  0.45594000000E+02  0.51100000000E-03 0. -1.
         11   -1    0    0    0    0 -0.00000000000E+00 -0.00000000000E+00 -0.45593999997E+02  0.45594000000E+02  0.51100000000E-03 0.  1.
         23    2    1    2    0    0  0.00000000000E+00 -0.35527136788E-14 -0.71054273576E-14  0.91188000000E+02  0.91188000000E+02 0.  0.
    9900012    2    3    3    0    0  0.23546453211E+01 -0.17099585488E+02 -0.41607365917E+02  0.46142322327E+02  0.10000041637E+02 0.  0.
         12    1    3    3    0    0 -0.23546453211E+01  0.17099585488E+02  0.41607365917E+02  0.45045677673E+02  0.00000000000E+00 0. -1.
         11    1    4    4    0    0 -0.28921462798E+01 -0.46022339336E+01 -0.64765601123E+01  0.84552290586E+01  0.51100000000E-03 0. -1.
        -11    1    4    4    0    0  0.35205327124E+01 -0.98825123962E+01 -0.27868650846E+02  0.29777842469E+02  0.51100000000E-03 0.  1.
         12    1    4    4    0    0  0.17262588885E+01 -0.26148391581E+01 -0.72621549587E+01  0.79092508000E+01  0.00000000000E+00 0. -1.
</event>
<event>
 8    1  0.2962813E-009  0.9118800E+02  0.7816164E-02  0.1184000E+00
        -11   -1    0    0    0    0  0.00000000000E+00  0.00000000000E+00  0.45593999997E+02  0.45594000000E+02  0.51100000000E-03 0. -1.
         11   -1    0    0    0    0 -0.00000000000E+00 -0.00000000000E+00 -0.45593999997E+02  0.45594000000E+02  0.51100000000E-03 0.  1.
         23    2    1    2    0    0  0.35527136788E-14 -0.17763568394E-14 -0.71054273576E-14  0.91188000000E+02  0.91188000000E+02 0.  0.
    9900012    2    3    3    0    0 -0.23125709802E+02  0.14054307365E+02  0.36010991141E+02  0.46142317718E+02  0.99999996024E+01 0.  0.
        -12    1    3    3    0    0  0.23125709802E+02 -0.14054307365E+02 -0.36010991141E+02  0.45045682282E+02  0.00000000000E+00 0.  1.
         11    1    4    4    0    0 -0.17314541732E+02  0.10977716344E+02  0.30121231066E+02  0.36436138279E+02  0.51100000000E-03 0. -1.
        -11    1    4    4    0    0 -0.63006735670E+01  0.32273979262E+01  0.49573123418E+01  0.86423104948E+01  0.51100000000E-03 0.  1.
        -12    1    4    4    0    0  0.48950549694E+00 -0.15080690526E+00  0.93244773310E+00  0.10638689436E+01  0.00000000000E+00 0.  1.
</event>
<event>
 8    1  0.3131808E-009  0.9118800E+02  0.7816164E-02  0.1184000E+00
        -11   -1    0    0    0    0  0.00000000000E+00  0.00000000000E+00  0.45593999997E+02  0.45594000000E+02  0.51100000000E-03 0. -1.
         11   -1    0    0    0    0 -0.00000000000E+00 -0.00000000000E+00 -0.45593999997E+02  0.45594000000E+02  0.51100000000E-03 0.  1.
         23    2    1    2    0    0  0.00000000000E+00  0.35527136788E-14  0.00000000000E+00  0.91188000000E+02  0.91188000000E+02 0.  0.
    9900012    2    3    3    0    0  0.80721664818E+01 -0.31854049321E+02 -0.30810276890E+02  0.46142317723E+02  0.99999996491E+01 0.  0.
         12    1    3    3    0    0 -0.80721664818E+01  0.31854049321E+02  0.30810276890E+02  0.45045682277E+02  0.00000000000E+00 0. -1.
         11    1    4    4    0    0 -0.83033917317E+00 -0.27518681417E+01 -0.15904915362E+01  0.32851034991E+01  0.51100000000E-03 0. -1.
        -11    1    4    4    0    0  0.70481969903E+01 -0.28491552129E+02 -0.27941176924E+02  0.40523511591E+02  0.51100000000E-03 0.  1.
        -12    1    4    4    0    0  0.18543086647E+01 -0.61062905002E+00 -0.12786084291E+01  0.23337026322E+01  0.00000000000E+00 0.  1.
</event>
<event>
 8    1  0.2962813E-009  0.9118800E+02  0.7816164E-02  0.1184000E+00
        -11   -1    0    0    0    0  0.00000000000E+00  0.00000000000E+00  0.45593999997E+02  0.45594000000E+02  0.51100000000E-03 0. -1.
         11   -1    0    0    0    0 -0.00000000000E+00 -0.00000000000E+00 -0.45593999997E+02  0.45594000000E+02  0.51100000000E-03 0.  1.
         23    2    1    2    0    0  0.00000000000E+00  0.00000000000E+00  0.00000000000E+00  0.91188000000E+02  0.91188000000E+02 0.  0.
    9900012    2    3    3    0    0  0.68522644595E+01 -0.40379638346E+02  0.18752175324E+02  0.46142325396E+02  0.10000069619E+02 0.  0.
        -12    1    3    3    0    0 -0.68522644595E+01  0.40379638346E+02 -0.18752175324E+02  0.45045674604E+02  0.00000000000E+00 0.  1.
         11    1    4    4    0    0  0.28124118427E+01 -0.10414383966E+02  0.74559999155E+01  0.13113389675E+02  0.51100000000E-03 0. -1.
        -11    1    4    4    0    0 -0.13599222527E+01 -0.13564603165E+02  0.65339466918E+01  0.15117549643E+02  0.51100000000E-03 0.  1.
        -12    1    4    4    0    0  0.53997748695E+01 -0.16400651214E+02  0.47622287172E+01  0.17911386078E+02  0.00000000000E+00 0.  1.
</event>
<event>
 8    1  0.2962813E-009  0.9118800E+02  0.7816164E-02  0.1184000E+00
        -11   -1    0    0    0    0  0.00000000000E+00  0.00000000000E+00  0.45593999997E+02  0.45594000000E+02  0.51100000000E-03 0. -1.
         11   -1    0    0    0    0 -0.00000000000E+00 -0.00000000000E+00 -0.45593999997E+02  0.45594000000E+02  0.51100000000E-03 0.  1.
         23    2    1    2    0    0  0.00000000000E+00 -0.88817841970E-15  0.00000000000E+00  0.91188000000E+02  0.91188000000E+02 0.  0.
    9900012    2    3    3    0    0 -0.20142910009E+02  0.76020053591E+01 -0.39567486360E+02  0.46142320008E+02  0.10000020491E+02 0.  0.
         12    1    3    3    0    0  0.20142910009E+02 -0.76020053591E+01  0.39567486360E+02  0.45045679992E+02  0.00000000000E+00 0. -1.
         11    1    4    4    0    0 -0.21206810299E+01  0.82585709868E-01 -0.40652620240E+01  0.45858983869E+01  0.51100000000E-03 0. -1.
        -11    1    4    4    0    0 -0.20980896191E-01 -0.95115004666E+00 -0.11245173932E+00  0.95800431318E+00  0.51100000000E-03 0.  1.
        -12    1    4    4    0    0 -0.18001248082E+02  0.84705696959E+01 -0.35389772596E+02  0.40598417308E+02  0.00000000000E+00 0.  1.
</event>
<event>
 8    1  0.2962813E-009  0.9118800E+02  0.7816164E-02  0.1184000E+00
        -11   -1    0    0    0    0  0.00000000000E+00  0.00000000000E+00  0.45593999997E+02  0.45594000000E+02  0.51100000000E-03 0.  1.
         11   -1    0    0    0    0 -0.00000000000E+00 -0.00000000000E+00 -0.45593999997E+02  0.45594000000E+02  0.51100000000E-03 0. -1.
         23    2    1    2    0    0  0.00000000000E+00  0.00000000000E+00 -0.35527136788E-14  0.91188000000E+02  0.91188000000E+02 0.  0.
    9900012    2    3    3    0    0  0.23047336279E+02  0.22326862317E+02 -0.31614001367E+02  0.46142316823E+02  0.99999914419E+01 0.  0.
         12    1    3    3    0    0 -0.23047336279E+02 -0.22326862317E+02  0.31614001367E+02  0.45045683177E+02  0.00000000000E+00 0. -1.
         11    1    4    4    0    0  0.90857127332E+01  0.75902002719E+01 -0.15037110627E+02  0.19138338807E+02  0.51100000000E-03 0. -1.
        -11    1    4    4    0    0  0.12544643357E+02  0.10589498634E+02 -0.10411899250E+02  0.19439989828E+02  0.51100000000E-03 0.  1.
        -12    1    4    4    0    0  0.14169801885E+01  0.41471634114E+01 -0.61649914908E+01  0.75639881873E+01  0.00000000000E+00 0.  1.
</event>
<event>
 8    1  0.2962813E-009  0.9118800E+02  0.7816164E-02  0.1184000E+00
        -11   -1    0    0    0    0  0.00000000000E+00  0.00000000000E+00  0.45593999997E+02  0.45594000000E+02  0.51100000000E-03 0. -1.
         11   -1    0    0    0    0 -0.00000000000E+00 -0.00000000000E+00 -0.45593999997E+02  0.45594000000E+02  0.51100000000E-03 0.  1.
         23    2    1    2    0    0 -0.35527136788E-14  0.00000000000E+00  0.00000000000E+00  0.91188000000E+02  0.91188000000E+02 0.  0.
    9900012    2    3    3    0    0  0.17890919960E+02  0.35963322228E+02 -0.20387940985E+02  0.46142315409E+02  0.99999785489E+01 0.  0.
         12    1    3    3    0    0 -0.17890919960E+02 -0.35963322228E+02  0.20387940985E+02  0.45045684591E+02  0.00000000000E+00 0. -1.
         11    1    4    4    0    0  0.36120887594E+01  0.38085840946E+01  0.23734085165E+00  0.52544104286E+01  0.51100000000E-03 0. -1.
        -11    1    4    4    0    0  0.67715441951E+01  0.15569383240E+02 -0.11646505462E+02  0.20588846373E+02  0.51100000000E-03 0.  1.
        -12    1    4    4    0    0  0.75072870058E+01  0.16585354894E+02 -0.89787763745E+01  0.20299058607E+02  0.00000000000E+00 0.  1.
</event>
<event>
 8    1  0.2962813E-009  0.9118800E+02  0.7816164E-02  0.1184000E+00
        -11   -1    0    0    0    0  0.00000000000E+00  0.00000000000E+00  0.45593999997E+02  0.45594000000E+02  0.51100000000E-03 0. -1.
         11   -1    0    0    0    0 -0.00000000000E+00 -0.00000000000E+00 -0.45593999997E+02  0.45594000000E+02  0.51100000000E-03 0.  1.
         23    2    1    2    0    0  0.00000000000E+00  0.00000000000E+00  0.00000000000E+00  0.91188000000E+02  0.91188000000E+02 0.  0.
    9900012    2    3    3    0    0  0.61280535842E+01 -0.28236750848E+02 -0.34557870284E+02  0.46142317213E+02  0.99999950048E+01 0.  0.
         12    1    3    3    0    0 -0.61280535842E+01  0.28236750848E+02  0.34557870284E+02  0.45045682787E+02  0.00000000000E+00 0. -1.
         11    1    4    4    0    0  0.21746763905E+01 -0.21728817124E+01 -0.14515640346E+01  0.33996574456E+01  0.51100000000E-03 0. -1.
        -11    1    4    4    0    0 -0.34093827979E+00  0.41027604788E-01  0.25414910615E-01  0.34433755790E+00  0.51100000000E-03 0.  1.
        -12    1    4    4    0    0  0.42943154734E+01 -0.26104896740E+02 -0.33131721160E+02  0.42398322210E+02  0.00000000000E+00 0.  1.
</event>
<event>
 8    1  0.3307307E-009  0.9118800E+02  0.7816164E-02  0.1184000E+00
        -11   -1    0    0    0    0  0.00000000000E+00  0.00000000000E+00  0.45593999997E+02  0.45594000000E+02  0.51100000000E-03 0. -1.
         11   -1    0    0    0    0 -0.00000000000E+00 -0.00000000000E+00 -0.45593999997E+02  0.45594000000E+02  0.51100000000E-03 0.  1.
         23    2    1    2    0    0  0.22204460493E-15  0.00000000000E+00  0.00000000000E+00  0.91188000000E+02  0.91188000000E+02 0.  0.
    9900012    2    3    3    0    0 -0.12565039664E+01  0.44664180352E+01 -0.44806089389E+02  0.46142319423E+02  0.10000015157E+02 0.  0.
         12    1    3    3    0    0  0.12565039664E+01 -0.44664180352E+01  0.44806089389E+02  0.45045680577E+02  0.00000000000E+00 0. -1.
         11    1    4    4    0    0 -0.36682855372E+01 -0.12560547091E+01 -0.13067619382E+02  0.13630725175E+02  0.51100000000E-03 0.  1.
        -11    1    4    4    0    0  0.21269366723E+01  0.59915747743E+01 -0.31224844733E+02  0.31865557530E+02  0.51100000000E-03 0. -1.
        -12    1    4    4    0    0  0.28484489846E+00 -0.26910203003E+00 -0.51362527429E+00  0.64603671810E+00  0.00000000000E+00 0.  1.
</event>
<event>
 8    1  0.2962813E-009  0.9118800E+02  0.7816164E-02  0.1184000E+00
        -11   -1    0    0    0    0  0.00000000000E+00  0.00000000000E+00  0.45593999997E+02  0.45594000000E+02  0.51100000000E-03 0. -1.
         11   -1    0    0    0    0 -0.00000000000E+00 -0.00000000000E+00 -0.45593999997E+02  0.45594000000E+02  0.51100000000E-03 0.  1.
         23    2    1    2    0    0  0.44408920985E-15  0.00000000000E+00 -0.71054273576E-14  0.91188000000E+02  0.91188000000E+02 0.  0.
    9900012    2    3    3    0    0  0.19392710725E+01 -0.18195618484E+02 -0.41161537075E+02  0.46142318313E+02  0.10000005034E+02 0.  0.
         12    1    3    3    0    0 -0.19392710725E+01  0.18195618484E+02  0.41161537075E+02  0.45045681687E+02  0.00000000000E+00 0. -1.
         11    1    4    4    0    0 -0.35261546749E+01 -0.98042286840E+01 -0.22887029242E+02  0.25147023177E+02  0.51100000000E-03 0. -1.
        -11    1    4    4    0    0  0.53252153421E+01 -0.63371104775E+01 -0.14616312192E+02  0.16797424505E+02  0.51100000000E-03 0.  1.
        -12    1    4    4    0    0  0.14021040532E+00 -0.20542793223E+01 -0.36581956407E+01  0.41978706313E+01  0.00000000000E+00 0.  1.
</event>
<event>
 8    1  0.2962813E-009  0.9118800E+02  0.7816164E-02  0.1184000E+00
        -11   -1    0    0    0    0  0.00000000000E+00  0.00000000000E+00  0.45593999997E+02  0.45594000000E+02  0.51100000000E-03 0. -1.
         11   -1    0    0    0    0 -0.00000000000E+00 -0.00000000000E+00 -0.45593999997E+02  0.45594000000E+02  0.51100000000E-03 0.  1.
         23    2    1    2    0    0  0.00000000000E+00 -0.17763568394E-14  0.00000000000E+00  0.91188000000E+02  0.91188000000E+02 0.  0.
    9900012    2    3    3    0    0 -0.37925876126E+02 -0.15898780984E+02 -0.18383971636E+02  0.46142315081E+02  0.99999755594E+01 0.  0.
         12    1    3    3    0    0  0.37925876126E+02  0.15898780984E+02  0.18383971636E+02  0.45045684919E+02  0.00000000000E+00 0. -1.
         11    1    4    4    0    0 -0.11164930807E+02 -0.40719533622E+01 -0.12288948534E+01  0.11947663660E+02  0.51100000000E-03 0. -1.
        -11    1    4    4    0    0 -0.56598633797E+01 -0.36224794644E+01 -0.22403521677E+01  0.70834729507E+01  0.51100000000E-03 0.  1.
         12    1    4    4    0    0 -0.21101081940E+02 -0.82043481575E+01 -0.14914724615E+02  0.27111178470E+02  0.00000000000E+00 0. -1.
</event>
<event>
 8    1  0.2962813E-009  0.9118800E+02  0.7816164E-02  0.1184000E+00
        -11   -1    0    0    0    0  0.00000000000E+00  0.00000000000E+00  0.45593999997E+02  0.45594000000E+02  0.51100000000E-03 0. -1.
         11   -1    0    0    0    0 -0.00000000000E+00 -0.00000000000E+00 -0.45593999997E+02  0.45594000000E+02  0.51100000000E-03 0.  1.
         23    2    1    2    0    0  0.35527136788E-14  0.00000000000E+00  0.00000000000E+00  0.91188000000E+02  0.91188000000E+02 0.  0.
    9900012    2    3    3    0    0 -0.19544183590E+02  0.25339080158E+02 -0.31702823926E+02  0.46142321624E+02  0.10000035228E+02 0.  0.
         12    1    3    3    0    0  0.19544183590E+02 -0.25339080158E+02  0.31702823926E+02  0.45045678376E+02  0.00000000000E+00 0. -1.
         11    1    4    4    0    0 -0.64382497463E+01  0.13655970795E+02 -0.18948895159E+02  0.24228025635E+02  0.51100000000E-03 0. -1.
        -11    1    4    4    0    0 -0.22835586909E+01  0.67068114384E+00 -0.16498800878E+01  0.28959554652E+01  0.51100000000E-03 0.  1.
         12    1    4    4    0    0 -0.10822375153E+02  0.11012428219E+02 -0.11104048679E+02  0.19018340524E+02  0.00000000000E+00 0. -1.
</event>
<event>
 8    1  0.2962813E-009  0.9118800E+02  0.7816164E-02  0.1184000E+00
        -11   -1    0    0    0    0  0.00000000000E+00  0.00000000000E+00  0.45593999997E+02  0.45594000000E+02  0.51100000000E-03 0. -1.
         11   -1    0    0    0    0 -0.00000000000E+00 -0.00000000000E+00 -0.45593999997E+02  0.45594000000E+02  0.51100000000E-03 0.  1.
         23    2    1    2    0    0 -0.22204460493E-15  0.88817841970E-15  0.00000000000E+00  0.91188000000E+02  0.91188000000E+02 0.  0.
    9900012    2    3    3    0    0  0.19471161635E+01 -0.34315215307E+01  0.44872561703E+02  0.46142318795E+02  0.10000009430E+02 0.  0.
        -12    1    3    3    0    0 -0.19471161635E+01  0.34315215307E+01 -0.44872561703E+02  0.45045681205E+02  0.00000000000E+00 0.  1.
         11    1    4    4    0    0 -0.79055231961E-01 -0.44924013427E+01  0.16796260649E+02  0.17386842485E+02  0.51100000000E-03 0.  1.
        -11    1    4    4    0    0 -0.31961037542E+00 -0.11277301187E+01  0.20427331601E+02  0.20460933571E+02  0.51100000000E-03 0. -1.
         12    1    4    4    0    0  0.23457817709E+01  0.21886099307E+01  0.76489694536E+01  0.82945427389E+01  0.00000000000E+00 0. -1.
</event>
<event>
 8    1  0.2962813E-009  0.9118800E+02  0.7816164E-02  0.1184000E+00
        -11   -1    0    0    0    0  0.00000000000E+00  0.00000000000E+00  0.45593999997E+02  0.45594000000E+02  0.51100000000E-03 0. -1.
         11   -1    0    0    0    0 -0.00000000000E+00 -0.00000000000E+00 -0.45593999997E+02  0.45594000000E+02  0.51100000000E-03 0.  1.
         23    2    1    2    0    0  0.00000000000E+00 -0.44408920985E-15  0.00000000000E+00  0.91188000000E+02  0.91188000000E+02 0.  0.
    9900012    2    3    3    0    0 -0.18423380964E+02 -0.26592911824E+01 -0.41019770562E+02  0.46142307946E+02  0.99999104934E+01 0.  0.
         12    1    3    3    0    0  0.18423380964E+02  0.26592911824E+01  0.41019770562E+02  0.45045692054E+02  0.00000000000E+00 0. -1.
         11    1    4    4    0    0 -0.33139863273E+01 -0.32733220118E+01 -0.64797673831E+01  0.79802586406E+01  0.51100000000E-03 0. -1.
        -11    1    4    4    0    0 -0.79922863382E+01 -0.26107358686E+01 -0.18419127716E+02  0.20247391159E+02  0.51100000000E-03 0.  1.
        -12    1    4    4    0    0 -0.71171082983E+01  0.32247666980E+01 -0.16120875463E+02  0.17914658146E+02  0.00000000000E+00 0.  1.
</event>
<event>
 8    1  0.2962813E-009  0.9118800E+02  0.7816164E-02  0.1184000E+00
        -11   -1    0    0    0    0  0.00000000000E+00  0.00000000000E+00  0.45593999997E+02  0.45594000000E+02  0.51100000000E-03 0. -1.
         11   -1    0    0    0    0 -0.00000000000E+00 -0.00000000000E+00 -0.45593999997E+02  0.45594000000E+02  0.51100000000E-03 0.  1.
         23    2    1    2    0    0  0.00000000000E+00  0.00000000000E+00  0.00000000000E+00  0.91188000000E+02  0.91188000000E+02 0.  0.
    9900012    2    3    3    0    0  0.96977187782E+01 -0.65819586252E+01  0.43494200796E+02  0.46142318390E+02  0.10000005733E+02 0.  0.
        -12    1    3    3    0    0 -0.96977187782E+01  0.65819586252E+01 -0.43494200796E+02  0.45045681610E+02  0.00000000000E+00 0.  1.
         11    1    4    4    0    0  0.57590213448E+01 -0.13790542181E+01  0.13959208499E+02  0.15163364388E+02  0.51100000000E-03 0. -1.
        -11    1    4    4    0    0  0.22934198991E+01  0.63583219200E-01  0.25270421437E+01  0.34131744632E+01  0.51100000000E-03 0.  1.
         12    1    4    4    0    0  0.16452775343E+01 -0.52664876262E+01  0.27007950153E+02  0.27565779538E+02  0.00000000000E+00 0. -1.
</event>
<event>
 8    1  0.2962813E-009  0.9118800E+02  0.7816164E-02  0.1184000E+00
        -11   -1    0    0    0    0  0.00000000000E+00  0.00000000000E+00  0.45593999997E+02  0.45594000000E+02  0.51100000000E-03 0. -1.
         11   -1    0    0    0    0 -0.00000000000E+00 -0.00000000000E+00 -0.45593999997E+02  0.45594000000E+02  0.51100000000E-03 0.  1.
         23    2    1    2    0    0  0.71054273576E-14  0.00000000000E+00  0.35527136788E-14  0.91188000000E+02  0.91188000000E+02 0.  0.
    9900012    2    3    3    0    0  0.21683515026E+02 -0.23430533366E+02 -0.31779692147E+02  0.46142317070E+02  0.99999936953E+01 0.  0.
         12    1    3    3    0    0 -0.21683515026E+02  0.23430533366E+02  0.31779692147E+02  0.45045682930E+02  0.00000000000E+00 0. -1.
         11    1    4    4    0    0  0.51922385340E+01 -0.99483206580E+00 -0.35086428394E+01  0.63450458366E+01  0.51100000000E-03 0. -1.
        -11    1    4    4    0    0  0.10852319274E+02 -0.14016397114E+02 -0.15965119211E+02  0.23856178515E+02  0.51100000000E-03 0.  1.
        -12    1    4    4    0    0  0.56389572181E+01 -0.84193041865E+01 -0.12305930097E+02  0.15941092718E+02  0.00000000000E+00 0.  1.
</event>
<event>
 8    1  0.2962813E-009  0.9118800E+02  0.7816164E-02  0.1184000E+00
        -11   -1    0    0    0    0  0.00000000000E+00  0.00000000000E+00  0.45593999997E+02  0.45594000000E+02  0.51100000000E-03 0. -1.
         11   -1    0    0    0    0 -0.00000000000E+00 -0.00000000000E+00 -0.45593999997E+02  0.45594000000E+02  0.51100000000E-03 0.  1.
         23    2    1    2    0    0 -0.17763568394E-14  0.35527136788E-14 -0.71054273576E-14  0.91188000000E+02  0.91188000000E+02 0.  0.
    9900012    2    3    3    0    0  0.13921713405E+02 -0.19031869766E+02  0.38380821628E+02  0.46142316081E+02  0.99999846781E+01 0.  0.
        -12    1    3    3    0    0 -0.13921713405E+02  0.19031869766E+02 -0.38380821628E+02  0.45045683919E+02  0.00000000000E+00 0.  1.
         11    1    4    4    0    0  0.62790992470E+01 -0.57043043643E+01  0.92333115714E+01  0.12538748680E+02  0.51100000000E-03 0. -1.
        -11    1    4    4    0    0  0.69007873737E+01 -0.10448347028E+02  0.27471203843E+02  0.30190327306E+02  0.51100000000E-03 0.  1.
        -12    1    4    4    0    0  0.74182678383E+00 -0.28792183741E+01  0.16763062138E+01  0.34132400949E+01  0.00000000000E+00 0.  1.
</event>
<event>
 8    1  0.2962813E-009  0.9118800E+02  0.7816164E-02  0.1184000E+00
        -11   -1    0    0    0    0  0.00000000000E+00  0.00000000000E+00  0.45593999997E+02  0.45594000000E+02  0.51100000000E-03 0. -1.
         11   -1    0    0    0    0 -0.00000000000E+00 -0.00000000000E+00 -0.45593999997E+02  0.45594000000E+02  0.51100000000E-03 0.  1.
         23    2    1    2    0    0  0.00000000000E+00  0.00000000000E+00  0.00000000000E+00  0.91188000000E+02  0.91188000000E+02 0.  0.
    9900012    2    3    3    0    0 -0.17212002260E+02 -0.89766398460E+00 -0.41617954424E+02  0.46142323705E+02  0.10000054201E+02 0.  0.
         12    1    3    3    0    0  0.17212002260E+02  0.89766398460E+00  0.41617954424E+02  0.45045676295E+02  0.00000000000E+00 0. -1.
         11    1    4    4    0    0  0.87616770180E+00 -0.62516588717E+00 -0.50766090813E+01  0.51894568361E+01  0.51100000000E-03 0. -1.
        -11    1    4    4    0    0 -0.88539684659E+01  0.35044567975E-01 -0.22113924852E+02  0.23820572166E+02  0.51100000000E-03 0.  1.
         12    1    4    4    0    0 -0.92342014957E+01 -0.30754266540E+00 -0.14427420491E+02  0.17132294703E+02  0.00000000000E+00 0. -1.
</event>
<event>
 8    1  0.2962813E-009  0.9118800E+02  0.7816164E-02  0.1184000E+00
        -11   -1    0    0    0    0  0.00000000000E+00  0.00000000000E+00  0.45593999997E+02  0.45594000000E+02  0.51100000000E-03 0. -1.
         11   -1    0    0    0    0 -0.00000000000E+00 -0.00000000000E+00 -0.45593999997E+02  0.45594000000E+02  0.51100000000E-03 0.  1.
         23    2    1    2    0    0  0.35527136788E-14  0.00000000000E+00  0.35527136788E-14  0.91188000000E+02  0.91188000000E+02 0.  0.
    9900012    2    3    3    0    0  0.27006638770E+02 -0.29128498662E+02  0.21243481834E+02  0.46142317716E+02  0.99999995881E+01 0.  0.
        -12    1    3    3    0    0 -0.27006638770E+02  0.29128498662E+02 -0.21243481834E+02  0.45045682284E+02  0.00000000000E+00 0.  1.
         11    1    4    4    0    0  0.17300255274E+02 -0.13635374680E+02  0.10603102602E+02  0.24446841519E+02  0.51100000000E-03 0. -1.
        -11    1    4    4    0    0  0.46477477499E+01 -0.35789016695E+01  0.23193911197E+01  0.63079054950E+01  0.51100000000E-03 0.  1.
         12    1    4    4    0    0  0.50586357466E+01 -0.11914222313E+02  0.83209881123E+01  0.15387570702E+02  0.00000000000E+00 0. -1.
</event>
<event>
 8    1  0.2962813E-009  0.9118800E+02  0.7816164E-02  0.1184000E+00
        -11   -1    0    0    0    0  0.00000000000E+00  0.00000000000E+00  0.45593999997E+02  0.45594000000E+02  0.51100000000E-03 0. -1.
         11   -1    0    0    0    0 -0.00000000000E+00 -0.00000000000E+00 -0.45593999997E+02  0.45594000000E+02  0.51100000000E-03 0.  1.
         23    2    1    2    0    0 -0.22204460493E-15  0.35527136788E-14  0.00000000000E+00  0.91188000000E+02  0.91188000000E+02 0.  0.
    9900012    2    3    3    0    0  0.15928581648E+01  0.29967856938E+02  0.33593202508E+02  0.46142324277E+02  0.10000059417E+02 0.  0.
        -12    1    3    3    0    0 -0.15928581648E+01 -0.29967856938E+02 -0.33593202508E+02  0.45045675723E+02  0.00000000000E+00 0.  1.
         11    1    4    4    0    0 -0.11767494724E+01  0.30196601195E-01  0.24483566449E+01  0.27166342554E+01  0.51100000000E-03 0.  1.
        -11    1    4    4    0    0  0.18216227981E+01  0.24380551479E+02  0.23363777343E+02  0.33817091715E+02  0.51100000000E-03 0. -1.
         12    1    4    4    0    0  0.94798483905E+00  0.55571088577E+01  0.77810685199E+01  0.96085983069E+01  0.00000000000E+00 0. -1.
</event>
<event>
 8    1  0.2962813E-009  0.9118800E+02  0.7816164E-02  0.1184000E+00
        -11   -1    0    0    0    0  0.00000000000E+00  0.00000000000E+00  0.45593999997E+02  0.45594000000E+02  0.51100000000E-03 0. -1.
         11   -1    0    0    0    0 -0.00000000000E+00 -0.00000000000E+00 -0.45593999997E+02  0.45594000000E+02  0.51100000000E-03 0.  1.
         23    2    1    2    0    0  0.00000000000E+00 -0.88817841970E-15 -0.71054273576E-14  0.91188000000E+02  0.91188000000E+02 0.  0.
    9900012    2    3    3    0    0  0.18572898465E+02  0.68649430598E+01  0.40460268493E+02  0.46142319551E+02  0.10000016324E+02 0.  0.
        -12    1    3    3    0    0 -0.18572898465E+02 -0.68649430598E+01 -0.40460268493E+02  0.45045680449E+02  0.00000000000E+00 0.  1.
         11    1    4    4    0    0  0.15494104696E+02  0.56388661308E+01  0.31998935843E+02  0.35997166374E+02  0.51100000000E-03 0. -1.
        -11    1    4    4    0    0 -0.20855275362E-01  0.19273985991E+00  0.61258693973E+01  0.61289362642E+01  0.51100000000E-03 0.  1.
        -12    1    4    4    0    0  0.30996490436E+01  0.10333370691E+01  0.23354632518E+01  0.40162169131E+01  0.00000000000E+00 0.  1.
</event>
<event>
 8    1  0.2962813E-009  0.9118800E+02  0.7816164E-02  0.1184000E+00
        -11   -1    0    0    0    0  0.00000000000E+00  0.00000000000E+00  0.45593999997E+02  0.45594000000E+02  0.51100000000E-03 0. -1.
         11   -1    0    0    0    0 -0.00000000000E+00 -0.00000000000E+00 -0.45593999997E+02  0.45594000000E+02  0.51100000000E-03 0.  1.
         23    2    1    2    0    0  0.00000000000E+00  0.00000000000E+00  0.00000000000E+00  0.91188000000E+02  0.91188000000E+02 0.  0.
    9900012    2    3    3    0    0 -0.26193426231E+02 -0.25887214360E+01 -0.36555661581E+02  0.46142318187E+02  0.10000003883E+02 0.  0.
         12    1    3    3    0    0  0.26193426231E+02  0.25887214360E+01  0.36555661581E+02  0.45045681813E+02  0.00000000000E+00 0. -1.
         11    1    4    4    0    0 -0.69248347681E+01 -0.11758391801E+01 -0.56745784599E+01  0.90297716086E+01  0.51100000000E-03 0. -1.
        -11    1    4    4    0    0 -0.12729543755E+02 -0.42907235453E+01 -0.20598359402E+02  0.24591543324E+02  0.51100000000E-03 0.  1.
        -12    1    4    4    0    0 -0.65390477077E+01  0.28778412895E+01 -0.10282723719E+02  0.12521003254E+02  0.00000000000E+00 0.  1.
</event>
<event>
 8    1  0.2962813E-009  0.9118800E+02  0.7816164E-02  0.1184000E+00
        -11   -1    0    0    0    0  0.00000000000E+00  0.00000000000E+00  0.45593999997E+02  0.45594000000E+02  0.51100000000E-03 0.  1.
         11   -1    0    0    0    0 -0.00000000000E+00 -0.00000000000E+00 -0.45593999997E+02  0.45594000000E+02  0.51100000000E-03 0. -1.
         23    2    1    2    0    0  0.00000000000E+00  0.00000000000E+00  0.00000000000E+00  0.91188000000E+02  0.91188000000E+02 0.  0.
    9900012    2    3    3    0    0 -0.26497481924E+02  0.23924985808E+02  0.27469837923E+02  0.46142317746E+02  0.99999998629E+01 0.  0.
        -12    1    3    3    0    0  0.26497481924E+02 -0.23924985808E+02 -0.27469837923E+02  0.45045682254E+02  0.00000000000E+00 0.  1.
         11    1    4    4    0    0 -0.12806254212E+02  0.94120710023E+01  0.90950402012E+01  0.18311389462E+02  0.51100000000E-03 0. -1.
        -11    1    4    4    0    0 -0.47821068163E+00 -0.41175894285E+00  0.17984106244E+01  0.19059149819E+01  0.51100000000E-03 0.  1.
        -12    1    4    4    0    0 -0.13213017031E+02  0.14924673748E+02  0.16576387097E+02  0.25925013302E+02  0.00000000000E+00 0.  1.
</event>
<event>
 8    1  0.2962813E-009  0.9118800E+02  0.7816164E-02  0.1184000E+00
        -11   -1    0    0    0    0  0.00000000000E+00  0.00000000000E+00  0.45593999997E+02  0.45594000000E+02  0.51100000000E-03 0. -1.
         11   -1    0    0    0    0 -0.00000000000E+00 -0.00000000000E+00 -0.45593999997E+02  0.45594000000E+02  0.51100000000E-03 0.  1.
         23    2    1    2    0    0 -0.17763568394E-14  0.00000000000E+00  0.00000000000E+00  0.91188000000E+02  0.91188000000E+02 0.  0.
    9900012    2    3    3    0    0 -0.15830039194E+02 -0.11567833327E+02  0.40555007064E+02  0.46142317557E+02  0.99999981397E+01 0.  0.
        -12    1    3    3    0    0  0.15830039194E+02  0.11567833327E+02 -0.40555007064E+02  0.45045682443E+02  0.00000000000E+00 0.  1.
         11    1    4    4    0    0 -0.56836201718E+01 -0.58355266107E+01  0.14753784582E+02  0.16853221319E+02  0.51100000000E-03 0. -1.
        -11    1    4    4    0    0 -0.19633955200E+01 -0.80825460429E+00  0.41169880225E+00  0.21627976416E+01  0.51100000000E-03 0.  1.
         12    1    4    4    0    0 -0.81830235020E+01 -0.49240521122E+01  0.25389523680E+02  0.27126298596E+02  0.00000000000E+00 0. -1.
</event>
<event>
 8    1  0.2962813E-009  0.9118800E+02  0.7816164E-02  0.1184000E+00
        -11   -1    0    0    0    0  0.00000000000E+00  0.00000000000E+00  0.45593999997E+02  0.45594000000E+02  0.51100000000E-03 0. -1.
         11   -1    0    0    0    0 -0.00000000000E+00 -0.00000000000E+00 -0.45593999997E+02  0.45594000000E+02  0.51100000000E-03 0.  1.
         23    2    1    2    0    0  0.00000000000E+00  0.35527136788E-14 -0.17763568394E-14  0.91188000000E+02  0.91188000000E+02 0.  0.
    9900012    2    3    3    0    0 -0.35038632057E+02  0.24618578946E+02 -0.13976170766E+02  0.46142317465E+02  0.99999973021E+01 0.  0.
         12    1    3    3    0    0  0.35038632057E+02 -0.24618578946E+02  0.13976170766E+02  0.45045682535E+02  0.00000000000E+00 0. -1.
         11    1    4    4    0    0  0.74998891132E-01 -0.34410876608E-01 -0.95065587872E-01  0.12588355420E+00  0.51100000000E-03 0. -1.
        -11    1    4    4    0    0 -0.10344726419E+02  0.11105020457E+02 -0.17106838058E+01  0.15272893746E+02  0.51100000000E-03 0.  1.
        -12    1    4    4    0    0 -0.24768904529E+02  0.13547969366E+02 -0.12170421372E+02  0.30743540165E+02  0.00000000000E+00 0.  1.
</event>
<event>
 8    1  0.2962813E-009  0.9118800E+02  0.7816164E-02  0.1184000E+00
        -11   -1    0    0    0    0  0.00000000000E+00  0.00000000000E+00  0.45593999997E+02  0.45594000000E+02  0.51100000000E-03 0. -1.
         11   -1    0    0    0    0 -0.00000000000E+00 -0.00000000000E+00 -0.45593999997E+02  0.45594000000E+02  0.51100000000E-03 0.  1.
         23    2    1    2    0    0  0.00000000000E+00 -0.35527136788E-14  0.35527136788E-14  0.91188000000E+02  0.91188000000E+02 0.  0.
    9900012    2    3    3    0    0 -0.22914910535E+02 -0.28435447957E+02  0.26371303837E+02  0.46142317727E+02  0.99999996881E+01 0.  0.
        -12    1    3    3    0    0  0.22914910535E+02  0.28435447957E+02 -0.26371303837E+02  0.45045682273E+02  0.00000000000E+00 0.  1.
         11    1    4    4    0    0 -0.28033049760E+01 -0.64010867824E+01  0.16343735173E+01  0.71766014129E+01  0.51100000000E-03 0. -1.
        -11    1    4    4    0    0 -0.11181552607E+02 -0.11334571869E+02  0.15668847995E+02  0.22338586256E+02  0.51100000000E-03 0.  1.
         12    1    4    4    0    0 -0.89300529520E+01 -0.10699789306E+02  0.90680823249E+01  0.16627130058E+02  0.00000000000E+00 0. -1.
</event>
<event>
 8    1  0.2962813E-009  0.9118800E+02  0.7816164E-02  0.1184000E+00
        -11   -1    0    0    0    0  0.00000000000E+00  0.00000000000E+00  0.45593999997E+02  0.45594000000E+02  0.51100000000E-03 0. -1.
         11   -1    0    0    0    0 -0.00000000000E+00 -0.00000000000E+00 -0.45593999997E+02  0.45594000000E+02  0.51100000000E-03 0.  1.
         23    2    1    2    0    0 -0.16653345369E-15  0.35527136788E-14  0.00000000000E+00  0.91188000000E+02  0.91188000000E+02 0.  0.
    9900012    2    3    3    0    0  0.17476306392E+00  0.27623009856E+02 -0.35581628511E+02  0.46142317597E+02  0.99999985046E+01 0.  0.
         12    1    3    3    0    0 -0.17476306392E+00 -0.27623009856E+02  0.35581628511E+02  0.45045682403E+02  0.00000000000E+00 0. -1.
         11    1    4    4    0    0 -0.25061042407E+00  0.76413483241E+01 -0.53363905708E+01  0.93236298930E+01  0.51100000000E-03 0.  1.
        -11    1    4    4    0    0  0.17168618929E+01  0.15952725340E+02 -0.19387103556E+02  0.25165389826E+02  0.51100000000E-03 0. -1.
         12    1    4    4    0    0 -0.12914884049E+01  0.40289361925E+01 -0.10858134384E+02  0.11653297878E+02  0.00000000000E+00 0. -1.
</event>
<event>
 8    1  0.2962813E-009  0.9118800E+02  0.7816164E-02  0.1184000E+00
        -11   -1    0    0    0    0  0.00000000000E+00  0.00000000000E+00  0.45593999997E+02  0.45594000000E+02  0.51100000000E-03 0. -1.
         11   -1    0    0    0    0 -0.00000000000E+00 -0.00000000000E+00 -0.45593999997E+02  0.45594000000E+02  0.51100000000E-03 0.  1.
         23    2    1    2    0    0  0.00000000000E+00  0.00000000000E+00  0.00000000000E+00  0.91188000000E+02  0.91188000000E+02 0.  0.
    9900012    2    3    3    0    0 -0.71906129848E+01 -0.41096693705E+02  0.16984416672E+02  0.46142316985E+02  0.99999929203E+01 0.  0.
        -12    1    3    3    0    0  0.71906129848E+01  0.41096693705E+02 -0.16984416672E+02  0.45045683015E+02  0.00000000000E+00 0.  1.
         11    1    4    4    0    0 -0.11859909798E+01 -0.18932073419E+01  0.32520357754E+01  0.39454461838E+01  0.51100000000E-03 0.  1.
        -11    1    4    4    0    0 -0.20251097141E+01 -0.23799240870E+02  0.67389279962E+01  0.24817697035E+02  0.51100000000E-03 0. -1.
         12    1    4    4    0    0 -0.39795122908E+01 -0.15404245494E+02  0.69934529008E+01  0.17379173766E+02  0.00000000000E+00 0. -1.
</event>
<event>
 8    1  0.2962813E-009  0.9118800E+02  0.7816164E-02  0.1184000E+00
        -11   -1    0    0    0    0  0.00000000000E+00  0.00000000000E+00  0.45593999997E+02  0.45594000000E+02  0.51100000000E-03 0. -1.
         11   -1    0    0    0    0 -0.00000000000E+00 -0.00000000000E+00 -0.45593999997E+02  0.45594000000E+02  0.51100000000E-03 0.  1.
         23    2    1    2    0    0  0.00000000000E+00  0.00000000000E+00  0.00000000000E+00  0.91188000000E+02  0.91188000000E+02 0.  0.
    9900012    2    3    3    0    0  0.28413939691E+02  0.28814973366E+02 -0.19785318874E+02  0.46142317612E+02  0.99999986385E+01 0.  0.
         12    1    3    3    0    0 -0.28413939691E+02 -0.28814973366E+02  0.19785318874E+02  0.45045682388E+02  0.00000000000E+00 0. -1.
         11    1    4    4    0    0  0.36673003453E+01  0.16838494259E+01 -0.45040518412E+01  0.60473898470E+01  0.51100000000E-03 0. -1.
        -11    1    4    4    0    0  0.88268271104E+01  0.69525356216E+01 -0.62142913538E+01  0.12840095237E+02  0.51100000000E-03 0.  1.
         12    1    4    4    0    0  0.15919812235E+02  0.20178588319E+02 -0.90669756793E+01  0.27254832528E+02  0.00000000000E+00 0. -1.
</event>
<event>
 8    1  0.2962813E-009  0.9118800E+02  0.7816164E-02  0.1184000E+00
        -11   -1    0    0    0    0  0.00000000000E+00  0.00000000000E+00  0.45593999997E+02  0.45594000000E+02  0.51100000000E-03 0. -1.
         11   -1    0    0    0    0 -0.00000000000E+00 -0.00000000000E+00 -0.45593999997E+02  0.45594000000E+02  0.51100000000E-03 0.  1.
         23    2    1    2    0    0  0.00000000000E+00 -0.17763568394E-14  0.71054273576E-14  0.91188000000E+02  0.91188000000E+02 0.  0.
    9900012    2    3    3    0    0 -0.83350940173E+01  0.10507957790E+02 -0.43002578060E+02  0.46142326634E+02  0.10000080913E+02 0.  0.
         12    1    3    3    0    0  0.83350940173E+01 -0.10507957790E+02  0.43002578060E+02  0.45045673366E+02  0.00000000000E+00 0. -1.
         11    1    4    4    0    0 -0.12166023368E+01  0.28930435895E+00 -0.98294093614E+01  0.99086379948E+01  0.51100000000E-03 0. -1.
        -11    1    4    4    0    0 -0.29703358976E+01  0.69184877718E+01 -0.27313196097E+02  0.28331943980E+02  0.51100000000E-03 0.  1.
        -12    1    4    4    0    0 -0.41481557829E+01  0.33001656591E+01 -0.58599726009E+01  0.79017446593E+01  0.00000000000E+00 0.  1.
</event>
<event>
 8    1  0.2962813E-009  0.9118800E+02  0.7816164E-02  0.1184000E+00
        -11   -1    0    0    0    0  0.00000000000E+00  0.00000000000E+00  0.45593999997E+02  0.45594000000E+02  0.51100000000E-03 0. -1.
         11   -1    0    0    0    0 -0.00000000000E+00 -0.00000000000E+00 -0.45593999997E+02  0.45594000000E+02  0.51100000000E-03 0.  1.
         23    2    1    2    0    0  0.00000000000E+00 -0.88817841970E-15  0.00000000000E+00  0.91188000000E+02  0.91188000000E+02 0.  0.
    9900012    2    3    3    0    0  0.31995039703E+02  0.56043146466E+01  0.31209340096E+02  0.46142314107E+02  0.99999666832E+01 0.  0.
        -12    1    3    3    0    0 -0.31995039703E+02 -0.56043146466E+01 -0.31209340096E+02  0.45045685893E+02  0.00000000000E+00 0.  1.
         11    1    4    4    0    0  0.10385856330E+02  0.55478505963E+01  0.76392909809E+01  0.14035790854E+02  0.51100000000E-03 0. -1.
        -11    1    4    4    0    0  0.13801764649E+02 -0.75211736982E+00  0.13314207382E+02  0.19191730157E+02  0.51100000000E-03 0.  1.
         12    1    4    4    0    0  0.78074187245E+01  0.80858142010E+00  0.10255841733E+02  0.12914793096E+02  0.00000000000E+00 0. -1.
</event>
<event>
 8    1  0.2962813E-009  0.9118800E+02  0.7816164E-02  0.1184000E+00
        -11   -1    0    0    0    0  0.00000000000E+00  0.00000000000E+00  0.45593999997E+02  0.45594000000E+02  0.51100000000E-03 0. -1.
         11   -1    0    0    0    0 -0.00000000000E+00 -0.00000000000E+00 -0.45593999997E+02  0.45594000000E+02  0.51100000000E-03 0.  1.
         23    2    1    2    0    0  0.35527136788E-14 -0.35527136788E-14  0.00000000000E+00  0.91188000000E+02  0.91188000000E+02 0.  0.
    9900012    2    3    3    0    0 -0.23691364536E+02  0.22940830246E+02  0.30684702697E+02  0.46142318459E+02  0.10000006360E+02 0.  0.
        -12    1    3    3    0    0  0.23691364536E+02 -0.22940830246E+02 -0.30684702697E+02  0.45045681541E+02  0.00000000000E+00 0.  1.
         11    1    4    4    0    0 -0.93346549769E+01  0.59445710807E+01  0.50477273457E+01  0.12163603927E+02  0.51100000000E-03 0. -1.
        -11    1    4    4    0    0 -0.11383072673E+02  0.14362768855E+02  0.20918962424E+02  0.27811265016E+02  0.51100000000E-03 0.  1.
         12    1    4    4    0    0 -0.29736368856E+01  0.26334903103E+01  0.47180129277E+01  0.61674495156E+01  0.00000000000E+00 0. -1.
</event>
<event>
 8    1  0.2962813E-009  0.9118800E+02  0.7816164E-02  0.1184000E+00
        -11   -1    0    0    0    0  0.00000000000E+00  0.00000000000E+00  0.45593999997E+02  0.45594000000E+02  0.51100000000E-03 0. -1.
         11   -1    0    0    0    0 -0.00000000000E+00 -0.00000000000E+00 -0.45593999997E+02  0.45594000000E+02  0.51100000000E-03 0.  1.
         23    2    1    2    0    0  0.00000000000E+00  0.00000000000E+00  0.00000000000E+00  0.91188000000E+02  0.91188000000E+02 0.  0.
    9900012    2    3    3    0    0 -0.35575883833E+02 -0.17916603797E+02  0.21034851750E+02  0.46142321070E+02  0.10000030174E+02 0.  0.
        -12    1    3    3    0    0  0.35575883833E+02  0.17916603797E+02 -0.21034851750E+02  0.45045678930E+02  0.00000000000E+00 0.  1.
         11    1    4    4    0    0 -0.30795624396E+01  0.10893877593E+01  0.13889273194E+01  0.35495900987E+01  0.51100000000E-03 0. -1.
        -11    1    4    4    0    0 -0.30141429510E+02 -0.18551131107E+02  0.18411990142E+02  0.39895508763E+02  0.51100000000E-03 0.  1.
         12    1    4    4    0    0 -0.23548918834E+01 -0.45486044964E+00  0.12339342884E+01  0.26972222080E+01  0.00000000000E+00 0. -1.
</event>
<event>
 8    1  0.2962813E-009  0.9118800E+02  0.7816164E-02  0.1184000E+00
        -11   -1    0    0    0    0  0.00000000000E+00  0.00000000000E+00  0.45593999997E+02  0.45594000000E+02  0.51100000000E-03 0. -1.
         11   -1    0    0    0    0 -0.00000000000E+00 -0.00000000000E+00 -0.45593999997E+02  0.45594000000E+02  0.51100000000E-03 0.  1.
         23    2    1    2    0    0  0.17763568394E-14  0.71054273576E-14 -0.35527136788E-14  0.91188000000E+02  0.91188000000E+02 0.  0.
    9900012    2    3    3    0    0 -0.12343396372E+02 -0.29973906657E+02  0.31278091115E+02  0.46142317653E+02  0.99999990150E+01 0.  0.
        -12    1    3    3    0    0  0.12343396372E+02  0.29973906657E+02 -0.31278091115E+02  0.45045682347E+02  0.00000000000E+00 0.  1.
         11    1    4    4    0    0  0.20736213301E+00 -0.61239839420E+01  0.27424369772E+01  0.67132063287E+01  0.51100000000E-03 0. -1.
        -11    1    4    4    0    0 -0.10621861742E+02 -0.17577180689E+02  0.20047716564E+02  0.28700037762E+02  0.51100000000E-03 0.  1.
         12    1    4    4    0    0 -0.19288967623E+01 -0.62727420267E+01  0.84879375742E+01  0.10729073563E+02  0.00000000000E+00 0. -1.
</event>
<event>
 8    1  0.2962813E-009  0.9118800E+02  0.7816164E-02  0.1184000E+00
        -11   -1    0    0    0    0  0.00000000000E+00  0.00000000000E+00  0.45593999997E+02  0.45594000000E+02  0.51100000000E-03 0.  1.
         11   -1    0    0    0    0 -0.00000000000E+00 -0.00000000000E+00 -0.45593999997E+02  0.45594000000E+02  0.51100000000E-03 0. -1.
         23    2    1    2    0    0  0.00000000000E+00  0.00000000000E+00  0.00000000000E+00  0.91188000000E+02  0.91188000000E+02 0.  0.
    9900012    2    3    3    0    0 -0.36643631699E+02  0.11538454739E+02 -0.23520658303E+02  0.46142322640E+02  0.10000044486E+02 0.  0.
         12    1    3    3    0    0  0.36643631699E+02 -0.11538454739E+02  0.23520658303E+02  0.45045677360E+02  0.00000000000E+00 0. -1.
         11    1    4    4    0    0 -0.59286210828E+01 -0.83298963858E+00 -0.42536774694E+01  0.73441263576E+01  0.51100000000E-03 0. -1.
        -11    1    4    4    0    0 -0.24737180165E+02  0.11822259838E+02 -0.13869668184E+02  0.30725585528E+02  0.51100000000E-03 0.  1.
        -12    1    4    4    0    0 -0.59778304509E+01  0.54918453898E+00 -0.53973126491E+01  0.80726107542E+01  0.00000000000E+00 0.  1.
</event>
<event>
 8    1  0.2962813E-009  0.9118800E+02  0.7816164E-02  0.1184000E+00
        -11   -1    0    0    0    0  0.00000000000E+00  0.00000000000E+00  0.45593999997E+02  0.45594000000E+02  0.51100000000E-03 0. -1.
         11   -1    0    0    0    0 -0.00000000000E+00 -0.00000000000E+00 -0.45593999997E+02  0.45594000000E+02  0.51100000000E-03 0.  1.
         23    2    1    2    0    0  0.00000000000E+00  0.00000000000E+00  0.00000000000E+00  0.91188000000E+02  0.91188000000E+02 0.  0.
    9900012    2    3    3    0    0 -0.15148666198E+02  0.67535456691E+01 -0.41881033804E+02  0.46142318085E+02  0.10000002954E+02 0.  0.
         12    1    3    3    0    0  0.15148666198E+02 -0.67535456691E+01  0.41881033804E+02  0.45045681915E+02  0.00000000000E+00 0. -1.
         11    1    4    4    0    0 -0.51257059615E+01 -0.27512958336E+00 -0.78072308585E+01  0.93435224530E+01  0.51100000000E-03 0. -1.
        -11    1    4    4    0    0 -0.87766416173E+01  0.23953778111E+01 -0.22553913475E+02  0.24319668711E+02  0.51100000000E-03 0.  1.
         12    1    4    4    0    0 -0.12463186189E+01  0.46332974414E+01 -0.11519889471E+02  0.12479126921E+02  0.00000000000E+00 0. -1.
</event>
<event>
 8    1  0.2962813E-009  0.9118800E+02  0.7816164E-02  0.1184000E+00
        -11   -1    0    0    0    0  0.00000000000E+00  0.00000000000E+00  0.45593999997E+02  0.45594000000E+02  0.51100000000E-03 0. -1.
         11   -1    0    0    0    0 -0.00000000000E+00 -0.00000000000E+00 -0.45593999997E+02  0.45594000000E+02  0.51100000000E-03 0.  1.
         23    2    1    2    0    0  0.35527136788E-14 -0.17763568394E-14  0.71054273576E-14  0.91188000000E+02  0.91188000000E+02 0.  0.
    9900012    2    3    3    0    0  0.12225598826E+02 -0.12732750601E+02  0.41443037754E+02  0.46142316713E+02  0.99999904442E+01 0.  0.
        -12    1    3    3    0    0 -0.12225598826E+02  0.12732750601E+02 -0.41443037754E+02  0.45045683287E+02  0.00000000000E+00 0.  1.
         11    1    4    4    0    0  0.11059097270E+02 -0.11760456374E+02  0.32474196615E+02  0.36265485142E+02  0.51100000000E-03 0. -1.
        -11    1    4    4    0    0 -0.12051717946E+01 -0.55413910157E+00  0.13761270436E+01  0.19113437942E+01  0.51100000000E-03 0.  1.
        -12    1    4    4    0    0  0.23716733512E+01 -0.41815512550E+00  0.75927140954E+01  0.79654877772E+01  0.00000000000E+00 0.  1.
</event>
<event>
 8    1  0.2962813E-009  0.9118800E+02  0.7816164E-02  0.1184000E+00
        -11   -1    0    0    0    0  0.00000000000E+00  0.00000000000E+00  0.45593999997E+02  0.45594000000E+02  0.51100000000E-03 0. -1.
         11   -1    0    0    0    0 -0.00000000000E+00 -0.00000000000E+00 -0.45593999997E+02  0.45594000000E+02  0.51100000000E-03 0.  1.
         23    2    1    2    0    0 -0.35527136788E-14  0.00000000000E+00  0.00000000000E+00  0.91188000000E+02  0.91188000000E+02 0.  0.
    9900012    2    3    3    0    0 -0.27618551434E+02 -0.15326757355E+02  0.32115722210E+02  0.46142317772E+02  0.10000000102E+02 0.  0.
        -12    1    3    3    0    0  0.27618551434E+02  0.15326757355E+02 -0.32115722210E+02  0.45045682228E+02  0.00000000000E+00 0.  1.
         11    1    4    4    0    0 -0.10698035343E+02 -0.66269177373E+01  0.94648514126E+01  0.15746345970E+02  0.51100000000E-03 0. -1.
        -11    1    4    4    0    0 -0.20753524999E+01 -0.94668696368E+00  0.69975978603E-01  0.22821483529E+01  0.51100000000E-03 0.  1.
        -12    1    4    4    0    0 -0.14845163591E+02 -0.77531526538E+01  0.22580894819E+02  0.28113823449E+02  0.00000000000E+00 0.  1.
</event>
<event>
 8    1  0.2962813E-009  0.9118800E+02  0.7816164E-02  0.1184000E+00
        -11   -1    0    0    0    0  0.00000000000E+00  0.00000000000E+00  0.45593999997E+02  0.45594000000E+02  0.51100000000E-03 0. -1.
         11   -1    0    0    0    0 -0.00000000000E+00 -0.00000000000E+00 -0.45593999997E+02  0.45594000000E+02  0.51100000000E-03 0.  1.
         23    2    1    2    0    0  0.00000000000E+00  0.00000000000E+00  0.71054273576E-14  0.91188000000E+02  0.91188000000E+02 0.  0.
    9900012    2    3    3    0    0 -0.20495080960E+02  0.90117885012E+01  0.39087758625E+02  0.46142317079E+02  0.99999937794E+01 0.  0.
        -12    1    3    3    0    0  0.20495080960E+02 -0.90117885012E+01 -0.39087758625E+02  0.45045682921E+02  0.00000000000E+00 0.  1.
         11    1    4    4    0    0 -0.67175686342E+01  0.64085465900E+01  0.19276408529E+02  0.21395680026E+02  0.51100000000E-03 0. -1.
        -11    1    4    4    0    0 -0.37988153492E+01 -0.45484358559E+00  0.86905993937E+01  0.94954936063E+01  0.51100000000E-03 0.  1.
         12    1    4    4    0    0 -0.99786969761E+01  0.30580854968E+01  0.11120750702E+02  0.15251143447E+02  0.00000000000E+00 0. -1.
</event>
<event>
 8    1  0.2962813E-009  0.9118800E+02  0.7816164E-02  0.1184000E+00
        -11   -1    0    0    0    0  0.00000000000E+00  0.00000000000E+00  0.45593999997E+02  0.45594000000E+02  0.51100000000E-03 0. -1.
         11   -1    0    0    0    0 -0.00000000000E+00 -0.00000000000E+00 -0.45593999997E+02  0.45594000000E+02  0.51100000000E-03 0.  1.
         23    2    1    2    0    0 -0.35527136788E-14  0.00000000000E+00 -0.35527136788E-14  0.91188000000E+02  0.91188000000E+02 0.  0.
    9900012    2    3    3    0    0  0.31622251006E+02 -0.21437746993E+02 -0.23865659591E+02  0.46142318048E+02  0.10000002614E+02 0.  0.
         12    1    3    3    0    0 -0.31622251006E+02  0.21437746993E+02  0.23865659591E+02  0.45045681952E+02  0.00000000000E+00 0. -1.
         11    1    4    4    0    0  0.14771403713E+02 -0.10982441640E+02 -0.14432962118E+02  0.23390570489E+02  0.51100000000E-03 0. -1.
        -11    1    4    4    0    0  0.11349607800E+01 -0.22476760008E+01 -0.29385610980E+01  0.38697965017E+01  0.51100000000E-03 0.  1.
        -12    1    4    4    0    0  0.15715886513E+02 -0.82076293519E+01 -0.64941363751E+01  0.18881951057E+02  0.00000000000E+00 0.  1.
</event>
<event>
 8    1  0.2962813E-009  0.9118800E+02  0.7816164E-02  0.1184000E+00
        -11   -1    0    0    0    0  0.00000000000E+00  0.00000000000E+00  0.45593999997E+02  0.45594000000E+02  0.51100000000E-03 0. -1.
         11   -1    0    0    0    0 -0.00000000000E+00 -0.00000000000E+00 -0.45593999997E+02  0.45594000000E+02  0.51100000000E-03 0.  1.
         23    2    1    2    0    0 -0.17763568394E-14  0.00000000000E+00  0.00000000000E+00  0.91188000000E+02  0.91188000000E+02 0.  0.
    9900012    2    3    3    0    0 -0.14868965141E+02  0.19908224423E+02  0.37572461779E+02  0.46142318651E+02  0.10000008117E+02 0.  0.
        -12    1    3    3    0    0  0.14868965141E+02 -0.19908224423E+02 -0.37572461779E+02  0.45045681349E+02  0.00000000000E+00 0.  1.
         11    1    4    4    0    0 -0.35437182115E+01  0.50751606661E+01  0.16468687524E+02  0.17593546077E+02  0.51100000000E-03 0. -1.
        -11    1    4    4    0    0 -0.52391260516E+01  0.37312298294E+01  0.55656991755E+01  0.85057348535E+01  0.51100000000E-03 0.  1.
         12    1    4    4    0    0 -0.60861208783E+01  0.11101833927E+02  0.15538075079E+02  0.20043037720E+02  0.00000000000E+00 0. -1.
</event>
<event>
 8    1  0.2962813E-009  0.9118800E+02  0.7816164E-02  0.1184000E+00
        -11   -1    0    0    0    0  0.00000000000E+00  0.00000000000E+00  0.45593999997E+02  0.45594000000E+02  0.51100000000E-03 0. -1.
         11   -1    0    0    0    0 -0.00000000000E+00 -0.00000000000E+00 -0.45593999997E+02  0.45594000000E+02  0.51100000000E-03 0.  1.
         23    2    1    2    0    0  0.00000000000E+00  0.17763568394E-14  0.71054273576E-14  0.91188000000E+02  0.91188000000E+02 0.  0.
    9900012    2    3    3    0    0  0.10253050477E+02 -0.15260786661E+02  0.41122947598E+02  0.46142317934E+02  0.10000001576E+02 0.  0.
        -12    1    3    3    0    0 -0.10253050477E+02  0.15260786661E+02 -0.41122947598E+02  0.45045682066E+02  0.00000000000E+00 0.  1.
         11    1    4    4    0    0  0.89475204076E+01 -0.51889672845E+01  0.21516832621E+02  0.23873784560E+02  0.51100000000E-03 0. -1.
        -11    1    4    4    0    0 -0.43932981334E+00 -0.50861897077E+01  0.76429917641E+01  0.91911729282E+01  0.51100000000E-03 0.  1.
        -12    1    4    4    0    0  0.17448598832E+01 -0.49856296689E+01  0.11963123214E+02  0.13077360446E+02  0.00000000000E+00 0.  1.
</event>
<event>
 8    1  0.2962813E-009  0.9118800E+02  0.7816164E-02  0.1184000E+00
        -11   -1    0    0    0    0  0.00000000000E+00  0.00000000000E+00  0.45593999997E+02  0.45594000000E+02  0.51100000000E-03 0. -1.
         11   -1    0    0    0    0 -0.00000000000E+00 -0.00000000000E+00 -0.45593999997E+02  0.45594000000E+02  0.51100000000E-03 0.  1.
         23    2    1    2    0    0  0.00000000000E+00  0.00000000000E+00  0.00000000000E+00  0.91188000000E+02  0.91188000000E+02 0.  0.
    9900012    2    3    3    0    0 -0.37625788678E+02  0.22018625020E+02 -0.11339911299E+02  0.46142318634E+02  0.10000007961E+02 0.  0.
         12    1    3    3    0    0  0.37625788678E+02 -0.22018625020E+02  0.11339911299E+02  0.45045681366E+02  0.00000000000E+00 0. -1.
         11    1    4    4    0    0 -0.45133164811E+01  0.35601017444E+01 -0.46732738230E+01  0.74083627459E+01  0.51100000000E-03 0. -1.
        -11    1    4    4    0    0 -0.30535699018E+02  0.16399604637E+02 -0.49403266458E+01  0.35011180705E+02  0.51100000000E-03 0.  1.
        -12    1    4    4    0    0 -0.25767731795E+01  0.20589186388E+01 -0.17263108305E+01  0.37227751831E+01  0.00000000000E+00 0.  1.
</event>
<event>
 8    1  0.2962813E-009  0.9118800E+02  0.7816164E-02  0.1184000E+00
        -11   -1    0    0    0    0  0.00000000000E+00  0.00000000000E+00  0.45593999997E+02  0.45594000000E+02  0.51100000000E-03 0. -1.
         11   -1    0    0    0    0 -0.00000000000E+00 -0.00000000000E+00 -0.45593999997E+02  0.45594000000E+02  0.51100000000E-03 0.  1.
         23    2    1    2    0    0  0.00000000000E+00 -0.35527136788E-14  0.35527136788E-14  0.91188000000E+02  0.91188000000E+02 0.  0.
    9900012    2    3    3    0    0 -0.28323736097E+02 -0.26583246450E+02  0.22808122829E+02  0.46142317795E+02  0.10000000313E+02 0.  0.
        -12    1    3    3    0    0  0.28323736097E+02  0.26583246450E+02 -0.22808122829E+02  0.45045682205E+02  0.00000000000E+00 0.  1.
         11    1    4    4    0    0 -0.14085728642E+02 -0.97028102383E+01  0.83679711738E+01  0.19041408029E+02  0.51100000000E-03 0. -1.
        -11    1    4    4    0    0 -0.11806038586E+02 -0.16747379655E+02  0.13114436423E+02  0.24327879384E+02  0.51100000000E-03 0.  1.
        -12    1    4    4    0    0 -0.24319688685E+01 -0.13305655747E+00  0.13257152323E+01  0.27730303824E+01  0.00000000000E+00 0.  1.
</event>
<event>
 8    1  0.2962813E-009  0.9118800E+02  0.7816164E-02  0.1184000E+00
        -11   -1    0    0    0    0  0.00000000000E+00  0.00000000000E+00  0.45593999997E+02  0.45594000000E+02  0.51100000000E-03 0. -1.
         11   -1    0    0    0    0 -0.00000000000E+00 -0.00000000000E+00 -0.45593999997E+02  0.45594000000E+02  0.51100000000E-03 0.  1.
         23    2    1    2    0    0  0.17763568394E-14  0.00000000000E+00 -0.71054273576E-14  0.91188000000E+02  0.91188000000E+02 0.  0.
    9900012    2    3    3    0    0  0.14129237856E+02 -0.32745824468E+02 -0.27517090685E+02  0.46142304731E+02  0.99998811846E+01 0.  0.
         12    1    3    3    0    0 -0.14129237856E+02  0.32745824468E+02  0.27517090685E+02  0.45045695269E+02  0.00000000000E+00 0. -1.
         11    1    4    4    0    0  0.52824308042E+01 -0.76829156394E+01 -0.12340097858E+02  0.15466392060E+02  0.51100000000E-03 0. -1.
        -11    1    4    4    0    0  0.24242539356E+01 -0.91198964106E+01 -0.61230660484E+01  0.11249064662E+02  0.51100000000E-03 0.  1.
         12    1    4    4    0    0  0.64225531164E+01 -0.15943012418E+02 -0.90539267781E+01  0.19426848009E+02  0.00000000000E+00 0. -1.
</event>
<event>
 8    1  0.2962813E-009  0.9118800E+02  0.7816164E-02  0.1184000E+00
        -11   -1    0    0    0    0  0.00000000000E+00  0.00000000000E+00  0.45593999997E+02  0.45594000000E+02  0.51100000000E-03 0. -1.
         11   -1    0    0    0    0 -0.00000000000E+00 -0.00000000000E+00 -0.45593999997E+02  0.45594000000E+02  0.51100000000E-03 0.  1.
         23    2    1    2    0    0  0.35527136788E-14 -0.17763568394E-14  0.71054273576E-14  0.91188000000E+02  0.91188000000E+02 0.  0.
    9900012    2    3    3    0    0  0.21401070934E+02 -0.89947687870E+01  0.38603131542E+02  0.46142317993E+02  0.10000002111E+02 0.  0.
        -12    1    3    3    0    0 -0.21401070934E+02  0.89947687870E+01 -0.38603131542E+02  0.45045682007E+02  0.00000000000E+00 0.  1.
         11    1    4    4    0    0  0.20286238087E+02 -0.72713084626E+01  0.28913216010E+02  0.36060746564E+02  0.51100000000E-03 0. -1.
        -11    1    4    4    0    0  0.10391436044E+00 -0.59062953222E+00  0.54143880215E+00  0.80795895702E+00  0.51100000000E-03 0.  1.
         12    1    4    4    0    0  0.10109184869E+01 -0.11328307922E+01  0.91484767300E+01  0.92736124714E+01  0.00000000000E+00 0. -1.
</event>
<event>
 8    1  0.2962813E-009  0.9118800E+02  0.7816164E-02  0.1184000E+00
        -11   -1    0    0    0    0  0.00000000000E+00  0.00000000000E+00  0.45593999997E+02  0.45594000000E+02  0.51100000000E-03 0. -1.
         11   -1    0    0    0    0 -0.00000000000E+00 -0.00000000000E+00 -0.45593999997E+02  0.45594000000E+02  0.51100000000E-03 0.  1.
         23    2    1    2    0    0  0.17763568394E-14  0.00000000000E+00  0.00000000000E+00  0.91188000000E+02  0.91188000000E+02 0.  0.
    9900012    2    3    3    0    0  0.83876598687E+01  0.14342349362E+02  0.41869531183E+02  0.46142318023E+02  0.10000002392E+02 0.  0.
        -12    1    3    3    0    0 -0.83876598687E+01 -0.14342349362E+02 -0.41869531183E+02  0.45045681977E+02  0.00000000000E+00 0.  1.
         11    1    4    4    0    0  0.56832902481E+01  0.43709329401E+01  0.12930327068E+02  0.14785066830E+02  0.51100000000E-03 0. -1.
        -11    1    4    4    0    0  0.46943408036E+00  0.40122862314E+00  0.10008897122E+02  0.10027929728E+02  0.51100000000E-03 0.  1.
        -12    1    4    4    0    0  0.22349355403E+01  0.95701877987E+01  0.18930306993E+02  0.21329321466E+02  0.00000000000E+00 0.  1.
</event>
<event>
 8    1  0.2962813E-009  0.9118800E+02  0.7816164E-02  0.1184000E+00
        -11   -1    0    0    0    0  0.00000000000E+00  0.00000000000E+00  0.45593999997E+02  0.45594000000E+02  0.51100000000E-03 0. -1.
         11   -1    0    0    0    0 -0.00000000000E+00 -0.00000000000E+00 -0.45593999997E+02  0.45594000000E+02  0.51100000000E-03 0.  1.
         23    2    1    2    0    0  0.35527136788E-14  0.35527136788E-14  0.00000000000E+00  0.91188000000E+02  0.91188000000E+02 0.  0.
    9900012    2    3    3    0    0 -0.27805722900E+02 -0.31049249760E+02 -0.17085066770E+02  0.46142316043E+02  0.99999843296E+01 0.  0.
         12    1    3    3    0    0  0.27805722900E+02  0.31049249760E+02  0.17085066770E+02  0.45045683957E+02  0.00000000000E+00 0. -1.
         11    1    4    4    0    0 -0.93644118562E+01 -0.49084308293E+01 -0.32696778461E+01  0.11066873818E+02  0.51100000000E-03 0. -1.
        -11    1    4    4    0    0 -0.17368773556E+02 -0.23465202127E+02 -0.11497205661E+02  0.31376356449E+02  0.51100000000E-03 0.  1.
         12    1    4    4    0    0 -0.10725374876E+01 -0.26756168038E+01 -0.23181832622E+01  0.36990857763E+01  0.00000000000E+00 0. -1.
</event>
<event>
 8    1  0.2962813E-009  0.9118800E+02  0.7816164E-02  0.1184000E+00
        -11   -1    0    0    0    0  0.00000000000E+00  0.00000000000E+00  0.45593999997E+02  0.45594000000E+02  0.51100000000E-03 0. -1.
         11   -1    0    0    0    0 -0.00000000000E+00 -0.00000000000E+00 -0.45593999997E+02  0.45594000000E+02  0.51100000000E-03 0.  1.
         23    2    1    2    0    0  0.00000000000E+00 -0.88817841970E-15  0.71054273576E-14  0.91188000000E+02  0.91188000000E+02 0.  0.
    9900012    2    3    3    0    0 -0.26095356198E+02 -0.49513460446E+01  0.36381726501E+02  0.46142318010E+02  0.10000002273E+02 0.  0.
        -12    1    3    3    0    0  0.26095356198E+02  0.49513460446E+01 -0.36381726501E+02  0.45045681990E+02  0.00000000000E+00 0.  1.
         11    1    4    4    0    0 -0.13461893641E+02  0.16310473953E+01  0.20614937370E+02  0.24675059048E+02  0.51100000000E-03 0. -1.
        -11    1    4    4    0    0 -0.66648269376E+01 -0.40391248141E+01  0.64616365505E+01  0.10123595930E+02  0.51100000000E-03 0.  1.
         12    1    4    4    0    0 -0.59686356193E+01 -0.25432686258E+01  0.93051525800E+01  0.11343663033E+02  0.00000000000E+00 0. -1.
</event>
<event>
 8    1  0.2962813E-009  0.9118800E+02  0.7816164E-02  0.1184000E+00
        -11   -1    0    0    0    0  0.00000000000E+00  0.00000000000E+00  0.45593999997E+02  0.45594000000E+02  0.51100000000E-03 0. -1.
         11   -1    0    0    0    0 -0.00000000000E+00 -0.00000000000E+00 -0.45593999997E+02  0.45594000000E+02  0.51100000000E-03 0.  1.
         23    2    1    2    0    0  0.00000000000E+00  0.00000000000E+00  0.00000000000E+00  0.91188000000E+02  0.91188000000E+02 0.  0.
    9900012    2    3    3    0    0  0.60967412836E+00  0.13704903201E+02 -0.42905914842E+02  0.46142316491E+02  0.99999884204E+01 0.  0.
         12    1    3    3    0    0 -0.60967412836E+00 -0.13704903201E+02  0.42905914842E+02  0.45045683509E+02  0.00000000000E+00 0. -1.
         11    1    4    4    0    0 -0.11392416089E+01  0.79499938278E+01 -0.11997909001E+02  0.14437800870E+02  0.51100000000E-03 0. -1.
        -11    1    4    4    0    0  0.71269258368E+00  0.12095774713E+01 -0.16531817362E+02  0.16591322851E+02  0.51100000000E-03 0.  1.
         12    1    4    4    0    0  0.10362231536E+01  0.45453319022E+01 -0.14376188479E+02  0.15113192771E+02  0.00000000000E+00 0. -1.
</event>
<event>
 8    1  0.2962813E-009  0.9118800E+02  0.7816164E-02  0.1184000E+00
        -11   -1    0    0    0    0  0.00000000000E+00  0.00000000000E+00  0.45593999997E+02  0.45594000000E+02  0.51100000000E-03 0. -1.
         11   -1    0    0    0    0 -0.00000000000E+00 -0.00000000000E+00 -0.45593999997E+02  0.45594000000E+02  0.51100000000E-03 0.  1.
         23    2    1    2    0    0  0.88817841970E-15  0.00000000000E+00  0.71054273576E-14  0.91188000000E+02  0.91188000000E+02 0.  0.
    9900012    2    3    3    0    0  0.49930694248E+01  0.95742632711E+01  0.43732324631E+02  0.46142317886E+02  0.10000001137E+02 0.  0.
        -12    1    3    3    0    0 -0.49930694248E+01 -0.95742632711E+01 -0.43732324631E+02  0.45045682114E+02  0.00000000000E+00 0.  1.
         11    1    4    4    0    0  0.19652199919E+01  0.65340391393E+01  0.31086190415E+02  0.31826199771E+02  0.51100000000E-03 0. -1.
        -11    1    4    4    0    0  0.25728814703E+00  0.52154412771E-01  0.84955209882E+01  0.84995761304E+01  0.51100000000E-03 0.  1.
        -12    1    4    4    0    0  0.27705612858E+01  0.29880697191E+01  0.41506132283E+01  0.58165419843E+01  0.00000000000E+00 0.  1.
</event>
<event>
 8    1  0.2962813E-009  0.9118800E+02  0.7816164E-02  0.1184000E+00
        -11   -1    0    0    0    0  0.00000000000E+00  0.00000000000E+00  0.45593999997E+02  0.45594000000E+02  0.51100000000E-03 0. -1.
         11   -1    0    0    0    0 -0.00000000000E+00 -0.00000000000E+00 -0.45593999997E+02  0.45594000000E+02  0.51100000000E-03 0.  1.
         23    2    1    2    0    0  0.00000000000E+00  0.00000000000E+00  0.00000000000E+00  0.91188000000E+02  0.91188000000E+02 0.  0.
    9900012    2    3    3    0    0  0.17967818025E+02 -0.40200010302E+01  0.41110954975E+02  0.46142317501E+02  0.99999976268E+01 0.  0.
        -12    1    3    3    0    0 -0.17967818025E+02  0.40200010302E+01 -0.41110954975E+02  0.45045682499E+02  0.00000000000E+00 0.  1.
         11    1    4    4    0    0  0.11717793656E+01  0.19319308559E+01  0.23636379826E+01  0.32698942624E+01  0.51100000000E-03 0. -1.
        -11    1    4    4    0    0  0.13390912238E+01 -0.18825803708E+01  0.60884363368E+01  0.65120143924E+01  0.51100000000E-03 0.  1.
         12    1    4    4    0    0  0.15456947436E+02 -0.40693515152E+01  0.32658880656E+02  0.36360408846E+02  0.00000000000E+00 0. -1.
</event>
<event>
 8    1  0.2962813E-009  0.9118800E+02  0.7816164E-02  0.1184000E+00
        -11   -1    0    0    0    0  0.00000000000E+00  0.00000000000E+00  0.45593999997E+02  0.45594000000E+02  0.51100000000E-03 0. -1.
         11   -1    0    0    0    0 -0.00000000000E+00 -0.00000000000E+00 -0.45593999997E+02  0.45594000000E+02  0.51100000000E-03 0.  1.
         23    2    1    2    0    0 -0.17763568394E-14  0.00000000000E+00  0.35527136788E-14  0.91188000000E+02  0.91188000000E+02 0.  0.
    9900012    2    3    3    0    0 -0.85612016034E+01 -0.33650741449E+02  0.28695765454E+02  0.46142317321E+02  0.99999959884E+01 0.  0.
        -12    1    3    3    0    0  0.85612016034E+01  0.33650741449E+02 -0.28695765454E+02  0.45045682679E+02  0.00000000000E+00 0.  1.
         11    1    4    4    0    0 -0.68480576106E+01 -0.24737426132E+02  0.15528962615E+02  0.29999747079E+02  0.51100000000E-03 0. -1.
        -11    1    4    4    0    0  0.30551223603E+00 -0.31831123686E+01  0.36583631572E+01  0.48589261497E+01  0.51100000000E-03 0.  1.
         12    1    4    4    0    0 -0.20186562289E+01 -0.57302029492E+01  0.95084396825E+01  0.11283644092E+02  0.00000000000E+00 0. -1.
</event>
<event>
 8    1  0.2962813E-009  0.9118800E+02  0.7816164E-02  0.1184000E+00
        -11   -1    0    0    0    0  0.00000000000E+00  0.00000000000E+00  0.45593999997E+02  0.45594000000E+02  0.51100000000E-03 0. -1.
         11   -1    0    0    0    0 -0.00000000000E+00 -0.00000000000E+00 -0.45593999997E+02  0.45594000000E+02  0.51100000000E-03 0.  1.
         23    2    1    2    0    0  0.00000000000E+00  0.71054273576E-14  0.00000000000E+00  0.91188000000E+02  0.91188000000E+02 0.  0.
    9900012    2    3    3    0    0  0.13752973359E+02  0.37557648429E+02  0.20721783479E+02  0.46142317163E+02  0.99999945414E+01 0.  0.
        -12    1    3    3    0    0 -0.13752973359E+02 -0.37557648429E+02 -0.20721783479E+02  0.45045682837E+02  0.00000000000E+00 0.  1.
         11    1    4    4    0    0  0.77336450413E+01  0.12114771367E+02  0.63239264174E+01  0.15702515610E+02  0.51100000000E-03 0. -1.
        -11    1    4    4    0    0  0.15096934871E+01  0.16877897894E+02  0.73736943947E+01  0.18480096889E+02  0.51100000000E-03 0.  1.
        -12    1    4    4    0    0  0.45096348310E+01  0.85649791689E+01  0.70241626666E+01  0.11959704663E+02  0.00000000000E+00 0.  1.
</event>
<event>
 8    1  0.2962813E-009  0.9118800E+02  0.7816164E-02  0.1184000E+00
        -11   -1    0    0    0    0  0.00000000000E+00  0.00000000000E+00  0.45593999997E+02  0.45594000000E+02  0.51100000000E-03 0. -1.
         11   -1    0    0    0    0 -0.00000000000E+00 -0.00000000000E+00 -0.45593999997E+02  0.45594000000E+02  0.51100000000E-03 0.  1.
         23    2    1    2    0    0  0.00000000000E+00  0.00000000000E+00  0.00000000000E+00  0.91188000000E+02  0.91188000000E+02 0.  0.
    9900012    2    3    3    0    0 -0.37721493784E+02 -0.14638835295E+02 -0.19796635786E+02  0.46142318957E+02  0.10000010910E+02 0.  0.
         12    1    3    3    0    0  0.37721493784E+02  0.14638835295E+02  0.19796635786E+02  0.45045681043E+02  0.00000000000E+00 0. -1.
         11    1    4    4    0    0 -0.31920547764E+02 -0.14905871887E+02 -0.14091481264E+02  0.37943065648E+02  0.51100000000E-03 0. -1.
        -11    1    4    4    0    0 -0.29128431209E+01 -0.24563639867E+00 -0.32775119131E+01  0.43917054648E+01  0.51100000000E-03 0.  1.
         12    1    4    4    0    0 -0.28881028994E+01  0.51267299073E+00 -0.24276426094E+01  0.38075478449E+01  0.00000000000E+00 0. -1.
</event>
<event>
 8    1  0.2962813E-009  0.9118800E+02  0.7816164E-02  0.1184000E+00
        -11   -1    0    0    0    0  0.00000000000E+00  0.00000000000E+00  0.45593999997E+02  0.45594000000E+02  0.51100000000E-03 0. -1.
         11   -1    0    0    0    0 -0.00000000000E+00 -0.00000000000E+00 -0.45593999997E+02  0.45594000000E+02  0.51100000000E-03 0.  1.
         23    2    1    2    0    0  0.00000000000E+00 -0.88817841970E-15  0.71054273576E-14  0.91188000000E+02  0.91188000000E+02 0.  0.
    9900012    2    3    3    0    0 -0.20458353085E+02 -0.39954989170E+01  0.39932509791E+02  0.46142316957E+02  0.99999926714E+01 0.  0.
        -12    1    3    3    0    0  0.20458353085E+02  0.39954989170E+01 -0.39932509791E+02  0.45045683043E+02  0.00000000000E+00 0.  1.
         11    1    4    4    0    0  0.77888255782E-01 -0.10949948379E+01  0.22082241331E+00  0.11197513451E+01  0.51100000000E-03 0.  1.
        -11    1    4    4    0    0 -0.18394542152E+02 -0.21954436021E+01  0.31867772919E+02  0.36861010630E+02  0.51100000000E-03 0. -1.
        -12    1    4    4    0    0 -0.21416991891E+01 -0.70506047701E+00  0.78439144591E+01  0.81615549826E+01  0.00000000000E+00 0.  1.
</event>
<event>
 8    1  0.2962813E-009  0.9118800E+02  0.7816164E-02  0.1184000E+00
        -11   -1    0    0    0    0  0.00000000000E+00  0.00000000000E+00  0.45593999997E+02  0.45594000000E+02  0.51100000000E-03 0. -1.
         11   -1    0    0    0    0 -0.00000000000E+00 -0.00000000000E+00 -0.45593999997E+02  0.45594000000E+02  0.51100000000E-03 0.  1.
         23    2    1    2    0    0  0.17763568394E-14  0.00000000000E+00  0.00000000000E+00  0.91188000000E+02  0.91188000000E+02 0.  0.
    9900012    2    3    3    0    0 -0.15389200715E+02  0.84933033710E+01 -0.41474689257E+02  0.46142317080E+02  0.99999937889E+01 0.  0.
         12    1    3    3    0    0  0.15389200715E+02 -0.84933033710E+01  0.41474689257E+02  0.45045682920E+02  0.00000000000E+00 0. -1.
         11    1    4    4    0    0 -0.33848918694E+01 -0.15040086206E+01 -0.47181497820E+01  0.59983724896E+01  0.51100000000E-03 0. -1.
        -11    1    4    4    0    0 -0.72143336567E+01  0.77893725156E+01 -0.21057894076E+02  0.23582956504E+02  0.51100000000E-03 0.  1.
         12    1    4    4    0    0 -0.47899751887E+01  0.22079394760E+01 -0.15698645399E+02  0.16560988086E+02  0.00000000000E+00 0. -1.
</event>
<event>
 8    1  0.2962813E-009  0.9118800E+02  0.7816164E-02  0.1184000E+00
        -11   -1    0    0    0    0  0.00000000000E+00  0.00000000000E+00  0.45593999997E+02  0.45594000000E+02  0.51100000000E-03 0. -1.
         11   -1    0    0    0    0 -0.00000000000E+00 -0.00000000000E+00 -0.45593999997E+02  0.45594000000E+02  0.51100000000E-03 0.  1.
         23    2    1    2    0    0  0.71054273576E-14  0.00000000000E+00  0.00000000000E+00  0.91188000000E+02  0.91188000000E+02 0.  0.
    9900012    2    3    3    0    0  0.39513718391E+02 -0.22631222278E+01  0.21509481100E+02  0.46142318293E+02  0.10000004846E+02 0.  0.
        -12    1    3    3    0    0 -0.39513718391E+02  0.22631222278E+01 -0.21509481100E+02  0.45045681707E+02  0.00000000000E+00 0.  1.
         11    1    4    4    0    0  0.49837309278E+01 -0.24321935761E+01  0.48758530464E+01  0.73842455771E+01  0.51100000000E-03 0. -1.
        -11    1    4    4    0    0  0.75829359837E+01 -0.11975447415E+01  0.60522367914E+01  0.97757149090E+01  0.51100000000E-03 0.  1.
         12    1    4    4    0    0  0.26947051479E+02  0.13666160899E+01  0.10581391262E+02  0.28982357806E+02  0.00000000000E+00 0. -1.
</event>
<event>
 8    1  0.3253547E-009  0.9118800E+02  0.7816164E-02  0.1184000E+00
        -11   -1    0    0    0    0  0.00000000000E+00  0.00000000000E+00  0.45593999997E+02  0.45594000000E+02  0.51100000000E-03 0. -1.
         11   -1    0    0    0    0 -0.00000000000E+00 -0.00000000000E+00 -0.45593999997E+02  0.45594000000E+02  0.51100000000E-03 0.  1.
         23    2    1    2    0    0  0.00000000000E+00  0.11102230246E-15  0.00000000000E+00  0.91188000000E+02  0.91188000000E+02 0.  0.
    9900012    2    3    3    0    0  0.41474849579E+01 -0.14945352081E+00 -0.44854091292E+02  0.46142317926E+02  0.10000001508E+02 0.  0.
         12    1    3    3    0    0 -0.41474849579E+01  0.14945352081E+00  0.44854091292E+02  0.45045682074E+02  0.00000000000E+00 0. -1.
         11    1    4    4    0    0  0.42323558017E+01  0.31122084070E+01 -0.20023550520E+02  0.20701237946E+02  0.51100000000E-03 0.  1.
        -11    1    4    4    0    0 -0.10989667627E+01 -0.31603667077E+01 -0.94150497919E+01  0.99919371754E+01  0.51100000000E-03 0. -1.
        -12    1    4    4    0    0  0.10140959188E+01 -0.10129522008E+00 -0.15415490980E+02  0.15449142805E+02  0.00000000000E+00 0.  1.
</event>
<event>
 8    1  0.2962813E-009  0.9118800E+02  0.7816164E-02  0.1184000E+00
        -11   -1    0    0    0    0  0.00000000000E+00  0.00000000000E+00  0.45593999997E+02  0.45594000000E+02  0.51100000000E-03 0. -1.
         11   -1    0    0    0    0 -0.00000000000E+00 -0.00000000000E+00 -0.45593999997E+02  0.45594000000E+02  0.51100000000E-03 0.  1.
         23    2    1    2    0    0 -0.11102230246E-15  0.00000000000E+00  0.00000000000E+00  0.91188000000E+02  0.91188000000E+02 0.  0.
    9900012    2    3    3    0    0 -0.59301124230E+00 -0.13464859081E+01 -0.45021647781E+02  0.46142318126E+02  0.10000003326E+02 0.  0.
         12    1    3    3    0    0  0.59301124230E+00  0.13464859081E+01  0.45021647781E+02  0.45045681874E+02  0.00000000000E+00 0. -1.
         11    1    4    4    0    0  0.15502224588E+01 -0.21815101638E+01 -0.55382237087E+01  0.61509428850E+01  0.51100000000E-03 0. -1.
        -11    1    4    4    0    0 -0.22698357472E+01  0.76163129772E+00 -0.53921802379E+01  0.58998173304E+01  0.51100000000E-03 0.  1.
         12    1    4    4    0    0  0.12660204610E+00  0.73392958009E-01 -0.34091243834E+02  0.34091557910E+02  0.00000000000E+00 0. -1.
</event>
<event>
 8    1  0.2962813E-009  0.9118800E+02  0.7816164E-02  0.1184000E+00
        -11   -1    0    0    0    0  0.00000000000E+00  0.00000000000E+00  0.45593999997E+02  0.45594000000E+02  0.51100000000E-03 0. -1.
         11   -1    0    0    0    0 -0.00000000000E+00 -0.00000000000E+00 -0.45593999997E+02  0.45594000000E+02  0.51100000000E-03 0.  1.
         23    2    1    2    0    0 -0.88817841970E-15  0.88817841970E-15  0.00000000000E+00  0.91188000000E+02  0.91188000000E+02 0.  0.
    9900012    2    3    3    0    0 -0.72856523506E+01  0.60052226992E+01  0.44045090604E+02  0.46142318341E+02  0.10000005284E+02 0.  0.
        -12    1    3    3    0    0  0.72856523506E+01 -0.60052226992E+01 -0.44045090604E+02  0.45045681659E+02  0.00000000000E+00 0.  1.
         11    1    4    4    0    0 -0.23906442320E+01  0.13260455537E+01  0.18682155301E+02  0.18881114999E+02  0.51100000000E-03 0. -1.
        -11    1    4    4    0    0  0.99383817830E+00 -0.52632786566E+00  0.94121257661E+01  0.94790741660E+01  0.51100000000E-03 0.  1.
        -12    1    4    4    0    0 -0.58888462970E+01  0.52055050111E+01  0.15950809537E+02  0.17782129176E+02  0.00000000000E+00 0.  1.
</event>
<event>
 8    1  0.2962813E-009  0.9118800E+02  0.7816164E-02  0.1184000E+00
        -11   -1    0    0    0    0  0.00000000000E+00  0.00000000000E+00  0.45593999997E+02  0.45594000000E+02  0.51100000000E-03 0. -1.
         11   -1    0    0    0    0 -0.00000000000E+00 -0.00000000000E+00 -0.45593999997E+02  0.45594000000E+02  0.51100000000E-03 0.  1.
         23    2    1    2    0    0  0.35527136788E-14  0.00000000000E+00  0.71054273576E-14  0.91188000000E+02  0.91188000000E+02 0.  0.
    9900012    2    3    3    0    0 -0.16308621021E+02  0.22873728118E+02 -0.35212704288E+02  0.46142322062E+02  0.10000039216E+02 0.  0.
         12    1    3    3    0    0  0.16308621021E+02 -0.22873728118E+02  0.35212704288E+02  0.45045677938E+02  0.00000000000E+00 0. -1.
         11    1    4    4    0    0 -0.73216726603E+01  0.11260789906E+02 -0.13109557656E+02  0.18768931298E+02  0.51100000000E-03 0.  1.
        -11    1    4    4    0    0  0.10882436859E+01  0.85664493761E+00 -0.23545482895E+01  0.27316684970E+01  0.51100000000E-03 0. -1.
        -12    1    4    4    0    0 -0.10075192047E+02  0.10756293274E+02 -0.19748598343E+02  0.24641722267E+02  0.00000000000E+00 0.  1.
</event>
<event>
 8    1  0.2962813E-009  0.9118800E+02  0.7816164E-02  0.1184000E+00
        -11   -1    0    0    0    0  0.00000000000E+00  0.00000000000E+00  0.45593999997E+02  0.45594000000E+02  0.51100000000E-03 0. -1.
         11   -1    0    0    0    0 -0.00000000000E+00 -0.00000000000E+00 -0.45593999997E+02  0.45594000000E+02  0.51100000000E-03 0.  1.
         23    2    1    2    0    0  0.35527136788E-14  0.66613381478E-15  0.00000000000E+00  0.91188000000E+02  0.91188000000E+02 0.  0.
    9900012    2    3    3    0    0 -0.29603133623E+02 -0.17306579347E+01 -0.33908299174E+02  0.46142318186E+02  0.10000003876E+02 0.  0.
         12    1    3    3    0    0  0.29603133623E+02  0.17306579347E+01  0.33908299174E+02  0.45045681814E+02  0.00000000000E+00 0. -1.
         11    1    4    4    0    0 -0.18119188197E+02 -0.46249510766E+01 -0.24534790894E+02  0.30848843055E+02  0.51100000000E-03 0. -1.
        -11    1    4    4    0    0 -0.98089740831E+01  0.19313932951E+01 -0.86834314090E+01  0.13241912019E+02  0.51100000000E-03 0.  1.
         12    1    4    4    0    0 -0.16749713430E+01  0.96289984676E+00 -0.69007687159E+00  0.20515631122E+01  0.00000000000E+00 0. -1.
</event>
<event>
 8    1  0.2962813E-009  0.9118800E+02  0.7816164E-02  0.1184000E+00
        -11   -1    0    0    0    0  0.00000000000E+00  0.00000000000E+00  0.45593999997E+02  0.45594000000E+02  0.51100000000E-03 0. -1.
         11   -1    0    0    0    0 -0.00000000000E+00 -0.00000000000E+00 -0.45593999997E+02  0.45594000000E+02  0.51100000000E-03 0.  1.
         23    2    1    2    0    0  0.88817841970E-15  0.17763568394E-14  0.71054273576E-14  0.91188000000E+02  0.91188000000E+02 0.  0.
    9900012    2    3    3    0    0  0.63670472705E+01  0.14865927182E+02  0.42042578588E+02  0.46142317673E+02  0.99999991979E+01 0.  0.
        -12    1    3    3    0    0 -0.63670472705E+01 -0.14865927182E+02 -0.42042578588E+02  0.45045682327E+02  0.00000000000E+00 0.  1.
         11    1    4    4    0    0  0.67904634607E+01  0.97950749195E+01  0.19711669120E+02  0.23034838537E+02  0.51100000000E-03 0. -1.
        -11    1    4    4    0    0 -0.16749425414E+01  0.37045567559E+01  0.14392869243E+02  0.14956064274E+02  0.51100000000E-03 0.  1.
        -12    1    4    4    0    0  0.12515263512E+01  0.13662955068E+01  0.79380402257E+01  0.81514148615E+01  0.00000000000E+00 0.  1.
</event>
<event>
 8    1  0.2962813E-009  0.9118800E+02  0.7816164E-02  0.1184000E+00
        -11   -1    0    0    0    0  0.00000000000E+00  0.00000000000E+00  0.45593999997E+02  0.45594000000E+02  0.51100000000E-03 0. -1.
         11   -1    0    0    0    0 -0.00000000000E+00 -0.00000000000E+00 -0.45593999997E+02  0.45594000000E+02  0.51100000000E-03 0.  1.
         23    2    1    2    0    0  0.00000000000E+00  0.00000000000E+00  0.00000000000E+00  0.91188000000E+02  0.91188000000E+02 0.  0.
    9900012    2    3    3    0    0 -0.17759270867E+02 -0.36180025758E+02 -0.20117841100E+02  0.46142317675E+02  0.99999992156E+01 0.  0.
         12    1    3    3    0    0  0.17759270867E+02  0.36180025758E+02  0.20117841100E+02  0.45045682325E+02  0.00000000000E+00 0. -1.
         11    1    4    4    0    0 -0.60696932317E+01 -0.16391129145E+02 -0.82884382494E+01  0.19344469479E+02  0.51100000000E-03 0. -1.
        -11    1    4    4    0    0 -0.10694917129E+02 -0.15960896124E+02 -0.67583840091E+01  0.20366816446E+02  0.51100000000E-03 0.  1.
        -12    1    4    4    0    0 -0.99466050671E+00 -0.38280004891E+01 -0.50710188418E+01  0.64310317494E+01  0.00000000000E+00 0.  1.
</event>
<event>
 8    1  0.2962813E-009  0.9118800E+02  0.7816164E-02  0.1184000E+00
        -11   -1    0    0    0    0  0.00000000000E+00  0.00000000000E+00  0.45593999997E+02  0.45594000000E+02  0.51100000000E-03 0. -1.
         11   -1    0    0    0    0 -0.00000000000E+00 -0.00000000000E+00 -0.45593999997E+02  0.45594000000E+02  0.51100000000E-03 0.  1.
         23    2    1    2    0    0  0.00000000000E+00  0.00000000000E+00  0.00000000000E+00  0.91188000000E+02  0.91188000000E+02 0.  0.
    9900012    2    3    3    0    0 -0.24965188677E+02  0.34825174896E+02  0.13894609962E+02  0.46142316098E+02  0.99999848340E+01 0.  0.
        -12    1    3    3    0    0  0.24965188677E+02 -0.34825174896E+02 -0.13894609962E+02  0.45045683902E+02  0.00000000000E+00 0.  1.
         11    1    4    4    0    0 -0.23603375307E+01  0.23720535975E-01  0.99303401416E-01  0.23625446767E+01  0.51100000000E-03 0.  1.
        -11    1    4    4    0    0 -0.19515004755E+02  0.31216198636E+02  0.12368150924E+02  0.38836292633E+02  0.51100000000E-03 0. -1.
        -12    1    4    4    0    0 -0.30898463909E+01  0.35852557237E+01  0.14271556361E+01  0.49434787886E+01  0.00000000000E+00 0.  1.
</event>
<event>
 8    1  0.2962813E-009  0.9118800E+02  0.7816164E-02  0.1184000E+00
        -11   -1    0    0    0    0  0.00000000000E+00  0.00000000000E+00  0.45593999997E+02  0.45594000000E+02  0.51100000000E-03 0. -1.
         11   -1    0    0    0    0 -0.00000000000E+00 -0.00000000000E+00 -0.45593999997E+02  0.45594000000E+02  0.51100000000E-03 0.  1.
         23    2    1    2    0    0  0.00000000000E+00  0.00000000000E+00  0.00000000000E+00  0.91188000000E+02  0.91188000000E+02 0.  0.
    9900012    2    3    3    0    0  0.35725863165E+02  0.96388710787E+01  0.25687902465E+02  0.46142317992E+02  0.10000002102E+02 0.  0.
        -12    1    3    3    0    0 -0.35725863165E+02 -0.96388710787E+01 -0.25687902465E+02  0.45045682008E+02  0.00000000000E+00 0.  1.
         11    1    4    4    0    0  0.12206077176E+01  0.10437688913E+01  0.11801113493E+01  0.19929876459E+01  0.51100000000E-03 0. -1.
        -11    1    4    4    0    0  0.24411196527E+02  0.31752683633E+01  0.20423367648E+02  0.31985978043E+02  0.51100000000E-03 0.  1.
        -12    1    4    4    0    0  0.10094058920E+02  0.54198338240E+01  0.40844234686E+01  0.12163352303E+02  0.00000000000E+00 0.  1.
</event>
<event>
 8    1  0.3435339E-009  0.9118800E+02  0.7816164E-02  0.1184000E+00
        -11   -1    0    0    0    0  0.00000000000E+00  0.00000000000E+00  0.45593999997E+02  0.45594000000E+02  0.51100000000E-03 0. -1.
         11   -1    0    0    0    0 -0.00000000000E+00 -0.00000000000E+00 -0.45593999997E+02  0.45594000000E+02  0.51100000000E-03 0.  1.
         23    2    1    2    0    0  0.00000000000E+00  0.00000000000E+00  0.00000000000E+00  0.91188000000E+02  0.91188000000E+02 0.  0.
    9900012    2    3    3    0    0  0.69438966430E+01  0.38704248502E+01 -0.44338644520E+02  0.46142319997E+02  0.10000020386E+02 0.  0.
         12    1    3    3    0    0 -0.69438966430E+01 -0.38704248502E+01  0.44338644520E+02  0.45045680003E+02  0.00000000000E+00 0. -1.
         11    1    4    4    0    0  0.10501092930E+01 -0.16456347526E+01 -0.14860823462E+01  0.24534229695E+01  0.51100000000E-03 0. -1.
        -11    1    4    4    0    0  0.24844936113E+01  0.33594323100E+01 -0.27478778899E+02  0.27794635885E+02  0.51100000000E-03 0.  1.
         12    1    4    4    0    0  0.34092937386E+01  0.21566272929E+01 -0.15373783275E+02  0.15894261142E+02  0.00000000000E+00 0. -1.
</event>
<event>
 8    1  0.2962813E-009  0.9118800E+02  0.7816164E-02  0.1184000E+00
        -11   -1    0    0    0    0  0.00000000000E+00  0.00000000000E+00  0.45593999997E+02  0.45594000000E+02  0.51100000000E-03 0. -1.
         11   -1    0    0    0    0 -0.00000000000E+00 -0.00000000000E+00 -0.45593999997E+02  0.45594000000E+02  0.51100000000E-03 0.  1.
         23    2    1    2    0    0 -0.71054273576E-14 -0.35527136788E-14  0.10658141036E-13  0.91188000000E+02  0.91188000000E+02 0.  0.
    9900012    2    3    3    0    0 -0.27223211753E+02 -0.25088876424E+02  0.25662395372E+02  0.46142317469E+02  0.99999973400E+01 0.  0.
        -12    1    3    3    0    0  0.27223211753E+02  0.25088876424E+02 -0.25662395372E+02  0.45045682531E+02  0.00000000000E+00 0.  1.
         11    1    4    4    0    0 -0.22595733072E+02 -0.19263806599E+02  0.18062459691E+02  0.34755055000E+02  0.51100000000E-03 0. -1.
        -11    1    4    4    0    0 -0.43921340946E+01 -0.48061307588E+01  0.79579068215E+01  0.10281926668E+02  0.51100000000E-03 0.  1.
        -12    1    4    4    0    0 -0.23534458743E+00 -0.10189390660E+01 -0.35797113989E+00  0.11053358006E+01  0.00000000000E+00 0.  1.
</event>
<event>
 8    1  0.2962813E-009  0.9118800E+02  0.7816164E-02  0.1184000E+00
        -11   -1    0    0    0    0  0.00000000000E+00  0.00000000000E+00  0.45593999997E+02  0.45594000000E+02  0.51100000000E-03 0. -1.
         11   -1    0    0    0    0 -0.00000000000E+00 -0.00000000000E+00 -0.45593999997E+02  0.45594000000E+02  0.51100000000E-03 0.  1.
         23    2    1    2    0    0 -0.22204460493E-15  0.00000000000E+00  0.00000000000E+00  0.91188000000E+02  0.91188000000E+02 0.  0.
    9900012    2    3    3    0    0 -0.11380689683E+01  0.19830234726E+02 -0.40429940922E+02  0.46142317263E+02  0.99999954612E+01 0.  0.
         12    1    3    3    0    0  0.11380689683E+01 -0.19830234726E+02  0.40429940922E+02  0.45045682737E+02  0.00000000000E+00 0. -1.
         11    1    4    4    0    0 -0.32628776697E+01  0.70165981072E+01 -0.89945820691E+01  0.11865139129E+02  0.51100000000E-03 0. -1.
        -11    1    4    4    0    0  0.31379189542E+01  0.59883949713E+01 -0.16004626742E+02  0.17373988809E+02  0.51100000000E-03 0.  1.
         12    1    4    4    0    0 -0.10131102528E+01  0.68252416477E+01 -0.15430732110E+02  0.16903189326E+02  0.00000000000E+00 0. -1.
</event>
<event>
 8    1  0.2962813E-009  0.9118800E+02  0.7816164E-02  0.1184000E+00
        -11   -1    0    0    0    0  0.00000000000E+00  0.00000000000E+00  0.45593999997E+02  0.45594000000E+02  0.51100000000E-03 0. -1.
         11   -1    0    0    0    0 -0.00000000000E+00 -0.00000000000E+00 -0.45593999997E+02  0.45594000000E+02  0.51100000000E-03 0.  1.
         23    2    1    2    0    0  0.00000000000E+00 -0.35527136788E-14  0.00000000000E+00  0.91188000000E+02  0.91188000000E+02 0.  0.
    9900012    2    3    3    0    0 -0.88929202962E+01 -0.20821457646E+02 -0.38942218799E+02  0.46142317245E+02  0.99999952968E+01 0.  0.
         12    1    3    3    0    0  0.88929202962E+01  0.20821457646E+02  0.38942218799E+02  0.45045682755E+02  0.00000000000E+00 0. -1.
         11    1    4    4    0    0 -0.14733463109E+01 -0.79107675012E+01 -0.19039863375E+02  0.20670447248E+02  0.51100000000E-03 0. -1.
        -11    1    4    4    0    0 -0.79546469258E+01 -0.10233520556E+02 -0.17834560999E+02  0.22047061413E+02  0.51100000000E-03 0.  1.
        -12    1    4    4    0    0  0.53507294052E+00 -0.26771695886E+01 -0.20677944246E+01  0.34248085845E+01  0.00000000000E+00 0.  1.
</event>
<event>
 8    1  0.2962813E-009  0.9118800E+02  0.7816164E-02  0.1184000E+00
        -11   -1    0    0    0    0  0.00000000000E+00  0.00000000000E+00  0.45593999997E+02  0.45594000000E+02  0.51100000000E-03 0. -1.
         11   -1    0    0    0    0 -0.00000000000E+00 -0.00000000000E+00 -0.45593999997E+02  0.45594000000E+02  0.51100000000E-03 0.  1.
         23    2    1    2    0    0  0.22204460493E-15  0.00000000000E+00 -0.71054273576E-14  0.91188000000E+02  0.91188000000E+02 0.  0.
    9900012    2    3    3    0    0  0.15490896410E+01  0.60267351921E+01  0.44613812851E+02  0.46142317489E+02  0.99999975181E+01 0.  0.
        -12    1    3    3    0    0 -0.15490896410E+01 -0.60267351921E+01 -0.44613812851E+02  0.45045682511E+02  0.00000000000E+00 0.  1.
         11    1    4    4    0    0  0.19152841665E+01 -0.14148927189E-01  0.23683577208E+02  0.23760899462E+02  0.51100000000E-03 0. -1.
        -11    1    4    4    0    0  0.91152784305E+00  0.62875049064E+01  0.19149328690E+02  0.20175737670E+02  0.51100000000E-03 0.  1.
         12    1    4    4    0    0 -0.12777223686E+01 -0.24662078716E+00  0.17809069524E+01  0.22056803569E+01  0.00000000000E+00 0. -1.
</event>
<event>
 8    1  0.2962813E-009  0.9118800E+02  0.7816164E-02  0.1184000E+00
        -11   -1    0    0    0    0  0.00000000000E+00  0.00000000000E+00  0.45593999997E+02  0.45594000000E+02  0.51100000000E-03 0. -1.
         11   -1    0    0    0    0 -0.00000000000E+00 -0.00000000000E+00 -0.45593999997E+02  0.45594000000E+02  0.51100000000E-03 0.  1.
         23    2    1    2    0    0  0.00000000000E+00 -0.17763568394E-14  0.00000000000E+00  0.91188000000E+02  0.91188000000E+02 0.  0.
    9900012    2    3    3    0    0 -0.19917481371E+02  0.13383743754E+02  0.38121949490E+02  0.46142315479E+02  0.99999791877E+01 0.  0.
        -12    1    3    3    0    0  0.19917481371E+02 -0.13383743754E+02 -0.38121949490E+02  0.45045684521E+02  0.00000000000E+00 0.  1.
         11    1    4    4    0    0 -0.90349881716E+01  0.41554280425E+01  0.22415914364E+02  0.24522883405E+02  0.51100000000E-03 0. -1.
        -11    1    4    4    0    0 -0.66434793350E+01  0.60517382503E+01  0.68482936189E+01  0.11298605192E+02  0.51100000000E-03 0.  1.
         12    1    4    4    0    0 -0.42390138648E+01  0.31765774609E+01  0.88577415074E+01  0.10320826882E+02  0.00000000000E+00 0. -1.
</event>
<event>
 8    1  0.2962813E-009  0.9118800E+02  0.7816164E-02  0.1184000E+00
        -11   -1    0    0    0    0  0.00000000000E+00  0.00000000000E+00  0.45593999997E+02  0.45594000000E+02  0.51100000000E-03 0. -1.
         11   -1    0    0    0    0 -0.00000000000E+00 -0.00000000000E+00 -0.45593999997E+02  0.45594000000E+02  0.51100000000E-03 0.  1.
         23    2    1    2    0    0  0.00000000000E+00  0.00000000000E+00 -0.44408920985E-15  0.91188000000E+02  0.91188000000E+02 0.  0.
    9900012    2    3    3    0    0  0.22938637395E+01 -0.44927994888E+02 -0.23080038167E+01  0.46142318552E+02  0.10000007211E+02 0.  0.
         12    1    3    3    0    0 -0.22938637395E+01  0.44927994888E+02  0.23080038167E+01  0.45045681448E+02  0.00000000000E+00 0. -1.
         11    1    4    4    0    0  0.16589558857E+01 -0.17467980805E+01 -0.41564688822E+00  0.24446269166E+01  0.51100000000E-03 0. -1.
        -11    1    4    4    0    0 -0.37071927234E+00 -0.39515003198E+02 -0.32755471338E+01  0.39652265002E+02  0.51100000000E-03 0.  1.
        -12    1    4    4    0    0  0.10056271262E+01 -0.36661936093E+01  0.13831902053E+01  0.40454266329E+01  0.00000000000E+00 0.  1.
</event>
<event>
 8    1  0.2962813E-009  0.9118800E+02  0.7816164E-02  0.1184000E+00
        -11   -1    0    0    0    0  0.00000000000E+00  0.00000000000E+00  0.45593999997E+02  0.45594000000E+02  0.51100000000E-03 0. -1.
         11   -1    0    0    0    0 -0.00000000000E+00 -0.00000000000E+00 -0.45593999997E+02  0.45594000000E+02  0.51100000000E-03 0.  1.
         23    2    1    2    0    0 -0.88817841970E-15  0.88817841970E-15  0.00000000000E+00  0.91188000000E+02  0.91188000000E+02 0.  0.
    9900012    2    3    3    0    0 -0.55906407898E+01 -0.74162025391E+01  0.44077864816E+02  0.46142317728E+02  0.99999997007E+01 0.  0.
        -12    1    3    3    0    0  0.55906407898E+01  0.74162025391E+01 -0.44077864816E+02  0.45045682272E+02  0.00000000000E+00 0.  1.
         11    1    4    4    0    0  0.10286246430E+01  0.12204863724E+00  0.16538354329E+02  0.16570761259E+02  0.51100000000E-03 0. -1.
        -11    1    4    4    0    0 -0.56047393029E+01 -0.45500294797E+01  0.15084536838E+02  0.16723011774E+02  0.51100000000E-03 0.  1.
         12    1    4    4    0    0 -0.10145261300E+01 -0.29882216967E+01  0.12454973650E+02  0.12848544696E+02  0.00000000000E+00 0. -1.
</event>
<event>
 8    1  0.2962813E-009  0.9118800E+02  0.7816164E-02  0.1184000E+00
        -11   -1    0    0    0    0  0.00000000000E+00  0.00000000000E+00  0.45593999997E+02  0.45594000000E+02  0.51100000000E-03 0. -1.
         11   -1    0    0    0    0 -0.00000000000E+00 -0.00000000000E+00 -0.45593999997E+02  0.45594000000E+02  0.51100000000E-03 0.  1.
         23    2    1    2    0    0  0.00000000000E+00  0.00000000000E+00  0.00000000000E+00  0.91188000000E+02  0.91188000000E+02 0.  0.
    9900012    2    3    3    0    0 -0.23842750224E+02  0.17006554534E+02  0.34225918150E+02  0.46142321976E+02  0.10000038438E+02 0.  0.
        -12    1    3    3    0    0  0.23842750224E+02 -0.17006554534E+02 -0.34225918150E+02  0.45045678024E+02  0.00000000000E+00 0.  1.
         11    1    4    4    0    0 -0.85189486839E+01  0.62830886081E+01  0.87764064786E+01  0.13750454541E+02  0.51100000000E-03 0. -1.
        -11    1    4    4    0    0 -0.13770188200E+02  0.78623113347E+01  0.24141224914E+02  0.28883087841E+02  0.51100000000E-03 0.  1.
        -12    1    4    4    0    0 -0.15536133399E+01  0.28611545916E+01  0.13082867577E+01  0.35087795952E+01  0.00000000000E+00 0.  1.
</event>
<event>
 8    1  0.2962813E-009  0.9118800E+02  0.7816164E-02  0.1184000E+00
        -11   -1    0    0    0    0  0.00000000000E+00  0.00000000000E+00  0.45593999997E+02  0.45594000000E+02  0.51100000000E-03 0. -1.
         11   -1    0    0    0    0 -0.00000000000E+00 -0.00000000000E+00 -0.45593999997E+02  0.45594000000E+02  0.51100000000E-03 0.  1.
         23    2    1    2    0    0  0.00000000000E+00 -0.17763568394E-14 -0.35527136788E-14  0.91188000000E+02  0.91188000000E+02 0.  0.
    9900012    2    3    3    0    0  0.35711834948E+02  0.13047072178E+02  0.24156827003E+02  0.46142317203E+02  0.99999949141E+01 0.  0.
        -12    1    3    3    0    0 -0.35711834948E+02 -0.13047072178E+02 -0.24156827003E+02  0.45045682797E+02  0.00000000000E+00 0.  1.
         11    1    4    4    0    0  0.16011591402E+02  0.44399147254E+01  0.96926860213E+01  0.19236217522E+02  0.51100000000E-03 0. -1.
        -11    1    4    4    0    0  0.10498461763E+01  0.22592356889E+01  0.36874696017E+01  0.44501410334E+01  0.51100000000E-03 0.  1.
        -12    1    4    4    0    0  0.18650397369E+02  0.63479217637E+01  0.10776671380E+02  0.22455958648E+02  0.00000000000E+00 0.  1.
</event>
<event>
 8    1  0.2962813E-009  0.9118800E+02  0.7816164E-02  0.1184000E+00
        -11   -1    0    0    0    0  0.00000000000E+00  0.00000000000E+00  0.45593999997E+02  0.45594000000E+02  0.51100000000E-03 0. -1.
         11   -1    0    0    0    0 -0.00000000000E+00 -0.00000000000E+00 -0.45593999997E+02  0.45594000000E+02  0.51100000000E-03 0.  1.
         23    2    1    2    0    0 -0.17763568394E-14  0.17763568394E-14 -0.71054273576E-14  0.91188000000E+02  0.91188000000E+02 0.  0.
    9900012    2    3    3    0    0  0.12287546515E+02 -0.89972961361E+01  0.42393140356E+02  0.46142317784E+02  0.10000000206E+02 0.  0.
        -12    1    3    3    0    0 -0.12287546515E+02  0.89972961361E+01 -0.42393140356E+02  0.45045682216E+02  0.00000000000E+00 0.  1.
         11    1    4    4    0    0  0.95085638289E+00  0.35960542609E+00  0.58760358746E+01  0.59633247257E+01  0.51100000000E-03 0. -1.
        -11    1    4    4    0    0 -0.72938763280E+00  0.72544927404E+00  0.19967986818E+01  0.22462164199E+01  0.51100000000E-03 0.  1.
         12    1    4    4    0    0  0.12066077764E+02 -0.10082350836E+02  0.34520305799E+02  0.37932776638E+02  0.00000000000E+00 0. -1.
</event>
<event>
 8    1  0.2962813E-009  0.9118800E+02  0.7816164E-02  0.1184000E+00
        -11   -1    0    0    0    0  0.00000000000E+00  0.00000000000E+00  0.45593999997E+02  0.45594000000E+02  0.51100000000E-03 0. -1.
         11   -1    0    0    0    0 -0.00000000000E+00 -0.00000000000E+00 -0.45593999997E+02  0.45594000000E+02  0.51100000000E-03 0.  1.
         23    2    1    2    0    0  0.17763568394E-14 -0.17763568394E-14  0.71054273576E-14  0.91188000000E+02  0.91188000000E+02 0.  0.
    9900012    2    3    3    0    0  0.69184437410E+01 -0.13485774747E+02 -0.42419128513E+02  0.46142318208E+02  0.10000004077E+02 0.  0.
         12    1    3    3    0    0 -0.69184437410E+01  0.13485774747E+02  0.42419128513E+02  0.45045681792E+02  0.00000000000E+00 0. -1.
         11    1    4    4    0    0  0.67325804787E+01 -0.10656007754E+02 -0.32401016599E+02  0.34766420841E+02  0.51100000000E-03 0. -1.
        -11    1    4    4    0    0 -0.16584143138E+01 -0.10369559552E+01 -0.14630836572E+01  0.24425866900E+01  0.51100000000E-03 0.  1.
         12    1    4    4    0    0  0.18442775760E+01 -0.17928110377E+01 -0.85550282565E+01  0.89333106777E+01  0.00000000000E+00 0. -1.
</event>
