<event>
 7    1  0.1344618E-011  0.5930191E+02  0.7816164E-02  0.1266605E+00
        -11   -1    0    0    0    0  0.00000000000E+00  0.00000000000E+00  0.45593999997E+02  0.45594000000E+02  0.51100000000E-03 0.  1.
         11   -1    0    0    0    0 -0.00000000000E+00 -0.00000000000E+00 -0.45593999997E+02  0.45594000000E+02  0.51100000000E-03 0. -1.
    9900012    2    1    2    0    0 -0.21747265875E+02  0.22487565980E+02  0.61715695593E+01  0.59301914202E+02  0.49999945604E+02 0.  0.
        -12    1    1    2    0    0  0.21747265875E+02 -0.22487565980E+02 -0.61715695593E+01  0.31886085798E+02  0.00000000000E+00 0.  1.
         11    1    3    3    0    0 -0.15859474722E+02  0.40026134665E+01  0.37174911893E+01  0.16773896209E+02  0.51100000000E-03 0. -1.
        -11    1    3    3    0    0 -0.15248704070E+02  0.18585987505E+02  0.13877513339E+02  0.27758733474E+02  0.51100000000E-03 0.  1.
         12    1    3    3    0    0  0.93609129170E+01 -0.10103499214E+00 -0.11423434969E+02  0.14769284519E+02  0.00000000000E+00 0. -1.
</event>
<event>
 7    1  0.1344618E-011  0.5930195E+02  0.7816164E-02  0.1266605E+00
        -11   -1    0    0    0    0  0.00000000000E+00  0.00000000000E+00  0.45593999997E+02  0.45594000000E+02  0.51100000000E-03 0. -1.
         11   -1    0    0    0    0 -0.00000000000E+00 -0.00000000000E+00 -0.45593999997E+02  0.45594000000E+02  0.51100000000E-03 0.  1.
    9900012    2    1    2    0    0 -0.90888205453E+01 -0.18958240754E+02  0.23972869991E+02  0.59301952158E+02  0.50000014827E+02 0.  0.
        -12    1    1    2    0    0  0.90888205453E+01  0.18958240754E+02 -0.23972869991E+02  0.31886047842E+02  0.00000000000E+00 0.  1.
         11    1    3    3    0    0 -0.58542295042E+01 -0.36183112611E+01  0.81820832302E+01  0.10691616609E+02  0.51100000000E-03 0. -1.
        -11    1    3    3    0    0 -0.11790726246E+02 -0.25610325333E+02  0.20032233443E+02  0.34586129677E+02  0.51100000000E-03 0.  1.
        -12    1    3    3    0    0  0.85561352051E+01  0.10270395840E+02 -0.42414466821E+01  0.14024205871E+02  0.00000000000E+00 0.  1.
</event>
<event>
 7    1  0.1344618E-011  0.5930195E+02  0.7816164E-02  0.1266605E+00
        -11   -1    0    0    0    0  0.00000000000E+00  0.00000000000E+00  0.45593999997E+02  0.45594000000E+02  0.51100000000E-03 0. -1.
         11   -1    0    0    0    0 -0.00000000000E+00 -0.00000000000E+00 -0.45593999997E+02  0.45594000000E+02  0.51100000000E-03 0.  1.
    9900012    2    1    2    0    0 -0.16884964360E+02  0.26671926153E+02  0.44974138446E+01  0.59301946662E+02  0.50000004805E+02 0.  0.
        -12    1    1    2    0    0  0.16884964360E+02 -0.26671926153E+02 -0.44974138446E+01  0.31886053338E+02  0.00000000000E+00 0.  1.
         11    1    3    3    0    0 -0.21171121531E+02  0.20140229700E+02 -0.22959051825E+01  0.29310687814E+02  0.51100000000E-03 0.  1.
        -11    1    3    3    0    0 -0.11884201128E+02  0.28040019337E+01  0.42845460589E+00  0.12218029174E+02  0.51100000000E-03 0. -1.
         12    1    3    3    0    0  0.16170358299E+02  0.37276945191E+01  0.63648644213E+01  0.17773229674E+02  0.00000000000E+00 0. -1.
</event>
<event>
 7    1  0.1344618E-011  0.5930192E+02  0.7816164E-02  0.1266605E+00
        -11   -1    0    0    0    0  0.00000000000E+00  0.00000000000E+00  0.45593999997E+02  0.45594000000E+02  0.51100000000E-03 0.  1.
         11   -1    0    0    0    0 -0.00000000000E+00 -0.00000000000E+00 -0.45593999997E+02  0.45594000000E+02  0.51100000000E-03 0. -1.
    9900012    2    1    2    0    0  0.30578953406E+01  0.31693386455E+02  0.17032134593E+01  0.59301915183E+02  0.49999947393E+02 0.  0.
        -12    1    1    2    0    0 -0.30578953406E+01 -0.31693386455E+02 -0.17032134593E+01  0.31886084817E+02  0.00000000000E+00 0.  1.
         11    1    3    3    0    0  0.39196037276E+01  0.16105987119E+02  0.13747640833E+02  0.21535174557E+02  0.51100000000E-03 0. -1.
        -11    1    3    3    0    0  0.35805496960E+01  0.22174649037E+02  0.10100515165E+01  0.22484563602E+02  0.51100000000E-03 0.  1.
         12    1    3    3    0    0 -0.44422580829E+01 -0.65872497005E+01 -0.13054478891E+02  0.15282177024E+02  0.00000000000E+00 0. -1.
</event>
<event>
 7    1  0.1344618E-011  0.5930194E+02  0.7816164E-02  0.1266605E+00
        -11   -1    0    0    0    0  0.00000000000E+00  0.00000000000E+00  0.45593999997E+02  0.45594000000E+02  0.51100000000E-03 0.  1.
         11   -1    0    0    0    0 -0.00000000000E+00 -0.00000000000E+00 -0.45593999997E+02  0.45594000000E+02  0.51100000000E-03 0. -1.
    9900012    2    1    2    0    0 -0.21576370081E+01 -0.22538277282E+01 -0.31733039486E+02  0.59301938282E+02  0.49999989521E+02 0.  0.
        -12    1    1    2    0    0  0.21576370081E+01  0.22538277282E+01  0.31733039486E+02  0.31886061718E+02  0.00000000000E+00 0.  1.
         11    1    3    3    0    0  0.74247956880E+01  0.11241013397E+02 -0.12572726340E+02  0.18427192437E+02  0.51100000000E-03 0. -1.
        -11    1    3    3    0    0  0.40270389733E+00  0.99584035195E+01 -0.20526402112E+01  0.10175721261E+02  0.51100000000E-03 0.  1.
         12    1    3    3    0    0 -0.99851365935E+01 -0.23453244645E+02 -0.17107672934E+02  0.30699024584E+02  0.00000000000E+00 0. -1.
</event>
<event>
 7    1  0.1344618E-011  0.5930194E+02  0.7816164E-02  0.1266605E+00
        -11   -1    0    0    0    0  0.00000000000E+00  0.00000000000E+00  0.45593999997E+02  0.45594000000E+02  0.51100000000E-03 0.  1.
         11   -1    0    0    0    0 -0.00000000000E+00 -0.00000000000E+00 -0.45593999997E+02  0.45594000000E+02  0.51100000000E-03 0. -1.
    9900012    2    1    2    0    0  0.15684066642E+02 -0.21206399159E+02  0.17917011002E+02  0.59301943565E+02  0.49999999157E+02 0.  0.
        -12    1    1    2    0    0 -0.15684066642E+02  0.21206399159E+02 -0.17917011002E+02  0.31886056435E+02  0.00000000000E+00 0.  1.
         11    1    3    3    0    0  0.63256914155E+01 -0.47405682294E+01  0.60234650096E+01  0.99382840573E+01  0.51100000000E-03 0. -1.
        -11    1    3    3    0    0  0.13624990665E+01  0.13382479489E+02 -0.47500844495E+01  0.14265709359E+02  0.51100000000E-03 0.  1.
         12    1    3    3    0    0  0.79958761598E+01 -0.29848310418E+02  0.16643630442E+02  0.35097950149E+02  0.00000000000E+00 0. -1.
</event>
<event>
 7    1  0.1344618E-011  0.5930194E+02  0.7816164E-02  0.1266605E+00
        -11   -1    0    0    0    0  0.00000000000E+00  0.00000000000E+00  0.45593999997E+02  0.45594000000E+02  0.51100000000E-03 0.  1.
         11   -1    0    0    0    0 -0.00000000000E+00 -0.00000000000E+00 -0.45593999997E+02  0.45594000000E+02  0.51100000000E-03 0. -1.
    9900012    2    1    2    0    0 -0.13330425825E+02 -0.11735078950E+02 -0.26482231424E+02  0.59301938596E+02  0.49999990094E+02 0.  0.
        -12    1    1    2    0    0  0.13330425825E+02  0.11735078950E+02  0.26482231424E+02  0.31886061404E+02  0.00000000000E+00 0.  1.
         11    1    3    3    0    0 -0.11042824192E+02  0.91829201734E+01 -0.34736900162E+01  0.14776214388E+02  0.51100000000E-03 0. -1.
        -11    1    3    3    0    0  0.72721286913E+01 -0.22786968261E+02 -0.55824978919E+01  0.24562045135E+02  0.51100000000E-03 0.  1.
         12    1    3    3    0    0 -0.95597303241E+01  0.18689691376E+01 -0.17426043516E+02  0.19963679073E+02  0.00000000000E+00 0. -1.
</event>
<event>
 7    1  0.1344618E-011  0.5930194E+02  0.7816164E-02  0.1266605E+00
        -11   -1    0    0    0    0  0.00000000000E+00  0.00000000000E+00  0.45593999997E+02  0.45594000000E+02  0.51100000000E-03 0.  1.
         11   -1    0    0    0    0 -0.00000000000E+00 -0.00000000000E+00 -0.45593999997E+02  0.45594000000E+02  0.51100000000E-03 0. -1.
    9900012    2    1    2    0    0  0.49221233474E+01 -0.19666345508E+02 -0.24611543914E+02  0.59301944462E+02  0.50000000793E+02 0.  0.
        -12    1    1    2    0    0 -0.49221233474E+01  0.19666345508E+02  0.24611543914E+02  0.31886055538E+02  0.00000000000E+00 0.  1.
         11    1    3    3    0    0  0.13176767126E+02  0.26040335341E+00 -0.29797443821E+02  0.32581937639E+02  0.51100000000E-03 0. -1.
        -11    1    3    3    0    0 -0.93869651259E+00 -0.40182655918E+01 -0.49842170838E+01  0.64707055032E+01  0.51100000000E-03 0.  1.
        -12    1    3    3    0    0 -0.73159472665E+01 -0.15908483270E+02  0.10170116990E+02  0.20249301320E+02  0.00000000000E+00 0.  1.
</event>
<event>
 7    1  0.1344618E-011  0.5930194E+02  0.7816164E-02  0.1266605E+00
        -11   -1    0    0    0    0  0.00000000000E+00  0.00000000000E+00  0.45593999997E+02  0.45594000000E+02  0.51100000000E-03 0.  1.
         11   -1    0    0    0    0 -0.00000000000E+00 -0.00000000000E+00 -0.45593999997E+02  0.45594000000E+02  0.51100000000E-03 0. -1.
    9900012    2    1    2    0    0  0.21397750167E+02 -0.98216363900E-01 -0.23639948642E+02  0.59301944576E+02  0.50000001001E+02 0.  0.
        -12    1    1    2    0    0 -0.21397750167E+02  0.98216363900E-01  0.23639948642E+02  0.31886055424E+02  0.00000000000E+00 0.  1.
         11    1    3    3    0    0 -0.40196642934E+01 -0.21245897549E+01 -0.12991270410E+02  0.13763890794E+02  0.51100000000E-03 0. -1.
        -11    1    3    3    0    0 -0.85070778883E+01 -0.45380227223E+00  0.27902388199E+01  0.89644711853E+01  0.51100000000E-03 0.  1.
         12    1    3    3    0    0  0.33924492349E+02  0.24801756633E+01 -0.13438917052E+02  0.36573582597E+02  0.00000000000E+00 0. -1.
</event>
<event>
 7    1  0.1344618E-011  0.5930194E+02  0.7816164E-02  0.1266605E+00
        -11   -1    0    0    0    0  0.00000000000E+00  0.00000000000E+00  0.45593999997E+02  0.45594000000E+02  0.51100000000E-03 0. -1.
         11   -1    0    0    0    0 -0.00000000000E+00 -0.00000000000E+00 -0.45593999997E+02  0.45594000000E+02  0.51100000000E-03 0.  1.
    9900012    2    1    2    0    0 -0.34994477896E+01 -0.21696203425E+02  0.23103011617E+02  0.59301944683E+02  0.50000001195E+02 0.  0.
        -12    1    1    2    0    0  0.34994477896E+01  0.21696203425E+02 -0.23103011617E+02  0.31886055317E+02  0.00000000000E+00 0.  1.
         11    1    3    3    0    0  0.12801762266E+02 -0.21839115251E+01  0.70296474142E+01  0.14767211304E+02  0.51100000000E-03 0. -1.
        -11    1    3    3    0    0  0.75537383957E+01  0.15566529898E+01 -0.19548928768E+01  0.79563646662E+01  0.51100000000E-03 0.  1.
        -12    1    3    3    0    0 -0.23854948451E+02 -0.21068944890E+02  0.18028257080E+02  0.36578368713E+02  0.00000000000E+00 0.  1.
</event>
<event>
 7    1  0.1344618E-011  0.5930195E+02  0.7816164E-02  0.1266605E+00
        -11   -1    0    0    0    0  0.00000000000E+00  0.00000000000E+00  0.45593999997E+02  0.45594000000E+02  0.51100000000E-03 0. -1.
         11   -1    0    0    0    0 -0.00000000000E+00 -0.00000000000E+00 -0.45593999997E+02  0.45594000000E+02  0.51100000000E-03 0.  1.
    9900012    2    1    2    0    0  0.49314196905E+01  0.31473349768E+02 -0.13526479603E+01  0.59301948154E+02  0.50000007526E+02 0.  0.
        -12    1    1    2    0    0 -0.49314196905E+01 -0.31473349768E+02  0.13526479603E+01  0.31886051846E+02  0.00000000000E+00 0.  1.
         11    1    3    3    0    0 -0.27083505654E+01 -0.87583117989E+01  0.43710205378E+01  0.10156230066E+02  0.51100000000E-03 0. -1.
        -11    1    3    3    0    0 -0.46459609576E+00  0.13172441249E+02 -0.14472509885E+02  0.19575050463E+02  0.51100000000E-03 0.  1.
         12    1    3    3    0    0  0.81043663517E+01  0.27059220318E+02  0.87488413874E+01  0.29570667625E+02  0.00000000000E+00 0. -1.
</event>
<event>
 7    1  0.1344618E-011  0.5930204E+02  0.7816164E-02  0.1266604E+00
        -11   -1    0    0    0    0  0.00000000000E+00  0.00000000000E+00  0.45593999997E+02  0.45594000000E+02  0.51100000000E-03 0.  1.
         11   -1    0    0    0    0 -0.00000000000E+00 -0.00000000000E+00 -0.45593999997E+02  0.45594000000E+02  0.51100000000E-03 0. -1.
    9900012    2    1    2    0    0  0.25084447462E+00 -0.91659875090E+01 -0.30539087696E+02  0.59302044984E+02  0.50000184120E+02 0.  0.
        -12    1    1    2    0    0 -0.25084447462E+00  0.91659875090E+01  0.30539087696E+02  0.31885955016E+02  0.00000000000E+00 0.  1.
         11    1    3    3    0    0  0.51958384589E+01  0.44576308473E+01 -0.12003879408E+02  0.13818839718E+02  0.51100000000E-03 0. -1.
        -11    1    3    3    0    0 -0.61853788933E+01 -0.10587830242E+02 -0.30608029732E+02  0.32972906236E+02  0.51100000000E-03 0.  1.
        -12    1    3    3    0    0  0.12403849090E+01 -0.30357881147E+01  0.12072821444E+02  0.12510299030E+02  0.00000000000E+00 0.  1.
</event>
<event>
 7    1  0.1344618E-011  0.5930196E+02  0.7816164E-02  0.1266605E+00
        -11   -1    0    0    0    0  0.00000000000E+00  0.00000000000E+00  0.45593999997E+02  0.45594000000E+02  0.51100000000E-03 0. -1.
         11   -1    0    0    0    0 -0.00000000000E+00 -0.00000000000E+00 -0.45593999997E+02  0.45594000000E+02  0.51100000000E-03 0.  1.
    9900012    2    1    2    0    0  0.95047953112E+01  0.26858102358E+02 -0.14318534814E+02  0.59301964884E+02  0.50000038037E+02 0.  0.
        -12    1    1    2    0    0 -0.95047953112E+01 -0.26858102358E+02  0.14318534814E+02  0.31886035116E+02  0.00000000000E+00 0.  1.
         11    1    3    3    0    0  0.16073882928E+01  0.12601080550E+01  0.12237163935E+02  0.12406439895E+02  0.51100000000E-03 0. -1.
        -11    1    3    3    0    0  0.12848505306E+02  0.12844826644E+02 -0.27744229155E+02  0.33163472553E+02  0.51100000000E-03 0.  1.
         12    1    3    3    0    0 -0.49510982879E+01  0.12753167658E+02  0.11885304052E+01  0.13732052436E+02  0.00000000000E+00 0. -1.
</event>
<event>
 7    1  0.1344618E-011  0.5930195E+02  0.7816164E-02  0.1266605E+00
        -11   -1    0    0    0    0  0.00000000000E+00  0.00000000000E+00  0.45593999997E+02  0.45594000000E+02  0.51100000000E-03 0.  1.
         11   -1    0    0    0    0 -0.00000000000E+00 -0.00000000000E+00 -0.45593999997E+02  0.45594000000E+02  0.51100000000E-03 0. -1.
    9900012    2    1    2    0    0 -0.60409037890E+01 -0.26361676270E+02 -0.16890527804E+02  0.59301946248E+02  0.50000004050E+02 0.  0.
        -12    1    1    2    0    0  0.60409037890E+01  0.26361676270E+02  0.16890527804E+02  0.31886053752E+02  0.00000000000E+00 0.  1.
         11    1    3    3    0    0 -0.87232058650E+01  0.15324182991E+01  0.45152857379E+01  0.99413496047E+01  0.51100000000E-03 0. -1.
        -11    1    3    3    0    0  0.16326752804E+02 -0.44114568536E+01 -0.50201451105E+01  0.17641589098E+02  0.51100000000E-03 0.  1.
         12    1    3    3    0    0 -0.13644450728E+02 -0.23482637716E+02 -0.16385668431E+02  0.31719007546E+02  0.00000000000E+00 0. -1.
</event>
<event>
 7    1  0.1344618E-011  0.5930197E+02  0.7816164E-02  0.1266605E+00
        -11   -1    0    0    0    0  0.00000000000E+00  0.00000000000E+00  0.45593999997E+02  0.45594000000E+02  0.51100000000E-03 0.  1.
         11   -1    0    0    0    0 -0.00000000000E+00 -0.00000000000E+00 -0.45593999997E+02  0.45594000000E+02  0.51100000000E-03 0. -1.
    9900012    2    1    2    0    0 -0.25950299243E+02  0.18433834930E+02  0.18694694982E+01  0.59301965169E+02  0.50000038557E+02 0.  0.
        -12    1    1    2    0    0  0.25950299243E+02 -0.18433834930E+02 -0.18694694982E+01  0.31886034831E+02  0.00000000000E+00 0.  1.
         11    1    3    3    0    0 -0.26118030974E+02  0.29549146392E+02 -0.39000664852E+01  0.39629712506E+02  0.51100000000E-03 0. -1.
        -11    1    3    3    0    0  0.26815497609E+01 -0.41638386471E+01 -0.47188258313E+01  0.68407294119E+01  0.51100000000E-03 0.  1.
        -12    1    3    3    0    0 -0.25138180302E+01 -0.69514728155E+01  0.10488361815E+02  0.12831523251E+02  0.00000000000E+00 0.  1.
</event>
<event>
 7    1  0.1344618E-011  0.5930192E+02  0.7816164E-02  0.1266605E+00
        -11   -1    0    0    0    0  0.00000000000E+00  0.00000000000E+00  0.45593999997E+02  0.45594000000E+02  0.51100000000E-03 0.  1.
         11   -1    0    0    0    0 -0.00000000000E+00 -0.00000000000E+00 -0.45593999997E+02  0.45594000000E+02  0.51100000000E-03 0. -1.
    9900012    2    1    2    0    0  0.39149940537E+01  0.31310381490E+02 -0.45885490838E+01  0.59301922314E+02  0.49999960399E+02 0.  0.
        -12    1    1    2    0    0 -0.39149940537E+01 -0.31310381490E+02  0.45885490838E+01  0.31886077686E+02  0.00000000000E+00 0.  1.
         11    1    3    3    0    0  0.11923054094E+02  0.22535386714E+02 -0.16872220628E+01  0.25550921546E+02  0.51100000000E-03 0. -1.
        -11    1    3    3    0    0 -0.68206521124E+00  0.94010755204E+01  0.13101500082E+02  0.16139849397E+02  0.51100000000E-03 0.  1.
        -12    1    3    3    0    0 -0.73259948294E+01 -0.62608074453E+00 -0.16002827103E+02  0.17611151371E+02  0.00000000000E+00 0.  1.
</event>
<event>
 7    1  0.1344618E-011  0.5930196E+02  0.7816164E-02  0.1266605E+00
        -11   -1    0    0    0    0  0.00000000000E+00  0.00000000000E+00  0.45593999997E+02  0.45594000000E+02  0.51100000000E-03 0.  1.
         11   -1    0    0    0    0 -0.00000000000E+00 -0.00000000000E+00 -0.45593999997E+02  0.45594000000E+02  0.51100000000E-03 0. -1.
    9900012    2    1    2    0    0  0.23100093831E+02 -0.60985861827E+00 -0.21971192440E+02  0.59301959797E+02  0.50000028760E+02 0.  0.
        -12    1    1    2    0    0 -0.23100093831E+02  0.60985861827E+00  0.21971192440E+02  0.31886040203E+02  0.00000000000E+00 0.  1.
         11    1    3    3    0    0  0.75473139353E+01  0.95606738272E+01 -0.49966465694E+01  0.13165671607E+02  0.51100000000E-03 0. -1.
        -11    1    3    3    0    0 -0.10135669081E+02  0.21979392911E+01 -0.14067725895E+02  0.17477518044E+02  0.51100000000E-03 0.  1.
         12    1    3    3    0    0  0.25688448977E+02 -0.12368471737E+02 -0.29068199759E+01  0.28658770146E+02  0.00000000000E+00 0. -1.
</event>
<event>
 7    1  0.1344618E-011  0.5930216E+02  0.7816164E-02  0.1266604E+00
        -11   -1    0    0    0    0  0.00000000000E+00  0.00000000000E+00  0.45593999997E+02  0.45594000000E+02  0.51100000000E-03 0.  1.
         11   -1    0    0    0    0 -0.00000000000E+00 -0.00000000000E+00 -0.45593999997E+02  0.45594000000E+02  0.51100000000E-03 0. -1.
    9900012    2    1    2    0    0 -0.74154317104E+01  0.25946680835E+01 -0.30902846974E+02  0.59302158612E+02  0.50000391349E+02 0.  0.
        -12    1    1    2    0    0  0.74154317104E+01 -0.25946680835E+01  0.30902846974E+02  0.31885841388E+02  0.00000000000E+00 0.  1.
         11    1    3    3    0    0 -0.15487077412E+02  0.91134856956E+00 -0.70650211895E+01  0.17046836881E+02  0.51100000000E-03 0. -1.
        -11    1    3    3    0    0 -0.44587239283E+01  0.12550601990E+02 -0.21796510963E+02  0.25543800027E+02  0.51100000000E-03 0.  1.
        -12    1    3    3    0    0  0.12530369630E+02 -0.10867282476E+02 -0.20413148215E+01  0.16711521704E+02  0.00000000000E+00 0.  1.
</event>
<event>
 7    1  0.1344618E-011  0.5930181E+02  0.7816164E-02  0.1266605E+00
        -11   -1    0    0    0    0  0.00000000000E+00  0.00000000000E+00  0.45593999997E+02  0.45594000000E+02  0.51100000000E-03 0. -1.
         11   -1    0    0    0    0 -0.00000000000E+00 -0.00000000000E+00 -0.45593999997E+02  0.45594000000E+02  0.51100000000E-03 0.  1.
    9900012    2    1    2    0    0 -0.16122366418E+02 -0.27468994979E+02  0.15009057270E+01  0.59301810167E+02  0.49999755870E+02 0.  0.
        -12    1    1    2    0    0  0.16122366418E+02  0.27468994979E+02 -0.15009057270E+01  0.31886189833E+02  0.00000000000E+00 0.  1.
         11    1    3    3    0    0 -0.22854290123E+02 -0.29700732393E+02  0.57136573017E+01  0.37909074926E+02  0.51100000000E-03 0. -1.
        -11    1    3    3    0    0  0.27495974180E+01 -0.63155740694E+01  0.47628112874E+01  0.83744333186E+01  0.51100000000E-03 0.  1.
         12    1    3    3    0    0  0.39823262877E+01  0.85473114835E+01 -0.89755628621E+01  0.13018301923E+02  0.00000000000E+00 0. -1.
</event>
<event>
 7    1  0.1344618E-011  0.5930191E+02  0.7816164E-02  0.1266605E+00
        -11   -1    0    0    0    0  0.00000000000E+00  0.00000000000E+00  0.45593999997E+02  0.45594000000E+02  0.51100000000E-03 0.  1.
         11   -1    0    0    0    0 -0.00000000000E+00 -0.00000000000E+00 -0.45593999997E+02  0.45594000000E+02  0.51100000000E-03 0. -1.
    9900012    2    1    2    0    0 -0.18094276340E+02 -0.13213985494E+02 -0.22687231357E+02  0.59301910313E+02  0.49999938512E+02 0.  0.
        -12    1    1    2    0    0  0.18094276340E+02  0.13213985494E+02  0.22687231357E+02  0.31886089687E+02  0.00000000000E+00 0.  1.
         11    1    3    3    0    0  0.98235304361E+01 -0.14648062976E+01 -0.15348901561E+02  0.18282127533E+02  0.51100000000E-03 0.  1.
        -11    1    3    3    0    0 -0.15959954249E+02 -0.13629847809E+02 -0.15783198410E+02  0.26260278811E+02  0.51100000000E-03 0. -1.
        -12    1    3    3    0    0 -0.11957852527E+02  0.18806686123E+01  0.84448686149E+01  0.14759503969E+02  0.00000000000E+00 0.  1.
</event>
<event>
 7    1  0.1344618E-011  0.5930192E+02  0.7816164E-02  0.1266605E+00
        -11   -1    0    0    0    0  0.00000000000E+00  0.00000000000E+00  0.45593999997E+02  0.45594000000E+02  0.51100000000E-03 0. -1.
         11   -1    0    0    0    0 -0.00000000000E+00 -0.00000000000E+00 -0.45593999997E+02  0.45594000000E+02  0.51100000000E-03 0.  1.
    9900012    2    1    2    0    0  0.92244117030E+01 -0.30179644077E+02  0.45630807519E+01  0.59301915358E+02  0.49999947713E+02 0.  0.
        -12    1    1    2    0    0 -0.92244117030E+01  0.30179644077E+02 -0.45630807519E+01  0.31886084642E+02  0.00000000000E+00 0.  1.
         11    1    3    3    0    0 -0.22182085474E+01 -0.19823070204E+02  0.50161549085E+00  0.19953099505E+02  0.51100000000E-03 0. -1.
        -11    1    3    3    0    0  0.15551089918E+02 -0.13973810973E+02 -0.10785349822E+02  0.23525041165E+02  0.51100000000E-03 0.  1.
        -12    1    3    3    0    0 -0.41084696677E+01  0.36172371012E+01  0.14846815083E+02  0.15823774688E+02  0.00000000000E+00 0.  1.
</event>
<event>
 7    1  0.1344618E-011  0.5930204E+02  0.7816164E-02  0.1266604E+00
        -11   -1    0    0    0    0  0.00000000000E+00  0.00000000000E+00  0.45593999997E+02  0.45594000000E+02  0.51100000000E-03 0. -1.
         11   -1    0    0    0    0 -0.00000000000E+00 -0.00000000000E+00 -0.45593999997E+02  0.45594000000E+02  0.51100000000E-03 0.  1.
    9900012    2    1    2    0    0 -0.39964772241E+00  0.85086631371E+01  0.30727140839E+02  0.59302043046E+02  0.50000180586E+02 0.  0.
        -12    1    1    2    0    0  0.39964772241E+00 -0.85086631371E+01 -0.30727140839E+02  0.31885956954E+02  0.00000000000E+00 0.  1.
         11    1    3    3    0    0 -0.99199839538E+01  0.14516575030E+02 -0.34869787101E+01  0.17924732997E+02  0.51100000000E-03 0. -1.
        -11    1    3    3    0    0 -0.81029088290E+00 -0.20593105957E+00 -0.25854900929E+01  0.27173034792E+01  0.51100000000E-03 0.  1.
        -12    1    3    3    0    0  0.10330627114E+02 -0.58019808330E+01  0.36799609642E+02  0.38660006570E+02  0.00000000000E+00 0.  1.
</event>
<event>
 7    1  0.1344618E-011  0.5930187E+02  0.7816164E-02  0.1266605E+00
        -11   -1    0    0    0    0  0.00000000000E+00  0.00000000000E+00  0.45593999997E+02  0.45594000000E+02  0.51100000000E-03 0. -1.
         11   -1    0    0    0    0 -0.00000000000E+00 -0.00000000000E+00 -0.45593999997E+02  0.45594000000E+02  0.51100000000E-03 0.  1.
    9900012    2    1    2    0    0  0.24983239788E+01 -0.19089485888E+02  0.25418009496E+02  0.59301869772E+02  0.49999864575E+02 0.  0.
        -12    1    1    2    0    0 -0.24983239788E+01  0.19089485888E+02 -0.25418009496E+02  0.31886130228E+02  0.00000000000E+00 0.  1.
         11    1    3    3    0    0  0.79262307818E+01  0.69665662863E+01  0.38642800313E+01  0.11237919765E+02  0.51100000000E-03 0. -1.
        -11    1    3    3    0    0 -0.10303945736E+01  0.39398278582E+01 -0.58967449320E+01  0.71662792008E+01  0.51100000000E-03 0.  1.
         12    1    3    3    0    0 -0.43975122294E+01 -0.29995880032E+02  0.27450474397E+02  0.40897670806E+02  0.00000000000E+00 0. -1.
</event>
<event>
 7    1  0.1344618E-011  0.5930175E+02  0.7816164E-02  0.1266605E+00
        -11   -1    0    0    0    0  0.00000000000E+00  0.00000000000E+00  0.45593999997E+02  0.45594000000E+02  0.51100000000E-03 0. -1.
         11   -1    0    0    0    0 -0.00000000000E+00 -0.00000000000E+00 -0.45593999997E+02  0.45594000000E+02  0.51100000000E-03 0.  1.
    9900012    2    1    2    0    0 -0.76999397433E+01  0.20889876908E+02  0.22826672219E+02  0.59301749140E+02  0.49999644571E+02 0.  0.
        -12    1    1    2    0    0  0.76999397433E+01 -0.20889876908E+02 -0.22826672219E+02  0.31886250860E+02  0.00000000000E+00 0.  1.
         11    1    3    3    0    0  0.11372760391E+02  0.20883875000E+01  0.27588334535E+02  0.29913496016E+02  0.51100000000E-03 0. -1.
        -11    1    3    3    0    0 -0.31045405949E+01  0.50117676006E+00  0.25230689075E+01  0.40317772041E+01  0.51100000000E-03 0.  1.
        -12    1    3    3    0    0 -0.15968159539E+02  0.18300312648E+02 -0.72847312232E+01  0.25356475920E+02  0.00000000000E+00 0.  1.
</event>
<event>
 7    1  0.1344618E-011  0.5930193E+02  0.7816164E-02  0.1266605E+00
        -11   -1    0    0    0    0  0.00000000000E+00  0.00000000000E+00  0.45593999997E+02  0.45594000000E+02  0.51100000000E-03 0. -1.
         11   -1    0    0    0    0 -0.00000000000E+00 -0.00000000000E+00 -0.45593999997E+02  0.45594000000E+02  0.51100000000E-03 0.  1.
    9900012    2    1    2    0    0  0.25359438755E+01  0.14274566730E+02  0.28399417859E+02  0.59301934056E+02  0.49999981814E+02 0.  0.
        -12    1    1    2    0    0 -0.25359438755E+01 -0.14274566730E+02 -0.28399417859E+02  0.31886065944E+02  0.00000000000E+00 0.  1.
         11    1    3    3    0    0  0.92082783512E+01  0.16495897554E+01  0.20555372682E+02  0.22583996168E+02  0.51100000000E-03 0. -1.
        -11    1    3    3    0    0  0.92478120623E+01 -0.35282103970E+01 -0.45262853224E+01  0.10883820819E+02  0.51100000000E-03 0.  1.
         12    1    3    3    0    0 -0.15920146538E+02  0.16153187371E+02  0.12370330499E+02  0.25834117068E+02  0.00000000000E+00 0. -1.
</event>
<event>
 7    1  0.1344618E-011  0.5930193E+02  0.7816164E-02  0.1266605E+00
        -11   -1    0    0    0    0  0.00000000000E+00  0.00000000000E+00  0.45593999997E+02  0.45594000000E+02  0.51100000000E-03 0.  1.
         11   -1    0    0    0    0 -0.00000000000E+00 -0.00000000000E+00 -0.45593999997E+02  0.45594000000E+02  0.51100000000E-03 0. -1.
    9900012    2    1    2    0    0 -0.46049880841E+01  0.27997644040E+02 -0.14548113037E+02  0.59301928119E+02  0.49999970987E+02 0.  0.
        -12    1    1    2    0    0  0.46049880841E+01 -0.27997644040E+02  0.14548113037E+02  0.31886071881E+02  0.00000000000E+00 0.  1.
         11    1    3    3    0    0  0.35074336244E+01  0.21410881622E+02 -0.14724155537E+02  0.26220768467E+02  0.51100000000E-03 0. -1.
        -11    1    3    3    0    0  0.66113168689E+00 -0.13074859701E+01 -0.14316252383E+02  0.14391028359E+02  0.51100000000E-03 0.  1.
         12    1    3    3    0    0 -0.87735533955E+01  0.78942483886E+01  0.14492294883E+02  0.18690131294E+02  0.00000000000E+00 0. -1.
</event>
<event>
 7    1  0.1344618E-011  0.5930193E+02  0.7816164E-02  0.1266605E+00
        -11   -1    0    0    0    0  0.00000000000E+00  0.00000000000E+00  0.45593999997E+02  0.45594000000E+02  0.51100000000E-03 0. -1.
         11   -1    0    0    0    0 -0.00000000000E+00 -0.00000000000E+00 -0.45593999997E+02  0.45594000000E+02  0.51100000000E-03 0.  1.
    9900012    2    1    2    0    0  0.19668399126E+02 -0.19781596046E+02 -0.15445517291E+02  0.59301929833E+02  0.49999974112E+02 0.  0.
        -12    1    1    2    0    0 -0.19668399126E+02  0.19781596046E+02  0.15445517291E+02  0.31886070167E+02  0.00000000000E+00 0.  1.
         11    1    3    3    0    0  0.26418306069E+02 -0.64863547386E+01  0.39662979911E+01  0.27490565898E+02  0.51100000000E-03 0. -1.
        -11    1    3    3    0    0  0.44247903098E+01 -0.99200141085E+01 -0.23094362729E+01  0.11104906364E+02  0.51100000000E-03 0.  1.
        -12    1    3    3    0    0 -0.11174697253E+02 -0.33752271986E+01 -0.17102379010E+02  0.20706457571E+02  0.00000000000E+00 0.  1.
</event>
<event>
 7    1  0.1344618E-011  0.5930210E+02  0.7816164E-02  0.1266604E+00
        -11   -1    0    0    0    0  0.00000000000E+00  0.00000000000E+00  0.45593999997E+02  0.45594000000E+02  0.51100000000E-03 0. -1.
         11   -1    0    0    0    0 -0.00000000000E+00 -0.00000000000E+00 -0.45593999997E+02  0.45594000000E+02  0.51100000000E-03 0.  1.
    9900012    2    1    2    0    0 -0.27203345283E+01 -0.11456168626E+02  0.29632189025E+02  0.59302099574E+02  0.50000283678E+02 0.  0.
        -12    1    1    2    0    0  0.27203345283E+01  0.11456168626E+02 -0.29632189025E+02  0.31885900426E+02  0.00000000000E+00 0.  1.
         11    1    3    3    0    0 -0.36122942661E+01  0.28351664063E+01  0.14398439065E+01  0.48124826392E+01  0.51100000000E-03 0. -1.
        -11    1    3    3    0    0 -0.18303640074E+02  0.35689274144E+01  0.45742073065E+01  0.19201142038E+02  0.51100000000E-03 0.  1.
         12    1    3    3    0    0  0.19195599811E+02 -0.17860262447E+02  0.23618137812E+02  0.35288474896E+02  0.00000000000E+00 0. -1.
</event>
<event>
 7    1  0.1344618E-011  0.5930194E+02  0.7816164E-02  0.1266605E+00
        -11   -1    0    0    0    0  0.00000000000E+00  0.00000000000E+00  0.45593999997E+02  0.45594000000E+02  0.51100000000E-03 0.  1.
         11   -1    0    0    0    0 -0.00000000000E+00 -0.00000000000E+00 -0.45593999997E+02  0.45594000000E+02  0.51100000000E-03 0. -1.
    9900012    2    1    2    0    0 -0.29731356338E-01 -0.20128027811E+02 -0.24730187478E+02  0.59301944110E+02  0.50000000150E+02 0.  0.
        -12    1    1    2    0    0  0.29731356338E-01  0.20128027811E+02  0.24730187478E+02  0.31886055890E+02  0.00000000000E+00 0.  1.
         11    1    3    3    0    0  0.16367977572E+02 -0.16757477932E+01 -0.14250568388E+02  0.21766890455E+02  0.51100000000E-03 0.  1.
        -11    1    3    3    0    0  0.62177848697E+01 -0.94709123166E+01 -0.83669090853E+00  0.11360417278E+02  0.51100000000E-03 0. -1.
        -12    1    3    3    0    0 -0.22615493798E+02 -0.89813677014E+01 -0.96429281818E+01  0.26174636376E+02  0.00000000000E+00 0.  1.
</event>
<event>
 7    1  0.2233682E-011  0.5930194E+02  0.7816164E-02  0.1266605E+00
        -11   -1    0    0    0    0  0.00000000000E+00  0.00000000000E+00  0.45593999997E+02  0.45594000000E+02  0.51100000000E-03 0. -1.
         11   -1    0    0    0    0 -0.00000000000E+00 -0.00000000000E+00 -0.45593999997E+02  0.45594000000E+02  0.51100000000E-03 0.  1.
    9900012    2    1    2    0    0  0.22710526359E+02  0.13860572136E+02  0.17573766119E+02  0.59301941557E+02  0.49999995493E+02 0.  0.
        -12    1    1    2    0    0 -0.22710526359E+02 -0.13860572136E+02 -0.17573766119E+02  0.31886058443E+02  0.00000000000E+00 0.  1.
         11    1    3    3    0    0  0.12774256786E+02  0.55594195090E+01  0.18882502511E+02  0.23465670309E+02  0.51100000000E-03 0. -1.
        -11    1    3    3    0    0  0.22024093362E+02  0.66397905905E+01  0.22854271195E+01  0.23116459177E+02  0.51100000000E-03 0.  1.
        -12    1    3    3    0    0 -0.12087823789E+02  0.16613620362E+01 -0.35941635118E+01  0.12719812071E+02  0.00000000000E+00 0.  1.
</event>
<event>
 7    1  0.1344618E-011  0.5930195E+02  0.7816164E-02  0.1266605E+00
        -11   -1    0    0    0    0  0.00000000000E+00  0.00000000000E+00  0.45593999997E+02  0.45594000000E+02  0.51100000000E-03 0.  1.
         11   -1    0    0    0    0 -0.00000000000E+00 -0.00000000000E+00 -0.45593999997E+02  0.45594000000E+02  0.51100000000E-03 0. -1.
    9900012    2    1    2    0    0 -0.25585310390E+02  0.18701266622E+02  0.35177777810E+01  0.59301949107E+02  0.50000009263E+02 0.  0.
        -12    1    1    2    0    0  0.25585310390E+02 -0.18701266622E+02 -0.35177777810E+01  0.31886050893E+02  0.00000000000E+00 0.  1.
         11    1    3    3    0    0 -0.15259410524E+02  0.38492121777E+01  0.21995869701E+01  0.15890381588E+02  0.51100000000E-03 0. -1.
        -11    1    3    3    0    0  0.48756980173E+01 -0.17750958649E+01  0.15799604185E+02  0.16629819276E+02  0.51100000000E-03 0.  1.
         12    1    3    3    0    0 -0.15201597884E+02  0.16627150309E+02 -0.14481413374E+02  0.26781748243E+02  0.00000000000E+00 0. -1.
</event>
<event>
 7    1  0.1344618E-011  0.5930195E+02  0.7816164E-02  0.1266605E+00
        -11   -1    0    0    0    0  0.00000000000E+00  0.00000000000E+00  0.45593999997E+02  0.45594000000E+02  0.51100000000E-03 0.  1.
         11   -1    0    0    0    0 -0.00000000000E+00 -0.00000000000E+00 -0.45593999997E+02  0.45594000000E+02  0.51100000000E-03 0. -1.
    9900012    2    1    2    0    0  0.66343714663E+01 -0.86189339791E+01 -0.29973638085E+02  0.59301954655E+02  0.50000019381E+02 0.  0.
        -12    1    1    2    0    0 -0.66343714663E+01  0.86189339791E+01  0.29973638085E+02  0.31886045345E+02  0.00000000000E+00 0.  1.
         11    1    3    3    0    0  0.72703367163E+01 -0.18685613209E+02 -0.24093528941E+01  0.20194427909E+02  0.51100000000E-03 0. -1.
        -11    1    3    3    0    0 -0.35130171357E+00 -0.72070499406E+01 -0.81104975304E+00  0.72610456343E+01  0.51100000000E-03 0.  1.
         12    1    3    3    0    0 -0.28466353639E+00  0.17273729170E+02 -0.26753235438E+02  0.31846481111E+02  0.00000000000E+00 0. -1.
</event>
<event>
 7    1  0.1344618E-011  0.5930194E+02  0.7816164E-02  0.1266605E+00
        -11   -1    0    0    0    0  0.00000000000E+00  0.00000000000E+00  0.45593999997E+02  0.45594000000E+02  0.51100000000E-03 0.  1.
         11   -1    0    0    0    0 -0.00000000000E+00 -0.00000000000E+00 -0.45593999997E+02  0.45594000000E+02  0.51100000000E-03 0. -1.
    9900012    2    1    2    0    0 -0.18213819800E+01  0.12695637595E+02 -0.29192878508E+02  0.59301940321E+02  0.49999993240E+02 0.  0.
        -12    1    1    2    0    0  0.18213819800E+01 -0.12695637595E+02  0.29192878508E+02  0.31886059679E+02  0.00000000000E+00 0.  1.
         11    1    3    3    0    0 -0.84635427937E+00  0.54703459927E+01  0.11648250284E+01  0.56566614230E+01  0.51100000000E-03 0. -1.
        -11    1    3    3    0    0  0.20758001212E+02  0.85632220310E-01 -0.18842936829E+02  0.28034946332E+02  0.51100000000E-03 0.  1.
         12    1    3    3    0    0 -0.21733028913E+02  0.71396593818E+01 -0.11514766707E+02  0.25610332566E+02  0.00000000000E+00 0. -1.
</event>
<event>
 7    1  0.1344618E-011  0.5930195E+02  0.7816164E-02  0.1266605E+00
        -11   -1    0    0    0    0  0.00000000000E+00  0.00000000000E+00  0.45593999997E+02  0.45594000000E+02  0.51100000000E-03 0.  1.
         11   -1    0    0    0    0 -0.00000000000E+00 -0.00000000000E+00 -0.45593999997E+02  0.45594000000E+02  0.51100000000E-03 0. -1.
    9900012    2    1    2    0    0  0.83442512243E+01  0.23079831683E+01 -0.30688218126E+02  0.59301952165E+02  0.50000014841E+02 0.  0.
        -12    1    1    2    0    0 -0.83442512243E+01 -0.23079831683E+01  0.30688218126E+02  0.31886047835E+02  0.00000000000E+00 0.  1.
         11    1    3    3    0    0  0.26554103403E+01  0.11673164031E+02 -0.36024974806E+01  0.12501677924E+02  0.51100000000E-03 0. -1.
        -11    1    3    3    0    0 -0.85088230360E+01 -0.35549017470E+00 -0.28672444566E+02  0.29910458378E+02  0.51100000000E-03 0.  1.
         12    1    3    3    0    0  0.14197663920E+02 -0.90096906876E+01  0.15867239213E+01  0.16889815863E+02  0.00000000000E+00 0. -1.
</event>
<event>
 7    1  0.1344618E-011  0.5930207E+02  0.7816164E-02  0.1266604E+00
        -11   -1    0    0    0    0  0.00000000000E+00  0.00000000000E+00  0.45593999997E+02  0.45594000000E+02  0.51100000000E-03 0. -1.
         11   -1    0    0    0    0 -0.00000000000E+00 -0.00000000000E+00 -0.45593999997E+02  0.45594000000E+02  0.51100000000E-03 0.  1.
    9900012    2    1    2    0    0  0.21687757677E+02 -0.13590139611E+01  0.23334662336E+02  0.59302074918E+02  0.50000238712E+02 0.  0.
        -12    1    1    2    0    0 -0.21687757677E+02  0.13590139611E+01 -0.23334662336E+02  0.31885925082E+02  0.00000000000E+00 0.  1.
         11    1    3    3    0    0 -0.15277623687E+01  0.39411068727E+01  0.33273156663E+01  0.53793504293E+01  0.51100000000E-03 0. -1.
        -11    1    3    3    0    0 -0.66997774337E+01  0.12538221731E+02  0.10922138616E+02  0.17927273469E+02  0.51100000000E-03 0.  1.
        -12    1    3    3    0    0  0.29915297479E+02 -0.17838342565E+02  0.90852080538E+01  0.35995451020E+02  0.00000000000E+00 0.  1.
</event>
<event>
 7    1  0.1344618E-011  0.5930194E+02  0.7816164E-02  0.1266605E+00
        -11   -1    0    0    0    0  0.00000000000E+00  0.00000000000E+00  0.45593999997E+02  0.45594000000E+02  0.51100000000E-03 0.  1.
         11   -1    0    0    0    0 -0.00000000000E+00 -0.00000000000E+00 -0.45593999997E+02  0.45594000000E+02  0.51100000000E-03 0. -1.
    9900012    2    1    2    0    0 -0.28811427702E+02  0.91156322381E+01 -0.10174858261E+02  0.59301939441E+02  0.49999991635E+02 0.  0.
        -12    1    1    2    0    0  0.28811427702E+02 -0.91156322381E+01  0.10174858261E+02  0.31886060559E+02  0.00000000000E+00 0.  1.
         11    1    3    3    0    0  0.40617801439E+01  0.26272176400E+01 -0.37707875844E+01  0.61334468069E+01  0.51100000000E-03 0. -1.
        -11    1    3    3    0    0 -0.21154141964E+02  0.11578866375E+02  0.14885025948E+02  0.28339581269E+02  0.51100000000E-03 0.  1.
         12    1    3    3    0    0 -0.11719065882E+02 -0.50904517766E+01 -0.21289096625E+02  0.24828911365E+02  0.00000000000E+00 0. -1.
</event>
<event>
 7    1  0.1344618E-011  0.5930192E+02  0.7816164E-02  0.1266605E+00
        -11   -1    0    0    0    0  0.00000000000E+00  0.00000000000E+00  0.45593999997E+02  0.45594000000E+02  0.51100000000E-03 0.  1.
         11   -1    0    0    0    0 -0.00000000000E+00 -0.00000000000E+00 -0.45593999997E+02  0.45594000000E+02  0.51100000000E-03 0. -1.
    9900012    2    1    2    0    0  0.97211987844E+01 -0.28510958133E+02 -0.10456838804E+02  0.59301922831E+02  0.49999961342E+02 0.  0.
        -12    1    1    2    0    0 -0.97211987844E+01  0.28510958133E+02  0.10456838804E+02  0.31886077169E+02  0.00000000000E+00 0.  1.
         11    1    3    3    0    0  0.22932081249E+02 -0.25737177697E+02 -0.61209719716E+01  0.35010697856E+02  0.51100000000E-03 0. -1.
        -11    1    3    3    0    0 -0.97491653631E+01 -0.10371561934E+02  0.11821534490E+01  0.14283312265E+02  0.51100000000E-03 0.  1.
        -12    1    3    3    0    0 -0.34617171012E+01  0.75977814984E+01 -0.55180202809E+01  0.10007912710E+02  0.00000000000E+00 0.  1.
</event>
<event>
 7    1  0.1344618E-011  0.5930196E+02  0.7816164E-02  0.1266605E+00
        -11   -1    0    0    0    0  0.00000000000E+00  0.00000000000E+00  0.45593999997E+02  0.45594000000E+02  0.51100000000E-03 0.  1.
         11   -1    0    0    0    0 -0.00000000000E+00 -0.00000000000E+00 -0.45593999997E+02  0.45594000000E+02  0.51100000000E-03 0. -1.
    9900012    2    1    2    0    0 -0.59916490897E+01 -0.25177537822E+02 -0.18625546214E+02  0.59301964790E+02  0.50000037866E+02 0.  0.
        -12    1    1    2    0    0  0.59916490897E+01  0.25177537822E+02  0.18625546214E+02  0.31886035210E+02  0.00000000000E+00 0.  1.
         11    1    3    3    0    0 -0.82668285440E+01 -0.75035301558E+01  0.15842409523E+01  0.11276224485E+02  0.51100000000E-03 0.  1.
        -11    1    3    3    0    0 -0.98364797022E+01 -0.49104504064E+01  0.88098971051E+01  0.14088404572E+02  0.51100000000E-03 0. -1.
         12    1    3    3    0    0  0.12111659156E+02 -0.12763557260E+02 -0.29019684272E+02  0.33937335733E+02  0.00000000000E+00 0. -1.
</event>
<event>
 7    1  0.1344618E-011  0.5930193E+02  0.7816164E-02  0.1266605E+00
        -11   -1    0    0    0    0  0.00000000000E+00  0.00000000000E+00  0.45593999997E+02  0.45594000000E+02  0.51100000000E-03 0. -1.
         11   -1    0    0    0    0 -0.00000000000E+00 -0.00000000000E+00 -0.45593999997E+02  0.45594000000E+02  0.51100000000E-03 0.  1.
    9900012    2    1    2    0    0 -0.62172095996E+01 -0.29726165902E+02  0.97171345414E+01  0.59301931912E+02  0.49999977904E+02 0.  0.
        -12    1    1    2    0    0  0.62172095996E+01  0.29726165902E+02 -0.97171345414E+01  0.31886068088E+02  0.00000000000E+00 0.  1.
         11    1    3    3    0    0 -0.44930197351E+01 -0.32792622581E+02 -0.75110165883E+01  0.33940516975E+02  0.51100000000E-03 0. -1.
        -11    1    3    3    0    0  0.72331547466E+01  0.57064673738E+01  0.95751123700E+01  0.13287779146E+02  0.51100000000E-03 0.  1.
        -12    1    3    3    0    0 -0.89573446111E+01 -0.26400106944E+01  0.76530387597E+01  0.12073635791E+02  0.00000000000E+00 0.  1.
</event>
<event>
 7    1  0.1344618E-011  0.5930184E+02  0.7816164E-02  0.1266605E+00
        -11   -1    0    0    0    0  0.00000000000E+00  0.00000000000E+00  0.45593999997E+02  0.45594000000E+02  0.51100000000E-03 0. -1.
         11   -1    0    0    0    0 -0.00000000000E+00 -0.00000000000E+00 -0.45593999997E+02  0.45594000000E+02  0.51100000000E-03 0.  1.
    9900012    2    1    2    0    0 -0.78027749937E+01 -0.30290262446E+02 -0.61922497045E+01  0.59301839161E+02  0.49999808748E+02 0.  0.
        -12    1    1    2    0    0  0.78027749937E+01  0.30290262446E+02  0.61922497045E+01  0.31886160839E+02  0.00000000000E+00 0.  1.
         11    1    3    3    0    0 -0.22021628180E+02 -0.21013804990E+02 -0.88846316805E+01  0.31709127838E+02  0.51100000000E-03 0. -1.
        -11    1    3    3    0    0  0.50308169164E+01 -0.15466086845E+02  0.33998631967E+00  0.16267284718E+02  0.51100000000E-03 0.  1.
        -12    1    3    3    0    0  0.91880362701E+01  0.61896293888E+01  0.23523956563E+01  0.11325426605E+02  0.00000000000E+00 0.  1.
</event>
<event>
 7    1  0.1344618E-011  0.5930188E+02  0.7816164E-02  0.1266605E+00
        -11   -1    0    0    0    0  0.00000000000E+00  0.00000000000E+00  0.45593999997E+02  0.45594000000E+02  0.51100000000E-03 0.  1.
         11   -1    0    0    0    0 -0.00000000000E+00 -0.00000000000E+00 -0.45593999997E+02  0.45594000000E+02  0.51100000000E-03 0. -1.
    9900012    2    1    2    0    0  0.19323005201E+02 -0.99154471360E+01 -0.23345880814E+02  0.59301878052E+02  0.49999879675E+02 0.  0.
        -12    1    1    2    0    0 -0.19323005201E+02  0.99154471360E+01  0.23345880814E+02  0.31886121948E+02  0.00000000000E+00 0.  1.
         11    1    3    3    0    0  0.31415749417E+01 -0.38401184382E+01 -0.26821559612E+02  0.27276584518E+02  0.51100000000E-03 0. -1.
        -11    1    3    3    0    0  0.28864479531E+01  0.93371182709E+01 -0.36899019606E+01  0.10446470032E+02  0.51100000000E-03 0.  1.
        -12    1    3    3    0    0  0.13294982307E+02 -0.15412446969E+02  0.71655807581E+01  0.21578823501E+02  0.00000000000E+00 0.  1.
</event>
<event>
 7    1  0.1344618E-011  0.5930190E+02  0.7816164E-02  0.1266605E+00
        -11   -1    0    0    0    0  0.00000000000E+00  0.00000000000E+00  0.45593999997E+02  0.45594000000E+02  0.51100000000E-03 0.  1.
         11   -1    0    0    0    0 -0.00000000000E+00 -0.00000000000E+00 -0.45593999997E+02  0.45594000000E+02  0.51100000000E-03 0. -1.
    9900012    2    1    2    0    0  0.19151269352E+02  0.16583887711E+02 -0.19363023196E+02  0.59301904022E+02  0.49999927039E+02 0.  0.
        -12    1    1    2    0    0 -0.19151269352E+02 -0.16583887711E+02  0.19363023196E+02  0.31886095978E+02  0.00000000000E+00 0.  1.
         11    1    3    3    0    0  0.30838468264E+01  0.26710475655E+02 -0.19060078193E+01  0.26955379556E+02  0.51100000000E-03 0. -1.
        -11    1    3    3    0    0 -0.21634906617E+01  0.31208971523E+01  0.68725810001E-01  0.37980803542E+01  0.51100000000E-03 0.  1.
         12    1    3    3    0    0  0.18230913188E+02 -0.13247485096E+02 -0.17525741187E+02  0.28548444111E+02  0.00000000000E+00 0. -1.
</event>
<event>
 7    1  0.1344618E-011  0.5930195E+02  0.7816164E-02  0.1266605E+00
        -11   -1    0    0    0    0  0.00000000000E+00  0.00000000000E+00  0.45593999997E+02  0.45594000000E+02  0.51100000000E-03 0. -1.
         11   -1    0    0    0    0 -0.00000000000E+00 -0.00000000000E+00 -0.45593999997E+02  0.45594000000E+02  0.51100000000E-03 0.  1.
    9900012    2    1    2    0    0  0.23928770520E+02 -0.16558825032E+02  0.13036090212E+02  0.59301946732E+02  0.50000004931E+02 0.  0.
        -12    1    1    2    0    0 -0.23928770520E+02  0.16558825032E+02 -0.13036090212E+02  0.31886053268E+02  0.00000000000E+00 0.  1.
         11    1    3    3    0    0  0.67628107223E+01  0.11115070776E+02  0.14079586078E+02  0.19170684694E+02  0.51100000000E-03 0. -1.
        -11    1    3    3    0    0 -0.38727672158E+01 -0.87663892370E+01  0.55661504597E+01  0.11082866839E+02  0.51100000000E-03 0.  1.
         12    1    3    3    0    0  0.21038727014E+02 -0.18907506571E+02 -0.66096463260E+01  0.29048395199E+02  0.00000000000E+00 0. -1.
</event>
<event>
 7    1  0.1344618E-011  0.5930211E+02  0.7816164E-02  0.1266604E+00
        -11   -1    0    0    0    0  0.00000000000E+00  0.00000000000E+00  0.45593999997E+02  0.45594000000E+02  0.51100000000E-03 0. -1.
         11   -1    0    0    0    0 -0.00000000000E+00 -0.00000000000E+00 -0.45593999997E+02  0.45594000000E+02  0.51100000000E-03 0.  1.
    9900012    2    1    2    0    0  0.40479785382E+01 -0.12497459910E+02  0.29054040350E+02  0.59302111348E+02  0.50000305152E+02 0.  0.
        -12    1    1    2    0    0 -0.40479785382E+01  0.12497459910E+02 -0.29054040350E+02  0.31885888652E+02  0.00000000000E+00 0.  1.
         11    1    3    3    0    0 -0.78771256964E+01  0.51966037315E+01  0.13070855766E+02  0.16121447525E+02  0.51100000000E-03 0. -1.
        -11    1    3    3    0    0  0.11972642706E+02 -0.27092803323E+02  0.16236254863E+02  0.33778397497E+02  0.51100000000E-03 0.  1.
         12    1    3    3    0    0 -0.47538471010E-01  0.93987396811E+01 -0.25307027916E+00  0.94022663261E+01  0.00000000000E+00 0. -1.
</event>
<event>
 7    1  0.1344618E-011  0.5930195E+02  0.7816164E-02  0.1266605E+00
        -11   -1    0    0    0    0  0.00000000000E+00  0.00000000000E+00  0.45593999997E+02  0.45594000000E+02  0.51100000000E-03 0.  1.
         11   -1    0    0    0    0 -0.00000000000E+00 -0.00000000000E+00 -0.45593999997E+02  0.45594000000E+02  0.51100000000E-03 0. -1.
    9900012    2    1    2    0    0 -0.12668445100E+02 -0.19755015941E+02 -0.21586343972E+02  0.59301946589E+02  0.50000004671E+02 0.  0.
        -12    1    1    2    0    0  0.12668445100E+02  0.19755015941E+02  0.21586343972E+02  0.31886053411E+02  0.00000000000E+00 0.  1.
         11    1    3    3    0    0 -0.13684849605E+02 -0.86172079539E+01 -0.33534163988E+02  0.37229981685E+02  0.51100000000E-03 0. -1.
        -11    1    3    3    0    0 -0.61794892880E+01 -0.49309525398E+01  0.16814932546E+01  0.80825615146E+01  0.51100000000E-03 0.  1.
        -12    1    3    3    0    0  0.71958937926E+01 -0.62068554470E+01  0.10266326761E+02  0.13989403389E+02  0.00000000000E+00 0.  1.
</event>
<event>
 7    1  0.1344618E-011  0.5930197E+02  0.7816164E-02  0.1266605E+00
        -11   -1    0    0    0    0  0.00000000000E+00  0.00000000000E+00  0.45593999997E+02  0.45594000000E+02  0.51100000000E-03 0. -1.
         11   -1    0    0    0    0 -0.00000000000E+00 -0.00000000000E+00 -0.45593999997E+02  0.45594000000E+02  0.51100000000E-03 0.  1.
    9900012    2    1    2    0    0  0.15717744698E+02  0.27596445373E+02  0.28474283396E+01  0.59301966321E+02  0.50000040658E+02 0.  0.
        -12    1    1    2    0    0 -0.15717744698E+02 -0.27596445373E+02 -0.28474283396E+01  0.31886033679E+02  0.00000000000E+00 0.  1.
         11    1    3    3    0    0  0.12469614799E+01 -0.51798614662E+01  0.64458758379E+01  0.83627264286E+01  0.51100000000E-03 0. -1.
        -11    1    3    3    0    0 -0.78711992021E+01  0.13123823471E+01 -0.89383002077E+01  0.11982125653E+02  0.51100000000E-03 0.  1.
         12    1    3    3    0    0  0.22341982420E+02  0.31463924492E+02  0.53398527094E+01  0.38957114239E+02  0.00000000000E+00 0. -1.
</event>
<event>
 7    1  0.1344618E-011  0.5930193E+02  0.7816164E-02  0.1266605E+00
        -11   -1    0    0    0    0  0.00000000000E+00  0.00000000000E+00  0.45593999997E+02  0.45594000000E+02  0.51100000000E-03 0. -1.
         11   -1    0    0    0    0 -0.00000000000E+00 -0.00000000000E+00 -0.45593999997E+02  0.45594000000E+02  0.51100000000E-03 0.  1.
    9900012    2    1    2    0    0  0.16180569173E+02 -0.20880421025E+02  0.17858300377E+02  0.59301926342E+02  0.49999967746E+02 0.  0.
        -12    1    1    2    0    0 -0.16180569173E+02  0.20880421025E+02 -0.17858300377E+02  0.31886073658E+02  0.00000000000E+00 0.  1.
         11    1    3    3    0    0 -0.34678348860E+01  0.16955350945E+01  0.20712987245E+02  0.21069612216E+02  0.51100000000E-03 0. -1.
        -11    1    3    3    0    0  0.14063907868E+02 -0.16636737826E+02  0.92263165222E+01  0.23657968358E+02  0.51100000000E-03 0.  1.
        -12    1    3    3    0    0  0.55844961912E+01 -0.59392182935E+01 -0.12081003391E+02  0.14574345768E+02  0.00000000000E+00 0.  1.
</event>
<event>
 7    1  0.1344618E-011  0.5930192E+02  0.7816164E-02  0.1266605E+00
        -11   -1    0    0    0    0  0.00000000000E+00  0.00000000000E+00  0.45593999997E+02  0.45594000000E+02  0.51100000000E-03 0.  1.
         11   -1    0    0    0    0 -0.00000000000E+00 -0.00000000000E+00 -0.45593999997E+02  0.45594000000E+02  0.51100000000E-03 0. -1.
    9900012    2    1    2    0    0  0.31685371977E+02  0.28421884648E+01  0.21636173551E+01  0.59301920394E+02  0.49999956898E+02 0.  0.
        -12    1    1    2    0    0 -0.31685371977E+02 -0.28421884648E+01 -0.21636173551E+01  0.31886079606E+02  0.00000000000E+00 0.  1.
         11    1    3    3    0    0  0.14490210190E+02  0.94143660326E+01 -0.14738602622E+02  0.22711734559E+02  0.51100000000E-03 0. -1.
        -11    1    3    3    0    0 -0.62159257731E+01 -0.61180773124E+00 -0.12533766187E+01  0.63704784064E+01  0.51100000000E-03 0.  1.
        -12    1    3    3    0    0  0.23411087560E+02 -0.59603698366E+01  0.18155596596E+02  0.30219707429E+02  0.00000000000E+00 0.  1.
</event>
<event>
 7    1  0.1344618E-011  0.5930194E+02  0.7816164E-02  0.1266605E+00
        -11   -1    0    0    0    0  0.00000000000E+00  0.00000000000E+00  0.45593999997E+02  0.45594000000E+02  0.51100000000E-03 0.  1.
         11   -1    0    0    0    0 -0.00000000000E+00 -0.00000000000E+00 -0.45593999997E+02  0.45594000000E+02  0.51100000000E-03 0. -1.
    9900012    2    1    2    0    0  0.45884869332E+01  0.69005464924E+01 -0.30790407223E+02  0.59301938293E+02  0.49999989542E+02 0.  0.
        -12    1    1    2    0    0 -0.45884869332E+01 -0.69005464924E+01  0.30790407223E+02  0.31886061707E+02  0.00000000000E+00 0.  1.
         11    1    3    3    0    0  0.45451957584E+01  0.61781282713E+01 -0.19018779079E+02  0.20507121479E+02  0.51100000000E-03 0. -1.
        -11    1    3    3    0    0  0.17700400356E+02  0.12100986082E+01 -0.32178833162E+00  0.17744634665E+02  0.51100000000E-03 0.  1.
        -12    1    3    3    0    0 -0.17657109181E+02 -0.48768038710E+00 -0.11449839812E+02  0.21050182149E+02  0.00000000000E+00 0.  1.
</event>
<event>
 7    1  0.1344618E-011  0.5930190E+02  0.7816164E-02  0.1266605E+00
        -11   -1    0    0    0    0  0.00000000000E+00  0.00000000000E+00  0.45593999997E+02  0.45594000000E+02  0.51100000000E-03 0. -1.
         11   -1    0    0    0    0 -0.00000000000E+00 -0.00000000000E+00 -0.45593999997E+02  0.45594000000E+02  0.51100000000E-03 0.  1.
    9900012    2    1    2    0    0 -0.17190373766E+02  0.26851869801E+02 -0.43780057011E+00  0.59301897520E+02  0.49999915181E+02 0.  0.
        -12    1    1    2    0    0  0.17190373766E+02 -0.26851869801E+02  0.43780057011E+00  0.31886102480E+02  0.00000000000E+00 0.  1.
         11    1    3    3    0    0 -0.82944836803E+01 -0.25348338509E+01  0.14173810157E+02  0.16616881080E+02  0.51100000000E-03 0. -1.
        -11    1    3    3    0    0 -0.48757393108E+01  0.18295334514E+01 -0.13881926139E+02  0.14826594351E+02  0.51100000000E-03 0.  1.
         12    1    3    3    0    0 -0.40201507753E+01  0.27557170200E+02 -0.72968458860E+00  0.27858422089E+02  0.00000000000E+00 0. -1.
</event>
<event>
 7    1  0.1344618E-011  0.5930191E+02  0.7816164E-02  0.1266605E+00
        -11   -1    0    0    0    0  0.00000000000E+00  0.00000000000E+00  0.45593999997E+02  0.45594000000E+02  0.51100000000E-03 0.  1.
         11   -1    0    0    0    0 -0.00000000000E+00 -0.00000000000E+00 -0.45593999997E+02  0.45594000000E+02  0.51100000000E-03 0. -1.
    9900012    2    1    2    0    0  0.52075690420E+01 -0.11995558250E+02 -0.29081107221E+02  0.59301906005E+02  0.49999930655E+02 0.  0.
        -12    1    1    2    0    0 -0.52075690420E+01  0.11995558250E+02  0.29081107221E+02  0.31886093995E+02  0.00000000000E+00 0.  1.
         11    1    3    3    0    0  0.16269614603E+02 -0.28079728516E+01 -0.54644740564E+01  0.17390961671E+02  0.51100000000E-03 0. -1.
        -11    1    3    3    0    0 -0.47649592511E+01  0.10122452041E+02 -0.58546157631E+00  0.11203197646E+02  0.51100000000E-03 0.  1.
         12    1    3    3    0    0 -0.62970863101E+01 -0.19310037439E+02 -0.23031171589E+02  0.30707746688E+02  0.00000000000E+00 0. -1.
</event>
<event>
 7    1  0.1344618E-011  0.5930199E+02  0.7816164E-02  0.1266605E+00
        -11   -1    0    0    0    0  0.00000000000E+00  0.00000000000E+00  0.45593999997E+02  0.45594000000E+02  0.51100000000E-03 0. -1.
         11   -1    0    0    0    0 -0.00000000000E+00 -0.00000000000E+00 -0.45593999997E+02  0.45594000000E+02  0.51100000000E-03 0.  1.
    9900012    2    1    2    0    0 -0.30193922375E+02  0.52912280819E+01  0.87776638226E+01  0.59301993270E+02  0.50000089806E+02 0.  0.
        -12    1    1    2    0    0  0.30193922375E+02 -0.52912280819E+01 -0.87776638226E+01  0.31886006730E+02  0.00000000000E+00 0.  1.
         11    1    3    3    0    0 -0.15721828101E+01 -0.32831485981E+01  0.36872602523E+01  0.51813812767E+01  0.51100000000E-03 0. -1.
        -11    1    3    3    0    0 -0.12037736361E+02 -0.18463743269E+02  0.38686044453E+01  0.22378181624E+02  0.51100000000E-03 0.  1.
         12    1    3    3    0    0 -0.16584003204E+02  0.27038119949E+02  0.12217991250E+01  0.31742430369E+02  0.00000000000E+00 0. -1.
</event>
<event>
 7    1  0.1344618E-011  0.5930193E+02  0.7816164E-02  0.1266605E+00
        -11   -1    0    0    0    0  0.00000000000E+00  0.00000000000E+00  0.45593999997E+02  0.45594000000E+02  0.51100000000E-03 0. -1.
         11   -1    0    0    0    0 -0.00000000000E+00 -0.00000000000E+00 -0.45593999997E+02  0.45594000000E+02  0.51100000000E-03 0.  1.
    9900012    2    1    2    0    0  0.11635811522E+02 -0.27058150948E+02  0.12214163036E+02  0.59301930610E+02  0.49999975529E+02 0.  0.
        -12    1    1    2    0    0 -0.11635811522E+02  0.27058150948E+02 -0.12214163036E+02  0.31886069390E+02  0.00000000000E+00 0.  1.
         11    1    3    3    0    0 -0.14155711940E+02 -0.94654032724E+01 -0.16200388547E+01  0.17105629652E+02  0.51100000000E-03 0. -1.
        -11    1    3    3    0    0 -0.42228025090E+01 -0.19192427867E+01 -0.17033009473E+01  0.49413346661E+01  0.51100000000E-03 0.  1.
        -12    1    3    3    0    0  0.30014325971E+02 -0.15673504889E+02  0.15537502838E+02  0.37254966292E+02  0.00000000000E+00 0.  1.
</event>
<event>
 7    1  0.1344618E-011  0.5930193E+02  0.7816164E-02  0.1266605E+00
        -11   -1    0    0    0    0  0.00000000000E+00  0.00000000000E+00  0.45593999997E+02  0.45594000000E+02  0.51100000000E-03 0.  1.
         11   -1    0    0    0    0 -0.00000000000E+00 -0.00000000000E+00 -0.45593999997E+02  0.45594000000E+02  0.51100000000E-03 0. -1.
    9900012    2    1    2    0    0 -0.20152845168E+02  0.33488149439E+01 -0.24482025393E+02  0.59301932553E+02  0.49999979072E+02 0.  0.
        -12    1    1    2    0    0  0.20152845168E+02 -0.33488149439E+01  0.24482025393E+02  0.31886067447E+02  0.00000000000E+00 0.  1.
         11    1    3    3    0    0 -0.83552725882E+01 -0.13803040332E+02 -0.45559941271E+01  0.16765786148E+02  0.51100000000E-03 0. -1.
        -11    1    3    3    0    0 -0.18103683707E+02  0.16285675744E+02 -0.24619285188E+02  0.34627673928E+02  0.51100000000E-03 0.  1.
         12    1    3    3    0    0  0.63061111272E+01  0.86617953127E+00  0.46932539220E+01  0.79084724761E+01  0.00000000000E+00 0. -1.
</event>
<event>
 7    1  0.1344618E-011  0.5930193E+02  0.7816164E-02  0.1266605E+00
        -11   -1    0    0    0    0  0.00000000000E+00  0.00000000000E+00  0.45593999997E+02  0.45594000000E+02  0.51100000000E-03 0. -1.
         11   -1    0    0    0    0 -0.00000000000E+00 -0.00000000000E+00 -0.45593999997E+02  0.45594000000E+02  0.51100000000E-03 0.  1.
    9900012    2    1    2    0    0  0.31764255303E+02 -0.13076532747E-01 -0.27845364803E+01  0.59301925777E+02  0.49999966715E+02 0.  0.
        -12    1    1    2    0    0 -0.31764255303E+02  0.13076532747E-01  0.27845364803E+01  0.31886074223E+02  0.00000000000E+00 0.  1.
         11    1    3    3    0    0  0.36256152057E+02  0.15943383523E+02 -0.40772456581E+01  0.39816127041E+02  0.51100000000E-03 0. -1.
        -11    1    3    3    0    0 -0.25170084183E+01  0.74295823720E+00  0.28588625496E+00  0.26398957426E+01  0.51100000000E-03 0.  1.
        -12    1    3    3    0    0 -0.19748883355E+01 -0.16699418293E+02  0.10068229229E+01  0.16845902993E+02  0.00000000000E+00 0.  1.
</event>
<event>
 7    1  0.1344618E-011  0.5930193E+02  0.7816164E-02  0.1266605E+00
        -11   -1    0    0    0    0  0.00000000000E+00  0.00000000000E+00  0.45593999997E+02  0.45594000000E+02  0.51100000000E-03 0. -1.
         11   -1    0    0    0    0 -0.00000000000E+00 -0.00000000000E+00 -0.45593999997E+02  0.45594000000E+02  0.51100000000E-03 0.  1.
    9900012    2    1    2    0    0 -0.28526104575E+02  0.94560055798E+01 -0.10656766663E+02  0.59301931577E+02  0.49999977292E+02 0.  0.
        -12    1    1    2    0    0  0.28526104575E+02 -0.94560055798E+01  0.10656766663E+02  0.31886068423E+02  0.00000000000E+00 0.  1.
         11    1    3    3    0    0 -0.85519394310E+01 -0.96018449234E+01  0.95650370280E+01  0.16025636573E+02  0.51100000000E-03 0. -1.
        -11    1    3    3    0    0 -0.82059114747E+01  0.55834041701E+01  0.59516375799E+01  0.11572958801E+02  0.51100000000E-03 0.  1.
         12    1    3    3    0    0 -0.11768253670E+02  0.13474446333E+02 -0.26173441271E+02  0.31703336203E+02  0.00000000000E+00 0. -1.
</event>
<event>
 7    1  0.1344618E-011  0.5930196E+02  0.7816164E-02  0.1266605E+00
        -11   -1    0    0    0    0  0.00000000000E+00  0.00000000000E+00  0.45593999997E+02  0.45594000000E+02  0.51100000000E-03 0.  1.
         11   -1    0    0    0    0 -0.00000000000E+00 -0.00000000000E+00 -0.45593999997E+02  0.45594000000E+02  0.51100000000E-03 0. -1.
    9900012    2    1    2    0    0 -0.33409117771E+00  0.30677487401E+02 -0.86890399557E+01  0.59301964413E+02  0.50000037177E+02 0.  0.
        -12    1    1    2    0    0  0.33409117771E+00 -0.30677487401E+02  0.86890399557E+01  0.31886035587E+02  0.00000000000E+00 0.  1.
         11    1    3    3    0    0 -0.57044064226E+01 -0.12171952439E+01 -0.36163190215E+01  0.68629134063E+01  0.51100000000E-03 0. -1.
        -11    1    3    3    0    0 -0.10614120252E+02 -0.48375891649E+01 -0.41117838020E+01  0.12368046893E+02  0.51100000000E-03 0.  1.
         12    1    3    3    0    0  0.15984435497E+02  0.36732271810E+02 -0.96093713210E+00  0.40071004113E+02  0.00000000000E+00 0. -1.
</event>
<event>
 7    1  0.1344618E-011  0.5930201E+02  0.7816164E-02  0.1266605E+00
        -11   -1    0    0    0    0  0.00000000000E+00  0.00000000000E+00  0.45593999997E+02  0.45594000000E+02  0.51100000000E-03 0.  1.
         11   -1    0    0    0    0 -0.00000000000E+00 -0.00000000000E+00 -0.45593999997E+02  0.45594000000E+02  0.51100000000E-03 0. -1.
    9900012    2    1    2    0    0  0.71199120772E+01  0.27415970308E+02 -0.14641993650E+02  0.59302006931E+02  0.50000114721E+02 0.  0.
        -12    1    1    2    0    0 -0.71199120772E+01 -0.27415970308E+02  0.14641993650E+02  0.31885993069E+02  0.00000000000E+00 0.  1.
         11    1    3    3    0    0  0.50399108574E+01  0.11747317287E+02  0.11202885198E+02  0.16997199826E+02  0.51100000000E-03 0. -1.
        -11    1    3    3    0    0  0.77519370123E+01  0.17154122184E+01  0.39883767765E+01  0.88849488515E+01  0.51100000000E-03 0.  1.
         12    1    3    3    0    0 -0.56719357926E+01  0.13953240803E+02 -0.29833255625E+02  0.33419858254E+02  0.00000000000E+00 0. -1.
</event>
<event>
 7    1  0.1344618E-011  0.5930194E+02  0.7816164E-02  0.1266605E+00
        -11   -1    0    0    0    0  0.00000000000E+00  0.00000000000E+00  0.45593999997E+02  0.45594000000E+02  0.51100000000E-03 0.  1.
         11   -1    0    0    0    0 -0.00000000000E+00 -0.00000000000E+00 -0.45593999997E+02  0.45594000000E+02  0.51100000000E-03 0. -1.
    9900012    2    1    2    0    0  0.18634754475E+02  0.24750270492E+02 -0.75426132762E+01  0.59301937546E+02  0.49999988179E+02 0.  0.
        -12    1    1    2    0    0 -0.18634754475E+02 -0.24750270492E+02  0.75426132762E+01  0.31886062454E+02  0.00000000000E+00 0.  1.
         11    1    3    3    0    0  0.11887158220E+02  0.14999362754E+02 -0.84602991787E+01  0.20925154146E+02  0.51100000000E-03 0. -1.
        -11    1    3    3    0    0  0.16687689304E+02  0.92201830580E+01  0.12733623431E+02  0.22926751097E+02  0.51100000000E-03 0.  1.
         12    1    3    3    0    0 -0.99400930490E+01  0.53072468029E+00 -0.11815937528E+02  0.15450032303E+02  0.00000000000E+00 0. -1.
</event>
<event>
 7    1  0.1344618E-011  0.5930195E+02  0.7816164E-02  0.1266605E+00
        -11   -1    0    0    0    0  0.00000000000E+00  0.00000000000E+00  0.45593999997E+02  0.45594000000E+02  0.51100000000E-03 0.  1.
         11   -1    0    0    0    0 -0.00000000000E+00 -0.00000000000E+00 -0.45593999997E+02  0.45594000000E+02  0.51100000000E-03 0. -1.
    9900012    2    1    2    0    0 -0.39188957085E+01 -0.30835683944E+02  0.71079564023E+01  0.59301949883E+02  0.50000010679E+02 0.  0.
        -12    1    1    2    0    0  0.39188957085E+01  0.30835683944E+02 -0.71079564023E+01  0.31886050117E+02  0.00000000000E+00 0.  1.
         11    1    3    3    0    0 -0.16710031168E+02 -0.26181352514E+02 -0.21245216793E+01  0.31132008508E+02  0.51100000000E-03 0. -1.
        -11    1    3    3    0    0 -0.48148814783E+01  0.43288554036E+01  0.30490134811E+00  0.64819007898E+01  0.51100000000E-03 0.  1.
        -12    1    3    3    0    0  0.17606016938E+02 -0.89831868329E+01  0.89275767335E+01  0.21688040585E+02  0.00000000000E+00 0.  1.
</event>
<event>
 7    1  0.1344618E-011  0.5930193E+02  0.7816164E-02  0.1266605E+00
        -11   -1    0    0    0    0  0.00000000000E+00  0.00000000000E+00  0.45593999997E+02  0.45594000000E+02  0.51100000000E-03 0. -1.
         11   -1    0    0    0    0 -0.00000000000E+00 -0.00000000000E+00 -0.45593999997E+02  0.45594000000E+02  0.51100000000E-03 0.  1.
    9900012    2    1    2    0    0  0.14184057270E+02 -0.38838966850E+01  0.28292211587E+02  0.59301931403E+02  0.49999976975E+02 0.  0.
        -12    1    1    2    0    0 -0.14184057270E+02  0.38838966850E+01 -0.28292211587E+02  0.31886068597E+02  0.00000000000E+00 0.  1.
         11    1    3    3    0    0  0.20513851608E+02  0.10321405702E+02  0.23327635019E+02  0.32734203508E+02  0.51100000000E-03 0. -1.
        -11    1    3    3    0    0  0.34814312358E+01  0.25682633167E+00 -0.52655132710E+01  0.63175907974E+01  0.51100000000E-03 0.  1.
        -12    1    3    3    0    0 -0.98112255740E+01 -0.14462128719E+02  0.10230089839E+02  0.20250137097E+02  0.00000000000E+00 0.  1.
</event>
<event>
 7    1  0.1344618E-011  0.5930191E+02  0.7816164E-02  0.1266605E+00
        -11   -1    0    0    0    0  0.00000000000E+00  0.00000000000E+00  0.45593999997E+02  0.45594000000E+02  0.51100000000E-03 0. -1.
         11   -1    0    0    0    0 -0.00000000000E+00 -0.00000000000E+00 -0.45593999997E+02  0.45594000000E+02  0.51100000000E-03 0.  1.
    9900012    2    1    2    0    0 -0.13332733406E+02 -0.15361383802E+02  0.24555834636E+02  0.59301907310E+02  0.49999933035E+02 0.  0.
        -12    1    1    2    0    0  0.13332733406E+02  0.15361383802E+02 -0.24555834636E+02  0.31886092690E+02  0.00000000000E+00 0.  1.
         11    1    3    3    0    0 -0.11181487296E+02  0.76674093813E+00  0.14183409964E+01  0.11297134206E+02  0.51100000000E-03 0. -1.
        -11    1    3    3    0    0 -0.20292187352E-01  0.12787953046E+02  0.96847792779E+01  0.16041418416E+02  0.51100000000E-03 0.  1.
         12    1    3    3    0    0 -0.21309539224E+01 -0.28916077786E+02  0.13452714362E+02  0.31963354687E+02  0.00000000000E+00 0. -1.
</event>
<event>
 7    1  0.1344618E-011  0.5930189E+02  0.7816164E-02  0.1266605E+00
        -11   -1    0    0    0    0  0.00000000000E+00  0.00000000000E+00  0.45593999997E+02  0.45594000000E+02  0.51100000000E-03 0.  1.
         11   -1    0    0    0    0 -0.00000000000E+00 -0.00000000000E+00 -0.45593999997E+02  0.45594000000E+02  0.51100000000E-03 0. -1.
    9900012    2    1    2    0    0  0.24014728357E+02 -0.20806994624E+02  0.26619177037E+01  0.59301890028E+02  0.49999901517E+02 0.  0.
        -12    1    1    2    0    0 -0.24014728357E+02  0.20806994624E+02 -0.26619177037E+01  0.31886109972E+02  0.00000000000E+00 0.  1.
         11    1    3    3    0    0  0.11970814084E+02  0.10954113672E+02 -0.60901651065E+01  0.17331563907E+02  0.51100000000E-03 0. -1.
        -11    1    3    3    0    0  0.11253385933E+02 -0.74010759083E+01  0.11142458613E+02  0.17480532136E+02  0.51100000000E-03 0.  1.
        -12    1    3    3    0    0  0.79052834002E+00 -0.24360032387E+02 -0.23903758024E+01  0.24489793985E+02  0.00000000000E+00 0.  1.
</event>
<event>
 7    1  0.1344618E-011  0.5930194E+02  0.7816164E-02  0.1266605E+00
        -11   -1    0    0    0    0  0.00000000000E+00  0.00000000000E+00  0.45593999997E+02  0.45594000000E+02  0.51100000000E-03 0.  1.
         11   -1    0    0    0    0 -0.00000000000E+00 -0.00000000000E+00 -0.45593999997E+02  0.45594000000E+02  0.51100000000E-03 0. -1.
    9900012    2    1    2    0    0 -0.10207197367E+02 -0.74308725376E+01 -0.29279963323E+02  0.59301937261E+02  0.49999987660E+02 0.  0.
        -12    1    1    2    0    0  0.10207197367E+02  0.74308725376E+01  0.29279963323E+02  0.31886062739E+02  0.00000000000E+00 0.  1.
         11    1    3    3    0    0 -0.23153500079E+02 -0.59748761345E+01 -0.26093833022E+02  0.35393104311E+02  0.51100000000E-03 0. -1.
        -11    1    3    3    0    0 -0.38572836298E+01  0.52721864867E+00  0.39493166757E+01  0.55456017681E+01  0.51100000000E-03 0.  1.
        -12    1    3    3    0    0  0.16803586342E+02 -0.19832150518E+01 -0.71354469767E+01  0.18363231182E+02  0.00000000000E+00 0.  1.
</event>
<event>
 7    1  0.1344618E-011  0.5930195E+02  0.7816164E-02  0.1266605E+00
        -11   -1    0    0    0    0  0.00000000000E+00  0.00000000000E+00  0.45593999997E+02  0.45594000000E+02  0.51100000000E-03 0.  1.
         11   -1    0    0    0    0 -0.00000000000E+00 -0.00000000000E+00 -0.45593999997E+02  0.45594000000E+02  0.51100000000E-03 0. -1.
    9900012    2    1    2    0    0  0.74675098636E+01  0.30596040516E+02 -0.49838546854E+01  0.59301949659E+02  0.50000010270E+02 0.  0.
        -12    1    1    2    0    0 -0.74675098636E+01 -0.30596040516E+02  0.49838546854E+01  0.31886050341E+02  0.00000000000E+00 0.  1.
         11    1    3    3    0    0  0.69604370890E+01  0.66735029865E+01 -0.16592578034E+00  0.96442137164E+01  0.51100000000E-03 0. -1.
        -11    1    3    3    0    0 -0.82951475785E+01  0.16195875098E+02  0.16995322816E+02  0.24898932536E+02  0.51100000000E-03 0.  1.
         12    1    3    3    0    0  0.88022203530E+01  0.77266624320E+01 -0.21813251721E+02  0.24758803407E+02  0.00000000000E+00 0. -1.
</event>
<event>
 7    1  0.1344618E-011  0.5930195E+02  0.7816164E-02  0.1266605E+00
        -11   -1    0    0    0    0  0.00000000000E+00  0.00000000000E+00  0.45593999997E+02  0.45594000000E+02  0.51100000000E-03 0.  1.
         11   -1    0    0    0    0 -0.00000000000E+00 -0.00000000000E+00 -0.45593999997E+02  0.45594000000E+02  0.51100000000E-03 0. -1.
    9900012    2    1    2    0    0 -0.21111174293E+02  0.20742406920E+02 -0.11865543975E+02  0.59301948838E+02  0.50000008773E+02 0.  0.
        -12    1    1    2    0    0  0.21111174293E+02 -0.20742406920E+02  0.11865543975E+02  0.31886051162E+02  0.00000000000E+00 0.  1.
         11    1    3    3    0    0  0.70864228613E+01  0.71272726562E+00 -0.87252427932E+01  0.11263002761E+02  0.51100000000E-03 0. -1.
        -11    1    3    3    0    0 -0.61158303768E+01 -0.89944368721E+01  0.24351620824E+01  0.11145998855E+02  0.51100000000E-03 0.  1.
        -12    1    3    3    0    0 -0.22081766778E+02  0.29024116527E+02 -0.55754632638E+01  0.36892947223E+02  0.00000000000E+00 0.  1.
</event>
<event>
 7    1  0.1344618E-011  0.5930195E+02  0.7816164E-02  0.1266605E+00
        -11   -1    0    0    0    0  0.00000000000E+00  0.00000000000E+00  0.45593999997E+02  0.45594000000E+02  0.51100000000E-03 0.  1.
         11   -1    0    0    0    0 -0.00000000000E+00 -0.00000000000E+00 -0.45593999997E+02  0.45594000000E+02  0.51100000000E-03 0. -1.
    9900012    2    1    2    0    0 -0.16634156634E+02  0.22273056961E+02 -0.15618440769E+02  0.59301954065E+02  0.50000018306E+02 0.  0.
        -12    1    1    2    0    0  0.16634156634E+02 -0.22273056961E+02  0.15618440769E+02  0.31886045935E+02  0.00000000000E+00 0.  1.
         11    1    3    3    0    0 -0.57745589585E+01  0.26040210744E+02 -0.31474361127E+01  0.26857856599E+02  0.51100000000E-03 0.  1.
        -11    1    3    3    0    0 -0.14598517291E+02  0.71802554386E+00 -0.18812874058E+02  0.23823444301E+02  0.51100000000E-03 0. -1.
         12    1    3    3    0    0  0.37389196152E+01 -0.44851793272E+01  0.63418694018E+01  0.86206531653E+01  0.00000000000E+00 0. -1.
</event>
<event>
 7    1  0.1344618E-011  0.5930195E+02  0.7816164E-02  0.1266605E+00
        -11   -1    0    0    0    0  0.00000000000E+00  0.00000000000E+00  0.45593999997E+02  0.45594000000E+02  0.51100000000E-03 0.  1.
         11   -1    0    0    0    0 -0.00000000000E+00 -0.00000000000E+00 -0.45593999997E+02  0.45594000000E+02  0.51100000000E-03 0. -1.
    9900012    2    1    2    0    0 -0.69747779661E+01 -0.30845687421E+02 -0.40763110950E+01  0.59301948625E+02  0.50000008384E+02 0.  0.
        -12    1    1    2    0    0  0.69747779661E+01  0.30845687421E+02  0.40763110950E+01  0.31886051375E+02  0.00000000000E+00 0.  1.
         11    1    3    3    0    0 -0.14209159435E+02 -0.83567846996E+01 -0.73905771877E+01  0.18065345106E+02  0.51100000000E-03 0. -1.
        -11    1    3    3    0    0 -0.82754791310E+01 -0.21662636389E+02  0.87436169489E+01  0.24783143622E+02  0.51100000000E-03 0.  1.
        -12    1    3    3    0    0  0.15509860600E+02 -0.82626633246E+00 -0.54293508562E+01  0.16453459897E+02  0.00000000000E+00 0.  1.
</event>
<event>
 7    1  0.1344618E-011  0.5930197E+02  0.7816164E-02  0.1266605E+00
        -11   -1    0    0    0    0  0.00000000000E+00  0.00000000000E+00  0.45593999997E+02  0.45594000000E+02  0.51100000000E-03 0.  1.
         11   -1    0    0    0    0 -0.00000000000E+00 -0.00000000000E+00 -0.45593999997E+02  0.45594000000E+02  0.51100000000E-03 0. -1.
    9900012    2    1    2    0    0  0.17178850434E+02  0.24463627413E+02 -0.11096703828E+02  0.59301971645E+02  0.50000050367E+02 0.  0.
        -12    1    1    2    0    0 -0.17178850434E+02 -0.24463627413E+02  0.11096703828E+02  0.31886028355E+02  0.00000000000E+00 0.  1.
         11    1    3    3    0    0  0.68089720978E+01  0.16591030517E+02 -0.32369219880E+01  0.18223667547E+02  0.51100000000E-03 0. -1.
        -11    1    3    3    0    0  0.76603430996E+01  0.91172535926E+01  0.14362383470E+02  0.18656988735E+02  0.51100000000E-03 0.  1.
        -12    1    3    3    0    0  0.27095352365E+01 -0.12446566973E+01 -0.22222165310E+02  0.22421315362E+02  0.00000000000E+00 0.  1.
</event>
<event>
 7    1  0.1344618E-011  0.5930190E+02  0.7816164E-02  0.1266605E+00
        -11   -1    0    0    0    0  0.00000000000E+00  0.00000000000E+00  0.45593999997E+02  0.45594000000E+02  0.51100000000E-03 0.  1.
         11   -1    0    0    0    0 -0.00000000000E+00 -0.00000000000E+00 -0.45593999997E+02  0.45594000000E+02  0.51100000000E-03 0. -1.
    9900012    2    1    2    0    0  0.14023184072E+02  0.12664406818E+02 -0.25684357425E+02  0.59301904160E+02  0.49999927291E+02 0.  0.
        -12    1    1    2    0    0 -0.14023184072E+02 -0.12664406818E+02  0.25684357425E+02  0.31886095840E+02  0.00000000000E+00 0.  1.
         11    1    3    3    0    0 -0.76382920797E+01  0.53926289134E+01  0.81518464282E+01  0.12404698825E+02  0.51100000000E-03 0. -1.
        -11    1    3    3    0    0  0.10040905844E+01  0.57778729981E+01  0.13959663479E+01  0.60283278435E+01  0.51100000000E-03 0.  1.
         12    1    3    3    0    0  0.20657385567E+02  0.14939049067E+01 -0.35232170201E+02  0.40868877492E+02  0.00000000000E+00 0. -1.
</event>
<event>
 7    1  0.1344618E-011  0.5930193E+02  0.7816164E-02  0.1266605E+00
        -11   -1    0    0    0    0  0.00000000000E+00  0.00000000000E+00  0.45593999997E+02  0.45594000000E+02  0.51100000000E-03 0.  1.
         11   -1    0    0    0    0 -0.00000000000E+00 -0.00000000000E+00 -0.45593999997E+02  0.45594000000E+02  0.51100000000E-03 0. -1.
    9900012    2    1    2    0    0 -0.13751673707E+02  0.21581261258E+02 -0.19022669855E+02  0.59301931951E+02  0.49999977975E+02 0.  0.
        -12    1    1    2    0    0  0.13751673707E+02 -0.21581261258E+02  0.19022669855E+02  0.31886068049E+02  0.00000000000E+00 0.  1.
         11    1    3    3    0    0 -0.18992573605E+02  0.32101584891E+02 -0.81965458804E+01  0.38189173457E+02  0.51100000000E-03 0. -1.
        -11    1    3    3    0    0 -0.30653964957E+01 -0.16305192271E+01 -0.78558913904E+01  0.85889625930E+01  0.51100000000E-03 0.  1.
        -12    1    3    3    0    0  0.83062963940E+01 -0.88898044062E+01 -0.29702325837E+01  0.12523795901E+02  0.00000000000E+00 0.  1.
</event>
<event>
 7    1  0.1344618E-011  0.5930195E+02  0.7816164E-02  0.1266605E+00
        -11   -1    0    0    0    0  0.00000000000E+00  0.00000000000E+00  0.45593999997E+02  0.45594000000E+02  0.51100000000E-03 0. -1.
         11   -1    0    0    0    0 -0.00000000000E+00 -0.00000000000E+00 -0.45593999997E+02  0.45594000000E+02  0.51100000000E-03 0.  1.
    9900012    2    1    2    0    0 -0.29030564286E+02 -0.12323420737E+02 -0.46988934941E+01  0.59301953499E+02  0.50000017273E+02 0.  0.
        -12    1    1    2    0    0  0.29030564286E+02  0.12323420737E+02  0.46988934941E+01  0.31886046501E+02  0.00000000000E+00 0.  1.
         11    1    3    3    0    0 -0.72740635407E+01 -0.87882559986E+01  0.60601029967E+01  0.12917828474E+02  0.51100000000E-03 0. -1.
        -11    1    3    3    0    0 -0.23485193277E+01  0.16778392360E+02 -0.26942685986E+01  0.17154855778E+02  0.51100000000E-03 0.  1.
         12    1    3    3    0    0 -0.19407981418E+02 -0.20313557099E+02 -0.80647278921E+01  0.29229269246E+02  0.00000000000E+00 0. -1.
</event>
<event>
 7    1  0.1344618E-011  0.5930196E+02  0.7816164E-02  0.1266605E+00
        -11   -1    0    0    0    0  0.00000000000E+00  0.00000000000E+00  0.45593999997E+02  0.45594000000E+02  0.51100000000E-03 0.  1.
         11   -1    0    0    0    0 -0.00000000000E+00 -0.00000000000E+00 -0.45593999997E+02  0.45594000000E+02  0.51100000000E-03 0. -1.
    9900012    2    1    2    0    0  0.29668658983E+02 -0.18494455251E+01 -0.11535597903E+02  0.59301956131E+02  0.50000022074E+02 0.  0.
        -12    1    1    2    0    0 -0.29668658983E+02  0.18494455251E+01  0.11535597903E+02  0.31886043869E+02  0.00000000000E+00 0.  1.
         11    1    3    3    0    0  0.12882309451E+02  0.38966111624E+01 -0.27525030893E+02  0.30639268941E+02  0.51100000000E-03 0. -1.
        -11    1    3    3    0    0  0.98852519958E+01 -0.64244458949E+01  0.62514713285E+00  0.11806037493E+02  0.51100000000E-03 0.  1.
        -12    1    3    3    0    0  0.69010975366E+01  0.67838920739E+00  0.15364285857E+02  0.16856649698E+02  0.00000000000E+00 0.  1.
</event>
<event>
 7    1  0.1344618E-011  0.5930194E+02  0.7816164E-02  0.1266605E+00
        -11   -1    0    0    0    0  0.00000000000E+00  0.00000000000E+00  0.45593999997E+02  0.45594000000E+02  0.51100000000E-03 0. -1.
         11   -1    0    0    0    0 -0.00000000000E+00 -0.00000000000E+00 -0.45593999997E+02  0.45594000000E+02  0.51100000000E-03 0.  1.
    9900012    2    1    2    0    0 -0.18335784144E+02  0.24869150216E+02 -0.78768958066E+01  0.59301935643E+02  0.49999984708E+02 0.  0.
        -12    1    1    2    0    0  0.18335784144E+02 -0.24869150216E+02  0.78768958066E+01  0.31886064357E+02  0.00000000000E+00 0.  1.
         11    1    3    3    0    0 -0.23367893202E+02  0.15668435386E+02 -0.15780741592E+02  0.32258178895E+02  0.51100000000E-03 0. -1.
        -11    1    3    3    0    0  0.98864624642E+01  0.10691693938E+02 -0.31324525548E+01  0.14895191123E+02  0.51100000000E-03 0.  1.
         12    1    3    3    0    0 -0.48543534066E+01 -0.14909791087E+01  0.11036298340E+02  0.12148565625E+02  0.00000000000E+00 0. -1.
</event>
<event>
 7    1  0.1344618E-011  0.5930194E+02  0.7816164E-02  0.1266605E+00
        -11   -1    0    0    0    0  0.00000000000E+00  0.00000000000E+00  0.45593999997E+02  0.45594000000E+02  0.51100000000E-03 0. -1.
         11   -1    0    0    0    0 -0.00000000000E+00 -0.00000000000E+00 -0.45593999997E+02  0.45594000000E+02  0.51100000000E-03 0.  1.
    9900012    2    1    2    0    0 -0.31185275265E+02  0.57465036854E+01  0.33432517001E+01  0.59301936745E+02  0.49999986718E+02 0.  0.
        -12    1    1    2    0    0  0.31185275265E+02 -0.57465036854E+01 -0.33432517001E+01  0.31886063255E+02  0.00000000000E+00 0.  1.
         11    1    3    3    0    0  0.48674324588E+01  0.91804990993E+01  0.11444161246E+02  0.15457758225E+02  0.51100000000E-03 0. -1.
        -11    1    3    3    0    0 -0.22056933059E+02  0.53740741600E+01  0.43866942813E+01  0.23122111842E+02  0.51100000000E-03 0.  1.
        -12    1    3    3    0    0 -0.13995774665E+02 -0.88080695739E+01 -0.12487603827E+02  0.20722066679E+02  0.00000000000E+00 0.  1.
</event>
<event>
 7    1  0.1344618E-011  0.5930193E+02  0.7816164E-02  0.1266605E+00
        -11   -1    0    0    0    0  0.00000000000E+00  0.00000000000E+00  0.45593999997E+02  0.45594000000E+02  0.51100000000E-03 0. -1.
         11   -1    0    0    0    0 -0.00000000000E+00 -0.00000000000E+00 -0.45593999997E+02  0.45594000000E+02  0.51100000000E-03 0.  1.
    9900012    2    1    2    0    0  0.15458366900E+02 -0.20556977984E+02  0.18845981236E+02  0.59301930003E+02  0.49999974423E+02 0.  0.
        -12    1    1    2    0    0 -0.15458366900E+02  0.20556977984E+02 -0.18845981236E+02  0.31886069997E+02  0.00000000000E+00 0.  1.
         11    1    3    3    0    0 -0.14469680319E+02 -0.10596962227E+02 -0.34716762649E+01  0.18267999161E+02  0.51100000000E-03 0. -1.
        -11    1    3    3    0    0 -0.14591792803E+01 -0.29941958813E+00  0.16896074316E+01  0.22524719301E+01  0.51100000000E-03 0.  1.
         12    1    3    3    0    0  0.31387226500E+02 -0.96605961692E+01  0.20628050070E+02  0.38781458913E+02  0.00000000000E+00 0. -1.
</event>
<event>
 7    1  0.1344618E-011  0.5930188E+02  0.7816164E-02  0.1266605E+00
        -11   -1    0    0    0    0  0.00000000000E+00  0.00000000000E+00  0.45593999997E+02  0.45594000000E+02  0.51100000000E-03 0.  1.
         11   -1    0    0    0    0 -0.00000000000E+00 -0.00000000000E+00 -0.45593999997E+02  0.45594000000E+02  0.51100000000E-03 0. -1.
    9900012    2    1    2    0    0  0.19926532794E+02  0.29317930781E+01 -0.24719679856E+02  0.59301879320E+02  0.49999881989E+02 0.  0.
        -12    1    1    2    0    0 -0.19926532794E+02 -0.29317930781E+01  0.24719679856E+02  0.31886120680E+02  0.00000000000E+00 0.  1.
         11    1    3    3    0    0  0.17981611284E+02  0.16556301625E+02 -0.40827646138E+01  0.24781413096E+02  0.51100000000E-03 0. -1.
        -11    1    3    3    0    0 -0.45610439049E+01  0.31321520256E+01  0.17564341899E+01  0.58050460066E+01  0.51100000000E-03 0.  1.
         12    1    3    3    0    0  0.65059654151E+01 -0.16756660572E+02 -0.22393349432E+02  0.28715420218E+02  0.00000000000E+00 0. -1.
</event>
<event>
 7    1  0.1344618E-011  0.5930199E+02  0.7816164E-02  0.1266605E+00
        -11   -1    0    0    0    0  0.00000000000E+00  0.00000000000E+00  0.45593999997E+02  0.45594000000E+02  0.51100000000E-03 0.  1.
         11   -1    0    0    0    0 -0.00000000000E+00 -0.00000000000E+00 -0.45593999997E+02  0.45594000000E+02  0.51100000000E-03 0. -1.
    9900012    2    1    2    0    0  0.18294162091E+02 -0.20136983128E+02 -0.16629596525E+02  0.59301985249E+02  0.50000075178E+02 0.  0.
        -12    1    1    2    0    0 -0.18294162091E+02  0.20136983128E+02  0.16629596525E+02  0.31886014751E+02  0.00000000000E+00 0.  1.
         11    1    3    3    0    0  0.60770765782E+01  0.53441475654E+01 -0.14329109680E+02  0.16456432099E+02  0.51100000000E-03 0. -1.
        -11    1    3    3    0    0 -0.20840997599E+01 -0.84324561988E+00  0.11127069914E+02  0.11351925833E+02  0.51100000000E-03 0.  1.
         12    1    3    3    0    0  0.14301185272E+02 -0.24637885073E+02 -0.13427556759E+02  0.31493627317E+02  0.00000000000E+00 0. -1.
</event>
<event>
 7    1  0.1344618E-011  0.5930194E+02  0.7816164E-02  0.1266605E+00
        -11   -1    0    0    0    0  0.00000000000E+00  0.00000000000E+00  0.45593999997E+02  0.45594000000E+02  0.51100000000E-03 0.  1.
         11   -1    0    0    0    0 -0.00000000000E+00 -0.00000000000E+00 -0.45593999997E+02  0.45594000000E+02  0.51100000000E-03 0. -1.
    9900012    2    1    2    0    0  0.62373645270E+01  0.29656960899E+02 -0.99136695572E+01  0.59301938937E+02  0.49999990716E+02 0.  0.
        -12    1    1    2    0    0 -0.62373645270E+01 -0.29656960899E+02  0.99136695572E+01  0.31886061063E+02  0.00000000000E+00 0.  1.
         11    1    3    3    0    0  0.13898173898E+02  0.14143739898E+02  0.40750274239E+01  0.20243775951E+02  0.51100000000E-03 0. -1.
        -11    1    3    3    0    0 -0.16062382751E+02  0.12303006810E+02  0.23890850470E+01  0.20373312048E+02  0.51100000000E-03 0.  1.
        -12    1    3    3    0    0  0.84015733799E+01  0.32102141909E+01 -0.16377782028E+02  0.18684850938E+02  0.00000000000E+00 0.  1.
</event>
<event>
 7    1  0.1344618E-011  0.5930195E+02  0.7816164E-02  0.1266605E+00
        -11   -1    0    0    0    0  0.00000000000E+00  0.00000000000E+00  0.45593999997E+02  0.45594000000E+02  0.51100000000E-03 0. -1.
         11   -1    0    0    0    0 -0.00000000000E+00 -0.00000000000E+00 -0.45593999997E+02  0.45594000000E+02  0.51100000000E-03 0.  1.
    9900012    2    1    2    0    0  0.16791769704E+02  0.68444588737E+01  0.26228042414E+02  0.59301947313E+02  0.50000005991E+02 0.  0.
        -12    1    1    2    0    0 -0.16791769704E+02 -0.68444588737E+01 -0.26228042414E+02  0.31886052687E+02  0.00000000000E+00 0.  1.
         11    1    3    3    0    0 -0.37734713275E+01 -0.38190283781E+01  0.39375574474E+01  0.66579593364E+01  0.51100000000E-03 0. -1.
        -11    1    3    3    0    0  0.24156074589E+02  0.11677103936E+01  0.30965408163E+02  0.39290405827E+02  0.51100000000E-03 0.  1.
        -12    1    3    3    0    0 -0.35908335569E+01  0.94957768582E+01 -0.86749231956E+01  0.13353582150E+02  0.00000000000E+00 0.  1.
</event>
<event>
 7    1  0.1344618E-011  0.5930191E+02  0.7816164E-02  0.1266605E+00
        -11   -1    0    0    0    0  0.00000000000E+00  0.00000000000E+00  0.45593999997E+02  0.45594000000E+02  0.51100000000E-03 0.  1.
         11   -1    0    0    0    0 -0.00000000000E+00 -0.00000000000E+00 -0.45593999997E+02  0.45594000000E+02  0.51100000000E-03 0. -1.
    9900012    2    1    2    0    0  0.31652576437E+02 -0.21215478415E+01  0.32149579018E+01  0.59301913463E+02  0.49999944258E+02 0.  0.
        -12    1    1    2    0    0 -0.31652576437E+02  0.21215478415E+01 -0.32149579018E+01  0.31886086537E+02  0.00000000000E+00 0.  1.
         11    1    3    3    0    0  0.14082158246E+02 -0.49203994576E+01 -0.11354181439E+02  0.18746598307E+02  0.51100000000E-03 0. -1.
        -11    1    3    3    0    0  0.17175384835E+01 -0.44881546687E+01 -0.96064210190E+01  0.10741359124E+02  0.51100000000E-03 0.  1.
         12    1    3    3    0    0  0.15852879708E+02  0.72870062849E+01  0.24175560359E+02  0.29813956033E+02  0.00000000000E+00 0. -1.
</event>
<event>
 7    1  0.1344618E-011  0.5930199E+02  0.7816164E-02  0.1266605E+00
        -11   -1    0    0    0    0  0.00000000000E+00  0.00000000000E+00  0.45593999997E+02  0.45594000000E+02  0.51100000000E-03 0.  1.
         11   -1    0    0    0    0 -0.00000000000E+00 -0.00000000000E+00 -0.45593999997E+02  0.45594000000E+02  0.51100000000E-03 0. -1.
    9900012    2    1    2    0    0  0.40929294123E+01 -0.17095837011E+02 -0.26602594732E+02  0.59301988008E+02  0.50000080210E+02 0.  0.
        -12    1    1    2    0    0 -0.40929294123E+01  0.17095837011E+02  0.26602594732E+02  0.31886011992E+02  0.00000000000E+00 0.  1.
         11    1    3    3    0    0  0.70629407761E+01  0.50218446423E+01  0.94055966622E+00  0.87171502663E+01  0.51100000000E-03 0.  1.
        -11    1    3    3    0    0 -0.72322944906E+01 -0.23317061833E+02 -0.34544842769E+02  0.42300562860E+02  0.51100000000E-03 0. -1.
         12    1    3    3    0    0  0.42622831268E+01  0.11993801801E+01  0.70016883708E+01  0.82842748815E+01  0.00000000000E+00 0. -1.
</event>
<event>
 7    1  0.1344618E-011  0.5930195E+02  0.7816164E-02  0.1266605E+00
        -11   -1    0    0    0    0  0.00000000000E+00  0.00000000000E+00  0.45593999997E+02  0.45594000000E+02  0.51100000000E-03 0.  1.
         11   -1    0    0    0    0 -0.00000000000E+00 -0.00000000000E+00 -0.45593999997E+02  0.45594000000E+02  0.51100000000E-03 0. -1.
    9900012    2    1    2    0    0  0.22124821090E+02 -0.14369576007E+02  0.17908881769E+02  0.59301945539E+02  0.50000002756E+02 0.  0.
        -12    1    1    2    0    0 -0.22124821090E+02  0.14369576007E+02 -0.17908881769E+02  0.31886054461E+02  0.00000000000E+00 0.  1.
         11    1    3    3    0    0 -0.12712867793E+02 -0.13102540156E+02  0.81837869742E+01  0.20006697268E+02  0.51100000000E-03 0. -1.
        -11    1    3    3    0    0  0.15501541048E+02 -0.98023073704E+00  0.12264679201E+02  0.19790931846E+02  0.51100000000E-03 0.  1.
        -12    1    3    3    0    0  0.19336147835E+02 -0.28680511358E+00 -0.25395844056E+01  0.19504316425E+02  0.00000000000E+00 0.  1.
</event>
<event>
 7    1  0.1344618E-011  0.5930195E+02  0.7816164E-02  0.1266605E+00
        -11   -1    0    0    0    0  0.00000000000E+00  0.00000000000E+00  0.45593999997E+02  0.45594000000E+02  0.51100000000E-03 0.  1.
         11   -1    0    0    0    0 -0.00000000000E+00 -0.00000000000E+00 -0.45593999997E+02  0.45594000000E+02  0.51100000000E-03 0. -1.
    9900012    2    1    2    0    0  0.89013692000E+01 -0.22873530216E+02 -0.20354054972E+02  0.59301948003E+02  0.50000007249E+02 0.  0.
        -12    1    1    2    0    0 -0.89013692000E+01  0.22873530216E+02  0.20354054972E+02  0.31886051997E+02  0.00000000000E+00 0.  1.
         11    1    3    3    0    0  0.10528168065E+02 -0.22169369580E+01 -0.12351128920E+02  0.16380095181E+02  0.51100000000E-03 0. -1.
        -11    1    3    3    0    0  0.16405361006E+02 -0.37901220433E+01 -0.69296479775E+01  0.18207715842E+02  0.51100000000E-03 0.  1.
        -12    1    3    3    0    0 -0.18032159871E+02 -0.16866471215E+02 -0.10732780744E+01  0.24714136980E+02  0.00000000000E+00 0.  1.
</event>
<event>
 7    1  0.1344618E-011  0.5930194E+02  0.7816164E-02  0.1266605E+00
        -11   -1    0    0    0    0  0.00000000000E+00  0.00000000000E+00  0.45593999997E+02  0.45594000000E+02  0.51100000000E-03 0.  1.
         11   -1    0    0    0    0 -0.00000000000E+00 -0.00000000000E+00 -0.45593999997E+02  0.45594000000E+02  0.51100000000E-03 0. -1.
    9900012    2    1    2    0    0  0.60978763817E+01  0.81348339744E+01 -0.30221865709E+02  0.59301940553E+02  0.49999993662E+02 0.  0.
        -12    1    1    2    0    0 -0.60978763817E+01 -0.81348339744E+01  0.30221865709E+02  0.31886059447E+02  0.00000000000E+00 0.  1.
         11    1    3    3    0    0  0.76563672569E+01  0.21201663492E+01 -0.40270022305E+01  0.89068407501E+01  0.51100000000E-03 0. -1.
        -11    1    3    3    0    0  0.29369915709E+01  0.12320618313E+02 -0.35847799461E+02  0.38019577608E+02  0.51100000000E-03 0.  1.
        -12    1    3    3    0    0 -0.44954824462E+01 -0.63059506875E+01  0.96529359824E+01  0.12375522194E+02  0.00000000000E+00 0.  1.
</event>
<event>
 7    1  0.1344618E-011  0.5930188E+02  0.7816164E-02  0.1266605E+00
        -11   -1    0    0    0    0  0.00000000000E+00  0.00000000000E+00  0.45593999997E+02  0.45594000000E+02  0.51100000000E-03 0.  1.
         11   -1    0    0    0    0 -0.00000000000E+00 -0.00000000000E+00 -0.45593999997E+02  0.45594000000E+02  0.51100000000E-03 0. -1.
    9900012    2    1    2    0    0  0.25505891196E+01  0.28570257164E+02  0.13926945000E+02  0.59301876117E+02  0.49999876147E+02 0.  0.
        -12    1    1    2    0    0 -0.25505891196E+01 -0.28570257164E+02 -0.13926945000E+02  0.31886123883E+02  0.00000000000E+00 0.  1.
         11    1    3    3    0    0  0.13183975960E+02  0.12102393778E+02 -0.10985947305E+01  0.17930199885E+02  0.51100000000E-03 0. -1.
        -11    1    3    3    0    0 -0.10589271338E+01 -0.89062548811E+00 -0.96334157981E+01  0.97322782860E+01  0.51100000000E-03 0.  1.
         12    1    3    3    0    0 -0.95744597064E+01  0.17358488874E+02  0.24658955528E+02  0.31639397946E+02  0.00000000000E+00 0. -1.
</event>
<event>
 7    1  0.1344618E-011  0.5930194E+02  0.7816164E-02  0.1266605E+00
        -11   -1    0    0    0    0  0.00000000000E+00  0.00000000000E+00  0.45593999997E+02  0.45594000000E+02  0.51100000000E-03 0.  1.
         11   -1    0    0    0    0 -0.00000000000E+00 -0.00000000000E+00 -0.45593999997E+02  0.45594000000E+02  0.51100000000E-03 0. -1.
    9900012    2    1    2    0    0 -0.14269877019E+02  0.28026767100E+02 -0.52527638305E+01  0.59301943611E+02  0.49999999239E+02 0.  0.
        -12    1    1    2    0    0  0.14269877019E+02 -0.28026767100E+02  0.52527638305E+01  0.31886056389E+02  0.00000000000E+00 0.  1.
         11    1    3    3    0    0 -0.26055898643E+01  0.84300701076E+01 -0.81918485399E+01  0.12039998477E+02  0.51100000000E-03 0. -1.
        -11    1    3    3    0    0 -0.26395761151E+02  0.16975713866E+02  0.60956471252E+01  0.31969797968E+02  0.51100000000E-03 0.  1.
         12    1    3    3    0    0  0.14731473996E+02  0.26209831263E+01 -0.31565624158E+01  0.15292147166E+02  0.00000000000E+00 0. -1.
</event>
<event>
 7    1  0.1344618E-011  0.5930195E+02  0.7816164E-02  0.1266605E+00
        -11   -1    0    0    0    0  0.00000000000E+00  0.00000000000E+00  0.45593999997E+02  0.45594000000E+02  0.51100000000E-03 0.  1.
         11   -1    0    0    0    0 -0.00000000000E+00 -0.00000000000E+00 -0.45593999997E+02  0.45594000000E+02  0.51100000000E-03 0. -1.
    9900012    2    1    2    0    0 -0.67118567515E+01  0.28455203682E+01 -0.31041495989E+02  0.59301945360E+02  0.50000002430E+02 0.  0.
        -12    1    1    2    0    0  0.67118567515E+01 -0.28455203682E+01  0.31041495989E+02  0.31886054640E+02  0.00000000000E+00 0.  1.
         11    1    3    3    0    0  0.53524104441E+01 -0.12529578030E+02 -0.16784232538E+02  0.21618258147E+02  0.51100000000E-03 0.  1.
        -11    1    3    3    0    0  0.52036124739E+01 -0.23852838254E+01 -0.11389495158E+02  0.12747068758E+02  0.51100000000E-03 0. -1.
        -12    1    3    3    0    0 -0.17267879670E+02  0.17760382223E+02 -0.28677682936E+01  0.24936618455E+02  0.00000000000E+00 0.  1.
</event>
<event>
 7    1  0.1344618E-011  0.5930197E+02  0.7816164E-02  0.1266605E+00
        -11   -1    0    0    0    0  0.00000000000E+00  0.00000000000E+00  0.45593999997E+02  0.45594000000E+02  0.51100000000E-03 0. -1.
         11   -1    0    0    0    0 -0.00000000000E+00 -0.00000000000E+00 -0.45593999997E+02  0.45594000000E+02  0.51100000000E-03 0.  1.
    9900012    2    1    2    0    0 -0.30070106751E+02 -0.33065261075E+00 -0.10601808992E+02  0.59301968496E+02  0.50000044625E+02 0.  0.
        -12    1    1    2    0    0  0.30070106751E+02  0.33065261075E+00  0.10601808992E+02  0.31886031504E+02  0.00000000000E+00 0.  1.
         11    1    3    3    0    0 -0.15770535964E+02 -0.55478869266E+01 -0.84060346106E+01  0.18712302693E+02  0.51100000000E-03 0. -1.
        -11    1    3    3    0    0 -0.19181113459E+02 -0.11096326784E+02  0.39061131068E+01  0.22501140005E+02  0.51100000000E-03 0.  1.
         12    1    3    3    0    0  0.48815426729E+01  0.16313561100E+02 -0.61018874885E+01  0.18088525799E+02  0.00000000000E+00 0. -1.
</event>
<event>
 7    1  0.1344618E-011  0.5930194E+02  0.7816164E-02  0.1266605E+00
        -11   -1    0    0    0    0  0.00000000000E+00  0.00000000000E+00  0.45593999997E+02  0.45594000000E+02  0.51100000000E-03 0.  1.
         11   -1    0    0    0    0 -0.00000000000E+00 -0.00000000000E+00 -0.45593999997E+02  0.45594000000E+02  0.51100000000E-03 0. -1.
    9900012    2    1    2    0    0 -0.37619184907E+01 -0.30461909365E+02 -0.86394841415E+01  0.59301942873E+02  0.49999997893E+02 0.  0.
        -12    1    1    2    0    0  0.37619184907E+01  0.30461909365E+02  0.86394841415E+01  0.31886057127E+02  0.00000000000E+00 0.  1.
         11    1    3    3    0    0 -0.96843631254E+01 -0.14686548655E+02 -0.10373747117E+02  0.20422933924E+02  0.51100000000E-03 0. -1.
        -11    1    3    3    0    0 -0.14028519520E+02 -0.36513599205E+01  0.49388288542E+01  0.15314170559E+02  0.51100000000E-03 0.  1.
        -12    1    3    3    0    0  0.19950964155E+02 -0.12124000789E+02 -0.32045658783E+01  0.23564838389E+02  0.00000000000E+00 0.  1.
</event>
<event>
 7    1  0.1344618E-011  0.5930195E+02  0.7816164E-02  0.1266605E+00
        -11   -1    0    0    0    0  0.00000000000E+00  0.00000000000E+00  0.45593999997E+02  0.45594000000E+02  0.51100000000E-03 0.  1.
         11   -1    0    0    0    0 -0.00000000000E+00 -0.00000000000E+00 -0.45593999997E+02  0.45594000000E+02  0.51100000000E-03 0. -1.
    9900012    2    1    2    0    0 -0.38428211350E+01  0.18154088597E+02 -0.25930334819E+02  0.59301945511E+02  0.50000002705E+02 0.  0.
        -12    1    1    2    0    0  0.38428211350E+01 -0.18154088597E+02  0.25930334819E+02  0.31886054489E+02  0.00000000000E+00 0.  1.
         11    1    3    3    0    0  0.15734475558E+02  0.14551593719E+02 -0.19636365998E+02  0.29067326515E+02  0.51100000000E-03 0. -1.
        -11    1    3    3    0    0  0.46888633096E+01 -0.11882451507E+01 -0.11023514570E+01  0.49611031707E+01  0.51100000000E-03 0.  1.
        -12    1    3    3    0    0 -0.24266160003E+02  0.47907400289E+01 -0.51916173642E+01  0.25273515825E+02  0.00000000000E+00 0.  1.
</event>
<event>
 7    1  0.1344618E-011  0.5930192E+02  0.7816164E-02  0.1266605E+00
        -11   -1    0    0    0    0  0.00000000000E+00  0.00000000000E+00  0.45593999997E+02  0.45594000000E+02  0.51100000000E-03 0.  1.
         11   -1    0    0    0    0 -0.00000000000E+00 -0.00000000000E+00 -0.45593999997E+02  0.45594000000E+02  0.51100000000E-03 0. -1.
    9900012    2    1    2    0    0  0.70677954908E+01 -0.64330709989E+01 -0.30420126376E+02  0.59301918015E+02  0.49999952560E+02 0.  0.
        -12    1    1    2    0    0 -0.70677954908E+01  0.64330709989E+01  0.30420126376E+02  0.31886081985E+02  0.00000000000E+00 0.  1.
         11    1    3    3    0    0 -0.16878747472E+02  0.37150204570E+01 -0.44385153505E+01  0.17843595826E+02  0.51100000000E-03 0. -1.
        -11    1    3    3    0    0  0.63905563275E+01 -0.34623916535E+01  0.21958456879E+01  0.75927007503E+01  0.51100000000E-03 0.  1.
         12    1    3    3    0    0  0.17555986636E+02 -0.66856998023E+01 -0.28177456714E+02  0.33865621439E+02  0.00000000000E+00 0. -1.
</event>
<event>
 7    1  0.1344618E-011  0.5930194E+02  0.7816164E-02  0.1266605E+00
        -11   -1    0    0    0    0  0.00000000000E+00  0.00000000000E+00  0.45593999997E+02  0.45594000000E+02  0.51100000000E-03 0.  1.
         11   -1    0    0    0    0 -0.00000000000E+00 -0.00000000000E+00 -0.45593999997E+02  0.45594000000E+02  0.51100000000E-03 0. -1.
    9900012    2    1    2    0    0 -0.15278926619E+02 -0.14172963906E+02 -0.24133010390E+02  0.59301941996E+02  0.49999996295E+02 0.  0.
        -12    1    1    2    0    0  0.15278926619E+02  0.14172963906E+02  0.24133010390E+02  0.31886058004E+02  0.00000000000E+00 0.  1.
         11    1    3    3    0    0 -0.10093010323E+02 -0.61831806949E+01  0.29803389425E+01  0.12205859304E+02  0.51100000000E-03 0. -1.
        -11    1    3    3    0    0 -0.94954761278E+01 -0.16243113586E+02 -0.41363241813E+00  0.18819508439E+02  0.51100000000E-03 0.  1.
         12    1    3    3    0    0  0.43095598312E+01  0.82533303740E+01 -0.26699716914E+02  0.28276574253E+02  0.00000000000E+00 0. -1.
</event>
<event>
 7    1  0.1344618E-011  0.5930207E+02  0.7816164E-02  0.1266604E+00
        -11   -1    0    0    0    0  0.00000000000E+00  0.00000000000E+00  0.45593999997E+02  0.45594000000E+02  0.51100000000E-03 0.  1.
         11   -1    0    0    0    0 -0.00000000000E+00 -0.00000000000E+00 -0.45593999997E+02  0.45594000000E+02  0.51100000000E-03 0. -1.
    9900012    2    1    2    0    0  0.18456010727E+02  0.23952126297E+02 -0.10118483893E+02  0.59302072032E+02  0.50000233448E+02 0.  0.
        -12    1    1    2    0    0 -0.18456010727E+02 -0.23952126297E+02  0.10118483893E+02  0.31885927968E+02  0.00000000000E+00 0.  1.
         11    1    3    3    0    0  0.17337426614E+02  0.10405517485E+02 -0.70310625859E+01  0.21407872316E+02  0.51100000000E-03 0. -1.
        -11    1    3    3    0    0  0.14546281874E+02  0.74459027462E+01 -0.12345662055E+02  0.20480506730E+02  0.51100000000E-03 0.  1.
        -12    1    3    3    0    0 -0.13427697761E+02  0.61007060658E+01  0.92582407476E+01  0.17413692986E+02  0.00000000000E+00 0.  1.
</event>
<event>
 7    1  0.1344618E-011  0.5930196E+02  0.7816164E-02  0.1266605E+00
        -11   -1    0    0    0    0  0.00000000000E+00  0.00000000000E+00  0.45593999997E+02  0.45594000000E+02  0.51100000000E-03 0.  1.
         11   -1    0    0    0    0 -0.00000000000E+00 -0.00000000000E+00 -0.45593999997E+02  0.45594000000E+02  0.51100000000E-03 0. -1.
    9900012    2    1    2    0    0 -0.20536522071E+02  0.18415063691E+02 -0.15995512984E+02  0.59301956891E+02  0.50000023460E+02 0.  0.
        -12    1    1    2    0    0  0.20536522071E+02 -0.18415063691E+02  0.15995512984E+02  0.31886043109E+02  0.00000000000E+00 0.  1.
         11    1    3    3    0    0  0.83990605113E+01 -0.92516880658E+01 -0.48578609697E+01  0.13406594012E+02  0.51100000000E-03 0. -1.
        -11    1    3    3    0    0  0.28429610697E+01  0.19599172056E+01  0.25638822321E+00  0.34625768264E+01  0.51100000000E-03 0.  1.
        -12    1    3    3    0    0 -0.31778543652E+02  0.25706834551E+02 -0.11394040237E+02  0.42432786053E+02  0.00000000000E+00 0.  1.
</event>
<event>
 7    1  0.1344618E-011  0.5930194E+02  0.7816164E-02  0.1266605E+00
        -11   -1    0    0    0    0  0.00000000000E+00  0.00000000000E+00  0.45593999997E+02  0.45594000000E+02  0.51100000000E-03 0. -1.
         11   -1    0    0    0    0 -0.00000000000E+00 -0.00000000000E+00 -0.45593999997E+02  0.45594000000E+02  0.51100000000E-03 0.  1.
    9900012    2    1    2    0    0  0.75818878808E+01  0.15647224581E+02 -0.26728263286E+02  0.59301941617E+02  0.49999995604E+02 0.  0.
        -12    1    1    2    0    0 -0.75818878808E+01 -0.15647224581E+02  0.26728263286E+02  0.31886058383E+02  0.00000000000E+00 0.  1.
         11    1    3    3    0    0  0.80241661508E+01  0.72874083237E+01 -0.15675987989E+01  0.10952211135E+02  0.51100000000E-03 0. -1.
        -11    1    3    3    0    0  0.93466886020E+01 -0.13816541240E+02 -0.71421694533E+01  0.18145742873E+02  0.51100000000E-03 0.  1.
        -12    1    3    3    0    0 -0.97889668721E+01  0.22176357497E+02 -0.18018495033E+02  0.30203987609E+02  0.00000000000E+00 0.  1.
</event>
<event>
 7    1  0.1344618E-011  0.5930192E+02  0.7816164E-02  0.1266605E+00
        -11   -1    0    0    0    0  0.00000000000E+00  0.00000000000E+00  0.45593999997E+02  0.45594000000E+02  0.51100000000E-03 0.  1.
         11   -1    0    0    0    0 -0.00000000000E+00 -0.00000000000E+00 -0.45593999997E+02  0.45594000000E+02  0.51100000000E-03 0. -1.
    9900012    2    1    2    0    0 -0.20196734277E+02 -0.13228294910E+02 -0.20828490411E+02  0.59301923501E+02  0.49999962564E+02 0.  0.
        -12    1    1    2    0    0  0.20196734277E+02  0.13228294910E+02  0.20828490411E+02  0.31886076499E+02  0.00000000000E+00 0.  1.
         11    1    3    3    0    0 -0.20261015321E+01  0.83829266396E+01 -0.17060314713E+02  0.19116298931E+02  0.51100000000E-03 0. -1.
        -11    1    3    3    0    0 -0.58379517580E+01  0.26341825780E+01  0.82524788668E+01  0.10446243645E+02  0.51100000000E-03 0.  1.
        -12    1    3    3    0    0 -0.12332680987E+02 -0.24245404127E+02 -0.12020654565E+02  0.29739380925E+02  0.00000000000E+00 0.  1.
</event>
<event>
 7    1  0.1344618E-011  0.5930194E+02  0.7816164E-02  0.1266605E+00
        -11   -1    0    0    0    0  0.00000000000E+00  0.00000000000E+00  0.45593999997E+02  0.45594000000E+02  0.51100000000E-03 0. -1.
         11   -1    0    0    0    0 -0.00000000000E+00 -0.00000000000E+00 -0.45593999997E+02  0.45594000000E+02  0.51100000000E-03 0.  1.
    9900012    2    1    2    0    0 -0.28907927427E+02 -0.77736989698E+01  0.10982809738E+02  0.59301940765E+02  0.49999994050E+02 0.  0.
        -12    1    1    2    0    0  0.28907927427E+02  0.77736989698E+01 -0.10982809738E+02  0.31886059235E+02  0.00000000000E+00 0.  1.
         11    1    3    3    0    0 -0.21791181084E+02  0.26315520436E+00 -0.11711121971E+02  0.24740153633E+02  0.51100000000E-03 0. -1.
        -11    1    3    3    0    0 -0.13386852326E+02  0.48381556803E+00  0.57303076494E+01  0.14569774148E+02  0.51100000000E-03 0.  1.
        -12    1    3    3    0    0  0.62701059834E+01 -0.85206697422E+01  0.16963624060E+02  0.19992012984E+02  0.00000000000E+00 0.  1.
</event>
<event>
 7    1  0.1344618E-011  0.5930198E+02  0.7816164E-02  0.1266605E+00
        -11   -1    0    0    0    0  0.00000000000E+00  0.00000000000E+00  0.45593999997E+02  0.45594000000E+02  0.51100000000E-03 0. -1.
         11   -1    0    0    0    0 -0.00000000000E+00 -0.00000000000E+00 -0.45593999997E+02  0.45594000000E+02  0.51100000000E-03 0.  1.
    9900012    2    1    2    0    0 -0.12476413265E+02 -0.23042531859E+02  0.18168638019E+02  0.59301975320E+02  0.50000057069E+02 0.  0.
        -12    1    1    2    0    0  0.12476413265E+02  0.23042531859E+02 -0.18168638019E+02  0.31886024680E+02  0.00000000000E+00 0.  1.
         11    1    3    3    0    0 -0.22623822772E+01 -0.82388071009E+01 -0.69753462642E+01  0.11029586202E+02  0.51100000000E-03 0. -1.
        -11    1    3    3    0    0  0.49452610761E+01 -0.25389822217E+01 -0.80451780073E+01  0.97789021502E+01  0.51100000000E-03 0.  1.
         12    1    3    3    0    0 -0.15159292064E+02 -0.12264742537E+02  0.33189162291E+02  0.38493486968E+02  0.00000000000E+00 0. -1.
</event>
<event>
 7    1  0.1344618E-011  0.5930196E+02  0.7816164E-02  0.1266605E+00
        -11   -1    0    0    0    0  0.00000000000E+00  0.00000000000E+00  0.45593999997E+02  0.45594000000E+02  0.51100000000E-03 0.  1.
         11   -1    0    0    0    0 -0.00000000000E+00 -0.00000000000E+00 -0.45593999997E+02  0.45594000000E+02  0.51100000000E-03 0. -1.
    9900012    2    1    2    0    0 -0.47373856529E+01 -0.12912083669E+01 -0.31505702706E+02  0.59301963168E+02  0.50000034907E+02 0.  0.
        -12    1    1    2    0    0  0.47373856529E+01  0.12912083669E+01  0.31505702706E+02  0.31886036832E+02  0.00000000000E+00 0.  1.
         11    1    3    3    0    0  0.43346842788E+01 -0.99534100358E+01 -0.26435597799E+02  0.28577975617E+02  0.51100000000E-03 0. -1.
        -11    1    3    3    0    0  0.18634559364E+01 -0.32476603021E+01 -0.12413365068E+02  0.12965777957E+02  0.51100000000E-03 0.  1.
        -12    1    3    3    0    0 -0.10935525868E+02  0.11909861971E+02  0.73432601605E+01  0.17758209593E+02  0.00000000000E+00 0.  1.
</event>
<event>
 7    1  0.1344618E-011  0.5930192E+02  0.7816164E-02  0.1266605E+00
        -11   -1    0    0    0    0  0.00000000000E+00  0.00000000000E+00  0.45593999997E+02  0.45594000000E+02  0.51100000000E-03 0. -1.
         11   -1    0    0    0    0 -0.00000000000E+00 -0.00000000000E+00 -0.45593999997E+02  0.45594000000E+02  0.51100000000E-03 0.  1.
    9900012    2    1    2    0    0 -0.22569536153E+02 -0.22491398501E+02 -0.12146556711E+01  0.59301915933E+02  0.49999948763E+02 0.  0.
        -12    1    1    2    0    0  0.22569536153E+02  0.22491398501E+02  0.12146556711E+01  0.31886084067E+02  0.00000000000E+00 0.  1.
         11    1    3    3    0    0 -0.21008982682E+01 -0.61786300846E+01 -0.43942904725E+01  0.78675938045E+01  0.51100000000E-03 0. -1.
        -11    1    3    3    0    0 -0.26520756779E+02 -0.20360651176E+02 -0.11245660956E+02  0.35275650908E+02  0.51100000000E-03 0.  1.
         12    1    3    3    0    0  0.60521188939E+01  0.40478827589E+01  0.14425295757E+02  0.16158671221E+02  0.00000000000E+00 0. -1.
</event>
<event>
 7    1  0.1344618E-011  0.5930192E+02  0.7816164E-02  0.1266605E+00
        -11   -1    0    0    0    0  0.00000000000E+00  0.00000000000E+00  0.45593999997E+02  0.45594000000E+02  0.51100000000E-03 0.  1.
         11   -1    0    0    0    0 -0.00000000000E+00 -0.00000000000E+00 -0.45593999997E+02  0.45594000000E+02  0.51100000000E-03 0. -1.
    9900012    2    1    2    0    0  0.19908515847E+02  0.24790153515E+01 -0.24783617859E+02  0.59301917855E+02  0.49999952268E+02 0.  0.
        -12    1    1    2    0    0 -0.19908515847E+02 -0.24790153515E+01  0.24783617859E+02  0.31886082145E+02  0.00000000000E+00 0.  1.
         11    1    3    3    0    0 -0.14174578678E+01  0.47516734074E+01 -0.11570123802E+01  0.50917840574E+01  0.51100000000E-03 0. -1.
        -11    1    3    3    0    0 -0.92800971734E+01  0.11339063932E+02 -0.32691372890E+01  0.15012722381E+02  0.51100000000E-03 0.  1.
         12    1    3    3    0    0  0.30606070889E+02 -0.13611721988E+02 -0.20357468190E+02  0.39197411417E+02  0.00000000000E+00 0. -1.
</event>
<event>
 7    1  0.1344618E-011  0.5930191E+02  0.7816164E-02  0.1266605E+00
        -11   -1    0    0    0    0  0.00000000000E+00  0.00000000000E+00  0.45593999997E+02  0.45594000000E+02  0.51100000000E-03 0. -1.
         11   -1    0    0    0    0 -0.00000000000E+00 -0.00000000000E+00 -0.45593999997E+02  0.45594000000E+02  0.51100000000E-03 0.  1.
    9900012    2    1    2    0    0 -0.24799665700E+01 -0.31573862907E+02 -0.36964727714E+01  0.59301906417E+02  0.49999931407E+02 0.  0.
        -12    1    1    2    0    0  0.24799665700E+01  0.31573862907E+02  0.36964727714E+01  0.31886093583E+02  0.00000000000E+00 0.  1.
         11    1    3    3    0    0 -0.44275866971E+01 -0.42980430104E+01  0.12298542129E+02  0.13759754229E+02  0.51100000000E-03 0. -1.
        -11    1    3    3    0    0 -0.11752063463E+02  0.33285124201E+00 -0.33173150498E+01  0.12215824368E+02  0.51100000000E-03 0.  1.
         12    1    3    3    0    0  0.13699683590E+02 -0.27608671138E+02 -0.12677699851E+02  0.33326327820E+02  0.00000000000E+00 0. -1.
</event>
<event>
 7    1  0.1582740E-011  0.5930195E+02  0.7816164E-02  0.1266605E+00
        -11   -1    0    0    0    0  0.00000000000E+00  0.00000000000E+00  0.45593999997E+02  0.45594000000E+02  0.51100000000E-03 0.  1.
         11   -1    0    0    0    0 -0.00000000000E+00 -0.00000000000E+00 -0.45593999997E+02  0.45594000000E+02  0.51100000000E-03 0. -1.
    9900012    2    1    2    0    0 -0.17531811758E+02 -0.25814588267E+02 -0.65546113524E+01  0.59301947863E+02  0.50000006994E+02 0.  0.
        -12    1    1    2    0    0  0.17531811758E+02  0.25814588267E+02  0.65546113524E+01  0.31886052137E+02  0.00000000000E+00 0.  1.
         11    1    3    3    0    0 -0.66431943018E+01 -0.10835061114E+02 -0.15606404284E+02  0.20126858543E+02  0.51100000000E-03 0. -1.
        -11    1    3    3    0    0 -0.19447931762E+02 -0.39542675658E+01 -0.37946595088E+01  0.20205388461E+02  0.51100000000E-03 0.  1.
        -12    1    3    3    0    0  0.85593143056E+01 -0.11025259587E+02  0.12846452441E+02  0.18969700859E+02  0.00000000000E+00 0.  1.
</event>
<event>
 7    1  0.1344618E-011  0.5930195E+02  0.7816164E-02  0.1266605E+00
        -11   -1    0    0    0    0  0.00000000000E+00  0.00000000000E+00  0.45593999997E+02  0.45594000000E+02  0.51100000000E-03 0. -1.
         11   -1    0    0    0    0 -0.00000000000E+00 -0.00000000000E+00 -0.45593999997E+02  0.45594000000E+02  0.51100000000E-03 0.  1.
    9900012    2    1    2    0    0  0.20009767140E+02 -0.24825981654E+02  0.93547207983E-04  0.59301950604E+02  0.50000011994E+02 0.  0.
        -12    1    1    2    0    0 -0.20009767140E+02  0.24825981654E+02 -0.93547207982E-04  0.31886049396E+02  0.00000000000E+00 0.  1.
         11    1    3    3    0    0  0.13817606560E+02 -0.49570373595E+01  0.51398776528E+01  0.15553675224E+02  0.51100000000E-03 0. -1.
        -11    1    3    3    0    0  0.15089217814E+02  0.45088746824E+01  0.39768623314E+01  0.16242840867E+02  0.51100000000E-03 0.  1.
        -12    1    3    3    0    0 -0.88970572348E+01 -0.24377818977E+02 -0.91166464370E+01  0.27505434513E+02  0.00000000000E+00 0.  1.
</event>
<event>
 7    1  0.1344618E-011  0.5930192E+02  0.7816164E-02  0.1266605E+00
        -11   -1    0    0    0    0  0.00000000000E+00  0.00000000000E+00  0.45593999997E+02  0.45594000000E+02  0.51100000000E-03 0. -1.
         11   -1    0    0    0    0 -0.00000000000E+00 -0.00000000000E+00 -0.45593999997E+02  0.45594000000E+02  0.51100000000E-03 0.  1.
    9900012    2    1    2    0    0 -0.40510802315E+01  0.31140254167E+02  0.55313216147E+01  0.59301918406E+02  0.49999953272E+02 0.  0.
        -12    1    1    2    0    0  0.40510802315E+01 -0.31140254167E+02 -0.55313216147E+01  0.31886081594E+02  0.00000000000E+00 0.  1.
         11    1    3    3    0    0 -0.16520951442E+01  0.13537787312E+01 -0.58202091695E+01  0.61997556610E+01  0.51100000000E-03 0. -1.
        -11    1    3    3    0    0 -0.13022996292E+02  0.93213956730E+01 -0.12207117473E+02  0.20137044643E+02  0.51100000000E-03 0.  1.
         12    1    3    3    0    0  0.10624011204E+02  0.20465079763E+02  0.23558648257E+02  0.32965118102E+02  0.00000000000E+00 0. -1.
</event>
<event>
 7    1  0.1344618E-011  0.5930158E+02  0.7816164E-02  0.1266606E+00
        -11   -1    0    0    0    0  0.00000000000E+00  0.00000000000E+00  0.45593999997E+02  0.45594000000E+02  0.51100000000E-03 0.  1.
         11   -1    0    0    0    0 -0.00000000000E+00 -0.00000000000E+00 -0.45593999997E+02  0.45594000000E+02  0.51100000000E-03 0. -1.
    9900012    2    1    2    0    0  0.30022167947E+02  0.95533920092E+01 -0.49138447519E+01  0.59301580675E+02  0.49999337328E+02 0.  0.
        -12    1    1    2    0    0 -0.30022167947E+02 -0.95533920092E+01  0.49138447519E+01  0.31886419325E+02  0.00000000000E+00 0.  1.
         11    1    3    3    0    0  0.27211838789E+01 -0.46834611829E+01 -0.53896077579E+01  0.76411728419E+01  0.51100000000E-03 0. -1.
        -11    1    3    3    0    0  0.86741498733E+01 -0.14179858927E+02 -0.47394796647E+01  0.17285020768E+02  0.51100000000E-03 0.  1.
         12    1    3    3    0    0  0.18626834194E+02  0.28416712119E+02  0.52152426706E+01  0.34375387065E+02  0.00000000000E+00 0. -1.
</event>
<event>
 7    1  0.1344618E-011  0.5930192E+02  0.7816164E-02  0.1266605E+00
        -11   -1    0    0    0    0  0.00000000000E+00  0.00000000000E+00  0.45593999997E+02  0.45594000000E+02  0.51100000000E-03 0.  1.
         11   -1    0    0    0    0 -0.00000000000E+00 -0.00000000000E+00 -0.45593999997E+02  0.45594000000E+02  0.51100000000E-03 0. -1.
    9900012    2    1    2    0    0  0.11488327866E+02  0.64362133968E+01 -0.29039896553E+02  0.59301919779E+02  0.49999955776E+02 0.  0.
        -12    1    1    2    0    0 -0.11488327866E+02 -0.64362133968E+01  0.29039896553E+02  0.31886080221E+02  0.00000000000E+00 0.  1.
         11    1    3    3    0    0  0.78988085345E+01 -0.81543904585E+01 -0.34384661461E+02  0.36210360452E+02  0.51100000000E-03 0. -1.
        -11    1    3    3    0    0  0.20310844259E+01 -0.30893029441E+01 -0.16055508517E+01  0.40307431603E+01  0.51100000000E-03 0.  1.
         12    1    3    3    0    0  0.15584349053E+01  0.17679906800E+02  0.69503157591E+01  0.19060816167E+02  0.00000000000E+00 0. -1.
</event>
<event>
 7    1  0.1344618E-011  0.5930194E+02  0.7816164E-02  0.1266605E+00
        -11   -1    0    0    0    0  0.00000000000E+00  0.00000000000E+00  0.45593999997E+02  0.45594000000E+02  0.51100000000E-03 0. -1.
         11   -1    0    0    0    0 -0.00000000000E+00 -0.00000000000E+00 -0.45593999997E+02  0.45594000000E+02  0.51100000000E-03 0.  1.
    9900012    2    1    2    0    0  0.51316894686E+01 -0.63490516532E+01  0.30823308514E+02  0.59301936564E+02  0.49999986387E+02 0.  0.
        -12    1    1    2    0    0 -0.51316894686E+01  0.63490516532E+01 -0.30823308514E+02  0.31886063436E+02  0.00000000000E+00 0.  1.
         11    1    3    3    0    0  0.65969050263E+01 -0.27623564698E+02  0.16034468294E+02  0.32614178761E+02  0.51100000000E-03 0. -1.
        -11    1    3    3    0    0  0.94418163502E+00  0.46473560007E+00  0.16582712349E+01  0.19640065905E+01  0.51100000000E-03 0.  1.
        -12    1    3    3    0    0 -0.24093971927E+01  0.20809777444E+02  0.13130568985E+02  0.24723751212E+02  0.00000000000E+00 0.  1.
</event>
<event>
 7    1  0.1344618E-011  0.5930192E+02  0.7816164E-02  0.1266605E+00
        -11   -1    0    0    0    0  0.00000000000E+00  0.00000000000E+00  0.45593999997E+02  0.45594000000E+02  0.51100000000E-03 0. -1.
         11   -1    0    0    0    0 -0.00000000000E+00 -0.00000000000E+00 -0.45593999997E+02  0.45594000000E+02  0.51100000000E-03 0.  1.
    9900012    2    1    2    0    0 -0.10171895559E+02  0.17850180740E+02  0.24384944443E+02  0.59301922675E+02  0.49999961058E+02 0.  0.
        -12    1    1    2    0    0  0.10171895559E+02 -0.17850180740E+02 -0.24384944443E+02  0.31886077325E+02  0.00000000000E+00 0.  1.
         11    1    3    3    0    0 -0.69220186715E+01  0.10518118544E+02  0.58344550728E+01  0.13877536757E+02  0.51100000000E-03 0. -1.
        -11    1    3    3    0    0 -0.20259450308E+02  0.59510368150E+01  0.18924361724E+02  0.28354746214E+02  0.51100000000E-03 0.  1.
         12    1    3    3    0    0  0.17009573421E+02  0.13810253810E+01 -0.37387235472E+00  0.17069639703E+02  0.00000000000E+00 0. -1.
</event>
<event>
 7    1  0.1344618E-011  0.5930217E+02  0.7816164E-02  0.1266604E+00
        -11   -1    0    0    0    0  0.00000000000E+00  0.00000000000E+00  0.45593999997E+02  0.45594000000E+02  0.51100000000E-03 0.  1.
         11   -1    0    0    0    0 -0.00000000000E+00 -0.00000000000E+00 -0.45593999997E+02  0.45594000000E+02  0.51100000000E-03 0. -1.
    9900012    2    1    2    0    0  0.21024150034E+02 -0.14037255844E+01 -0.23931591462E+02  0.59302166154E+02  0.50000405103E+02 0.  0.
        -12    1    1    2    0    0 -0.21024150034E+02  0.14037255844E+01  0.23931591462E+02  0.31885833846E+02  0.00000000000E+00 0.  1.
         11    1    3    3    0    0  0.13473873441E+02 -0.56052468349E+01  0.52080951272E+01  0.15494783403E+02  0.51100000000E-03 0. -1.
        -11    1    3    3    0    0 -0.46153598605E+01  0.13656287031E+02 -0.51727717798E+01  0.15315132721E+02  0.51100000000E-03 0.  1.
         12    1    3    3    0    0  0.12165636453E+02 -0.94547657805E+01 -0.23966914810E+02  0.28492250030E+02  0.00000000000E+00 0. -1.
</event>
<event>
 7    1  0.1344618E-011  0.5930190E+02  0.7816164E-02  0.1266605E+00
        -11   -1    0    0    0    0  0.00000000000E+00  0.00000000000E+00  0.45593999997E+02  0.45594000000E+02  0.51100000000E-03 0. -1.
         11   -1    0    0    0    0 -0.00000000000E+00 -0.00000000000E+00 -0.45593999997E+02  0.45594000000E+02  0.51100000000E-03 0.  1.
    9900012    2    1    2    0    0 -0.21238079488E+02 -0.11931965490E+02 -0.20574152060E+02  0.59301897168E+02  0.49999914539E+02 0.  0.
        -12    1    1    2    0    0  0.21238079488E+02  0.11931965490E+02  0.20574152060E+02  0.31886102832E+02  0.00000000000E+00 0.  1.
         11    1    3    3    0    0  0.11484020104E+01 -0.79273302267E+01  0.10212380398E+02  0.12978987069E+02  0.51100000000E-03 0. -1.
        -11    1    3    3    0    0 -0.32965994561E+01 -0.12783179799E+02 -0.85428995242E+01  0.15724451860E+02  0.51100000000E-03 0.  1.
         12    1    3    3    0    0 -0.19089882042E+02  0.87785445351E+01 -0.22243632933E+02  0.30598458239E+02  0.00000000000E+00 0. -1.
</event>
<event>
 7    1  0.1344618E-011  0.5930195E+02  0.7816164E-02  0.1266605E+00
        -11   -1    0    0    0    0  0.00000000000E+00  0.00000000000E+00  0.45593999997E+02  0.45594000000E+02  0.51100000000E-03 0.  1.
         11   -1    0    0    0    0 -0.00000000000E+00 -0.00000000000E+00 -0.45593999997E+02  0.45594000000E+02  0.51100000000E-03 0. -1.
    9900012    2    1    2    0    0  0.13672666468E+02 -0.28161308025E+02 -0.60596086869E+01  0.59301953907E+02  0.50000018017E+02 0.  0.
        -12    1    1    2    0    0 -0.13672666468E+02  0.28161308025E+02  0.60596086869E+01  0.31886046093E+02  0.00000000000E+00 0.  1.
         11    1    3    3    0    0  0.14042932997E+02 -0.13027716466E+02  0.48413737343E+01  0.19757638102E+02  0.51100000000E-03 0. -1.
        -11    1    3    3    0    0 -0.12584334030E+02 -0.12352908807E+02  0.58933861363E+01  0.18592789446E+02  0.51100000000E-03 0.  1.
         12    1    3    3    0    0  0.12214067501E+02 -0.27806827513E+01 -0.16794368558E+02  0.20951526358E+02  0.00000000000E+00 0. -1.
</event>
<event>
 7    1  0.1344618E-011  0.5930194E+02  0.7816164E-02  0.1266605E+00
        -11   -1    0    0    0    0  0.00000000000E+00  0.00000000000E+00  0.45593999997E+02  0.45594000000E+02  0.51100000000E-03 0.  1.
         11   -1    0    0    0    0 -0.00000000000E+00 -0.00000000000E+00 -0.45593999997E+02  0.45594000000E+02  0.51100000000E-03 0. -1.
    9900012    2    1    2    0    0 -0.58946919265E+01  0.21315410140E+02 -0.22970124527E+02  0.59301941556E+02  0.49999995491E+02 0.  0.
        -12    1    1    2    0    0  0.58946919265E+01 -0.21315410140E+02  0.22970124527E+02  0.31886058444E+02  0.00000000000E+00 0.  1.
         11    1    3    3    0    0 -0.19106721439E+01  0.61952410817E+00  0.24866377761E+01  0.31965365402E+01  0.51100000000E-03 0. -1.
        -11    1    3    3    0    0 -0.22997128597E+02  0.25968690433E+01 -0.76073315350E+01  0.24361509516E+02  0.51100000000E-03 0.  1.
         12    1    3    3    0    0  0.19013108815E+02  0.18099016988E+02 -0.17849430768E+02  0.31743895500E+02  0.00000000000E+00 0. -1.
</event>
<event>
 7    1  0.1344618E-011  0.5930195E+02  0.7816164E-02  0.1266605E+00
        -11   -1    0    0    0    0  0.00000000000E+00  0.00000000000E+00  0.45593999997E+02  0.45594000000E+02  0.51100000000E-03 0.  1.
         11   -1    0    0    0    0 -0.00000000000E+00 -0.00000000000E+00 -0.45593999997E+02  0.45594000000E+02  0.51100000000E-03 0. -1.
    9900012    2    1    2    0    0  0.24188920630E+02  0.19835996393E+02 -0.61765473616E+01  0.59301947070E+02  0.50000005548E+02 0.  0.
        -12    1    1    2    0    0 -0.24188920630E+02 -0.19835996393E+02  0.61765473616E+01  0.31886052930E+02  0.00000000000E+00 0.  1.
         11    1    3    3    0    0  0.70222699254E+01  0.38835303346E+01 -0.14955084382E+02  0.16971995519E+02  0.51100000000E-03 0. -1.
        -11    1    3    3    0    0  0.10810492949E+02  0.66224106523E+01 -0.12775567208E+02  0.17998283207E+02  0.51100000000E-03 0.  1.
        -12    1    3    3    0    0  0.63561577558E+01  0.93300554058E+01  0.21554104229E+02  0.24331668344E+02  0.00000000000E+00 0.  1.
</event>
<event>
 7    1  0.1344618E-011  0.5930193E+02  0.7816164E-02  0.1266605E+00
        -11   -1    0    0    0    0  0.00000000000E+00  0.00000000000E+00  0.45593999997E+02  0.45594000000E+02  0.51100000000E-03 0. -1.
         11   -1    0    0    0    0 -0.00000000000E+00 -0.00000000000E+00 -0.45593999997E+02  0.45594000000E+02  0.51100000000E-03 0.  1.
    9900012    2    1    2    0    0  0.49491780741E+00  0.30794632119E+02  0.82563540454E+01  0.59301926346E+02  0.49999967752E+02 0.  0.
        -12    1    1    2    0    0 -0.49491780741E+00 -0.30794632119E+02 -0.82563540454E+01  0.31886073654E+02  0.00000000000E+00 0.  1.
         11    1    3    3    0    0 -0.12026677456E+01  0.34423410103E+02  0.62040530064E+01  0.34998683501E+02  0.51100000000E-03 0. -1.
        -11    1    3    3    0    0  0.11048343523E+02 -0.25505478199E+01 -0.51475281508E+01  0.12452639684E+02  0.51100000000E-03 0.  1.
        -12    1    3    3    0    0 -0.93507579700E+01 -0.10782301645E+01  0.71998291897E+01  0.11850603160E+02  0.00000000000E+00 0.  1.
</event>
<event>
 7    1  0.1344618E-011  0.5930201E+02  0.7816164E-02  0.1266605E+00
        -11   -1    0    0    0    0  0.00000000000E+00  0.00000000000E+00  0.45593999997E+02  0.45594000000E+02  0.51100000000E-03 0.  1.
         11   -1    0    0    0    0 -0.00000000000E+00 -0.00000000000E+00 -0.45593999997E+02  0.45594000000E+02  0.51100000000E-03 0. -1.
    9900012    2    1    2    0    0  0.13404498366E+02 -0.21456253602E+02 -0.19407862386E+02  0.59302007504E+02  0.50000115765E+02 0.  0.
        -12    1    1    2    0    0 -0.13404498366E+02  0.21456253602E+02  0.19407862386E+02  0.31885992496E+02  0.00000000000E+00 0.  1.
         11    1    3    3    0    0 -0.13197695056E+02 -0.81605533328E+01 -0.14819404532E+02  0.21456666480E+02  0.51100000000E-03 0. -1.
        -11    1    3    3    0    0  0.64645275194E+01 -0.88887374134E+01  0.80873470524E+01  0.13645693513E+02  0.51100000000E-03 0.  1.
        -12    1    3    3    0    0  0.20137665903E+02 -0.44069628555E+01 -0.12675804907E+02  0.24199647511E+02  0.00000000000E+00 0.  1.
</event>
<event>
 7    1  0.1344618E-011  0.5930195E+02  0.7816164E-02  0.1266605E+00
        -11   -1    0    0    0    0  0.00000000000E+00  0.00000000000E+00  0.45593999997E+02  0.45594000000E+02  0.51100000000E-03 0.  1.
         11   -1    0    0    0    0 -0.00000000000E+00 -0.00000000000E+00 -0.45593999997E+02  0.45594000000E+02  0.51100000000E-03 0. -1.
    9900012    2    1    2    0    0 -0.21540667039E+02 -0.10445524097E+02 -0.21062079379E+02  0.59301945087E+02  0.50000001933E+02 0.  0.
        -12    1    1    2    0    0  0.21540667039E+02  0.10445524097E+02  0.21062079379E+02  0.31886054913E+02  0.00000000000E+00 0.  1.
         11    1    3    3    0    0 -0.12142440872E+01  0.18600169368E+02 -0.82794844731E+01  0.20395846455E+02  0.51100000000E-03 0. -1.
        -11    1    3    3    0    0 -0.93169823110E+01 -0.17927420941E+02 -0.29290874666E+01  0.20415144737E+02  0.51100000000E-03 0.  1.
        -12    1    3    3    0    0 -0.11009440640E+02 -0.11118272523E+02 -0.98535074394E+01  0.18490953895E+02  0.00000000000E+00 0.  1.
</event>
<event>
 7    1  0.1344618E-011  0.5930194E+02  0.7816164E-02  0.1266605E+00
        -11   -1    0    0    0    0  0.00000000000E+00  0.00000000000E+00  0.45593999997E+02  0.45594000000E+02  0.51100000000E-03 0. -1.
         11   -1    0    0    0    0 -0.00000000000E+00 -0.00000000000E+00 -0.45593999997E+02  0.45594000000E+02  0.51100000000E-03 0.  1.
    9900012    2    1    2    0    0 -0.61843660679E+01  0.27663419351E+02  0.14601711736E+02  0.59301935027E+02  0.49999983584E+02 0.  0.
        -12    1    1    2    0    0  0.61843660679E+01 -0.27663419351E+02 -0.14601711736E+02  0.31886064973E+02  0.00000000000E+00 0.  1.
         11    1    3    3    0    0 -0.12964564578E+01  0.12703347908E+02  0.88300089938E+01  0.15524976860E+02  0.51100000000E-03 0. -1.
        -11    1    3    3    0    0 -0.36438361806E+01  0.18602513774E+02  0.20871172537E+02  0.28194625448E+02  0.51100000000E-03 0.  1.
        -12    1    3    3    0    0 -0.12440734295E+01 -0.36424423308E+01 -0.15099469796E+02  0.15582332718E+02  0.00000000000E+00 0.  1.
</event>
<event>
 7    1  0.1344618E-011  0.5930199E+02  0.7816164E-02  0.1266605E+00
        -11   -1    0    0    0    0  0.00000000000E+00  0.00000000000E+00  0.45593999997E+02  0.45594000000E+02  0.51100000000E-03 0. -1.
         11   -1    0    0    0    0 -0.00000000000E+00 -0.00000000000E+00 -0.45593999997E+02  0.45594000000E+02  0.51100000000E-03 0.  1.
    9900012    2    1    2    0    0  0.21058592198E+02 -0.13414466276E+00  0.23942331195E+02  0.59301991733E+02  0.50000087003E+02 0.  0.
        -12    1    1    2    0    0 -0.21058592198E+02  0.13414466276E+00 -0.23942331195E+02  0.31886008267E+02  0.00000000000E+00 0.  1.
         11    1    3    3    0    0  0.80634382446E+01 -0.17815326766E+02 -0.63405626244E+01  0.20557422960E+02  0.51100000000E-03 0.  1.
        -11    1    3    3    0    0  0.12074699582E+02  0.86746357612E+01  0.16066672322E+02  0.21890309165E+02  0.51100000000E-03 0. -1.
        -12    1    3    3    0    0  0.92045437153E+00  0.90065463420E+01  0.14216221497E+02  0.16854259608E+02  0.00000000000E+00 0.  1.
</event>
<event>
 7    1  0.1344618E-011  0.5930192E+02  0.7816164E-02  0.1266605E+00
        -11   -1    0    0    0    0  0.00000000000E+00  0.00000000000E+00  0.45593999997E+02  0.45594000000E+02  0.51100000000E-03 0.  1.
         11   -1    0    0    0    0 -0.00000000000E+00 -0.00000000000E+00 -0.45593999997E+02  0.45594000000E+02  0.51100000000E-03 0. -1.
    9900012    2    1    2    0    0 -0.28154753455E+02  0.38230858672E+01 -0.14471209186E+02  0.59301921173E+02  0.49999958319E+02 0.  0.
        -12    1    1    2    0    0  0.28154753455E+02 -0.38230858672E+01  0.14471209186E+02  0.31886078827E+02  0.00000000000E+00 0.  1.
         11    1    3    3    0    0 -0.15231236119E+02 -0.23258169931E+01 -0.30196687045E+01  0.15700903724E+02  0.51100000000E-03 0. -1.
        -11    1    3    3    0    0 -0.23431265801E+02 -0.53274966941E+01  0.41406713082E+00  0.24032850224E+02  0.51100000000E-03 0.  1.
         12    1    3    3    0    0  0.10507748465E+02  0.11476399554E+02 -0.11865607613E+02  0.19568167225E+02  0.00000000000E+00 0. -1.
</event>
<event>
 7    1  0.1344618E-011  0.5930197E+02  0.7816164E-02  0.1266605E+00
        -11   -1    0    0    0    0  0.00000000000E+00  0.00000000000E+00  0.45593999997E+02  0.45594000000E+02  0.51100000000E-03 0.  1.
         11   -1    0    0    0    0 -0.00000000000E+00 -0.00000000000E+00 -0.45593999997E+02  0.45594000000E+02  0.51100000000E-03 0. -1.
    9900012    2    1    2    0    0 -0.27925887533E+02  0.28109439340E+01 -0.15131509994E+02  0.59301965518E+02  0.50000039193E+02 0.  0.
        -12    1    1    2    0    0  0.27925887533E+02 -0.28109439340E+01  0.15131509994E+02  0.31886034482E+02  0.00000000000E+00 0.  1.
         11    1    3    3    0    0 -0.47019950290E+01  0.14480001302E+02 -0.11157271881E+02  0.18874954597E+02  0.51100000000E-03 0. -1.
        -11    1    3    3    0    0 -0.89632982936E+01  0.28339205031E+00  0.12629075355E+02  0.15489175961E+02  0.51100000000E-03 0.  1.
        -12    1    3    3    0    0 -0.14260594210E+02 -0.11952449418E+02 -0.16603313469E+02  0.24937834960E+02  0.00000000000E+00 0.  1.
</event>
<event>
 7    1  0.1344618E-011  0.5930193E+02  0.7816164E-02  0.1266605E+00
        -11   -1    0    0    0    0  0.00000000000E+00  0.00000000000E+00  0.45593999997E+02  0.45594000000E+02  0.51100000000E-03 0.  1.
         11   -1    0    0    0    0 -0.00000000000E+00 -0.00000000000E+00 -0.45593999997E+02  0.45594000000E+02  0.51100000000E-03 0. -1.
    9900012    2    1    2    0    0  0.12967486516E+02 -0.28583556968E+02 -0.56166028213E+01  0.59301926822E+02  0.49999968620E+02 0.  0.
        -12    1    1    2    0    0 -0.12967486516E+02  0.28583556968E+02  0.56166028213E+01  0.31886073178E+02  0.00000000000E+00 0.  1.
         11    1    3    3    0    0  0.29573766474E+01 -0.29792247338E+02  0.14919044921E+01  0.29975821213E+02  0.51100000000E-03 0. -1.
        -11    1    3    3    0    0 -0.30311068873E+01 -0.47369708198E+01  0.71583163496E+01  0.91031859660E+01  0.51100000000E-03 0.  1.
        -12    1    3    3    0    0  0.13041216756E+02  0.59456611901E+01 -0.14266823663E+02  0.20222919643E+02  0.00000000000E+00 0.  1.
</event>
<event>
 7    1  0.1344618E-011  0.5930192E+02  0.7816164E-02  0.1266605E+00
        -11   -1    0    0    0    0  0.00000000000E+00  0.00000000000E+00  0.45593999997E+02  0.45594000000E+02  0.51100000000E-03 0.  1.
         11   -1    0    0    0    0 -0.00000000000E+00 -0.00000000000E+00 -0.45593999997E+02  0.45594000000E+02  0.51100000000E-03 0. -1.
    9900012    2    1    2    0    0 -0.26507760029E+02 -0.71153280254E+01  0.16230624154E+02  0.59301915338E+02  0.49999947676E+02 0.  0.
        -12    1    1    2    0    0  0.26507760029E+02  0.71153280254E+01 -0.16230624154E+02  0.31886084662E+02  0.00000000000E+00 0.  1.
         11    1    3    3    0    0 -0.44599669714E+01 -0.22786025211E+01 -0.98631400471E+00  0.51045225449E+01  0.51100000000E-03 0. -1.
        -11    1    3    3    0    0 -0.23089257338E+02 -0.23166001976E+02  0.13913019572E+02  0.35543629047E+02  0.51100000000E-03 0.  1.
        -12    1    3    3    0    0  0.10414642800E+01  0.18329276472E+02  0.33039185864E+01  0.18653763745E+02  0.00000000000E+00 0.  1.
</event>
<event>
 7    1  0.1344618E-011  0.5930195E+02  0.7816164E-02  0.1266605E+00
        -11   -1    0    0    0    0  0.00000000000E+00  0.00000000000E+00  0.45593999997E+02  0.45594000000E+02  0.51100000000E-03 0. -1.
         11   -1    0    0    0    0 -0.00000000000E+00 -0.00000000000E+00 -0.45593999997E+02  0.45594000000E+02  0.51100000000E-03 0.  1.
    9900012    2    1    2    0    0 -0.14010733381E+02 -0.71935947902E+01  0.27724925283E+02  0.59301953870E+02  0.50000017949E+02 0.  0.
        -12    1    1    2    0    0  0.14010733381E+02  0.71935947902E+01 -0.27724925283E+02  0.31886046130E+02  0.00000000000E+00 0.  1.
         11    1    3    3    0    0 -0.37380473435E+01  0.12443245868E+02 -0.55333443461E+01  0.14121801074E+02  0.51100000000E-03 0. -1.
        -11    1    3    3    0    0 -0.11040251917E+02 -0.18529264378E+01  0.62145947493E+01  0.12803971529E+02  0.51100000000E-03 0.  1.
         12    1    3    3    0    0  0.76756587870E+00 -0.17783914220E+02  0.27043674880E+02  0.32376181266E+02  0.00000000000E+00 0. -1.
</event>
<event>
 7    1  0.1344618E-011  0.5930192E+02  0.7816164E-02  0.1266605E+00
        -11   -1    0    0    0    0  0.00000000000E+00  0.00000000000E+00  0.45593999997E+02  0.45594000000E+02  0.51100000000E-03 0.  1.
         11   -1    0    0    0    0 -0.00000000000E+00 -0.00000000000E+00 -0.45593999997E+02  0.45594000000E+02  0.51100000000E-03 0. -1.
    9900012    2    1    2    0    0  0.11024284653E+01 -0.30254625496E+00 -0.31865576254E+02  0.59301924155E+02  0.49999963757E+02 0.  0.
        -12    1    1    2    0    0 -0.11024284653E+01  0.30254625496E+00  0.31865576254E+02  0.31886075845E+02  0.00000000000E+00 0.  1.
         11    1    3    3    0    0 -0.58869722414E+01  0.23482974132E+01  0.77644311556E+01  0.10022840632E+02  0.51100000000E-03 0. -1.
        -11    1    3    3    0    0  0.13544697865E+02  0.60831916479E+01 -0.10545100010E+02  0.18211622535E+02  0.51100000000E-03 0.  1.
         12    1    3    3    0    0 -0.65552971586E+01 -0.87340353161E+01 -0.29084907400E+02  0.31067460987E+02  0.00000000000E+00 0. -1.
</event>
<event>
 7    1  0.1344618E-011  0.5930187E+02  0.7816164E-02  0.1266605E+00
        -11   -1    0    0    0    0  0.00000000000E+00  0.00000000000E+00  0.45593999997E+02  0.45594000000E+02  0.51100000000E-03 0. -1.
         11   -1    0    0    0    0 -0.00000000000E+00 -0.00000000000E+00 -0.45593999997E+02  0.45594000000E+02  0.51100000000E-03 0.  1.
    9900012    2    1    2    0    0 -0.23991688092E+02 -0.16570043899E+02  0.12905730145E+02  0.59301869428E+02  0.49999863947E+02 0.  0.
        -12    1    1    2    0    0  0.23991688092E+02  0.16570043899E+02 -0.12905730145E+02  0.31886130572E+02  0.00000000000E+00 0.  1.
         11    1    3    3    0    0 -0.76477683043E+01 -0.16561910263E+02 -0.64226281926E+01  0.19339994435E+02  0.51100000000E-03 0.  1.
        -11    1    3    3    0    0 -0.31267297789E+01 -0.14392163412E+02  0.12342638163E+02  0.19215918502E+02  0.51100000000E-03 0. -1.
         12    1    3    3    0    0 -0.13217190009E+02  0.14384029777E+02  0.69857201749E+01  0.20745956490E+02  0.00000000000E+00 0. -1.
</event>
<event>
 7    1  0.1344618E-011  0.5930198E+02  0.7816164E-02  0.1266605E+00
        -11   -1    0    0    0    0  0.00000000000E+00  0.00000000000E+00  0.45593999997E+02  0.45594000000E+02  0.51100000000E-03 0. -1.
         11   -1    0    0    0    0 -0.00000000000E+00 -0.00000000000E+00 -0.45593999997E+02  0.45594000000E+02  0.51100000000E-03 0.  1.
    9900012    2    1    2    0    0  0.50667630685E+01 -0.89181609210E+01  0.30191268724E+02  0.59301978151E+02  0.50000062232E+02 0.  0.
        -12    1    1    2    0    0 -0.50667630685E+01  0.89181609210E+01 -0.30191268724E+02  0.31886021849E+02  0.00000000000E+00 0.  1.
         11    1    3    3    0    0  0.17647112043E+02  0.10209565124E+02  0.21313789146E+02  0.29494633266E+02  0.51100000000E-03 0. -1.
        -11    1    3    3    0    0  0.36529631041E+01 -0.64711051802E+00  0.16980320810E+00  0.37137211599E+01  0.51100000000E-03 0.  1.
        -12    1    3    3    0    0 -0.16233312079E+02 -0.18480615527E+02  0.87076763702E+01  0.26093623724E+02  0.00000000000E+00 0.  1.
</event>
<event>
 7    1  0.1344618E-011  0.5930195E+02  0.7816164E-02  0.1266605E+00
        -11   -1    0    0    0    0  0.00000000000E+00  0.00000000000E+00  0.45593999997E+02  0.45594000000E+02  0.51100000000E-03 0.  1.
         11   -1    0    0    0    0 -0.00000000000E+00 -0.00000000000E+00 -0.45593999997E+02  0.45594000000E+02  0.51100000000E-03 0. -1.
    9900012    2    1    2    0    0  0.57521505155E+01 -0.24517210485E+02 -0.19558607058E+02  0.59301953592E+02  0.50000017443E+02 0.  0.
        -12    1    1    2    0    0 -0.57521505155E+01  0.24517210485E+02  0.19558607058E+02  0.31886046408E+02  0.00000000000E+00 0.  1.
         11    1    3    3    0    0  0.12316959502E+02 -0.60740951294E+01  0.40570246825E+00  0.13739240072E+02  0.51100000000E-03 0. -1.
        -11    1    3    3    0    0 -0.11991420722E+01  0.44624816088E+00  0.98116446562E+01  0.98947183008E+01  0.51100000000E-03 0.  1.
         12    1    3    3    0    0 -0.53656669140E+01 -0.18889363516E+02 -0.29775954182E+02  0.35667995219E+02  0.00000000000E+00 0. -1.
</event>
<event>
 7    1  0.1344618E-011  0.5930193E+02  0.7816164E-02  0.1266605E+00
        -11   -1    0    0    0    0  0.00000000000E+00  0.00000000000E+00  0.45593999997E+02  0.45594000000E+02  0.51100000000E-03 0.  1.
         11   -1    0    0    0    0 -0.00000000000E+00 -0.00000000000E+00 -0.45593999997E+02  0.45594000000E+02  0.51100000000E-03 0. -1.
    9900012    2    1    2    0    0  0.17539575884E+02 -0.98857989014E+01 -0.24725609502E+02  0.59301929258E+02  0.49999973063E+02 0.  0.
        -12    1    1    2    0    0 -0.17539575884E+02  0.98857989014E+01  0.24725609502E+02  0.31886070742E+02  0.00000000000E+00 0.  1.
         11    1    3    3    0    0  0.21083200141E+02 -0.74829078740E+01 -0.10795811671E+02  0.24840386236E+02  0.51100000000E-03 0. -1.
        -11    1    3    3    0    0  0.62727256831E+01 -0.12258152767E+02 -0.15180716170E+02  0.20495451701E+02  0.51100000000E-03 0.  1.
        -12    1    3    3    0    0 -0.98163499401E+01  0.98552617393E+01  0.12509183383E+01  0.13966091321E+02  0.00000000000E+00 0.  1.
</event>
<event>
 7    1  0.1344618E-011  0.5930194E+02  0.7816164E-02  0.1266605E+00
        -11   -1    0    0    0    0  0.00000000000E+00  0.00000000000E+00  0.45593999997E+02  0.45594000000E+02  0.51100000000E-03 0.  1.
         11   -1    0    0    0    0 -0.00000000000E+00 -0.00000000000E+00 -0.45593999997E+02  0.45594000000E+02  0.51100000000E-03 0. -1.
    9900012    2    1    2    0    0 -0.13039012571E+02 -0.48299550943E+01 -0.28694533865E+02  0.59301943662E+02  0.49999999333E+02 0.  0.
        -12    1    1    2    0    0  0.13039012571E+02  0.48299550943E+01  0.28694533865E+02  0.31886056338E+02  0.00000000000E+00 0.  1.
         11    1    3    3    0    0  0.47667344035E+01 -0.12727963094E+01 -0.10297220265E+02  0.11418165911E+02  0.51100000000E-03 0. -1.
        -11    1    3    3    0    0  0.73672140233E+01 -0.14025932653E+02 -0.12014780023E+02  0.19883600492E+02  0.51100000000E-03 0.  1.
         12    1    3    3    0    0 -0.25172960997E+02  0.10468773869E+02 -0.63825335774E+01  0.28000177259E+02  0.00000000000E+00 0. -1.
</event>
<event>
 7    1  0.1344618E-011  0.5930195E+02  0.7816164E-02  0.1266605E+00
        -11   -1    0    0    0    0  0.00000000000E+00  0.00000000000E+00  0.45593999997E+02  0.45594000000E+02  0.51100000000E-03 0.  1.
         11   -1    0    0    0    0 -0.00000000000E+00 -0.00000000000E+00 -0.45593999997E+02  0.45594000000E+02  0.51100000000E-03 0. -1.
    9900012    2    1    2    0    0 -0.21880118290E+02  0.22388462725E+02 -0.60611487413E+01  0.59301947193E+02  0.50000005773E+02 0.  0.
        -12    1    1    2    0    0  0.21880118290E+02 -0.22388462725E+02  0.60611487413E+01  0.31886052807E+02  0.00000000000E+00 0.  1.
         11    1    3    3    0    0 -0.68132934244E+01 -0.98316662731E+01 -0.76886551231E+01  0.14219635961E+02  0.51100000000E-03 0. -1.
        -11    1    3    3    0    0  0.71843905863E+01  0.18819270816E+01  0.85133542099E-01  0.74272717480E+01  0.51100000000E-03 0.  1.
         12    1    3    3    0    0 -0.22251215452E+02  0.30338201916E+02  0.15423728398E+01  0.37655039484E+02  0.00000000000E+00 0. -1.
</event>
<event>
 7    1  0.1344618E-011  0.5930180E+02  0.7816164E-02  0.1266605E+00
        -11   -1    0    0    0    0  0.00000000000E+00  0.00000000000E+00  0.45593999997E+02  0.45594000000E+02  0.51100000000E-03 0.  1.
         11   -1    0    0    0    0 -0.00000000000E+00 -0.00000000000E+00 -0.45593999997E+02  0.45594000000E+02  0.51100000000E-03 0. -1.
    9900012    2    1    2    0    0  0.37137421549E+01  0.19801292827E+02 -0.24715313221E+02  0.59301799442E+02  0.49999736310E+02 0.  0.
        -12    1    1    2    0    0 -0.37137421549E+01 -0.19801292827E+02  0.24715313221E+02  0.31886200558E+02  0.00000000000E+00 0.  1.
         11    1    3    3    0    0  0.52425355277E+01  0.79856099889E+01  0.12224907806E+01  0.96306089955E+01  0.51100000000E-03 0. -1.
        -11    1    3    3    0    0  0.10071393510E+02  0.22222827687E+02 -0.74910976527E+01  0.25522609231E+02  0.51100000000E-03 0.  1.
        -12    1    3    3    0    0 -0.11600186883E+02 -0.10407144849E+02 -0.18446706349E+02  0.24148581216E+02  0.00000000000E+00 0.  1.
</event>
<event>
 7    1  0.1344618E-011  0.5930194E+02  0.7816164E-02  0.1266605E+00
        -11   -1    0    0    0    0  0.00000000000E+00  0.00000000000E+00  0.45593999997E+02  0.45594000000E+02  0.51100000000E-03 0.  1.
         11   -1    0    0    0    0 -0.00000000000E+00 -0.00000000000E+00 -0.45593999997E+02  0.45594000000E+02  0.51100000000E-03 0. -1.
    9900012    2    1    2    0    0  0.28101527545E+02  0.59692949196E+01 -0.13834460496E+02  0.59301943025E+02  0.49999998172E+02 0.  0.
        -12    1    1    2    0    0 -0.28101527545E+02 -0.59692949196E+01  0.13834460496E+02  0.31886056975E+02  0.00000000000E+00 0.  1.
         11    1    3    3    0    0 -0.11108186266E+01 -0.39119070769E+01 -0.12055824011E+02  0.12723200377E+02  0.51100000000E-03 0. -1.
        -11    1    3    3    0    0 -0.90382718903E-01  0.16012248627E+02 -0.41686324973E+01  0.16546231362E+02  0.51100000000E-03 0.  1.
         12    1    3    3    0    0  0.29302728890E+02 -0.61310466307E+01  0.23899960118E+01  0.30032511286E+02  0.00000000000E+00 0. -1.
</event>
<event>
 7    1  0.1344618E-011  0.5930200E+02  0.7816164E-02  0.1266605E+00
        -11   -1    0    0    0    0  0.00000000000E+00  0.00000000000E+00  0.45593999997E+02  0.45594000000E+02  0.51100000000E-03 0. -1.
         11   -1    0    0    0    0 -0.00000000000E+00 -0.00000000000E+00 -0.45593999997E+02  0.45594000000E+02  0.51100000000E-03 0.  1.
    9900012    2    1    2    0    0  0.13156691787E+02  0.26510857278E+02 -0.11865612723E+02  0.59302002169E+02  0.50000106037E+02 0.  0.
        -12    1    1    2    0    0 -0.13156691787E+02 -0.26510857278E+02  0.11865612723E+02  0.31885997831E+02  0.00000000000E+00 0.  1.
         11    1    3    3    0    0 -0.59744926581E+00 -0.53383473602E+00 -0.99579336213E+00  0.12780961747E+01  0.51100000000E-03 0. -1.
        -11    1    3    3    0    0 -0.17997664641E+02  0.67363050817E+01 -0.21454392634E+01  0.19336407334E+02  0.51100000000E-03 0.  1.
         12    1    3    3    0    0  0.31751805694E+02  0.20308386932E+02 -0.87243800972E+01  0.38687498661E+02  0.00000000000E+00 0. -1.
</event>
<event>
 7    1  0.1344618E-011  0.5930196E+02  0.7816164E-02  0.1266605E+00
        -11   -1    0    0    0    0  0.00000000000E+00  0.00000000000E+00  0.45593999997E+02  0.45594000000E+02  0.51100000000E-03 0.  1.
         11   -1    0    0    0    0 -0.00000000000E+00 -0.00000000000E+00 -0.45593999997E+02  0.45594000000E+02  0.51100000000E-03 0. -1.
    9900012    2    1    2    0    0  0.15727036998E+02 -0.16018940308E+02 -0.22644498168E+02  0.59301961698E+02  0.50000032226E+02 0.  0.
        -12    1    1    2    0    0 -0.15727036998E+02  0.16018940308E+02  0.22644498168E+02  0.31886038302E+02  0.00000000000E+00 0.  1.
         11    1    3    3    0    0  0.60633865979E-01 -0.29120140454E+01  0.17621261123E+01  0.34042019568E+01  0.51100000000E-03 0. -1.
        -11    1    3    3    0    0  0.22026189954E+02 -0.23351826842E+02 -0.42105979699E+01  0.32375762482E+02  0.51100000000E-03 0.  1.
         12    1    3    3    0    0 -0.63597868227E+01  0.10244900580E+02 -0.20196026310E+02  0.23521997259E+02  0.00000000000E+00 0. -1.
</event>
<event>
 7    1  0.1523805E-011  0.5930194E+02  0.7816164E-02  0.1266605E+00
        -11   -1    0    0    0    0  0.00000000000E+00  0.00000000000E+00  0.45593999997E+02  0.45594000000E+02  0.51100000000E-03 0.  1.
         11   -1    0    0    0    0 -0.00000000000E+00 -0.00000000000E+00 -0.45593999997E+02  0.45594000000E+02  0.51100000000E-03 0. -1.
    9900012    2    1    2    0    0 -0.19892314119E+02  0.21349959648E+02 -0.12852852622E+02  0.59301941001E+02  0.49999994480E+02 0.  0.
        -12    1    1    2    0    0  0.19892314119E+02 -0.21349959648E+02  0.12852852622E+02  0.31886058999E+02  0.00000000000E+00 0.  1.
         11    1    3    3    0    0 -0.10483640836E+02  0.26217100735E+02 -0.47905945829E+01  0.28639009984E+02  0.51100000000E-03 0. -1.
        -11    1    3    3    0    0  0.20652529408E+01  0.41743989583E+01  0.78088757018E+01  0.90922723430E+01  0.51100000000E-03 0.  1.
        -12    1    3    3    0    0 -0.11473926224E+02 -0.90415400459E+01 -0.15871133741E+02  0.21570658674E+02  0.00000000000E+00 0.  1.
</event>
<event>
 7    1  0.1344618E-011  0.5930189E+02  0.7816164E-02  0.1266605E+00
        -11   -1    0    0    0    0  0.00000000000E+00  0.00000000000E+00  0.45593999997E+02  0.45594000000E+02  0.51100000000E-03 0.  1.
         11   -1    0    0    0    0 -0.00000000000E+00 -0.00000000000E+00 -0.45593999997E+02  0.45594000000E+02  0.51100000000E-03 0. -1.
    9900012    2    1    2    0    0 -0.10487261714E+02 -0.24741758250E+02 -0.17163525363E+02  0.59301892328E+02  0.49999905713E+02 0.  0.
        -12    1    1    2    0    0  0.10487261714E+02  0.24741758250E+02  0.17163525363E+02  0.31886107672E+02  0.00000000000E+00 0.  1.
         11    1    3    3    0    0  0.70628111779E+01 -0.45150341411E+00  0.26863889932E+01  0.75699301946E+01  0.51100000000E-03 0. -1.
        -11    1    3    3    0    0 -0.20449071534E+02 -0.60974734677E+01  0.38818808569E+01  0.21688999712E+02  0.51100000000E-03 0.  1.
         12    1    3    3    0    0  0.28989986419E+01 -0.18192781368E+02 -0.23731795213E+02  0.30042962421E+02  0.00000000000E+00 0. -1.
</event>
<event>
 7    1  0.1344618E-011  0.5930194E+02  0.7816164E-02  0.1266605E+00
        -11   -1    0    0    0    0  0.00000000000E+00  0.00000000000E+00  0.45593999997E+02  0.45594000000E+02  0.51100000000E-03 0. -1.
         11   -1    0    0    0    0 -0.00000000000E+00 -0.00000000000E+00 -0.45593999997E+02  0.45594000000E+02  0.51100000000E-03 0.  1.
    9900012    2    1    2    0    0 -0.12781004587E+02  0.27289599322E+02  0.10423255071E+02  0.59301944181E+02  0.50000000279E+02 0.  0.
        -12    1    1    2    0    0  0.12781004587E+02 -0.27289599322E+02 -0.10423255071E+02  0.31886055819E+02  0.00000000000E+00 0.  1.
         11    1    3    3    0    0 -0.23499261950E+02  0.18750544535E+02  0.54564064990E+01  0.30554387650E+02  0.51100000000E-03 0. -1.
        -11    1    3    3    0    0  0.37148972859E+01  0.16772788748E+02  0.51568841960E+01  0.17936564863E+02  0.51100000000E-03 0.  1.
        -12    1    3    3    0    0  0.70033600763E+01 -0.82337339607E+01 -0.19003562358E+00  0.10810991667E+02  0.00000000000E+00 0.  1.
</event>
<event>
 7    1  0.1344618E-011  0.5930196E+02  0.7816164E-02  0.1266605E+00
        -11   -1    0    0    0    0  0.00000000000E+00  0.00000000000E+00  0.45593999997E+02  0.45594000000E+02  0.51100000000E-03 0.  1.
         11   -1    0    0    0    0 -0.00000000000E+00 -0.00000000000E+00 -0.45593999997E+02  0.45594000000E+02  0.51100000000E-03 0. -1.
    9900012    2    1    2    0    0  0.16250509961E+02 -0.84235381299E+01 -0.26109087863E+02  0.59301960144E+02  0.50000029393E+02 0.  0.
        -12    1    1    2    0    0 -0.16250509961E+02  0.84235381299E+01  0.26109087863E+02  0.31886039856E+02  0.00000000000E+00 0.  1.
         11    1    3    3    0    0 -0.29660389899E+01 -0.11628827579E+01 -0.92225472092E+01  0.97573080757E+01  0.51100000000E-03 0.  1.
        -11    1    3    3    0    0  0.19079902298E+02 -0.44439793981E+01 -0.30165961393E+02  0.35969109686E+02  0.51100000000E-03 0. -1.
        -12    1    3    3    0    0  0.13664665317E+00 -0.28166759738E+01  0.13279420738E+02  0.13575542383E+02  0.00000000000E+00 0.  1.
</event>
<event>
 7    1  0.1344618E-011  0.5930196E+02  0.7816164E-02  0.1266605E+00
        -11   -1    0    0    0    0  0.00000000000E+00  0.00000000000E+00  0.45593999997E+02  0.45594000000E+02  0.51100000000E-03 0. -1.
         11   -1    0    0    0    0 -0.00000000000E+00 -0.00000000000E+00 -0.45593999997E+02  0.45594000000E+02  0.51100000000E-03 0.  1.
    9900012    2    1    2    0    0  0.23946114661E+01  0.21532336635E+02  0.23395386854E+02  0.59301955858E+02  0.50000021575E+02 0.  0.
        -12    1    1    2    0    0 -0.23946114661E+01 -0.21532336635E+02 -0.23395386854E+02  0.31886044142E+02  0.00000000000E+00 0.  1.
         11    1    3    3    0    0 -0.82323012326E+01 -0.15551812365E+01  0.33613208100E+01  0.90270620975E+01  0.51100000000E-03 0. -1.
        -11    1    3    3    0    0  0.22460347973E-01  0.43627071470E+01 -0.11385403306E+02  0.12192666928E+02  0.51100000000E-03 0.  1.
         12    1    3    3    0    0  0.10604452351E+02  0.18724810724E+02  0.31419469349E+02  0.38082226832E+02  0.00000000000E+00 0. -1.
</event>
<event>
 7    1  0.1344618E-011  0.5930194E+02  0.7816164E-02  0.1266605E+00
        -11   -1    0    0    0    0  0.00000000000E+00  0.00000000000E+00  0.45593999997E+02  0.45594000000E+02  0.51100000000E-03 0.  1.
         11   -1    0    0    0    0 -0.00000000000E+00 -0.00000000000E+00 -0.45593999997E+02  0.45594000000E+02  0.51100000000E-03 0. -1.
    9900012    2    1    2    0    0 -0.28877017468E+02 -0.10603391188E+02  0.83908588773E+01  0.59301944188E+02  0.50000000292E+02 0.  0.
        -12    1    1    2    0    0  0.28877017468E+02  0.10603391188E+02 -0.83908588773E+01  0.31886055812E+02  0.00000000000E+00 0.  1.
         11    1    3    3    0    0 -0.39757749204E+01 -0.37747770212E+01 -0.39123571500E+01  0.67351515579E+01  0.51100000000E-03 0. -1.
        -11    1    3    3    0    0  0.13880017745E+01  0.47710745573E+00 -0.14349341413E+02  0.14424208114E+02  0.51100000000E-03 0.  1.
        -12    1    3    3    0    0 -0.26289244322E+02 -0.73057216230E+01  0.26652557441E+02  0.38142584516E+02  0.00000000000E+00 0.  1.
</event>
<event>
 7    1  0.1344618E-011  0.5930194E+02  0.7816164E-02  0.1266605E+00
        -11   -1    0    0    0    0  0.00000000000E+00  0.00000000000E+00  0.45593999997E+02  0.45594000000E+02  0.51100000000E-03 0.  1.
         11   -1    0    0    0    0 -0.00000000000E+00 -0.00000000000E+00 -0.45593999997E+02  0.45594000000E+02  0.51100000000E-03 0. -1.
    9900012    2    1    2    0    0  0.34847266218E+01  0.10134806524E+02 -0.30031038396E+02  0.59301938938E+02  0.49999990717E+02 0.  0.
        -12    1    1    2    0    0 -0.34847266218E+01 -0.10134806524E+02  0.30031038396E+02  0.31886061062E+02  0.00000000000E+00 0.  1.
         11    1    3    3    0    0 -0.10933080440E+02 -0.91794622781E+01 -0.10788660011E+02  0.17893852596E+02  0.51100000000E-03 0. -1.
        -11    1    3    3    0    0  0.15667043014E+02  0.15084685117E+01 -0.82614623241E+00  0.15761162137E+02  0.51100000000E-03 0.  1.
        -12    1    3    3    0    0 -0.12492359525E+01  0.17805800290E+02 -0.18416232153E+02  0.25646924205E+02  0.00000000000E+00 0.  1.
</event>
<event>
 7    1  0.1344618E-011  0.5930210E+02  0.7816164E-02  0.1266604E+00
        -11   -1    0    0    0    0  0.00000000000E+00  0.00000000000E+00  0.45593999997E+02  0.45594000000E+02  0.51100000000E-03 0.  1.
         11   -1    0    0    0    0 -0.00000000000E+00 -0.00000000000E+00 -0.45593999997E+02  0.45594000000E+02  0.51100000000E-03 0. -1.
    9900012    2    1    2    0    0  0.23349166470E+02  0.12983431233E+02  0.17405681703E+02  0.59302096893E+02  0.50000278788E+02 0.  0.
        -12    1    1    2    0    0 -0.23349166470E+02 -0.12983431233E+02 -0.17405681703E+02  0.31885903107E+02  0.00000000000E+00 0.  1.
         11    1    3    3    0    0  0.22490861118E+01 -0.10894864121E+01  0.96170397236E+01  0.99364391150E+01  0.51100000000E-03 0. -1.
        -11    1    3    3    0    0 -0.66800024745E+01  0.18659367081E+02  0.75502446879E+01  0.21208503201E+02  0.51100000000E-03 0.  1.
         12    1    3    3    0    0  0.27780082832E+02 -0.45864494355E+01  0.23839729149E+00  0.28157154577E+02  0.00000000000E+00 0. -1.
</event>
<event>
 7    1  0.1344618E-011  0.5930194E+02  0.7816164E-02  0.1266605E+00
        -11   -1    0    0    0    0  0.00000000000E+00  0.00000000000E+00  0.45593999997E+02  0.45594000000E+02  0.51100000000E-03 0.  1.
         11   -1    0    0    0    0 -0.00000000000E+00 -0.00000000000E+00 -0.45593999997E+02  0.45594000000E+02  0.51100000000E-03 0. -1.
    9900012    2    1    2    0    0 -0.55723981718E+01  0.71738800450E+01 -0.30564760984E+02  0.59301940502E+02  0.49999993570E+02 0.  0.
        -12    1    1    2    0    0  0.55723981718E+01 -0.71738800450E+01  0.30564760984E+02  0.31886059498E+02  0.00000000000E+00 0.  1.
         11    1    3    3    0    0  0.60695059816E+01  0.78505151465E+01 -0.66331596000E+01  0.11936008439E+02  0.51100000000E-03 0.  1.
        -11    1    3    3    0    0 -0.76782912577E+00 -0.13706324636E+02  0.43349561308E+01  0.14395997413E+02  0.51100000000E-03 0. -1.
         12    1    3    3    0    0 -0.10874075028E+02  0.13029689534E+02 -0.28266557515E+02  0.32969934650E+02  0.00000000000E+00 0. -1.
</event>
<event>
 7    1  0.1344618E-011  0.5930195E+02  0.7816164E-02  0.1266605E+00
        -11   -1    0    0    0    0  0.00000000000E+00  0.00000000000E+00  0.45593999997E+02  0.45594000000E+02  0.51100000000E-03 0.  1.
         11   -1    0    0    0    0 -0.00000000000E+00 -0.00000000000E+00 -0.45593999997E+02  0.45594000000E+02  0.51100000000E-03 0. -1.
    9900012    2    1    2    0    0  0.26066301478E+02 -0.31324444001E+01 -0.18095742482E+02  0.59301950125E+02  0.50000011120E+02 0.  0.
        -12    1    1    2    0    0 -0.26066301478E+02  0.31324444001E+01  0.18095742482E+02  0.31886049875E+02  0.00000000000E+00 0.  1.
         11    1    3    3    0    0  0.15162337402E+02 -0.17492078200E+02 -0.12974343217E+02  0.26536820786E+02  0.51100000000E-03 0. -1.
        -11    1    3    3    0    0  0.19328761521E+02  0.10495734733E+02  0.35899724775E+00  0.21997507786E+02  0.51100000000E-03 0.  1.
         12    1    3    3    0    0 -0.84247974449E+01  0.38638990665E+01 -0.54803965119E+01  0.10767621553E+02  0.00000000000E+00 0. -1.
</event>
<event>
 7    1  0.1344618E-011  0.5930181E+02  0.7816164E-02  0.1266605E+00
        -11   -1    0    0    0    0  0.00000000000E+00  0.00000000000E+00  0.45593999997E+02  0.45594000000E+02  0.51100000000E-03 0. -1.
         11   -1    0    0    0    0 -0.00000000000E+00 -0.00000000000E+00 -0.45593999997E+02  0.45594000000E+02  0.51100000000E-03 0.  1.
    9900012    2    1    2    0    0 -0.25055534952E+02 -0.80685385848E+01  0.17995768210E+02  0.59301814589E+02  0.49999763933E+02 0.  0.
        -12    1    1    2    0    0  0.25055534952E+02  0.80685385848E+01 -0.17995768210E+02  0.31886185411E+02  0.00000000000E+00 0.  1.
         11    1    3    3    0    0 -0.65241301124E+01  0.27542498827E+01 -0.75227725540E+01  0.10331615232E+02  0.51100000000E-03 0. -1.
        -11    1    3    3    0    0  0.10772212044E+02 -0.22996179213E+01  0.44180046030E+01  0.11867921463E+02  0.51100000000E-03 0.  1.
         12    1    3    3    0    0 -0.29303616884E+02 -0.85231705462E+01  0.21100536161E+02  0.37102277894E+02  0.00000000000E+00 0. -1.
</event>
<event>
 7    1  0.1344618E-011  0.5930190E+02  0.7816164E-02  0.1266605E+00
        -11   -1    0    0    0    0  0.00000000000E+00  0.00000000000E+00  0.45593999997E+02  0.45594000000E+02  0.51100000000E-03 0.  1.
         11   -1    0    0    0    0 -0.00000000000E+00 -0.00000000000E+00 -0.45593999997E+02  0.45594000000E+02  0.51100000000E-03 0. -1.
    9900012    2    1    2    0    0 -0.28142842828E+02 -0.12632762592E+02 -0.80695286804E+01  0.59301896660E+02  0.49999913612E+02 0.  0.
        -12    1    1    2    0    0  0.28142842828E+02  0.12632762592E+02  0.80695286804E+01  0.31886103340E+02  0.00000000000E+00 0.  1.
         11    1    3    3    0    0 -0.11887687801E+02  0.12793988337E+02 -0.19068341366E+01  0.17568132385E+02  0.51100000000E-03 0. -1.
        -11    1    3    3    0    0 -0.15745628567E+02 -0.10894791192E+02  0.86199317834E+01  0.20998202740E+02  0.51100000000E-03 0.  1.
         12    1    3    3    0    0 -0.50952645938E+00 -0.14531959737E+02 -0.14782626327E+02  0.20735561534E+02  0.00000000000E+00 0. -1.
</event>
<event>
 7    1  0.1344618E-011  0.5930189E+02  0.7816164E-02  0.1266605E+00
        -11   -1    0    0    0    0  0.00000000000E+00  0.00000000000E+00  0.45593999997E+02  0.45594000000E+02  0.51100000000E-03 0.  1.
         11   -1    0    0    0    0 -0.00000000000E+00 -0.00000000000E+00 -0.45593999997E+02  0.45594000000E+02  0.51100000000E-03 0. -1.
    9900012    2    1    2    0    0  0.29142204370E+02  0.12874957713E+02  0.13004392651E+01  0.59301894030E+02  0.49999908816E+02 0.  0.
        -12    1    1    2    0    0 -0.29142204370E+02 -0.12874957713E+02 -0.13004392651E+01  0.31886105970E+02  0.00000000000E+00 0.  1.
         11    1    3    3    0    0 -0.70579656141E+01 -0.46963002810E+01  0.94696209675E+01  0.12709989633E+02  0.51100000000E-03 0. -1.
        -11    1    3    3    0    0  0.30776219633E+01 -0.27894752073E+01  0.40855655683E+01  0.58262144790E+01  0.51100000000E-03 0.  1.
         12    1    3    3    0    0  0.33122548021E+02  0.20360733201E+02 -0.12254747271E+02  0.40765689918E+02  0.00000000000E+00 0. -1.
</event>
<event>
 7    1  0.1344618E-011  0.5930201E+02  0.7816164E-02  0.1266605E+00
        -11   -1    0    0    0    0  0.00000000000E+00  0.00000000000E+00  0.45593999997E+02  0.45594000000E+02  0.51100000000E-03 0.  1.
         11   -1    0    0    0    0 -0.00000000000E+00 -0.00000000000E+00 -0.45593999997E+02  0.45594000000E+02  0.51100000000E-03 0. -1.
    9900012    2    1    2    0    0 -0.31764842955E+02  0.25598370700E+01  0.10762259426E+01  0.59302011289E+02  0.50000122668E+02 0.  0.
        -12    1    1    2    0    0  0.31764842955E+02 -0.25598370700E+01 -0.10762259426E+01  0.31885988711E+02  0.00000000000E+00 0.  1.
         11    1    3    3    0    0 -0.28749366802E+02 -0.24190238738E+01 -0.16302258755E+00  0.28851418417E+02  0.51100000000E-03 0. -1.
        -11    1    3    3    0    0 -0.63666632113E+00  0.10882942617E+01  0.15462689503E+02  0.15514009647E+02  0.51100000000E-03 0.  1.
        -12    1    3    3    0    0 -0.23788098318E+01  0.38905666821E+01 -0.14223440973E+02  0.14936583225E+02  0.00000000000E+00 0.  1.
</event>
<event>
 7    1  0.1344618E-011  0.5930192E+02  0.7816164E-02  0.1266605E+00
        -11   -1    0    0    0    0  0.00000000000E+00  0.00000000000E+00  0.45593999997E+02  0.45594000000E+02  0.51100000000E-03 0.  1.
         11   -1    0    0    0    0 -0.00000000000E+00 -0.00000000000E+00 -0.45593999997E+02  0.45594000000E+02  0.51100000000E-03 0. -1.
    9900012    2    1    2    0    0  0.22928916417E+02  0.99472355893E+01 -0.19799989776E+02  0.59301916844E+02  0.49999950423E+02 0.  0.
        -12    1    1    2    0    0 -0.22928916417E+02 -0.99472355893E+01  0.19799989776E+02  0.31886083156E+02  0.00000000000E+00 0.  1.
         11    1    3    3    0    0  0.20401604145E+01 -0.62782616264E+01 -0.15526002785E+02  0.16871146562E+02  0.51100000000E-03 0. -1.
        -11    1    3    3    0    0  0.83684988410E+01 -0.82239943466E+01  0.59067356301E+01  0.13136033721E+02  0.51100000000E-03 0.  1.
        -12    1    3    3    0    0  0.12520257161E+02  0.24449491562E+02 -0.10180722621E+02  0.29294736560E+02  0.00000000000E+00 0.  1.
</event>
<event>
 7    1  0.1344618E-011  0.5930197E+02  0.7816164E-02  0.1266605E+00
        -11   -1    0    0    0    0  0.00000000000E+00  0.00000000000E+00  0.45593999997E+02  0.45594000000E+02  0.51100000000E-03 0. -1.
         11   -1    0    0    0    0 -0.00000000000E+00 -0.00000000000E+00 -0.45593999997E+02  0.45594000000E+02  0.51100000000E-03 0.  1.
    9900012    2    1    2    0    0 -0.23904626911E+02  0.99470199692E+01  0.18610329805E+02  0.59301972191E+02  0.50000051362E+02 0.  0.
        -12    1    1    2    0    0  0.23904626911E+02 -0.99470199692E+01 -0.18610329805E+02  0.31886027809E+02  0.00000000000E+00 0.  1.
         11    1    3    3    0    0 -0.21608761554E+02 -0.52962571841E+01 -0.35119810717E+00  0.22251118094E+02  0.51100000000E-03 0. -1.
        -11    1    3    3    0    0 -0.12893863796E+02  0.16349386892E+02  0.98654142806E+01  0.23040845786E+02  0.51100000000E-03 0.  1.
        -12    1    3    3    0    0  0.10597998439E+02 -0.11061097387E+01  0.90961136316E+01  0.14010008311E+02  0.00000000000E+00 0.  1.
</event>
<event>
 7    1  0.1344618E-011  0.5930193E+02  0.7816164E-02  0.1266605E+00
        -11   -1    0    0    0    0  0.00000000000E+00  0.00000000000E+00  0.45593999997E+02  0.45594000000E+02  0.51100000000E-03 0.  1.
         11   -1    0    0    0    0 -0.00000000000E+00 -0.00000000000E+00 -0.45593999997E+02  0.45594000000E+02  0.51100000000E-03 0. -1.
    9900012    2    1    2    0    0  0.12796409733E+02 -0.20160956286E+02 -0.21130759626E+02  0.59301933093E+02  0.49999980057E+02 0.  0.
        -12    1    1    2    0    0 -0.12796409733E+02  0.20160956286E+02  0.21130759626E+02  0.31886066907E+02  0.00000000000E+00 0.  1.
         11    1    3    3    0    0  0.13145788958E+00 -0.24912649409E+01  0.17599806003E+01  0.30530663533E+01  0.51100000000E-03 0. -1.
        -11    1    3    3    0    0  0.32097754331E+01 -0.22203857728E+02  0.78503509435E+01  0.23768507873E+02  0.51100000000E-03 0.  1.
         12    1    3    3    0    0  0.94551764104E+01  0.45341663829E+01 -0.30741091170E+02  0.32480358866E+02  0.00000000000E+00 0. -1.
</event>
<event>
 7    1  0.1344618E-011  0.5930195E+02  0.7816164E-02  0.1266605E+00
        -11   -1    0    0    0    0  0.00000000000E+00  0.00000000000E+00  0.45593999997E+02  0.45594000000E+02  0.51100000000E-03 0.  1.
         11   -1    0    0    0    0 -0.00000000000E+00 -0.00000000000E+00 -0.45593999997E+02  0.45594000000E+02  0.51100000000E-03 0. -1.
    9900012    2    1    2    0    0  0.16932182832E+02  0.26582167438E+02  0.48383933274E+01  0.59301945194E+02  0.50000002126E+02 0.  0.
        -12    1    1    2    0    0 -0.16932182832E+02 -0.26582167438E+02 -0.48383933274E+01  0.31886054806E+02  0.00000000000E+00 0.  1.
         11    1    3    3    0    0  0.16211781990E+02  0.78650519637E+01 -0.66225352051E+01  0.19197366760E+02  0.51100000000E-03 0. -1.
        -11    1    3    3    0    0  0.12921109628E+02  0.92241774089E+01  0.17390891752E+02  0.23547476278E+02  0.51100000000E-03 0.  1.
        -12    1    3    3    0    0 -0.12200708787E+02  0.94929380651E+01 -0.59299632197E+01  0.16557102156E+02  0.00000000000E+00 0.  1.
</event>
<event>
 7    1  0.1344618E-011  0.5930195E+02  0.7816164E-02  0.1266605E+00
        -11   -1    0    0    0    0  0.00000000000E+00  0.00000000000E+00  0.45593999997E+02  0.45594000000E+02  0.51100000000E-03 0.  1.
         11   -1    0    0    0    0 -0.00000000000E+00 -0.00000000000E+00 -0.45593999997E+02  0.45594000000E+02  0.51100000000E-03 0. -1.
    9900012    2    1    2    0    0  0.19070949906E+02  0.14181523765E+02 -0.21258013235E+02  0.59301954881E+02  0.50000019793E+02 0.  0.
        -12    1    1    2    0    0 -0.19070949906E+02 -0.14181523765E+02  0.21258013235E+02  0.31886045119E+02  0.00000000000E+00 0.  1.
         11    1    3    3    0    0  0.19118045881E+02  0.88163665902E+01  0.93760824559E+01  0.23046451367E+02  0.51100000000E-03 0. -1.
        -11    1    3    3    0    0 -0.70900859463E-01  0.26616632535E-02  0.25952578172E+01  0.25962275353E+01  0.51100000000E-03 0.  1.
         12    1    3    3    0    0  0.23804885256E-01  0.53624955118E+01 -0.33229353508E+02  0.33659275978E+02  0.00000000000E+00 0. -1.
</event>
<event>
 7    1  0.1344618E-011  0.5930194E+02  0.7816164E-02  0.1266605E+00
        -11   -1    0    0    0    0  0.00000000000E+00  0.00000000000E+00  0.45593999997E+02  0.45594000000E+02  0.51100000000E-03 0.  1.
         11   -1    0    0    0    0 -0.00000000000E+00 -0.00000000000E+00 -0.45593999997E+02  0.45594000000E+02  0.51100000000E-03 0. -1.
    9900012    2    1    2    0    0 -0.18577705792E+02  0.95545352797E+01 -0.24089428182E+02  0.59301939613E+02  0.49999991948E+02 0.  0.
        -12    1    1    2    0    0  0.18577705792E+02 -0.95545352797E+01  0.24089428182E+02  0.31886060387E+02  0.00000000000E+00 0.  1.
         11    1    3    3    0    0 -0.23678357027E+02  0.46868326359E+01 -0.46860659883E+01  0.24588416101E+02  0.51100000000E-03 0. -1.
        -11    1    3    3    0    0 -0.95171729242E+01  0.66070853314E+01 -0.17330203403E+01  0.11714671007E+02  0.51100000000E-03 0.  1.
        -12    1    3    3    0    0  0.14617824159E+02 -0.17393826876E+01 -0.17670341853E+02  0.22998852504E+02  0.00000000000E+00 0.  1.
</event>
<event>
 7    1  0.1344618E-011  0.5930196E+02  0.7816164E-02  0.1266605E+00
        -11   -1    0    0    0    0  0.00000000000E+00  0.00000000000E+00  0.45593999997E+02  0.45594000000E+02  0.51100000000E-03 0.  1.
         11   -1    0    0    0    0 -0.00000000000E+00 -0.00000000000E+00 -0.45593999997E+02  0.45594000000E+02  0.51100000000E-03 0. -1.
    9900012    2    1    2    0    0  0.11381648059E+02 -0.59222880044E+01 -0.29190824907E+02  0.59301958125E+02  0.50000025710E+02 0.  0.
        -12    1    1    2    0    0 -0.11381648059E+02  0.59222880044E+01  0.29190824907E+02  0.31886041875E+02  0.00000000000E+00 0.  1.
         11    1    3    3    0    0 -0.83386996242E+01  0.12080158887E+02 -0.13850778613E+02  0.20181878471E+02  0.51100000000E-03 0. -1.
        -11    1    3    3    0    0  0.12238073808E+01  0.27713324849E+01  0.41631869727E+01  0.51487973623E+01  0.51100000000E-03 0.  1.
         12    1    3    3    0    0  0.18496540302E+02 -0.20773779376E+02 -0.19503233266E+02  0.33971282292E+02  0.00000000000E+00 0. -1.
</event>
<event>
 7    1  0.1344618E-011  0.5930194E+02  0.7816164E-02  0.1266605E+00
        -11   -1    0    0    0    0  0.00000000000E+00  0.00000000000E+00  0.45593999997E+02  0.45594000000E+02  0.51100000000E-03 0. -1.
         11   -1    0    0    0    0 -0.00000000000E+00 -0.00000000000E+00 -0.45593999997E+02  0.45594000000E+02  0.51100000000E-03 0.  1.
    9900012    2    1    2    0    0 -0.15721521821E+02  0.27712783129E+02  0.12475358103E+01  0.59301938112E+02  0.49999989211E+02 0.  0.
        -12    1    1    2    0    0  0.15721521821E+02 -0.27712783129E+02 -0.12475358103E+01  0.31886061888E+02  0.00000000000E+00 0.  1.
         11    1    3    3    0    0 -0.64028153391E+01  0.12144221846E+02  0.37292103036E+01  0.14226214474E+02  0.51100000000E-03 0. -1.
        -11    1    3    3    0    0  0.12156535955E+02  0.17275007072E+02  0.59435731448E+01  0.21943866974E+02  0.51100000000E-03 0.  1.
        -12    1    3    3    0    0 -0.21475242437E+02 -0.17064457885E+01 -0.84252476381E+01  0.23131856664E+02  0.00000000000E+00 0.  1.
</event>
<event>
 7    1  0.1344618E-011  0.5930195E+02  0.7816164E-02  0.1266605E+00
        -11   -1    0    0    0    0  0.00000000000E+00  0.00000000000E+00  0.45593999997E+02  0.45594000000E+02  0.51100000000E-03 0. -1.
         11   -1    0    0    0    0 -0.00000000000E+00 -0.00000000000E+00 -0.45593999997E+02  0.45594000000E+02  0.51100000000E-03 0.  1.
    9900012    2    1    2    0    0  0.46035221292E+01 -0.76609553138E+01  0.30607801439E+02  0.59301950366E+02  0.50000011559E+02 0.  0.
        -12    1    1    2    0    0 -0.46035221292E+01  0.76609553138E+01 -0.30607801439E+02  0.31886049634E+02  0.00000000000E+00 0.  1.
         11    1    3    3    0    0  0.17818574824E+01 -0.67520028303E+01  0.10241866572E+02  0.12395982795E+02  0.51100000000E-03 0. -1.
        -11    1    3    3    0    0 -0.15977405272E+01 -0.14849517160E+02  0.26993633171E+02  0.30849913561E+02  0.51100000000E-03 0.  1.
        -12    1    3    3    0    0  0.44194051740E+01  0.13940564676E+02 -0.66276983034E+01  0.16056054010E+02  0.00000000000E+00 0.  1.
</event>
<event>
 7    1  0.1344618E-011  0.5930192E+02  0.7816164E-02  0.1266605E+00
        -11   -1    0    0    0    0  0.00000000000E+00  0.00000000000E+00  0.45593999997E+02  0.45594000000E+02  0.51100000000E-03 0. -1.
         11   -1    0    0    0    0 -0.00000000000E+00 -0.00000000000E+00 -0.45593999997E+02  0.45594000000E+02  0.51100000000E-03 0.  1.
    9900012    2    1    2    0    0  0.22683212121E+02  0.66430477973E+01  0.21402420499E+02  0.59301924679E+02  0.49999964713E+02 0.  0.
        -12    1    1    2    0    0 -0.22683212121E+02 -0.66430477973E+01 -0.21402420499E+02  0.31886075321E+02  0.00000000000E+00 0.  1.
         11    1    3    3    0    0  0.11681857198E+02  0.12427497276E+01  0.12498108326E+02  0.17152636138E+02  0.51100000000E-03 0. -1.
        -11    1    3    3    0    0  0.14788002903E+02 -0.14589815766E+02  0.58001270259E+01  0.21568245819E+02  0.51100000000E-03 0.  1.
         12    1    3    3    0    0 -0.37866479804E+01  0.19990113836E+02  0.31041851472E+01  0.20581042722E+02  0.00000000000E+00 0. -1.
</event>
<event>
 7    1  0.1344618E-011  0.5930195E+02  0.7816164E-02  0.1266605E+00
        -11   -1    0    0    0    0  0.00000000000E+00  0.00000000000E+00  0.45593999997E+02  0.45594000000E+02  0.51100000000E-03 0.  1.
         11   -1    0    0    0    0 -0.00000000000E+00 -0.00000000000E+00 -0.45593999997E+02  0.45594000000E+02  0.51100000000E-03 0. -1.
    9900012    2    1    2    0    0  0.20726136332E+02  0.86658095036E+01 -0.22628552333E+02  0.59301947213E+02  0.50000005810E+02 0.  0.
        -12    1    1    2    0    0 -0.20726136332E+02 -0.86658095036E+01  0.22628552333E+02  0.31886052787E+02  0.00000000000E+00 0.  1.
         11    1    3    3    0    0  0.10306549874E+01  0.33713317886E+01  0.58940682856E+01  0.68679086298E+01  0.51100000000E-03 0. -1.
        -11    1    3    3    0    0  0.29694096282E+01  0.56613006114E+01  0.91797707204E+01  0.11186416267E+02  0.51100000000E-03 0.  1.
         12    1    3    3    0    0  0.16726071717E+02 -0.36682289643E+00 -0.37702391339E+02  0.41247622317E+02  0.00000000000E+00 0. -1.
</event>
<event>
 7    1  0.1344618E-011  0.5930194E+02  0.7816164E-02  0.1266605E+00
        -11   -1    0    0    0    0  0.00000000000E+00  0.00000000000E+00  0.45593999997E+02  0.45594000000E+02  0.51100000000E-03 0.  1.
         11   -1    0    0    0    0 -0.00000000000E+00 -0.00000000000E+00 -0.45593999997E+02  0.45594000000E+02  0.51100000000E-03 0. -1.
    9900012    2    1    2    0    0  0.73674157514E+01  0.13206150360E+02 -0.28072046334E+02  0.59301937095E+02  0.49999987356E+02 0.  0.
        -12    1    1    2    0    0 -0.73674157514E+01 -0.13206150360E+02  0.28072046334E+02  0.31886062905E+02  0.00000000000E+00 0.  1.
         11    1    3    3    0    0 -0.56782226553E+01  0.95334815182E+01 -0.94828898195E+01  0.14596392773E+02  0.51100000000E-03 0. -1.
        -11    1    3    3    0    0 -0.65746206547E+01  0.56529458128E+00 -0.23361436964E+02  0.24275541848E+02  0.51100000000E-03 0.  1.
        -12    1    3    3    0    0  0.19620259061E+02  0.31073742602E+01  0.47722804492E+01  0.20430002475E+02  0.00000000000E+00 0.  1.
</event>
<event>
 7    1  0.1971247E-011  0.5930194E+02  0.7816164E-02  0.1266605E+00
        -11   -1    0    0    0    0  0.00000000000E+00  0.00000000000E+00  0.45593999997E+02  0.45594000000E+02  0.51100000000E-03 0. -1.
         11   -1    0    0    0    0 -0.00000000000E+00 -0.00000000000E+00 -0.45593999997E+02  0.45594000000E+02  0.51100000000E-03 0.  1.
    9900012    2    1    2    0    0 -0.23458610454E+01  0.20908198939E+02  0.23959652395E+02  0.59301940509E+02  0.49999993584E+02 0.  0.
        -12    1    1    2    0    0  0.23458610454E+01 -0.20908198939E+02 -0.23959652395E+02  0.31886059491E+02  0.00000000000E+00 0.  1.
         11    1    3    3    0    0 -0.44882462747E+01  0.17528767049E+02  0.73639115067E+01  0.19535332652E+02  0.51100000000E-03 0. -1.
        -11    1    3    3    0    0  0.71023728859E+01  0.71093137750E+01  0.26352413302E+02  0.28203470177E+02  0.51100000000E-03 0.  1.
        -12    1    3    3    0    0 -0.49599876566E+01 -0.37298818851E+01 -0.97566724130E+01  0.11563137680E+02  0.00000000000E+00 0.  1.
</event>
<event>
 7    1  0.1344618E-011  0.5930202E+02  0.7816164E-02  0.1266604E+00
        -11   -1    0    0    0    0  0.00000000000E+00  0.00000000000E+00  0.45593999997E+02  0.45594000000E+02  0.51100000000E-03 0.  1.
         11   -1    0    0    0    0 -0.00000000000E+00 -0.00000000000E+00 -0.45593999997E+02  0.45594000000E+02  0.51100000000E-03 0. -1.
    9900012    2    1    2    0    0 -0.13169239241E+02  0.20529175854E+01 -0.28966742659E+02  0.59302023253E+02  0.50000144488E+02 0.  0.
        -12    1    1    2    0    0  0.13169239241E+02 -0.20529175854E+01  0.28966742659E+02  0.31885976747E+02  0.00000000000E+00 0.  1.
         11    1    3    3    0    0 -0.40109028665E+01 -0.44970400674E+01 -0.33847803916E+02  0.34380002056E+02  0.51100000000E-03 0. -1.
        -11    1    3    3    0    0 -0.20850260081E+01  0.10912378270E+02 -0.48525991895E+01  0.12123326776E+02  0.51100000000E-03 0.  1.
        -12    1    3    3    0    0 -0.70733103667E+01 -0.43624206177E+01  0.97336604463E+01  0.12798694421E+02  0.00000000000E+00 0.  1.
</event>
<event>
 7    1  0.1344618E-011  0.5930192E+02  0.7816164E-02  0.1266605E+00
        -11   -1    0    0    0    0  0.00000000000E+00  0.00000000000E+00  0.45593999997E+02  0.45594000000E+02  0.51100000000E-03 0.  1.
         11   -1    0    0    0    0 -0.00000000000E+00 -0.00000000000E+00 -0.45593999997E+02  0.45594000000E+02  0.51100000000E-03 0. -1.
    9900012    2    1    2    0    0 -0.14933893157E+02  0.27840371367E+02 -0.43144557800E+01  0.59301921983E+02  0.49999959795E+02 0.  0.
        -12    1    1    2    0    0  0.14933893157E+02 -0.27840371367E+02  0.43144557800E+01  0.31886078017E+02  0.00000000000E+00 0.  1.
         11    1    3    3    0    0  0.10622685470E+02  0.10630552557E+00  0.20505424263E+01  0.10819310143E+02  0.51100000000E-03 0. -1.
        -11    1    3    3    0    0 -0.78897905570E+01 -0.52001365061E+01 -0.58342839225E+01  0.11105362843E+02  0.51100000000E-03 0.  1.
         12    1    3    3    0    0 -0.17666788070E+02  0.32934202347E+02 -0.53071428382E+00  0.37377248997E+02  0.00000000000E+00 0. -1.
</event>
<event>
 7    1  0.1344618E-011  0.5930194E+02  0.7816164E-02  0.1266605E+00
        -11   -1    0    0    0    0  0.00000000000E+00  0.00000000000E+00  0.45593999997E+02  0.45594000000E+02  0.51100000000E-03 0.  1.
         11   -1    0    0    0    0 -0.00000000000E+00 -0.00000000000E+00 -0.45593999997E+02  0.45594000000E+02  0.51100000000E-03 0. -1.
    9900012    2    1    2    0    0  0.49085985696E+01 -0.66999686951E+01 -0.30785335940E+02  0.59301939889E+02  0.49999992452E+02 0.  0.
        -12    1    1    2    0    0 -0.49085985696E+01  0.66999686951E+01  0.30785335940E+02  0.31886060111E+02  0.00000000000E+00 0.  1.
         11    1    3    3    0    0 -0.18514082272E+02 -0.91026468238E+01 -0.10758026821E+02  0.23267242272E+02  0.51100000000E-03 0. -1.
        -11    1    3    3    0    0  0.25361194172E+01 -0.37397696105E+01  0.21089051347E+01  0.49865077525E+01  0.51100000000E-03 0.  1.
         12    1    3    3    0    0  0.20886561425E+02  0.61424477392E+01 -0.22136214254E+02  0.31048189865E+02  0.00000000000E+00 0. -1.
</event>
<event>
 7    1  0.1344618E-011  0.5930195E+02  0.7816164E-02  0.1266605E+00
        -11   -1    0    0    0    0  0.00000000000E+00  0.00000000000E+00  0.45593999997E+02  0.45594000000E+02  0.51100000000E-03 0.  1.
         11   -1    0    0    0    0 -0.00000000000E+00 -0.00000000000E+00 -0.45593999997E+02  0.45594000000E+02  0.51100000000E-03 0. -1.
    9900012    2    1    2    0    0 -0.12517561661E+02 -0.13105248171E+02 -0.26235147921E+02  0.59301954996E+02  0.50000020003E+02 0.  0.
        -12    1    1    2    0    0  0.12517561661E+02  0.13105248171E+02  0.26235147921E+02  0.31886045004E+02  0.00000000000E+00 0.  1.
         11    1    3    3    0    0 -0.50386554068E+01  0.38980716998E+01  0.18809057994E+01  0.66423503500E+01  0.51100000000E-03 0. -1.
        -11    1    3    3    0    0 -0.11235462016E+02  0.10855370762E+02 -0.54403255185E+01  0.16543029442E+02  0.51100000000E-03 0.  1.
         12    1    3    3    0    0  0.37565557615E+01 -0.27858690633E+02 -0.22675728202E+02  0.36116575204E+02  0.00000000000E+00 0. -1.
</event>
<event>
 7    1  0.1344618E-011  0.5930196E+02  0.7816164E-02  0.1266605E+00
        -11   -1    0    0    0    0  0.00000000000E+00  0.00000000000E+00  0.45593999997E+02  0.45594000000E+02  0.51100000000E-03 0. -1.
         11   -1    0    0    0    0 -0.00000000000E+00 -0.00000000000E+00 -0.45593999997E+02  0.45594000000E+02  0.51100000000E-03 0.  1.
    9900012    2    1    2    0    0 -0.21867194102E+02  0.35097827970E+00  0.23203921930E+02  0.59301962983E+02  0.50000034571E+02 0.  0.
        -12    1    1    2    0    0  0.21867194102E+02 -0.35097827970E+00 -0.23203921930E+02  0.31886037017E+02  0.00000000000E+00 0.  1.
         11    1    3    3    0    0  0.40728153208E+00 -0.78545620051E+00  0.40622293313E+01  0.41574664268E+01  0.51100000000E-03 0. -1.
        -11    1    3    3    0    0  0.69001547426E+01  0.15905735771E+02  0.13471627856E+02  0.21956532587E+02  0.51100000000E-03 0.  1.
         12    1    3    3    0    0 -0.29174630377E+02 -0.14769301291E+02  0.56700647434E+01  0.33187963970E+02  0.00000000000E+00 0. -1.
</event>
<event>
 7    1  0.1344618E-011  0.5930194E+02  0.7816164E-02  0.1266605E+00
        -11   -1    0    0    0    0  0.00000000000E+00  0.00000000000E+00  0.45593999997E+02  0.45594000000E+02  0.51100000000E-03 0.  1.
         11   -1    0    0    0    0 -0.00000000000E+00 -0.00000000000E+00 -0.45593999997E+02  0.45594000000E+02  0.51100000000E-03 0. -1.
    9900012    2    1    2    0    0  0.62587283991E+01  0.93773392210E+01 -0.29826412129E+02  0.59301936704E+02  0.49999986643E+02 0.  0.
        -12    1    1    2    0    0 -0.62587283991E+01 -0.93773392210E+01  0.29826412129E+02  0.31886063296E+02  0.00000000000E+00 0.  1.
         11    1    3    3    0    0 -0.68094901253E+01 -0.29809381438E+01 -0.16783100150E+00  0.74352750783E+01  0.51100000000E-03 0. -1.
        -11    1    3    3    0    0 -0.11456510699E+01 -0.90170588142E+01  0.36665489382E+01  0.98011962234E+01  0.51100000000E-03 0.  1.
        -12    1    3    3    0    0  0.14213869594E+02  0.21375336179E+02 -0.33325130066E+02  0.42065465402E+02  0.00000000000E+00 0.  1.
</event>
<event>
 7    1  0.1344618E-011  0.5930195E+02  0.7816164E-02  0.1266605E+00
        -11   -1    0    0    0    0  0.00000000000E+00  0.00000000000E+00  0.45593999997E+02  0.45594000000E+02  0.51100000000E-03 0. -1.
         11   -1    0    0    0    0 -0.00000000000E+00 -0.00000000000E+00 -0.45593999997E+02  0.45594000000E+02  0.51100000000E-03 0.  1.
    9900012    2    1    2    0    0 -0.15348699894E+02  0.27705250845E+02 -0.36819567425E+01  0.59301947904E+02  0.50000007069E+02 0.  0.
        -12    1    1    2    0    0  0.15348699894E+02 -0.27705250845E+02  0.36819567425E+01  0.31886052096E+02  0.00000000000E+00 0.  1.
         11    1    3    3    0    0 -0.14800543028E+02 -0.99547716118E+01 -0.10269620012E+02  0.20581998135E+02  0.51100000000E-03 0.  1.
        -11    1    3    3    0    0 -0.61946924740E+00  0.31731277567E+01  0.22995341681E+01  0.39674096789E+01  0.51100000000E-03 0. -1.
        -12    1    3    3    0    0  0.71312381632E-01  0.34486894700E+02  0.42881291012E+01  0.34752540090E+02  0.00000000000E+00 0.  1.
</event>
<event>
 7    1  0.1344618E-011  0.5930195E+02  0.7816164E-02  0.1266605E+00
        -11   -1    0    0    0    0  0.00000000000E+00  0.00000000000E+00  0.45593999997E+02  0.45594000000E+02  0.51100000000E-03 0. -1.
         11   -1    0    0    0    0 -0.00000000000E+00 -0.00000000000E+00 -0.45593999997E+02  0.45594000000E+02  0.51100000000E-03 0.  1.
    9900012    2    1    2    0    0 -0.21550154013E+02  0.19868728237E+02  0.12551692143E+02  0.59301945440E+02  0.50000002576E+02 0.  0.
        -12    1    1    2    0    0  0.21550154013E+02 -0.19868728237E+02 -0.12551692143E+02  0.31886054560E+02  0.00000000000E+00 0.  1.
         11    1    3    3    0    0  0.38040927512E+01  0.17721501185E+02  0.17863786859E+02  0.25448725059E+02  0.51100000000E-03 0. -1.
        -11    1    3    3    0    0 -0.24795369470E+01 -0.79735299216E+01 -0.22844239231E+01  0.86570130994E+01  0.51100000000E-03 0.  1.
         12    1    3    3    0    0 -0.22874709817E+02  0.10120756973E+02 -0.30276707934E+01  0.25196207281E+02  0.00000000000E+00 0. -1.
</event>
<event>
 7    1  0.1344618E-011  0.5930194E+02  0.7816164E-02  0.1266605E+00
        -11   -1    0    0    0    0  0.00000000000E+00  0.00000000000E+00  0.45593999997E+02  0.45594000000E+02  0.51100000000E-03 0.  1.
         11   -1    0    0    0    0 -0.00000000000E+00 -0.00000000000E+00 -0.45593999997E+02  0.45594000000E+02  0.51100000000E-03 0. -1.
    9900012    2    1    2    0    0  0.45337689411E+01  0.13932161489E+02 -0.28320670965E+02  0.59301943667E+02  0.49999999341E+02 0.  0.
        -12    1    1    2    0    0 -0.45337689411E+01 -0.13932161489E+02  0.28320670965E+02  0.31886056333E+02  0.00000000000E+00 0.  1.
         11    1    3    3    0    0  0.15174799485E+02  0.15229911130E+02 -0.12203370582E+02  0.24721387224E+02  0.51100000000E-03 0. -1.
        -11    1    3    3    0    0 -0.42174891256E+00  0.74293632054E+01  0.54120282536E+01  0.92012694701E+01  0.51100000000E-03 0.  1.
         12    1    3    3    0    0 -0.10219281632E+02 -0.87271128460E+01 -0.21529328637E+02  0.25379286973E+02  0.00000000000E+00 0. -1.
</event>
<event>
 7    1  0.1344618E-011  0.5930194E+02  0.7816164E-02  0.1266605E+00
        -11   -1    0    0    0    0  0.00000000000E+00  0.00000000000E+00  0.45593999997E+02  0.45594000000E+02  0.51100000000E-03 0.  1.
         11   -1    0    0    0    0 -0.00000000000E+00 -0.00000000000E+00 -0.45593999997E+02  0.45594000000E+02  0.51100000000E-03 0. -1.
    9900012    2    1    2    0    0  0.19289012142E+02 -0.15209379352E+02 -0.20330504991E+02  0.59301942814E+02  0.49999997787E+02 0.  0.
        -12    1    1    2    0    0 -0.19289012142E+02  0.15209379352E+02  0.20330504991E+02  0.31886057186E+02  0.00000000000E+00 0.  1.
         11    1    3    3    0    0  0.10669027097E+02  0.13308608452E+02 -0.10378457487E+02  0.19966461334E+02  0.51100000000E-03 0.  1.
        -11    1    3    3    0    0 -0.17177516743E+01  0.36538815145E+01 -0.24435322174E+01  0.47193612804E+01  0.51100000000E-03 0. -1.
         12    1    3    3    0    0  0.10337736719E+02 -0.32171869318E+02 -0.75085152864E+01  0.34616120200E+02  0.00000000000E+00 0. -1.
</event>
<event>
 7    1  0.1344618E-011  0.5930197E+02  0.7816164E-02  0.1266605E+00
        -11   -1    0    0    0    0  0.00000000000E+00  0.00000000000E+00  0.45593999997E+02  0.45594000000E+02  0.51100000000E-03 0. -1.
         11   -1    0    0    0    0 -0.00000000000E+00 -0.00000000000E+00 -0.45593999997E+02  0.45594000000E+02  0.51100000000E-03 0.  1.
    9900012    2    1    2    0    0  0.10765096252E+02 -0.24424504573E+02 -0.17443493507E+02  0.59301965648E+02  0.50000039431E+02 0.  0.
        -12    1    1    2    0    0 -0.10765096252E+02  0.24424504573E+02  0.17443493507E+02  0.31886034352E+02  0.00000000000E+00 0.  1.
         11    1    3    3    0    0  0.24928922029E+02 -0.14880086820E+02 -0.21203203215E+02  0.35950576687E+02  0.51100000000E-03 0. -1.
        -11    1    3    3    0    0 -0.35498233142E+01 -0.10467062721E+01 -0.56940807308E+01  0.67911262109E+01  0.51100000000E-03 0.  1.
         12    1    3    3    0    0 -0.10614002463E+02 -0.84977114804E+01  0.94537904394E+01  0.16560262750E+02  0.00000000000E+00 0. -1.
</event>
<event>
 7    1  0.1344618E-011  0.5930192E+02  0.7816164E-02  0.1266605E+00
        -11   -1    0    0    0    0  0.00000000000E+00  0.00000000000E+00  0.45593999997E+02  0.45594000000E+02  0.51100000000E-03 0. -1.
         11   -1    0    0    0    0 -0.00000000000E+00 -0.00000000000E+00 -0.45593999997E+02  0.45594000000E+02  0.51100000000E-03 0.  1.
    9900012    2    1    2    0    0  0.20665974439E+02 -0.24101200766E+02 -0.29616821985E+01  0.59301922485E+02  0.49999960711E+02 0.  0.
        -12    1    1    2    0    0 -0.20665974439E+02  0.24101200766E+02  0.29616821985E+01  0.31886077515E+02  0.00000000000E+00 0.  1.
         11    1    3    3    0    0 -0.32075247956E+01 -0.13176198746E+02  0.80178874818E+01  0.15753950255E+02  0.51100000000E-03 0.  1.
        -11    1    3    3    0    0  0.21510220929E+02 -0.65933482650E+01  0.80455546393E+01  0.23893363000E+02  0.51100000000E-03 0. -1.
        -12    1    3    3    0    0  0.23632783061E+01 -0.43316537548E+01 -0.19025124320E+02  0.19654609230E+02  0.00000000000E+00 0.  1.
</event>
<event>
 7    1  0.1344618E-011  0.5930194E+02  0.7816164E-02  0.1266605E+00
        -11   -1    0    0    0    0  0.00000000000E+00  0.00000000000E+00  0.45593999997E+02  0.45594000000E+02  0.51100000000E-03 0.  1.
         11   -1    0    0    0    0 -0.00000000000E+00 -0.00000000000E+00 -0.45593999997E+02  0.45594000000E+02  0.51100000000E-03 0. -1.
    9900012    2    1    2    0    0 -0.12951890895E+01  0.31833932226E+02  0.12822617656E+01  0.59301937982E+02  0.49999988975E+02 0.  0.
        -12    1    1    2    0    0  0.12951890895E+01 -0.31833932226E+02 -0.12822617656E+01  0.31886062018E+02  0.00000000000E+00 0.  1.
         11    1    3    3    0    0  0.61540113402E+01  0.80038076887E+01 -0.10433455131E+02  0.14518601149E+02  0.51100000000E-03 0. -1.
        -11    1    3    3    0    0  0.98789897754E+01 -0.36992110287E+01  0.13061284705E+01  0.10629420166E+02  0.51100000000E-03 0.  1.
        -12    1    3    3    0    0 -0.17328190205E+02  0.27529335566E+02  0.10409588426E+02  0.34153916667E+02  0.00000000000E+00 0.  1.
</event>
<event>
 7    1  0.1344618E-011  0.5930198E+02  0.7816164E-02  0.1266605E+00
        -11   -1    0    0    0    0  0.00000000000E+00  0.00000000000E+00  0.45593999997E+02  0.45594000000E+02  0.51100000000E-03 0. -1.
         11   -1    0    0    0    0 -0.00000000000E+00 -0.00000000000E+00 -0.45593999997E+02  0.45594000000E+02  0.51100000000E-03 0.  1.
    9900012    2    1    2    0    0  0.42534686700E+01  0.23966588952E+02  0.20596815681E+02  0.59301981153E+02  0.50000067707E+02 0.  0.
        -12    1    1    2    0    0 -0.42534686700E+01 -0.23966588952E+02 -0.20596815681E+02  0.31886018847E+02  0.00000000000E+00 0.  1.
         11    1    3    3    0    0  0.23388535103E+02  0.99074949196E+01  0.77660090292E+01  0.26561116813E+02  0.51100000000E-03 0. -1.
        -11    1    3    3    0    0 -0.12575746827E+01 -0.39370780804E+01 -0.36152414652E+00  0.41488284929E+01  0.51100000000E-03 0.  1.
        -12    1    3    3    0    0 -0.17877491750E+02  0.17996172113E+02  0.13192330798E+02  0.28592035847E+02  0.00000000000E+00 0.  1.
</event>
<event>
 7    1  0.1344618E-011  0.5930195E+02  0.7816164E-02  0.1266605E+00
        -11   -1    0    0    0    0  0.00000000000E+00  0.00000000000E+00  0.45593999997E+02  0.45594000000E+02  0.51100000000E-03 0.  1.
         11   -1    0    0    0    0 -0.00000000000E+00 -0.00000000000E+00 -0.45593999997E+02  0.45594000000E+02  0.51100000000E-03 0. -1.
    9900012    2    1    2    0    0 -0.58708327944E+01  0.20273370929E+02 -0.23900714131E+02  0.59301946897E+02  0.50000005233E+02 0.  0.
        -12    1    1    2    0    0  0.58708327944E+01 -0.20273370929E+02  0.23900714131E+02  0.31886053103E+02  0.00000000000E+00 0.  1.
         11    1    3    3    0    0 -0.11271040623E+02  0.53358310442E+01 -0.18351795471E+02  0.22187740916E+02  0.51100000000E-03 0. -1.
        -11    1    3    3    0    0 -0.63231511244E+01  0.29683342789E+01 -0.15937256940E+02  0.17400845025E+02  0.51100000000E-03 0.  1.
        -12    1    3    3    0    0  0.11723358953E+02  0.11969205606E+02  0.10388338280E+02  0.19713360956E+02  0.00000000000E+00 0.  1.
</event>
<event>
 7    1  0.1344618E-011  0.5930196E+02  0.7816164E-02  0.1266605E+00
        -11   -1    0    0    0    0  0.00000000000E+00  0.00000000000E+00  0.45593999997E+02  0.45594000000E+02  0.51100000000E-03 0. -1.
         11   -1    0    0    0    0 -0.00000000000E+00 -0.00000000000E+00 -0.45593999997E+02  0.45594000000E+02  0.51100000000E-03 0.  1.
    9900012    2    1    2    0    0  0.14645125337E+02  0.27923103320E+02 -0.47476223826E+01  0.59301963660E+02  0.50000035805E+02 0.  0.
        -12    1    1    2    0    0 -0.14645125337E+02 -0.27923103320E+02  0.47476223826E+01  0.31886036340E+02  0.00000000000E+00 0.  1.
         11    1    3    3    0    0  0.87824129254E+01 -0.64914158030E+01 -0.97288718620E+00  0.10964295037E+02  0.51100000000E-03 0. -1.
        -11    1    3    3    0    0  0.11804398547E+02 -0.68078507932E+00  0.27751915278E+01  0.12145327565E+02  0.51100000000E-03 0.  1.
        -12    1    3    3    0    0 -0.59416861358E+01  0.35095304202E+02 -0.65499267242E+01  0.36192341058E+02  0.00000000000E+00 0.  1.
</event>
<event>
 7    1  0.1344618E-011  0.5930194E+02  0.7816164E-02  0.1266605E+00
        -11   -1    0    0    0    0  0.00000000000E+00  0.00000000000E+00  0.45593999997E+02  0.45594000000E+02  0.51100000000E-03 0.  1.
         11   -1    0    0    0    0 -0.00000000000E+00 -0.00000000000E+00 -0.45593999997E+02  0.45594000000E+02  0.51100000000E-03 0. -1.
    9900012    2    1    2    0    0 -0.65832355535E+01 -0.24176624496E+02 -0.19719859348E+02  0.59301936977E+02  0.49999987142E+02 0.  0.
        -12    1    1    2    0    0  0.65832355535E+01  0.24176624496E+02  0.19719859348E+02  0.31886063023E+02  0.00000000000E+00 0.  1.
         11    1    3    3    0    0 -0.92973002950E+01 -0.12916051304E+02  0.34959600344E+00  0.15918115205E+02  0.51100000000E-03 0. -1.
        -11    1    3    3    0    0  0.52886756454E+01 -0.18917710526E+02  0.21318882103E+01  0.19758411100E+02  0.51100000000E-03 0.  1.
        -12    1    3    3    0    0 -0.25746109039E+01  0.76571373338E+01 -0.22201343562E+02  0.23625410672E+02  0.00000000000E+00 0.  1.
</event>
<event>
 7    1  0.1344618E-011  0.5930197E+02  0.7816164E-02  0.1266605E+00
        -11   -1    0    0    0    0  0.00000000000E+00  0.00000000000E+00  0.45593999997E+02  0.45594000000E+02  0.51100000000E-03 0.  1.
         11   -1    0    0    0    0 -0.00000000000E+00 -0.00000000000E+00 -0.45593999997E+02  0.45594000000E+02  0.51100000000E-03 0. -1.
    9900012    2    1    2    0    0 -0.24294514945E+02  0.13194756060E+02 -0.15886915089E+02  0.59301966773E+02  0.50000041482E+02 0.  0.
        -12    1    1    2    0    0  0.24294514945E+02 -0.13194756060E+02  0.15886915089E+02  0.31886033227E+02  0.00000000000E+00 0.  1.
         11    1    3    3    0    0 -0.16616676476E+01  0.99950318977E+01 -0.87387192901E+01  0.13380097799E+02  0.51100000000E-03 0. -1.
        -11    1    3    3    0    0 -0.12239588693E+01  0.77328870352E+01 -0.19344756626E+02  0.20869001566E+02  0.51100000000E-03 0.  1.
        -12    1    3    3    0    0 -0.21408888428E+02 -0.45331628725E+01  0.12196560827E+02  0.25052867408E+02  0.00000000000E+00 0.  1.
</event>
<event>
 7    1  0.1344618E-011  0.5930187E+02  0.7816164E-02  0.1266605E+00
        -11   -1    0    0    0    0  0.00000000000E+00  0.00000000000E+00  0.45593999997E+02  0.45594000000E+02  0.51100000000E-03 0.  1.
         11   -1    0    0    0    0 -0.00000000000E+00 -0.00000000000E+00 -0.45593999997E+02  0.45594000000E+02  0.51100000000E-03 0. -1.
    9900012    2    1    2    0    0 -0.88902257582E+01 -0.25188145520E+02 -0.17413979686E+02  0.59301867007E+02  0.49999859533E+02 0.  0.
        -12    1    1    2    0    0  0.88902257582E+01  0.25188145520E+02  0.17413979686E+02  0.31886132993E+02  0.00000000000E+00 0.  1.
         11    1    3    3    0    0 -0.15800977249E+02 -0.11248125562E+02 -0.18241900686E+02  0.26626268075E+02  0.51100000000E-03 0. -1.
        -11    1    3    3    0    0  0.12882321343E+02 -0.71210392816E+01 -0.10563748977E+02  0.18117841934E+02  0.51100000000E-03 0.  1.
        -12    1    3    3    0    0 -0.59715698525E+01 -0.68189806756E+01  0.11391669977E+02  0.14557756998E+02  0.00000000000E+00 0.  1.
</event>
<event>
 7    1  0.1344618E-011  0.5930195E+02  0.7816164E-02  0.1266605E+00
        -11   -1    0    0    0    0  0.00000000000E+00  0.00000000000E+00  0.45593999997E+02  0.45594000000E+02  0.51100000000E-03 0.  1.
         11   -1    0    0    0    0 -0.00000000000E+00 -0.00000000000E+00 -0.45593999997E+02  0.45594000000E+02  0.51100000000E-03 0. -1.
    9900012    2    1    2    0    0  0.57447855091E+00 -0.12882893001E+02 -0.29161982406E+02  0.59301950142E+02  0.50000011152E+02 0.  0.
        -12    1    1    2    0    0 -0.57447855091E+00  0.12882893001E+02  0.29161982406E+02  0.31886049858E+02  0.00000000000E+00 0.  1.
         11    1    3    3    0    0 -0.40208364846E+01 -0.15643517699E+01 -0.67717290864E-01  0.43149633126E+01  0.51100000000E-03 0. -1.
        -11    1    3    3    0    0 -0.47348486664E+01 -0.86528587648E+01  0.10390916912E+02  0.14326964481E+02  0.51100000000E-03 0.  1.
         12    1    3    3    0    0  0.93301637020E+01 -0.26656824666E+01 -0.39485182027E+02  0.40660022349E+02  0.00000000000E+00 0. -1.
</event>
<event>
 7    1  0.1344618E-011  0.5930194E+02  0.7816164E-02  0.1266605E+00
        -11   -1    0    0    0    0  0.00000000000E+00  0.00000000000E+00  0.45593999997E+02  0.45594000000E+02  0.51100000000E-03 0.  1.
         11   -1    0    0    0    0 -0.00000000000E+00 -0.00000000000E+00 -0.45593999997E+02  0.45594000000E+02  0.51100000000E-03 0. -1.
    9900012    2    1    2    0    0  0.24654815044E+02 -0.17388713179E+02 -0.10319585802E+02  0.59301935614E+02  0.49999984656E+02 0.  0.
        -12    1    1    2    0    0 -0.24654815044E+02  0.17388713179E+02  0.10319585802E+02  0.31886064386E+02  0.00000000000E+00 0.  1.
         11    1    3    3    0    0  0.22770840011E+02 -0.15512743993E+02  0.13948013308E+01  0.27588074453E+02  0.51100000000E-03 0. -1.
        -11    1    3    3    0    0  0.57144581158E+01 -0.12165550230E+02  0.25833627808E+01  0.13686833362E+02  0.51100000000E-03 0.  1.
         12    1    3    3    0    0 -0.38304830824E+01  0.10289581044E+02 -0.14297749913E+02  0.18027027800E+02  0.00000000000E+00 0. -1.
</event>
<event>
 7    1  0.1344618E-011  0.5930193E+02  0.7816164E-02  0.1266605E+00
        -11   -1    0    0    0    0  0.00000000000E+00  0.00000000000E+00  0.45593999997E+02  0.45594000000E+02  0.51100000000E-03 0.  1.
         11   -1    0    0    0    0 -0.00000000000E+00 -0.00000000000E+00 -0.45593999997E+02  0.45594000000E+02  0.51100000000E-03 0. -1.
    9900012    2    1    2    0    0  0.25598329964E+02 -0.12349932647E+02 -0.14454280186E+02  0.59301928605E+02  0.49999971872E+02 0.  0.
        -12    1    1    2    0    0 -0.25598329964E+02  0.12349932647E+02  0.14454280186E+02  0.31886071395E+02  0.00000000000E+00 0.  1.
         11    1    3    3    0    0 -0.45819547209E+01 -0.18587058919E+02 -0.70149957318E+01  0.20388311203E+02  0.51100000000E-03 0. -1.
        -11    1    3    3    0    0  0.10789498675E+02 -0.84888422965E+01 -0.12164943317E+01  0.13782364961E+02  0.51100000000E-03 0.  1.
         12    1    3    3    0    0  0.19390786010E+02  0.14725968568E+02 -0.62227901223E+01  0.25131252441E+02  0.00000000000E+00 0. -1.
</event>
<event>
 7    1  0.1344618E-011  0.5930194E+02  0.7816164E-02  0.1266605E+00
        -11   -1    0    0    0    0  0.00000000000E+00  0.00000000000E+00  0.45593999997E+02  0.45594000000E+02  0.51100000000E-03 0.  1.
         11   -1    0    0    0    0 -0.00000000000E+00 -0.00000000000E+00 -0.45593999997E+02  0.45594000000E+02  0.51100000000E-03 0. -1.
    9900012    2    1    2    0    0 -0.53997737383E+01  0.18945969021E+01 -0.31368356438E+02  0.59301939731E+02  0.49999992165E+02 0.  0.
        -12    1    1    2    0    0  0.53997737383E+01 -0.18945969021E+01  0.31368356438E+02  0.31886060269E+02  0.00000000000E+00 0.  1.
         11    1    3    3    0    0  0.14818469049E+02 -0.46477466814E+01 -0.20091744157E+02  0.25394226857E+02  0.51100000000E-03 0. -1.
        -11    1    3    3    0    0 -0.41008457366E+01  0.62863099236E+01 -0.15519543520E+02  0.17239224447E+02  0.51100000000E-03 0.  1.
        -12    1    3    3    0    0 -0.16117397051E+02  0.25603365998E+00  0.42429312393E+01  0.16668488426E+02  0.00000000000E+00 0.  1.
</event>
<event>
 7    1  0.1344618E-011  0.5930197E+02  0.7816164E-02  0.1266605E+00
        -11   -1    0    0    0    0  0.00000000000E+00  0.00000000000E+00  0.45593999997E+02  0.45594000000E+02  0.51100000000E-03 0.  1.
         11   -1    0    0    0    0 -0.00000000000E+00 -0.00000000000E+00 -0.45593999997E+02  0.45594000000E+02  0.51100000000E-03 0. -1.
    9900012    2    1    2    0    0  0.17404367912E+02 -0.16516226161E+02 -0.21000501432E+02  0.59301971564E+02  0.50000050220E+02 0.  0.
        -12    1    1    2    0    0 -0.17404367912E+02  0.16516226161E+02  0.21000501432E+02  0.31886028436E+02  0.00000000000E+00 0.  1.
         11    1    3    3    0    0  0.18829800951E+02 -0.50319257602E+01 -0.84264474385E+01  0.21234092808E+02  0.51100000000E-03 0. -1.
        -11    1    3    3    0    0  0.49287223307E+01  0.91341138018E+01  0.37258419766E+01  0.11027521818E+02  0.51100000000E-03 0.  1.
        -12    1    3    3    0    0 -0.63541553694E+01 -0.20618414202E+02 -0.16299895970E+02  0.27040356938E+02  0.00000000000E+00 0.  1.
</event>
<event>
 7    1  0.1344618E-011  0.5930192E+02  0.7816164E-02  0.1266605E+00
        -11   -1    0    0    0    0  0.00000000000E+00  0.00000000000E+00  0.45593999997E+02  0.45594000000E+02  0.51100000000E-03 0. -1.
         11   -1    0    0    0    0 -0.00000000000E+00 -0.00000000000E+00 -0.45593999997E+02  0.45594000000E+02  0.51100000000E-03 0.  1.
    9900012    2    1    2    0    0  0.27019196801E+02 -0.10341671462E+02  0.13406518459E+02  0.59301923076E+02  0.49999961789E+02 0.  0.
        -12    1    1    2    0    0 -0.27019196801E+02  0.10341671462E+02 -0.13406518459E+02  0.31886076924E+02  0.00000000000E+00 0.  1.
         11    1    3    3    0    0 -0.22481200650E+01  0.32471326430E+01  0.24534993690E+02  0.24850831573E+02  0.51100000000E-03 0. -1.
        -11    1    3    3    0    0  0.11378424066E+02 -0.78261563023E+01 -0.47018313759E+01  0.14588504901E+02  0.51100000000E-03 0.  1.
        -12    1    3    3    0    0  0.17888892800E+02 -0.57626478031E+01 -0.64266438547E+01  0.19862586603E+02  0.00000000000E+00 0.  1.
</event>
<event>
 7    1  0.1344618E-011  0.5930196E+02  0.7816164E-02  0.1266605E+00
        -11   -1    0    0    0    0  0.00000000000E+00  0.00000000000E+00  0.45593999997E+02  0.45594000000E+02  0.51100000000E-03 0. -1.
         11   -1    0    0    0    0 -0.00000000000E+00 -0.00000000000E+00 -0.45593999997E+02  0.45594000000E+02  0.51100000000E-03 0.  1.
    9900012    2    1    2    0    0 -0.11646913393E+02  0.26029829769E+02 -0.14265929502E+02  0.59301962711E+02  0.50000034075E+02 0.  0.
        -12    1    1    2    0    0  0.11646913393E+02 -0.26029829769E+02  0.14265929502E+02  0.31886037289E+02  0.00000000000E+00 0.  1.
         11    1    3    3    0    0 -0.18410489510E+01  0.37347508814E+01  0.83824960218E+01  0.93597043331E+01  0.51100000000E-03 0. -1.
        -11    1    3    3    0    0  0.20479541445E+01 -0.92160592836E+01 -0.13577969915E+00  0.94418378129E+01  0.51100000000E-03 0.  1.
         12    1    3    3    0    0 -0.11853818586E+02  0.31511138172E+02 -0.22512645825E+02  0.40500420566E+02  0.00000000000E+00 0. -1.
</event>
<event>
 7    1  0.1344618E-011  0.5930195E+02  0.7816164E-02  0.1266605E+00
        -11   -1    0    0    0    0  0.00000000000E+00  0.00000000000E+00  0.45593999997E+02  0.45594000000E+02  0.51100000000E-03 0. -1.
         11   -1    0    0    0    0 -0.00000000000E+00 -0.00000000000E+00 -0.45593999997E+02  0.45594000000E+02  0.51100000000E-03 0.  1.
    9900012    2    1    2    0    0  0.29522593075E+02  0.90860151291E+01  0.79108130425E+01  0.59301950765E+02  0.50000012287E+02 0.  0.
        -12    1    1    2    0    0 -0.29522593075E+02 -0.90860151291E+01 -0.79108130425E+01  0.31886049235E+02  0.00000000000E+00 0.  1.
         11    1    3    3    0    0  0.28997905069E+02  0.20407902394E+02  0.15185219149E+02  0.38573979045E+02  0.51100000000E-03 0. -1.
        -11    1    3    3    0    0  0.43314629732E+01  0.23863435780E+01 -0.50027564459E+00  0.49705616526E+01  0.51100000000E-03 0.  1.
         12    1    3    3    0    0 -0.38067749666E+01 -0.13708230843E+02 -0.67741304622E+01  0.15757410067E+02  0.00000000000E+00 0. -1.
</event>
<event>
 7    1  0.1344618E-011  0.5930195E+02  0.7816164E-02  0.1266605E+00
        -11   -1    0    0    0    0  0.00000000000E+00  0.00000000000E+00  0.45593999997E+02  0.45594000000E+02  0.51100000000E-03 0. -1.
         11   -1    0    0    0    0 -0.00000000000E+00 -0.00000000000E+00 -0.45593999997E+02  0.45594000000E+02  0.51100000000E-03 0.  1.
    9900012    2    1    2    0    0 -0.11954224350E+02 -0.27547977753E+01  0.29431753455E+02  0.59301945022E+02  0.50000001813E+02 0.  0.
        -12    1    1    2    0    0  0.11954224350E+02  0.27547977753E+01 -0.29431753455E+02  0.31886054978E+02  0.00000000000E+00 0.  1.
         11    1    3    3    0    0 -0.21369312208E+02 -0.15506759494E+01  0.36725105155E+01  0.21737972166E+02  0.51100000000E-03 0. -1.
        -11    1    3    3    0    0  0.22526416606E+01 -0.86284958564E+01  0.25747247192E+02  0.27247863649E+02  0.51100000000E-03 0.  1.
        -12    1    3    3    0    0  0.71624461975E+01  0.74243740305E+01  0.11995747973E-01  0.10316109207E+02  0.00000000000E+00 0.  1.
</event>
<event>
 7    1  0.1344618E-011  0.5930194E+02  0.7816164E-02  0.1266605E+00
        -11   -1    0    0    0    0  0.00000000000E+00  0.00000000000E+00  0.45593999997E+02  0.45594000000E+02  0.51100000000E-03 0. -1.
         11   -1    0    0    0    0 -0.00000000000E+00 -0.00000000000E+00 -0.45593999997E+02  0.45594000000E+02  0.51100000000E-03 0.  1.
    9900012    2    1    2    0    0 -0.91730467498E+01  0.21720196817E+02  0.21466460069E+02  0.59301942791E+02  0.49999997744E+02 0.  0.
        -12    1    1    2    0    0  0.91730467498E+01 -0.21720196817E+02 -0.21466460069E+02  0.31886057209E+02  0.00000000000E+00 0.  1.
         11    1    3    3    0    0  0.51722146344E+01 -0.31302306219E+01  0.24990391364E+02  0.25711277851E+02  0.51100000000E-03 0. -1.
        -11    1    3    3    0    0  0.57956343697E+00 -0.19445306304E+01  0.14833580419E+01  0.25134527033E+01  0.51100000000E-03 0.  1.
        -12    1    3    3    0    0 -0.14924824821E+02  0.26794958069E+02 -0.50072893363E+01  0.31077212236E+02  0.00000000000E+00 0.  1.
</event>
<event>
 7    1  0.1344618E-011  0.5930192E+02  0.7816164E-02  0.1266605E+00
        -11   -1    0    0    0    0  0.00000000000E+00  0.00000000000E+00  0.45593999997E+02  0.45594000000E+02  0.51100000000E-03 0. -1.
         11   -1    0    0    0    0 -0.00000000000E+00 -0.00000000000E+00 -0.45593999997E+02  0.45594000000E+02  0.51100000000E-03 0.  1.
    9900012    2    1    2    0    0  0.16806786669E+02  0.47330684917E+01  0.26680557745E+02  0.59301918756E+02  0.49999953911E+02 0.  0.
        -12    1    1    2    0    0 -0.16806786669E+02 -0.47330684917E+01 -0.26680557745E+02  0.31886081244E+02  0.00000000000E+00 0.  1.
         11    1    3    3    0    0  0.48851953374E+01 -0.50032588555E+01  0.32439995388E-01  0.69927666395E+01  0.51100000000E-03 0. -1.
        -11    1    3    3    0    0  0.24962715482E+02 -0.38328324225E+01  0.99343967618E+01  0.27138902113E+02  0.51100000000E-03 0.  1.
        -12    1    3    3    0    0 -0.13041124151E+02  0.13569159770E+02  0.16713720988E+02  0.25170250004E+02  0.00000000000E+00 0.  1.
</event>
<event>
 7    1  0.1344618E-011  0.5930195E+02  0.7816164E-02  0.1266605E+00
        -11   -1    0    0    0    0  0.00000000000E+00  0.00000000000E+00  0.45593999997E+02  0.45594000000E+02  0.51100000000E-03 0. -1.
         11   -1    0    0    0    0 -0.00000000000E+00 -0.00000000000E+00 -0.45593999997E+02  0.45594000000E+02  0.51100000000E-03 0.  1.
    9900012    2    1    2    0    0 -0.91357343014E+01 -0.17838580899E+02  0.24800070368E+02  0.59301951327E+02  0.50000013313E+02 0.  0.
        -12    1    1    2    0    0  0.91357343014E+01  0.17838580899E+02 -0.24800070368E+02  0.31886048673E+02  0.00000000000E+00 0.  1.
         11    1    3    3    0    0 -0.70994352193E+01 -0.81960981329E+01  0.13605331803E+01  0.10928360162E+02  0.51100000000E-03 0. -1.
        -11    1    3    3    0    0 -0.59599459946E+01 -0.13753419509E+02 -0.76085261811E+01  0.16809734542E+02  0.51100000000E-03 0.  1.
         12    1    3    3    0    0  0.39236469125E+01  0.41109367430E+01  0.31048063369E+02  0.31563856624E+02  0.00000000000E+00 0. -1.
</event>
<event>
 7    1  0.1344618E-011  0.5930195E+02  0.7816164E-02  0.1266605E+00
        -11   -1    0    0    0    0  0.00000000000E+00  0.00000000000E+00  0.45593999997E+02  0.45594000000E+02  0.51100000000E-03 0.  1.
         11   -1    0    0    0    0 -0.00000000000E+00 -0.00000000000E+00 -0.45593999997E+02  0.45594000000E+02  0.51100000000E-03 0. -1.
    9900012    2    1    2    0    0 -0.26120110613E+02 -0.13496633182E+02  0.12341021283E+02  0.59301951452E+02  0.50000013540E+02 0.  0.
        -12    1    1    2    0    0  0.26120110613E+02  0.13496633182E+02 -0.12341021283E+02  0.31886048548E+02  0.00000000000E+00 0.  1.
         11    1    3    3    0    0 -0.69505068073E+01  0.50858755628E+00 -0.89299051012E+01  0.11327462715E+02  0.51100000000E-03 0. -1.
        -11    1    3    3    0    0 -0.49342908255E+01  0.12168359503E+02  0.52062262468E+01  0.14125189944E+02  0.51100000000E-03 0.  1.
        -12    1    3    3    0    0 -0.14235312981E+02 -0.26173580241E+02  0.16064700137E+02  0.33849298793E+02  0.00000000000E+00 0.  1.
</event>
<event>
 7    1  0.1344618E-011  0.5930196E+02  0.7816164E-02  0.1266605E+00
        -11   -1    0    0    0    0  0.00000000000E+00  0.00000000000E+00  0.45593999997E+02  0.45594000000E+02  0.51100000000E-03 0. -1.
         11   -1    0    0    0    0 -0.00000000000E+00 -0.00000000000E+00 -0.45593999997E+02  0.45594000000E+02  0.51100000000E-03 0.  1.
    9900012    2    1    2    0    0 -0.23858066153E+02 -0.49273842807E+01  0.20572626962E+02  0.59301962044E+02  0.50000032858E+02 0.  0.
        -12    1    1    2    0    0  0.23858066153E+02  0.49273842807E+01 -0.20572626962E+02  0.31886037956E+02  0.00000000000E+00 0.  1.
         11    1    3    3    0    0  0.89100648471E+01 -0.78166893489E+01  0.14352176789E+02  0.18613835360E+02  0.51100000000E-03 0. -1.
        -11    1    3    3    0    0  0.76032792589E-01  0.17093500259E+01  0.76035424459E+01  0.77936843973E+01  0.51100000000E-03 0.  1.
        -12    1    3    3    0    0 -0.32844163793E+02  0.11799550423E+01 -0.13830922732E+01  0.32894442287E+02  0.00000000000E+00 0.  1.
</event>
<event>
 7    1  0.1344618E-011  0.5930190E+02  0.7816164E-02  0.1266605E+00
        -11   -1    0    0    0    0  0.00000000000E+00  0.00000000000E+00  0.45593999997E+02  0.45594000000E+02  0.51100000000E-03 0.  1.
         11   -1    0    0    0    0 -0.00000000000E+00 -0.00000000000E+00 -0.45593999997E+02  0.45594000000E+02  0.51100000000E-03 0. -1.
    9900012    2    1    2    0    0  0.31887894478E+01 -0.15414384067E+02 -0.27729981851E+02  0.59301897890E+02  0.49999915855E+02 0.  0.
        -12    1    1    2    0    0 -0.31887894478E+01  0.15414384067E+02  0.27729981851E+02  0.31886102110E+02  0.00000000000E+00 0.  1.
         11    1    3    3    0    0  0.14767658539E+02  0.89532151157E+00 -0.66959951485E+01  0.16239510172E+02  0.51100000000E-03 0. -1.
        -11    1    3    3    0    0 -0.70542463196E+01 -0.24956496770E+01  0.77768972075E+01  0.10792163309E+02  0.51100000000E-03 0.  1.
         12    1    3    3    0    0 -0.45246227720E+01 -0.13814055902E+02 -0.28810883910E+02  0.32270224409E+02  0.00000000000E+00 0. -1.
</event>
<event>
 7    1  0.1344618E-011  0.5930193E+02  0.7816164E-02  0.1266605E+00
        -11   -1    0    0    0    0  0.00000000000E+00  0.00000000000E+00  0.45593999997E+02  0.45594000000E+02  0.51100000000E-03 0.  1.
         11   -1    0    0    0    0 -0.00000000000E+00 -0.00000000000E+00 -0.45593999997E+02  0.45594000000E+02  0.51100000000E-03 0. -1.
    9900012    2    1    2    0    0  0.28034147767E+02 -0.87099644504E+01 -0.12447660765E+02  0.59301934387E+02  0.49999982417E+02 0.  0.
        -12    1    1    2    0    0 -0.28034147767E+02  0.87099644504E+01  0.12447660765E+02  0.31886065613E+02  0.00000000000E+00 0.  1.
         11    1    3    3    0    0  0.23201008132E+02  0.29913002972E+01 -0.80126156683E+01  0.24727245417E+02  0.51100000000E-03 0. -1.
        -11    1    3    3    0    0  0.15734121372E+02  0.29522862141E+01 -0.15320808185E+01  0.16081848187E+02  0.51100000000E-03 0.  1.
        -12    1    3    3    0    0 -0.10900981736E+02 -0.14653550962E+02 -0.29029642780E+01  0.18492840782E+02  0.00000000000E+00 0.  1.
</event>
<event>
 7    1  0.1344618E-011  0.5930194E+02  0.7816164E-02  0.1266605E+00
        -11   -1    0    0    0    0  0.00000000000E+00  0.00000000000E+00  0.45593999997E+02  0.45594000000E+02  0.51100000000E-03 0.  1.
         11   -1    0    0    0    0 -0.00000000000E+00 -0.00000000000E+00 -0.45593999997E+02  0.45594000000E+02  0.51100000000E-03 0. -1.
    9900012    2    1    2    0    0  0.46161528051E-01 -0.71887619955E+01 -0.31065094783E+02  0.59301944368E+02  0.50000000620E+02 0.  0.
        -12    1    1    2    0    0 -0.46161528051E-01  0.71887619955E+01  0.31065094783E+02  0.31886055632E+02  0.00000000000E+00 0.  1.
         11    1    3    3    0    0 -0.95660488016E+01 -0.14278214440E+02 -0.14107698679E+02  0.22235194165E+02  0.51100000000E-03 0. -1.
        -11    1    3    3    0    0  0.72405013649E+01 -0.11454877097E+02 -0.33951770370E+01  0.13970193152E+02  0.51100000000E-03 0.  1.
        -12    1    3    3    0    0  0.23717089648E+01  0.18544329542E+02 -0.13562219067E+02  0.23096557051E+02  0.00000000000E+00 0.  1.
</event>
<event>
 7    1  0.1344618E-011  0.5930197E+02  0.7816164E-02  0.1266605E+00
        -11   -1    0    0    0    0  0.00000000000E+00  0.00000000000E+00  0.45593999997E+02  0.45594000000E+02  0.51100000000E-03 0.  1.
         11   -1    0    0    0    0 -0.00000000000E+00 -0.00000000000E+00 -0.45593999997E+02  0.45594000000E+02  0.51100000000E-03 0. -1.
    9900012    2    1    2    0    0  0.65469779814E+01  0.43879369160E+01 -0.30896637132E+02  0.59301967053E+02  0.50000041992E+02 0.  0.
        -12    1    1    2    0    0 -0.65469779814E+01 -0.43879369160E+01  0.30896637132E+02  0.31886032947E+02  0.00000000000E+00 0.  1.
         11    1    3    3    0    0  0.16764622492E+02  0.77246480558E+01 -0.16087897590E+02  0.24485571343E+02  0.51100000000E-03 0. -1.
        -11    1    3    3    0    0  0.10209806171E+02 -0.10479774487E+01 -0.84666331301E+01  0.13304971838E+02  0.51100000000E-03 0.  1.
        -12    1    3    3    0    0 -0.20427450682E+02 -0.22887336911E+01 -0.63421064119E+01  0.21511423872E+02  0.00000000000E+00 0.  1.
</event>
<event>
 7    1  0.1344618E-011  0.5930194E+02  0.7816164E-02  0.1266605E+00
        -11   -1    0    0    0    0  0.00000000000E+00  0.00000000000E+00  0.45593999997E+02  0.45594000000E+02  0.51100000000E-03 0.  1.
         11   -1    0    0    0    0 -0.00000000000E+00 -0.00000000000E+00 -0.45593999997E+02  0.45594000000E+02  0.51100000000E-03 0. -1.
    9900012    2    1    2    0    0  0.47899235907E+01  0.18322471853E+02 -0.25652761736E+02  0.59301944623E+02  0.50000001086E+02 0.  0.
        -12    1    1    2    0    0 -0.47899235907E+01 -0.18322471853E+02  0.25652761736E+02  0.31886055377E+02  0.00000000000E+00 0.  1.
         11    1    3    3    0    0 -0.26245536853E+01  0.19858897586E+01 -0.11540124796E+02  0.12000271694E+02  0.51100000000E-03 0. -1.
        -11    1    3    3    0    0 -0.13458028265E+01  0.15577983355E+02 -0.27294659761E+02  0.31456051920E+02  0.51100000000E-03 0.  1.
        -12    1    3    3    0    0  0.87602801025E+01  0.75859873949E+00  0.13182022821E+02  0.15845621009E+02  0.00000000000E+00 0.  1.
</event>
<event>
 7    1  0.1344618E-011  0.5930190E+02  0.7816164E-02  0.1266605E+00
        -11   -1    0    0    0    0  0.00000000000E+00  0.00000000000E+00  0.45593999997E+02  0.45594000000E+02  0.51100000000E-03 0.  1.
         11   -1    0    0    0    0 -0.00000000000E+00 -0.00000000000E+00 -0.45593999997E+02  0.45594000000E+02  0.51100000000E-03 0. -1.
    9900012    2    1    2    0    0 -0.19010713158E+02 -0.25580447374E+02  0.97805874300E+00  0.59301904260E+02  0.49999927474E+02 0.  0.
        -12    1    1    2    0    0  0.19010713158E+02  0.25580447374E+02 -0.97805874300E+00  0.31886095740E+02  0.00000000000E+00 0.  1.
         11    1    3    3    0    0 -0.19091579671E+02 -0.12979833294E+02  0.74925642878E+01  0.24271444262E+02  0.51100000000E-03 0.  1.
        -11    1    3    3    0    0 -0.75889991812E+01 -0.15014345385E+02  0.78530747591E+01  0.18565943535E+02  0.51100000000E-03 0. -1.
        -12    1    3    3    0    0  0.76698656947E+01  0.24137313049E+01 -0.14367580304E+02  0.16464516464E+02  0.00000000000E+00 0.  1.
</event>
<event>
 7    1  0.1344618E-011  0.5930199E+02  0.7816164E-02  0.1266605E+00
        -11   -1    0    0    0    0  0.00000000000E+00  0.00000000000E+00  0.45593999997E+02  0.45594000000E+02  0.51100000000E-03 0.  1.
         11   -1    0    0    0    0 -0.00000000000E+00 -0.00000000000E+00 -0.45593999997E+02  0.45594000000E+02  0.51100000000E-03 0. -1.
    9900012    2    1    2    0    0 -0.15184194355E+02 -0.27742713437E+02  0.40619814312E+01  0.59301990526E+02  0.50000084801E+02 0.  0.
        -12    1    1    2    0    0  0.15184194355E+02  0.27742713437E+02 -0.40619814312E+01  0.31886009474E+02  0.00000000000E+00 0.  1.
         11    1    3    3    0    0  0.82913019923E+01 -0.76069356197E+01 -0.82669191796E+01  0.13962561056E+02  0.51100000000E-03 0. -1.
        -11    1    3    3    0    0 -0.66980032828E+01 -0.24947538070E+02  0.45420737844E+01  0.26227339519E+02  0.51100000000E-03 0.  1.
        -12    1    3    3    0    0 -0.16777493065E+02  0.48117602532E+01  0.77868268264E+01  0.19112089951E+02  0.00000000000E+00 0.  1.
</event>
<event>
 7    1  0.1344618E-011  0.5930199E+02  0.7816164E-02  0.1266605E+00
        -11   -1    0    0    0    0  0.00000000000E+00  0.00000000000E+00  0.45593999997E+02  0.45594000000E+02  0.51100000000E-03 0.  1.
         11   -1    0    0    0    0 -0.00000000000E+00 -0.00000000000E+00 -0.45593999997E+02  0.45594000000E+02  0.51100000000E-03 0. -1.
    9900012    2    1    2    0    0  0.49716386669E+01  0.24242275850E+02 -0.20107529502E+02  0.59301986262E+02  0.50000077025E+02 0.  0.
        -12    1    1    2    0    0 -0.49716386669E+01 -0.24242275850E+02  0.20107529502E+02  0.31886013738E+02  0.00000000000E+00 0.  1.
         11    1    3    3    0    0  0.19656262712E+02  0.12973640822E+02 -0.20927380801E+02  0.31506178559E+02  0.51100000000E-03 0. -1.
        -11    1    3    3    0    0  0.12499334301E+01  0.11362914238E+02  0.27127917290E+01  0.11748931560E+02  0.51100000000E-03 0.  1.
        -12    1    3    3    0    0 -0.15934557475E+02 -0.94279210370E-01 -0.18929404308E+01  0.16046876143E+02  0.00000000000E+00 0.  1.
</event>
<event>
 7    1  0.1344618E-011  0.5930194E+02  0.7816164E-02  0.1266605E+00
        -11   -1    0    0    0    0  0.00000000000E+00  0.00000000000E+00  0.45593999997E+02  0.45594000000E+02  0.51100000000E-03 0.  1.
         11   -1    0    0    0    0 -0.00000000000E+00 -0.00000000000E+00 -0.45593999997E+02  0.45594000000E+02  0.51100000000E-03 0. -1.
    9900012    2    1    2    0    0 -0.73234893353E+01 -0.28841160516E+02  0.11457526050E+02  0.59301938168E+02  0.49999989314E+02 0.  0.
        -12    1    1    2    0    0  0.73234893353E+01  0.28841160516E+02 -0.11457526050E+02  0.31886061832E+02  0.00000000000E+00 0.  1.
         11    1    3    3    0    0 -0.15986483309E+02 -0.91529777516E+01  0.59501583083E+01  0.19358435744E+02  0.51100000000E-03 0. -1.
        -11    1    3    3    0    0 -0.36990824846E+01  0.38682198259E+01 -0.83726408212E+01  0.99371751736E+01  0.51100000000E-03 0.  1.
        -12    1    3    3    0    0  0.12362076458E+02 -0.23556402590E+02  0.13880008563E+02  0.30006327250E+02  0.00000000000E+00 0.  1.
</event>
<event>
 7    1  0.1344618E-011  0.5930194E+02  0.7816164E-02  0.1266605E+00
        -11   -1    0    0    0    0  0.00000000000E+00  0.00000000000E+00  0.45593999997E+02  0.45594000000E+02  0.51100000000E-03 0.  1.
         11   -1    0    0    0    0 -0.00000000000E+00 -0.00000000000E+00 -0.45593999997E+02  0.45594000000E+02  0.51100000000E-03 0. -1.
    9900012    2    1    2    0    0 -0.11156526415E+02 -0.25794492044E+02 -0.15063093270E+02  0.59301942227E+02  0.49999996715E+02 0.  0.
        -12    1    1    2    0    0  0.11156526415E+02  0.25794492044E+02  0.15063093270E+02  0.31886057773E+02  0.00000000000E+00 0.  1.
         11    1    3    3    0    0 -0.62517356054E+01  0.60189798749E+01 -0.10639892792E+02  0.13730245289E+02  0.51100000000E-03 0. -1.
        -11    1    3    3    0    0  0.21596172242E+00 -0.97868051942E+01 -0.17058033073E+02  0.19667350812E+02  0.51100000000E-03 0.  1.
         12    1    3    3    0    0 -0.51207525318E+01 -0.22026666725E+02  0.12634832595E+02  0.25904346126E+02  0.00000000000E+00 0. -1.
</event>
<event>
 7    1  0.1344618E-011  0.5930208E+02  0.7816164E-02  0.1266604E+00
        -11   -1    0    0    0    0  0.00000000000E+00  0.00000000000E+00  0.45593999997E+02  0.45594000000E+02  0.51100000000E-03 0.  1.
         11   -1    0    0    0    0 -0.00000000000E+00 -0.00000000000E+00 -0.45593999997E+02  0.45594000000E+02  0.51100000000E-03 0. -1.
    9900012    2    1    2    0    0 -0.24854012954E+02 -0.12268544008E+02 -0.15763009735E+02  0.59302084490E+02  0.50000256168E+02 0.  0.
        -12    1    1    2    0    0  0.24854012954E+02  0.12268544008E+02  0.15763009735E+02  0.31885915510E+02  0.00000000000E+00 0.  1.
         11    1    3    3    0    0 -0.18825550370E+02 -0.17670720507E+02 -0.19733822129E+02  0.32497375987E+02  0.51100000000E-03 0. -1.
        -11    1    3    3    0    0 -0.59738014231E+01 -0.29126015520E+01 -0.91270887637E+01  0.11290407469E+02  0.51100000000E-03 0.  1.
        -12    1    3    3    0    0 -0.54661161287E-01  0.83147780506E+01  0.13097901157E+02  0.15514301035E+02  0.00000000000E+00 0.  1.
</event>
<event>
 7    1  0.1344618E-011  0.5930195E+02  0.7816164E-02  0.1266605E+00
        -11   -1    0    0    0    0  0.00000000000E+00  0.00000000000E+00  0.45593999997E+02  0.45594000000E+02  0.51100000000E-03 0. -1.
         11   -1    0    0    0    0 -0.00000000000E+00 -0.00000000000E+00 -0.45593999997E+02  0.45594000000E+02  0.51100000000E-03 0.  1.
    9900012    2    1    2    0    0  0.11114641133E+02  0.26832765946E+02  0.13160083503E+02  0.59301947035E+02  0.50000005485E+02 0.  0.
        -12    1    1    2    0    0 -0.11114641133E+02 -0.26832765946E+02 -0.13160083503E+02  0.31886052965E+02  0.00000000000E+00 0.  1.
         11    1    3    3    0    0  0.37850249049E+01  0.19343609993E+02 -0.79866838342E+00  0.19726619896E+02  0.51100000000E-03 0. -1.
        -11    1    3    3    0    0 -0.12351040810E+02 -0.30134985372E+01 -0.94283002500E+00  0.12748266989E+02  0.51100000000E-03 0.  1.
         12    1    3    3    0    0  0.19680657038E+02  0.10502654491E+02  0.14901581912E+02  0.26827060150E+02  0.00000000000E+00 0. -1.
</event>
<event>
 7    1  0.1344618E-011  0.5930209E+02  0.7816164E-02  0.1266604E+00
        -11   -1    0    0    0    0  0.00000000000E+00  0.00000000000E+00  0.45593999997E+02  0.45594000000E+02  0.51100000000E-03 0.  1.
         11   -1    0    0    0    0 -0.00000000000E+00 -0.00000000000E+00 -0.45593999997E+02  0.45594000000E+02  0.51100000000E-03 0. -1.
    9900012    2    1    2    0    0 -0.55628489810E+01 -0.24537690748E+02 -0.19587431925E+02  0.59302093310E+02  0.50000272254E+02 0.  0.
        -12    1    1    2    0    0  0.55628489810E+01  0.24537690748E+02  0.19587431925E+02  0.31885906690E+02  0.00000000000E+00 0.  1.
         11    1    3    3    0    0  0.48170367935E+01 -0.17668971527E+02 -0.11579356420E+02  0.21667438558E+02  0.51100000000E-03 0. -1.
        -11    1    3    3    0    0 -0.48445037538E+01 -0.20953331535E+02 -0.31182071425E+01  0.21730957988E+02  0.51100000000E-03 0.  1.
         12    1    3    3    0    0 -0.55353820207E+01  0.14084612314E+02 -0.48898683630E+01  0.15903696764E+02  0.00000000000E+00 0. -1.
</event>
<event>
 7    1  0.1344618E-011  0.5930194E+02  0.7816164E-02  0.1266605E+00
        -11   -1    0    0    0    0  0.00000000000E+00  0.00000000000E+00  0.45593999997E+02  0.45594000000E+02  0.51100000000E-03 0. -1.
         11   -1    0    0    0    0 -0.00000000000E+00 -0.00000000000E+00 -0.45593999997E+02  0.45594000000E+02  0.51100000000E-03 0.  1.
    9900012    2    1    2    0    0  0.12343346273E+02 -0.11091117641E+02  0.27227743598E+02  0.59301935502E+02  0.49999984452E+02 0.  0.
        -12    1    1    2    0    0 -0.12343346273E+02  0.11091117641E+02 -0.27227743598E+02  0.31886064498E+02  0.00000000000E+00 0.  1.
         11    1    3    3    0    0 -0.36365491635E+00 -0.10283709412E+02  0.95809370593E+01  0.14059917474E+02  0.51100000000E-03 0. -1.
        -11    1    3    3    0    0 -0.70916150875E+01 -0.15441323082E+02  0.61565438856E+01  0.18072866290E+02  0.51100000000E-03 0.  1.
        -12    1    3    3    0    0  0.19798616276E+02  0.14633914853E+02  0.11490262653E+02  0.27169151739E+02  0.00000000000E+00 0.  1.
</event>
<event>
 7    1  0.1344618E-011  0.5930194E+02  0.7816164E-02  0.1266605E+00
        -11   -1    0    0    0    0  0.00000000000E+00  0.00000000000E+00  0.45593999997E+02  0.45594000000E+02  0.51100000000E-03 0.  1.
         11   -1    0    0    0    0 -0.00000000000E+00 -0.00000000000E+00 -0.45593999997E+02  0.45594000000E+02  0.51100000000E-03 0. -1.
    9900012    2    1    2    0    0 -0.85620670308E+01 -0.35101826467E+01 -0.30513774270E+02  0.59301940440E+02  0.49999993457E+02 0.  0.
        -12    1    1    2    0    0  0.85620670308E+01  0.35101826467E+01  0.30513774270E+02  0.31886059560E+02  0.00000000000E+00 0.  1.
         11    1    3    3    0    0 -0.11042106210E+02  0.10380007514E+02 -0.94980115977E+01  0.17885326111E+02  0.51100000000E-03 0. -1.
        -11    1    3    3    0    0 -0.10009260116E+02 -0.18628694908E+02 -0.17885738069E+02  0.27696808274E+02  0.51100000000E-03 0.  1.
         12    1    3    3    0    0  0.12489299296E+02  0.47385047481E+01 -0.31300246035E+01  0.13719806054E+02  0.00000000000E+00 0. -1.
</event>
<event>
 7    1  0.1344618E-011  0.5930192E+02  0.7816164E-02  0.1266605E+00
        -11   -1    0    0    0    0  0.00000000000E+00  0.00000000000E+00  0.45593999997E+02  0.45594000000E+02  0.51100000000E-03 0.  1.
         11   -1    0    0    0    0 -0.00000000000E+00 -0.00000000000E+00 -0.45593999997E+02  0.45594000000E+02  0.51100000000E-03 0. -1.
    9900012    2    1    2    0    0 -0.20001806408E+01  0.28177634710E+02 -0.14789944255E+02  0.59301917276E+02  0.49999951211E+02 0.  0.
        -12    1    1    2    0    0  0.20001806408E+01 -0.28177634710E+02  0.14789944255E+02  0.31886082724E+02  0.00000000000E+00 0.  1.
         11    1    3    3    0    0  0.64127719249E+01  0.18433212425E+02 -0.12476324539E+02  0.23163886512E+02  0.51100000000E-03 0. -1.
        -11    1    3    3    0    0 -0.13154865449E+02  0.17744848408E+02  0.68047765888E+01  0.23113526661E+02  0.51100000000E-03 0.  1.
         12    1    3    3    0    0  0.47419128834E+01 -0.80004261236E+01 -0.91183963052E+01  0.13024504103E+02  0.00000000000E+00 0. -1.
</event>
<event>
 7    1  0.1344618E-011  0.5930195E+02  0.7816164E-02  0.1266605E+00
        -11   -1    0    0    0    0  0.00000000000E+00  0.00000000000E+00  0.45593999997E+02  0.45594000000E+02  0.51100000000E-03 0.  1.
         11   -1    0    0    0    0 -0.00000000000E+00 -0.00000000000E+00 -0.45593999997E+02  0.45594000000E+02  0.51100000000E-03 0. -1.
    9900012    2    1    2    0    0  0.22484314297E+02 -0.22606560125E+02  0.34545886042E+00  0.59301948318E+02  0.50000007824E+02 0.  0.
        -12    1    1    2    0    0 -0.22484314297E+02  0.22606560125E+02 -0.34545886042E+00  0.31886051682E+02  0.00000000000E+00 0.  1.
         11    1    3    3    0    0  0.18522132383E+02 -0.43308354176E+01 -0.66114148514E+01  0.20137932615E+02  0.51100000000E-03 0. -1.
        -11    1    3    3    0    0  0.15248262819E+02 -0.11374731594E+02  0.14514774441E+02  0.23928491702E+02  0.51100000000E-03 0.  1.
         12    1    3    3    0    0 -0.11286080905E+02 -0.69009931128E+01 -0.75579007290E+01  0.15235524000E+02  0.00000000000E+00 0. -1.
</event>
<event>
 7    1  0.1344618E-011  0.5930195E+02  0.7816164E-02  0.1266605E+00
        -11   -1    0    0    0    0  0.00000000000E+00  0.00000000000E+00  0.45593999997E+02  0.45594000000E+02  0.51100000000E-03 0.  1.
         11   -1    0    0    0    0 -0.00000000000E+00 -0.00000000000E+00 -0.45593999997E+02  0.45594000000E+02  0.51100000000E-03 0. -1.
    9900012    2    1    2    0    0  0.28137963385E+02  0.97299452525E+01  0.11415053450E+02  0.59301948765E+02  0.50000008640E+02 0.  0.
        -12    1    1    2    0    0 -0.28137963385E+02 -0.97299452525E+01 -0.11415053450E+02  0.31886051235E+02  0.00000000000E+00 0.  1.
         11    1    3    3    0    0  0.20226287918E+02 -0.59850036122E+01 -0.12042100411E+02  0.24288581139E+02  0.51100000000E-03 0. -1.
        -11    1    3    3    0    0  0.26778267608E+01 -0.43671756515E+01  0.33745154720E+01  0.61343568745E+01  0.51100000000E-03 0.  1.
        -12    1    3    3    0    0  0.52338487064E+01  0.20082124516E+02  0.20082638388E+02  0.28879010752E+02  0.00000000000E+00 0.  1.
</event>
<event>
 7    1  0.1344618E-011  0.5930193E+02  0.7816164E-02  0.1266605E+00
        -11   -1    0    0    0    0  0.00000000000E+00  0.00000000000E+00  0.45593999997E+02  0.45594000000E+02  0.51100000000E-03 0. -1.
         11   -1    0    0    0    0 -0.00000000000E+00 -0.00000000000E+00 -0.45593999997E+02  0.45594000000E+02  0.51100000000E-03 0.  1.
    9900012    2    1    2    0    0  0.26674790156E+02  0.17466725065E+02 -0.30116444926E+00  0.59301927580E+02  0.49999970004E+02 0.  0.
        -12    1    1    2    0    0 -0.26674790156E+02 -0.17466725065E+02  0.30116444926E+00  0.31886072420E+02  0.00000000000E+00 0.  1.
         11    1    3    3    0    0 -0.25498942889E+01 -0.36733550751E+01 -0.11325736293E+02  0.12176526649E+02  0.51100000000E-03 0. -1.
        -11    1    3    3    0    0  0.23514760150E+02  0.97054030331E+01 -0.57064811919E+01  0.26071108930E+02  0.51100000000E-03 0.  1.
         12    1    3    3    0    0  0.57099242941E+01  0.11434677107E+02  0.16731053036E+02  0.21054292001E+02  0.00000000000E+00 0. -1.
</event>
<event>
 7    1  0.1344618E-011  0.5930181E+02  0.7816164E-02  0.1266605E+00
        -11   -1    0    0    0    0  0.00000000000E+00  0.00000000000E+00  0.45593999997E+02  0.45594000000E+02  0.51100000000E-03 0. -1.
         11   -1    0    0    0    0 -0.00000000000E+00 -0.00000000000E+00 -0.45593999997E+02  0.45594000000E+02  0.51100000000E-03 0.  1.
    9900012    2    1    2    0    0  0.21498637271E+02 -0.11063704532E+02  0.20787793578E+02  0.59301806682E+02  0.49999749513E+02 0.  0.
        -12    1    1    2    0    0 -0.21498637271E+02  0.11063704532E+02 -0.20787793578E+02  0.31886193318E+02  0.00000000000E+00 0.  1.
         11    1    3    3    0    0  0.15301891209E+02 -0.87947750325E+01 -0.65211628223E+01  0.18815459262E+02  0.51100000000E-03 0. -1.
        -11    1    3    3    0    0  0.10818548073E+02 -0.35618249412E+01 -0.13126260742E+01  0.11465189348E+02  0.51100000000E-03 0.  1.
         12    1    3    3    0    0 -0.46218020110E+01  0.12928954414E+01  0.28621582474E+02  0.29021158071E+02  0.00000000000E+00 0. -1.
</event>
<event>
 7    1  0.1344618E-011  0.5930195E+02  0.7816164E-02  0.1266605E+00
        -11   -1    0    0    0    0  0.00000000000E+00  0.00000000000E+00  0.45593999997E+02  0.45594000000E+02  0.51100000000E-03 0. -1.
         11   -1    0    0    0    0 -0.00000000000E+00 -0.00000000000E+00 -0.45593999997E+02  0.45594000000E+02  0.51100000000E-03 0.  1.
    9900012    2    1    2    0    0  0.85927169184E+01 -0.27844787490E+02  0.12944231804E+02  0.59301951148E+02  0.50000012986E+02 0.  0.
        -12    1    1    2    0    0 -0.85927169184E+01  0.27844787490E+02 -0.12944231804E+02  0.31886048852E+02  0.00000000000E+00 0.  1.
         11    1    3    3    0    0  0.70091299979E+01 -0.58705334824E+01 -0.20350573102E+01  0.93665642159E+01  0.51100000000E-03 0. -1.
        -11    1    3    3    0    0  0.61248196875E+01 -0.11838147379E+02 -0.13740284250E+02  0.19142898451E+02  0.51100000000E-03 0.  1.
        -12    1    3    3    0    0 -0.45412327669E+01 -0.10136106628E+02  0.28719573365E+02  0.30792488481E+02  0.00000000000E+00 0.  1.
</event>
<event>
 7    1  0.1344618E-011  0.5930195E+02  0.7816164E-02  0.1266605E+00
        -11   -1    0    0    0    0  0.00000000000E+00  0.00000000000E+00  0.45593999997E+02  0.45594000000E+02  0.51100000000E-03 0.  1.
         11   -1    0    0    0    0 -0.00000000000E+00 -0.00000000000E+00 -0.45593999997E+02  0.45594000000E+02  0.51100000000E-03 0. -1.
    9900012    2    1    2    0    0  0.28032850887E+02  0.13676109535E+02 -0.66214539578E+01  0.59301947354E+02  0.50000006065E+02 0.  0.
        -12    1    1    2    0    0 -0.28032850887E+02 -0.13676109535E+02  0.66214539578E+01  0.31886052646E+02  0.00000000000E+00 0.  1.
         11    1    3    3    0    0 -0.19135559996E+01 -0.73984528604E-01 -0.79555444177E+00  0.20736627993E+01  0.51100000000E-03 0. -1.
        -11    1    3    3    0    0 -0.38905502248E+01  0.65318248576E+01 -0.18798658630E+02  0.20277837251E+02  0.51100000000E-03 0.  1.
        -12    1    3    3    0    0  0.33836957111E+02  0.72182692062E+01  0.12972759114E+02  0.36950447303E+02  0.00000000000E+00 0.  1.
</event>
<event>
 7    1  0.1344618E-011  0.5930197E+02  0.7816164E-02  0.1266605E+00
        -11   -1    0    0    0    0  0.00000000000E+00  0.00000000000E+00  0.45593999997E+02  0.45594000000E+02  0.51100000000E-03 0.  1.
         11   -1    0    0    0    0 -0.00000000000E+00 -0.00000000000E+00 -0.45593999997E+02  0.45594000000E+02  0.51100000000E-03 0. -1.
    9900012    2    1    2    0    0  0.51304077480E+00  0.20922523439E+02 -0.24056266396E+02  0.59301966211E+02  0.50000040457E+02 0.  0.
        -12    1    1    2    0    0 -0.51304077480E+00 -0.20922523439E+02  0.24056266396E+02  0.31886033789E+02  0.00000000000E+00 0.  1.
         11    1    3    3    0    0 -0.19834912697E+01  0.16901635302E+02 -0.35312243061E+01  0.17380134029E+02  0.51100000000E-03 0. -1.
        -11    1    3    3    0    0 -0.18165001175E+01 -0.13805291079E+02  0.61111897660E+00  0.13937689949E+02  0.51100000000E-03 0.  1.
         12    1    3    3    0    0  0.43130321620E+01  0.17826179216E+02 -0.21136161066E+02  0.27984142232E+02  0.00000000000E+00 0. -1.
</event>
<event>
 7    1  0.1344618E-011  0.5930210E+02  0.7816164E-02  0.1266604E+00
        -11   -1    0    0    0    0  0.00000000000E+00  0.00000000000E+00  0.45593999997E+02  0.45594000000E+02  0.51100000000E-03 0. -1.
         11   -1    0    0    0    0 -0.00000000000E+00 -0.00000000000E+00 -0.45593999997E+02  0.45594000000E+02  0.51100000000E-03 0.  1.
    9900012    2    1    2    0    0  0.24382384222E+02 -0.17156656404E+01  0.20475998508E+02  0.59302098981E+02  0.50000282597E+02 0.  0.
        -12    1    1    2    0    0 -0.24382384222E+02  0.17156656404E+01 -0.20475998508E+02  0.31885901019E+02  0.00000000000E+00 0.  1.
         11    1    3    3    0    0  0.72002795537E+01  0.31010401219E+00  0.32662359773E+02  0.33448018422E+02  0.51100000000E-03 0. -1.
        -11    1    3    3    0    0 -0.34027735687E+00  0.41899045288E+01 -0.20187247627E+01  0.46632969634E+01  0.51100000000E-03 0.  1.
        -12    1    3    3    0    0  0.17522382025E+02 -0.62156741814E+01 -0.10167636503E+02  0.21190783596E+02  0.00000000000E+00 0.  1.
</event>
<event>
 7    1  0.1344618E-011  0.5930193E+02  0.7816164E-02  0.1266605E+00
        -11   -1    0    0    0    0  0.00000000000E+00  0.00000000000E+00  0.45593999997E+02  0.45594000000E+02  0.51100000000E-03 0.  1.
         11   -1    0    0    0    0 -0.00000000000E+00 -0.00000000000E+00 -0.45593999997E+02  0.45594000000E+02  0.51100000000E-03 0. -1.
    9900012    2    1    2    0    0 -0.37325484137E+01  0.31657964925E+02  0.75024729593E+00  0.59301928874E+02  0.49999972363E+02 0.  0.
        -12    1    1    2    0    0  0.37325484137E+01 -0.31657964925E+02 -0.75024729593E+00  0.31886071126E+02  0.00000000000E+00 0.  1.
         11    1    3    3    0    0  0.34429288429E+01  0.96446636256E+01  0.15823481237E+01  0.10362293246E+02  0.51100000000E-03 0. -1.
        -11    1    3    3    0    0 -0.11771570326E+02  0.24165065798E+02  0.16052959339E+02  0.31308429804E+02  0.51100000000E-03 0.  1.
         12    1    3    3    0    0  0.45960930698E+01 -0.21517644983E+01 -0.16885060167E+02  0.17631205824E+02  0.00000000000E+00 0. -1.
</event>
<event>
 7    1  0.1344618E-011  0.5930193E+02  0.7816164E-02  0.1266605E+00
        -11   -1    0    0    0    0  0.00000000000E+00  0.00000000000E+00  0.45593999997E+02  0.45594000000E+02  0.51100000000E-03 0. -1.
         11   -1    0    0    0    0 -0.00000000000E+00 -0.00000000000E+00 -0.45593999997E+02  0.45594000000E+02  0.51100000000E-03 0.  1.
    9900012    2    1    2    0    0  0.54215526392E+01 -0.67353491435E+01  0.30691418222E+02  0.59301932296E+02  0.49999978605E+02 0.  0.
        -12    1    1    2    0    0 -0.54215526392E+01  0.67353491435E+01 -0.30691418222E+02  0.31886067704E+02  0.00000000000E+00 0.  1.
         11    1    3    3    0    0 -0.64571513883E+00 -0.12575990968E+02 -0.14809605830E+01  0.12679343097E+02  0.51100000000E-03 0. -1.
        -11    1    3    3    0    0  0.68262065386E+01 -0.10230472907E+02  0.20440654301E+01  0.12467472693E+02  0.51100000000E-03 0.  1.
         12    1    3    3    0    0 -0.75893876053E+00  0.16071114731E+02  0.30128313375E+02  0.34155116507E+02  0.00000000000E+00 0. -1.
</event>
<event>
 7    1  0.1344618E-011  0.5930203E+02  0.7816164E-02  0.1266604E+00
        -11   -1    0    0    0    0  0.00000000000E+00  0.00000000000E+00  0.45593999997E+02  0.45594000000E+02  0.51100000000E-03 0.  1.
         11   -1    0    0    0    0 -0.00000000000E+00 -0.00000000000E+00 -0.45593999997E+02  0.45594000000E+02  0.51100000000E-03 0. -1.
    9900012    2    1    2    0    0  0.28827005262E+02  0.99256156354E+01 -0.93381499011E+01  0.59302029391E+02  0.50000155682E+02 0.  0.
        -12    1    1    2    0    0 -0.28827005262E+02 -0.99256156354E+01  0.93381499011E+01  0.31885970609E+02  0.00000000000E+00 0.  1.
         11    1    3    3    0    0  0.14602291947E+02  0.70502967235E+01 -0.22936525537E+02  0.28089460977E+02  0.51100000000E-03 0. -1.
        -11    1    3    3    0    0  0.28610949401E+01  0.46778730083E+01 -0.62227666859E+01  0.82940451907E+01  0.51100000000E-03 0.  1.
        -12    1    3    3    0    0  0.11363618374E+02 -0.18025540963E+01  0.19821142322E+02  0.22918523224E+02  0.00000000000E+00 0.  1.
</event>
<event>
 7    1  0.1344618E-011  0.5930193E+02  0.7816164E-02  0.1266605E+00
        -11   -1    0    0    0    0  0.00000000000E+00  0.00000000000E+00  0.45593999997E+02  0.45594000000E+02  0.51100000000E-03 0.  1.
         11   -1    0    0    0    0 -0.00000000000E+00 -0.00000000000E+00 -0.45593999997E+02  0.45594000000E+02  0.51100000000E-03 0. -1.
    9900012    2    1    2    0    0  0.21966336069E+02 -0.11072687887E+01 -0.23086262353E+02  0.59301929783E+02  0.49999974021E+02 0.  0.
        -12    1    1    2    0    0 -0.21966336069E+02  0.11072687887E+01  0.23086262353E+02  0.31886070217E+02  0.00000000000E+00 0.  1.
         11    1    3    3    0    0  0.10000800251E+02 -0.26205067821E+01 -0.10664829313E+02  0.14853337874E+02  0.51100000000E-03 0. -1.
        -11    1    3    3    0    0  0.24750855265E+02 -0.22709424568E+00  0.23168249430E+01  0.24860090230E+02  0.51100000000E-03 0.  1.
        -12    1    3    3    0    0 -0.12785319447E+02  0.17403322391E+01 -0.14738257982E+02  0.19588501679E+02  0.00000000000E+00 0.  1.
</event>
<event>
 7    1  0.1344618E-011  0.5930194E+02  0.7816164E-02  0.1266605E+00
        -11   -1    0    0    0    0  0.00000000000E+00  0.00000000000E+00  0.45593999997E+02  0.45594000000E+02  0.51100000000E-03 0. -1.
         11   -1    0    0    0    0 -0.00000000000E+00 -0.00000000000E+00 -0.45593999997E+02  0.45594000000E+02  0.51100000000E-03 0.  1.
    9900012    2    1    2    0    0  0.68160461499E+01 -0.26629354445E+02  0.16159820809E+02  0.59301940164E+02  0.49999992953E+02 0.  0.
        -12    1    1    2    0    0 -0.68160461499E+01  0.26629354445E+02 -0.16159820809E+02  0.31886059836E+02  0.00000000000E+00 0.  1.
         11    1    3    3    0    0  0.48574248561E+01 -0.19180024630E+02  0.12096421315E+02  0.23190328370E+02  0.51100000000E-03 0. -1.
        -11    1    3    3    0    0 -0.14510371114E+01 -0.85927842203E+01 -0.14655347426E+02  0.17050532478E+02  0.51100000000E-03 0.  1.
         12    1    3    3    0    0  0.34096584052E+01  0.11434544047E+01  0.18718746920E+02  0.19061079316E+02  0.00000000000E+00 0. -1.
</event>
<event>
 7    1  0.1344618E-011  0.5930197E+02  0.7816164E-02  0.1266605E+00
        -11   -1    0    0    0    0  0.00000000000E+00  0.00000000000E+00  0.45593999997E+02  0.45594000000E+02  0.51100000000E-03 0. -1.
         11   -1    0    0    0    0 -0.00000000000E+00 -0.00000000000E+00 -0.45593999997E+02  0.45594000000E+02  0.51100000000E-03 0.  1.
    9900012    2    1    2    0    0 -0.74463060501E+01 -0.25324678417E+02  0.17886643049E+02  0.59301971550E+02  0.50000050194E+02 0.  0.
        -12    1    1    2    0    0  0.74463060501E+01  0.25324678417E+02 -0.17886643049E+02  0.31886028450E+02  0.00000000000E+00 0.  1.
         11    1    3    3    0    0 -0.12342425729E+02 -0.27919113490E+01  0.10197396149E+02  0.16251680847E+02  0.51100000000E-03 0. -1.
        -11    1    3    3    0    0  0.10237989208E+02 -0.21367870820E+01  0.17033845004E+02  0.19988350556E+02  0.51100000000E-03 0.  1.
         12    1    3    3    0    0 -0.53418695290E+01 -0.20395979986E+02 -0.93445981033E+01  0.23061940148E+02  0.00000000000E+00 0. -1.
</event>
<event>
 7    1  0.1344618E-011  0.5930195E+02  0.7816164E-02  0.1266605E+00
        -11   -1    0    0    0    0  0.00000000000E+00  0.00000000000E+00  0.45593999997E+02  0.45594000000E+02  0.51100000000E-03 0.  1.
         11   -1    0    0    0    0 -0.00000000000E+00 -0.00000000000E+00 -0.45593999997E+02  0.45594000000E+02  0.51100000000E-03 0. -1.
    9900012    2    1    2    0    0  0.60236237783E+01  0.13690637062E+02 -0.28160301248E+02  0.59301950496E+02  0.50000011796E+02 0.  0.
        -12    1    1    2    0    0 -0.60236237783E+01 -0.13690637062E+02  0.28160301248E+02  0.31886049504E+02  0.00000000000E+00 0.  1.
         11    1    3    3    0    0  0.11200023518E+02  0.22855103472E+02 -0.59082043173E+01  0.26128588941E+02  0.51100000000E-03 0. -1.
        -11    1    3    3    0    0  0.31348889283E+01  0.56932474525E+01 -0.10967485439E+02  0.12748581578E+02  0.51100000000E-03 0.  1.
        -12    1    3    3    0    0 -0.83112886684E+01 -0.14857713863E+02 -0.11284611492E+02  0.20424779977E+02  0.00000000000E+00 0.  1.
</event>
<event>
 7    1  0.1344618E-011  0.5930192E+02  0.7816164E-02  0.1266605E+00
        -11   -1    0    0    0    0  0.00000000000E+00  0.00000000000E+00  0.45593999997E+02  0.45594000000E+02  0.51100000000E-03 0.  1.
         11   -1    0    0    0    0 -0.00000000000E+00 -0.00000000000E+00 -0.45593999997E+02  0.45594000000E+02  0.51100000000E-03 0. -1.
    9900012    2    1    2    0    0  0.15338649727E+02 -0.10709773076E+02 -0.25821474565E+02  0.59301922106E+02  0.49999960019E+02 0.  0.
        -12    1    1    2    0    0 -0.15338649727E+02  0.10709773076E+02  0.25821474565E+02  0.31886077894E+02  0.00000000000E+00 0.  1.
         11    1    3    3    0    0  0.46139514801E+01  0.90521831033E+01 -0.11040004581E+02  0.15003741820E+02  0.51100000000E-03 0. -1.
        -11    1    3    3    0    0 -0.23783835480E+01  0.94379711236E+01 -0.28549032468E+01  0.10143100120E+02  0.51100000000E-03 0.  1.
        -12    1    3    3    0    0  0.13103081795E+02 -0.29199927303E+02 -0.11926566737E+02  0.34155080166E+02  0.00000000000E+00 0.  1.
</event>
<event>
 7    1  0.1344618E-011  0.5930194E+02  0.7816164E-02  0.1266605E+00
        -11   -1    0    0    0    0  0.00000000000E+00  0.00000000000E+00  0.45593999997E+02  0.45594000000E+02  0.51100000000E-03 0.  1.
         11   -1    0    0    0    0 -0.00000000000E+00 -0.00000000000E+00 -0.45593999997E+02  0.45594000000E+02  0.51100000000E-03 0. -1.
    9900012    2    1    2    0    0 -0.18137708447E+02  0.26113109827E+02 -0.24185948304E+01  0.59301943902E+02  0.49999999770E+02 0.  0.
        -12    1    1    2    0    0  0.18137708447E+02 -0.26113109827E+02  0.24185948304E+01  0.31886056098E+02  0.00000000000E+00 0.  1.
         11    1    3    3    0    0 -0.11623433528E+02  0.28729370558E+01  0.98552608222E+01  0.15507551078E+02  0.51100000000E-03 0.  1.
        -11    1    3    3    0    0 -0.16775007865E+02  0.60784941297E+01  0.36758874658E+01  0.18217055982E+02  0.51100000000E-03 0. -1.
         12    1    3    3    0    0  0.10260732945E+02  0.17161678641E+02 -0.15949743118E+02  0.25577336841E+02  0.00000000000E+00 0. -1.
</event>
<event>
 7    1  0.1344618E-011  0.5930200E+02  0.7816164E-02  0.1266605E+00
        -11   -1    0    0    0    0  0.00000000000E+00  0.00000000000E+00  0.45593999997E+02  0.45594000000E+02  0.51100000000E-03 0.  1.
         11   -1    0    0    0    0 -0.00000000000E+00 -0.00000000000E+00 -0.45593999997E+02  0.45594000000E+02  0.51100000000E-03 0. -1.
    9900012    2    1    2    0    0 -0.28473419875E+02 -0.95126237827E+01 -0.10746702049E+02  0.59301995930E+02  0.50000094657E+02 0.  0.
        -12    1    1    2    0    0  0.28473419875E+02  0.95126237827E+01  0.10746702049E+02  0.31886004070E+02  0.00000000000E+00 0.  1.
         11    1    3    3    0    0  0.39436194895E+01  0.75578528048E+01 -0.12120988727E+02  0.14818624824E+02  0.51100000000E-03 0. -1.
        -11    1    3    3    0    0 -0.10580103718E+02  0.27314522833E+01  0.88620924180E+01  0.14068976812E+02  0.51100000000E-03 0.  1.
         12    1    3    3    0    0 -0.21836935647E+02 -0.19801928871E+02 -0.74878057396E+01  0.30414394293E+02  0.00000000000E+00 0. -1.
</event>
<event>
 7    1  0.1344618E-011  0.5930197E+02  0.7816164E-02  0.1266605E+00
        -11   -1    0    0    0    0  0.00000000000E+00  0.00000000000E+00  0.45593999997E+02  0.45594000000E+02  0.51100000000E-03 0.  1.
         11   -1    0    0    0    0 -0.00000000000E+00 -0.00000000000E+00 -0.45593999997E+02  0.45594000000E+02  0.51100000000E-03 0. -1.
    9900012    2    1    2    0    0 -0.20661650634E+02  0.20385185478E+02 -0.13200738687E+02  0.59301967074E+02  0.50000042030E+02 0.  0.
        -12    1    1    2    0    0  0.20661650634E+02 -0.20385185478E+02  0.13200738687E+02  0.31886032926E+02  0.00000000000E+00 0.  1.
         11    1    3    3    0    0  0.96251144949E+00 -0.11979835564E+02 -0.74099157681E+01  0.14119126757E+02  0.51100000000E-03 0. -1.
        -11    1    3    3    0    0 -0.18192222631E+02  0.85129525891E+01  0.11111049133E+01  0.20116209395E+02  0.51100000000E-03 0.  1.
         12    1    3    3    0    0 -0.34319394520E+01  0.23852068454E+02 -0.69019278325E+01  0.25066630921E+02  0.00000000000E+00 0. -1.
</event>
<event>
 7    1  0.1344618E-011  0.5930193E+02  0.7816164E-02  0.1266605E+00
        -11   -1    0    0    0    0  0.00000000000E+00  0.00000000000E+00  0.45593999997E+02  0.45594000000E+02  0.51100000000E-03 0. -1.
         11   -1    0    0    0    0 -0.00000000000E+00 -0.00000000000E+00 -0.45593999997E+02  0.45594000000E+02  0.51100000000E-03 0.  1.
    9900012    2    1    2    0    0  0.27456425776E+02  0.14617999331E+02  0.70128832565E+01  0.59301925416E+02  0.49999966056E+02 0.  0.
        -12    1    1    2    0    0 -0.27456425776E+02 -0.14617999331E+02 -0.70128832565E+01  0.31886074584E+02  0.00000000000E+00 0.  1.
         11    1    3    3    0    0  0.27057378739E+02  0.51274622155E+01  0.22261970015E+02  0.35411691886E+02  0.51100000000E-03 0. -1.
        -11    1    3    3    0    0  0.55677653531E+01  0.80645695964E+01 -0.25808207268E+01  0.10133998702E+02  0.51100000000E-03 0.  1.
        -12    1    3    3    0    0 -0.51687183165E+01  0.14259675189E+01 -0.12668266031E+02  0.13756234828E+02  0.00000000000E+00 0.  1.
</event>
<event>
 7    1  0.1344618E-011  0.5930190E+02  0.7816164E-02  0.1266605E+00
        -11   -1    0    0    0    0  0.00000000000E+00  0.00000000000E+00  0.45593999997E+02  0.45594000000E+02  0.51100000000E-03 0. -1.
         11   -1    0    0    0    0 -0.00000000000E+00 -0.00000000000E+00 -0.45593999997E+02  0.45594000000E+02  0.51100000000E-03 0.  1.
    9900012    2    1    2    0    0 -0.45408254723E+01 -0.30375662870E+02  0.85687464557E+01  0.59301899477E+02  0.49999918749E+02 0.  0.
        -12    1    1    2    0    0  0.45408254723E+01  0.30375662870E+02 -0.85687464557E+01  0.31886100523E+02  0.00000000000E+00 0.  1.
         11    1    3    3    0    0 -0.84123851525E+01 -0.98632306621E+01  0.57731252404E+01  0.14190860381E+02  0.51100000000E-03 0. -1.
        -11    1    3    3    0    0 -0.14518354900E+02 -0.95903567717E+01 -0.10116351182E+02  0.20127049797E+02  0.51100000000E-03 0.  1.
        -12    1    3    3    0    0  0.18389914581E+02 -0.10922075436E+02  0.12911972397E+02  0.24983989299E+02  0.00000000000E+00 0.  1.
</event>
<event>
 7    1  0.1344618E-011  0.5930194E+02  0.7816164E-02  0.1266605E+00
        -11   -1    0    0    0    0  0.00000000000E+00  0.00000000000E+00  0.45593999997E+02  0.45594000000E+02  0.51100000000E-03 0.  1.
         11   -1    0    0    0    0 -0.00000000000E+00 -0.00000000000E+00 -0.45593999997E+02  0.45594000000E+02  0.51100000000E-03 0. -1.
    9900012    2    1    2    0    0 -0.21360678039E+02  0.22652911894E+02  0.68766154226E+01  0.59301939986E+02  0.49999992628E+02 0.  0.
        -12    1    1    2    0    0  0.21360678039E+02 -0.22652911894E+02 -0.68766154226E+01  0.31886060014E+02  0.00000000000E+00 0.  1.
         11    1    3    3    0    0 -0.12670572198E+02  0.22613972475E+02  0.37583253414E+00  0.25924436374E+02  0.51100000000E-03 0. -1.
        -11    1    3    3    0    0 -0.14195810208E+02  0.11121010979E+02 -0.23188869259E+01  0.18181725702E+02  0.51100000000E-03 0.  1.
        -12    1    3    3    0    0  0.55057043661E+01 -0.11082071561E+02  0.88196698144E+01  0.15195777910E+02  0.00000000000E+00 0.  1.
</event>
<event>
 7    1  0.1344618E-011  0.5930194E+02  0.7816164E-02  0.1266605E+00
        -11   -1    0    0    0    0  0.00000000000E+00  0.00000000000E+00  0.45593999997E+02  0.45594000000E+02  0.51100000000E-03 0.  1.
         11   -1    0    0    0    0 -0.00000000000E+00 -0.00000000000E+00 -0.45593999997E+02  0.45594000000E+02  0.51100000000E-03 0. -1.
    9900012    2    1    2    0    0  0.15926527900E+02 -0.88271979675E+01 -0.26175310767E+02  0.59301943350E+02  0.49999998764E+02 0.  0.
        -12    1    1    2    0    0 -0.15926527900E+02  0.88271979675E+01  0.26175310767E+02  0.31886056650E+02  0.00000000000E+00 0.  1.
         11    1    3    3    0    0 -0.82511070814E+00 -0.17243827017E+02 -0.38933621123E+01  0.17697136680E+02  0.51100000000E-03 0. -1.
        -11    1    3    3    0    0 -0.61906333732E+01 -0.17433323729E+01 -0.13617132792E+02  0.15059530373E+02  0.51100000000E-03 0.  1.
        -12    1    3    3    0    0  0.22942271981E+02  0.10159961422E+02 -0.86648158633E+01  0.26545276298E+02  0.00000000000E+00 0.  1.
</event>
<event>
 7    1  0.1344618E-011  0.5930194E+02  0.7816164E-02  0.1266605E+00
        -11   -1    0    0    0    0  0.00000000000E+00  0.00000000000E+00  0.45593999997E+02  0.45594000000E+02  0.51100000000E-03 0. -1.
         11   -1    0    0    0    0 -0.00000000000E+00 -0.00000000000E+00 -0.45593999997E+02  0.45594000000E+02  0.51100000000E-03 0.  1.
    9900012    2    1    2    0    0 -0.11730096213E+02 -0.27555028515E+02  0.10947436403E+02  0.59301935373E+02  0.49999984215E+02 0.  0.
        -12    1    1    2    0    0  0.11730096213E+02  0.27555028515E+02 -0.10947436403E+02  0.31886064627E+02  0.00000000000E+00 0.  1.
         11    1    3    3    0    0  0.81977761043E+01 -0.28278176552E+02  0.67432309534E+01  0.30204800382E+02  0.51100000000E-03 0. -1.
        -11    1    3    3    0    0  0.41390553057E+01 -0.17628858641E+01  0.15436753110E+01  0.47563094012E+01  0.51100000000E-03 0.  1.
        -12    1    3    3    0    0 -0.24066927623E+02  0.24860339012E+01  0.26605301381E+01  0.24340825590E+02  0.00000000000E+00 0.  1.
</event>
<event>
 7    1  0.1344618E-011  0.5930194E+02  0.7816164E-02  0.1266605E+00
        -11   -1    0    0    0    0  0.00000000000E+00  0.00000000000E+00  0.45593999997E+02  0.45594000000E+02  0.51100000000E-03 0.  1.
         11   -1    0    0    0    0 -0.00000000000E+00 -0.00000000000E+00 -0.45593999997E+02  0.45594000000E+02  0.51100000000E-03 0. -1.
    9900012    2    1    2    0    0  0.31248943846E+02 -0.62399022532E+01  0.11348453201E+01  0.59301941204E+02  0.49999994851E+02 0.  0.
        -12    1    1    2    0    0 -0.31248943846E+02  0.62399022532E+01 -0.11348453201E+01  0.31886058796E+02  0.00000000000E+00 0.  1.
         11    1    3    3    0    0 -0.85324490399E+01  0.67433511114E+01 -0.36056292279E+01  0.11457575364E+02  0.51100000000E-03 0. -1.
        -11    1    3    3    0    0  0.12998520209E+01  0.33877070499E+01 -0.36996581175E+01  0.51820502487E+01  0.51100000000E-03 0.  1.
        -12    1    3    3    0    0  0.38481540865E+02 -0.16370960414E+02  0.84401326655E+01  0.42662315592E+02  0.00000000000E+00 0.  1.
</event>
<event>
 7    1  0.1344618E-011  0.5930194E+02  0.7816164E-02  0.1266605E+00
        -11   -1    0    0    0    0  0.00000000000E+00  0.00000000000E+00  0.45593999997E+02  0.45594000000E+02  0.51100000000E-03 0. -1.
         11   -1    0    0    0    0 -0.00000000000E+00 -0.00000000000E+00 -0.45593999997E+02  0.45594000000E+02  0.51100000000E-03 0.  1.
    9900012    2    1    2    0    0  0.23329569093E+02  0.20610457724E+02  0.69036774619E+01  0.59301944676E+02  0.50000001182E+02 0.  0.
        -12    1    1    2    0    0 -0.23329569093E+02 -0.20610457724E+02 -0.69036774619E+01  0.31886055324E+02  0.00000000000E+00 0.  1.
         11    1    3    3    0    0  0.14505781594E+02 -0.17666641419E+01  0.16249670161E+02  0.21853845942E+02  0.51100000000E-03 0. -1.
        -11    1    3    3    0    0  0.60785958458E+01 -0.45598514260E+01 -0.68952844577E+01  0.10260922010E+02  0.51100000000E-03 0.  1.
        -12    1    3    3    0    0  0.27451916531E+01  0.26936973291E+02 -0.24507082416E+01  0.27187176724E+02  0.00000000000E+00 0.  1.
</event>
<event>
 7    1  0.1344618E-011  0.5930195E+02  0.7816164E-02  0.1266605E+00
        -11   -1    0    0    0    0  0.00000000000E+00  0.00000000000E+00  0.45593999997E+02  0.45594000000E+02  0.51100000000E-03 0.  1.
         11   -1    0    0    0    0 -0.00000000000E+00 -0.00000000000E+00 -0.45593999997E+02  0.45594000000E+02  0.51100000000E-03 0. -1.
    9900012    2    1    2    0    0 -0.30563696454E+02 -0.50607442233E+01  0.75478354426E+01  0.59301945166E+02  0.50000002075E+02 0.  0.
        -12    1    1    2    0    0  0.30563696454E+02  0.50607442233E+01 -0.75478354426E+01  0.31886054834E+02  0.00000000000E+00 0.  1.
         11    1    3    3    0    0 -0.11660302854E+02  0.38113773272E+01  0.16198029648E+02  0.20319090149E+02  0.51100000000E-03 0. -1.
        -11    1    3    3    0    0 -0.54259166396E+01 -0.13141367159E+01  0.11974442396E+02  0.13211918772E+02  0.51100000000E-03 0.  1.
         12    1    3    3    0    0 -0.13477476961E+02 -0.75579848346E+01 -0.20624636601E+02  0.25770936244E+02  0.00000000000E+00 0. -1.
</event>
<event>
 7    1  0.1344618E-011  0.5930193E+02  0.7816164E-02  0.1266605E+00
        -11   -1    0    0    0    0  0.00000000000E+00  0.00000000000E+00  0.45593999997E+02  0.45594000000E+02  0.51100000000E-03 0.  1.
         11   -1    0    0    0    0 -0.00000000000E+00 -0.00000000000E+00 -0.45593999997E+02  0.45594000000E+02  0.51100000000E-03 0. -1.
    9900012    2    1    2    0    0 -0.71847034818E+01  0.28315017106E+02 -0.12781297113E+02  0.59301926022E+02  0.49999967162E+02 0.  0.
        -12    1    1    2    0    0  0.71847034818E+01 -0.28315017106E+02  0.12781297113E+02  0.31886073978E+02  0.00000000000E+00 0.  1.
         11    1    3    3    0    0 -0.30002423456E+01  0.19182816962E+02 -0.12683969191E+02  0.23191916597E+02  0.51100000000E-03 0. -1.
        -11    1    3    3    0    0  0.11495787797E+02 -0.40562794179E+01 -0.75135938516E+01  0.14319938289E+02  0.51100000000E-03 0.  1.
         12    1    3    3    0    0 -0.15680248933E+02  0.13188479562E+02  0.74162659298E+01  0.21790071136E+02  0.00000000000E+00 0. -1.
</event>
<event>
 7    1  0.1344618E-011  0.5930196E+02  0.7816164E-02  0.1266605E+00
        -11   -1    0    0    0    0  0.00000000000E+00  0.00000000000E+00  0.45593999997E+02  0.45594000000E+02  0.51100000000E-03 0. -1.
         11   -1    0    0    0    0 -0.00000000000E+00 -0.00000000000E+00 -0.45593999997E+02  0.45594000000E+02  0.51100000000E-03 0.  1.
    9900012    2    1    2    0    0  0.13535955609E+02 -0.10224089697E+02  0.26999365728E+02  0.59301955183E+02  0.50000020345E+02 0.  0.
        -12    1    1    2    0    0 -0.13535955609E+02  0.10224089697E+02 -0.26999365728E+02  0.31886044817E+02  0.00000000000E+00 0.  1.
         11    1    3    3    0    0  0.21068361927E+02 -0.42351891401E+01  0.20569916224E+02  0.29747842864E+02  0.51100000000E-03 0. -1.
        -11    1    3    3    0    0  0.49874931910E+01 -0.61461634282E+01 -0.74442126230E+01  0.10865850867E+02  0.51100000000E-03 0.  1.
         12    1    3    3    0    0 -0.12519899509E+02  0.15726287150E+00  0.13873662126E+02  0.18688261452E+02  0.00000000000E+00 0. -1.
</event>
<event>
 7    1  0.1344618E-011  0.5930193E+02  0.7816164E-02  0.1266605E+00
        -11   -1    0    0    0    0  0.00000000000E+00  0.00000000000E+00  0.45593999997E+02  0.45594000000E+02  0.51100000000E-03 0.  1.
         11   -1    0    0    0    0 -0.00000000000E+00 -0.00000000000E+00 -0.45593999997E+02  0.45594000000E+02  0.51100000000E-03 0. -1.
    9900012    2    1    2    0    0 -0.22052570254E+02 -0.18427325549E+02 -0.13814464322E+02  0.59301927708E+02  0.49999970237E+02 0.  0.
        -12    1    1    2    0    0  0.22052570254E+02  0.18427325549E+02  0.13814464322E+02  0.31886072292E+02  0.00000000000E+00 0.  1.
         11    1    3    3    0    0 -0.11764657957E+02 -0.79430533058E+01  0.10228008405E+02  0.17496040377E+02  0.51100000000E-03 0. -1.
        -11    1    3    3    0    0  0.73854749287E+01 -0.32521043441E+01  0.30781395014E+01  0.86369187583E+01  0.51100000000E-03 0.  1.
         12    1    3    3    0    0 -0.17673387225E+02 -0.72321678995E+01 -0.27120612229E+02  0.33168968573E+02  0.00000000000E+00 0. -1.
</event>
<event>
 7    1  0.1344618E-011  0.5930193E+02  0.7816164E-02  0.1266605E+00
        -11   -1    0    0    0    0  0.00000000000E+00  0.00000000000E+00  0.45593999997E+02  0.45594000000E+02  0.51100000000E-03 0. -1.
         11   -1    0    0    0    0 -0.00000000000E+00 -0.00000000000E+00 -0.45593999997E+02  0.45594000000E+02  0.51100000000E-03 0.  1.
    9900012    2    1    2    0    0 -0.29864530159E+02 -0.84643895249E+01  0.72928374420E+01  0.59301928909E+02  0.49999972427E+02 0.  0.
        -12    1    1    2    0    0  0.29864530159E+02  0.84643895249E+01 -0.72928374420E+01  0.31886071091E+02  0.00000000000E+00 0.  1.
         11    1    3    3    0    0 -0.13440038234E+02  0.35504882906E+00 -0.58779661448E+01  0.14673485396E+02  0.51100000000E-03 0. -1.
        -11    1    3    3    0    0 -0.23641902763E+02 -0.10179197450E+02 -0.39101574065E+01  0.26035455790E+02  0.51100000000E-03 0.  1.
         12    1    3    3    0    0  0.72174108384E+01  0.13597590961E+01  0.17080960993E+02  0.18592987723E+02  0.00000000000E+00 0. -1.
</event>
<event>
 7    1  0.1344618E-011  0.5930191E+02  0.7816164E-02  0.1266605E+00
        -11   -1    0    0    0    0  0.00000000000E+00  0.00000000000E+00  0.45593999997E+02  0.45594000000E+02  0.51100000000E-03 0.  1.
         11   -1    0    0    0    0 -0.00000000000E+00 -0.00000000000E+00 -0.45593999997E+02  0.45594000000E+02  0.51100000000E-03 0. -1.
    9900012    2    1    2    0    0  0.78243581452E+01  0.97910178640E+01 -0.29319589359E+02  0.59301906929E+02  0.49999932340E+02 0.  0.
        -12    1    1    2    0    0 -0.78243581452E+01 -0.97910178640E+01  0.29319589359E+02  0.31886093071E+02  0.00000000000E+00 0.  1.
         11    1    3    3    0    0 -0.72688079574E+01  0.24076131645E+01  0.88303418385E+00  0.77079128111E+01  0.51100000000E-03 0. -1.
        -11    1    3    3    0    0  0.13895666685E+02  0.14644141856E+02  0.32672759938E+00  0.20190274751E+02  0.51100000000E-03 0.  1.
         12    1    3    3    0    0  0.11974994174E+01 -0.72607371565E+01 -0.30529351142E+02  0.31403719367E+02  0.00000000000E+00 0. -1.
</event>
<event>
 7    1  0.1344618E-011  0.5930192E+02  0.7816164E-02  0.1266605E+00
        -11   -1    0    0    0    0  0.00000000000E+00  0.00000000000E+00  0.45593999997E+02  0.45594000000E+02  0.51100000000E-03 0.  1.
         11   -1    0    0    0    0 -0.00000000000E+00 -0.00000000000E+00 -0.45593999997E+02  0.45594000000E+02  0.51100000000E-03 0. -1.
    9900012    2    1    2    0    0  0.19022240847E+02 -0.24618980465E+02 -0.69844409013E+01  0.59301917446E+02  0.49999951521E+02 0.  0.
        -12    1    1    2    0    0 -0.19022240847E+02  0.24618980465E+02  0.69844409013E+01  0.31886082554E+02  0.00000000000E+00 0.  1.
         11    1    3    3    0    0  0.80730766081E+01 -0.10545439553E+02 -0.12956682875E+02  0.18554150281E+02  0.51100000000E-03 0. -1.
        -11    1    3    3    0    0 -0.35389599412E+01  0.99271314470E+01 -0.35799401977E+01  0.11130505304E+02  0.51100000000E-03 0.  1.
         12    1    3    3    0    0  0.14488124180E+02 -0.24000672358E+02  0.95521821710E+01  0.29617261861E+02  0.00000000000E+00 0. -1.
</event>
<event>
 7    1  0.1344618E-011  0.5930195E+02  0.7816164E-02  0.1266605E+00
        -11   -1    0    0    0    0  0.00000000000E+00  0.00000000000E+00  0.45593999997E+02  0.45594000000E+02  0.51100000000E-03 0. -1.
         11   -1    0    0    0    0 -0.00000000000E+00 -0.00000000000E+00 -0.45593999997E+02  0.45594000000E+02  0.51100000000E-03 0.  1.
    9900012    2    1    2    0    0 -0.13913455135E+01 -0.23519878153E+02  0.21484877266E+02  0.59301945654E+02  0.50000002965E+02 0.  0.
        -12    1    1    2    0    0  0.13913455135E+01  0.23519878153E+02 -0.21484877266E+02  0.31886054346E+02  0.00000000000E+00 0.  1.
         11    1    3    3    0    0  0.44533535589E+01 -0.40761702927E+01  0.71109027611E+00  0.60789120587E+01  0.51100000000E-03 0. -1.
        -11    1    3    3    0    0  0.14540015746E+02 -0.22286275085E+02  0.18728039830E+02  0.32539661817E+02  0.51100000000E-03 0.  1.
         12    1    3    3    0    0 -0.20384714818E+02  0.28425672250E+01  0.20457471597E+01  0.20683371778E+02  0.00000000000E+00 0. -1.
</event>
<event>
 7    1  0.1344618E-011  0.5930195E+02  0.7816164E-02  0.1266605E+00
        -11   -1    0    0    0    0  0.00000000000E+00  0.00000000000E+00  0.45593999997E+02  0.45594000000E+02  0.51100000000E-03 0. -1.
         11   -1    0    0    0    0 -0.00000000000E+00 -0.00000000000E+00 -0.45593999997E+02  0.45594000000E+02  0.51100000000E-03 0.  1.
    9900012    2    1    2    0    0  0.12767502352E+02  0.28274989244E+02 -0.73645261499E+01  0.59301946960E+02  0.50000005348E+02 0.  0.
        -12    1    1    2    0    0 -0.12767502352E+02 -0.28274989244E+02  0.73645261499E+01  0.31886053040E+02  0.00000000000E+00 0.  1.
         11    1    3    3    0    0 -0.37135180709E+01  0.66730491790E+00  0.13532638136E+02  0.14048765337E+02  0.51100000000E-03 0. -1.
        -11    1    3    3    0    0  0.55169856220E+00 -0.11786339510E+01 -0.10743746836E+02  0.10822275437E+02  0.51100000000E-03 0.  1.
         12    1    3    3    0    0  0.15929321861E+02  0.28786318277E+02 -0.10153417451E+02  0.34430906186E+02  0.00000000000E+00 0. -1.
</event>
<event>
 7    1  0.1344618E-011  0.5930182E+02  0.7816164E-02  0.1266605E+00
        -11   -1    0    0    0    0  0.00000000000E+00  0.00000000000E+00  0.45593999997E+02  0.45594000000E+02  0.51100000000E-03 0.  1.
         11   -1    0    0    0    0 -0.00000000000E+00 -0.00000000000E+00 -0.45593999997E+02  0.45594000000E+02  0.51100000000E-03 0. -1.
    9900012    2    1    2    0    0 -0.12139929662E+02  0.29358099618E+02 -0.27299199428E+01  0.59301821674E+02  0.49999776855E+02 0.  0.
        -12    1    1    2    0    0  0.12139929662E+02 -0.29358099618E+02  0.27299199428E+01  0.31886178326E+02  0.00000000000E+00 0.  1.
         11    1    3    3    0    0  0.95190680304E+01  0.17823476437E+02 -0.67671804798E+01  0.21309239789E+02  0.51100000000E-03 0. -1.
        -11    1    3    3    0    0 -0.33811557901E+01  0.21322515380E+01 -0.11533321775E+02  0.12206400884E+02  0.51100000000E-03 0.  1.
         12    1    3    3    0    0 -0.18277841902E+02  0.94023716428E+01  0.15570582312E+02  0.25786181002E+02  0.00000000000E+00 0. -1.
</event>
<event>
 7    1  0.1344618E-011  0.5930195E+02  0.7816164E-02  0.1266605E+00
        -11   -1    0    0    0    0  0.00000000000E+00  0.00000000000E+00  0.45593999997E+02  0.45594000000E+02  0.51100000000E-03 0. -1.
         11   -1    0    0    0    0 -0.00000000000E+00 -0.00000000000E+00 -0.45593999997E+02  0.45594000000E+02  0.51100000000E-03 0.  1.
    9900012    2    1    2    0    0  0.32864601424E+01 -0.17197639970E+02  0.26648832805E+02  0.59301953982E+02  0.50000018154E+02 0.  0.
        -12    1    1    2    0    0 -0.32864601424E+01  0.17197639970E+02 -0.26648832805E+02  0.31886046018E+02  0.00000000000E+00 0.  1.
         11    1    3    3    0    0  0.13775876143E+02 -0.25190838163E+01  0.87984436217E+01  0.16538837843E+02  0.51100000000E-03 0. -1.
        -11    1    3    3    0    0  0.87786147143E+01  0.56836236343E+01  0.23085967035E+01  0.10709681271E+02  0.51100000000E-03 0.  1.
         12    1    3    3    0    0 -0.19268030715E+02 -0.20362179788E+02  0.15541792480E+02  0.32053434868E+02  0.00000000000E+00 0. -1.
</event>
<event>
 7    1  0.1344618E-011  0.5930177E+02  0.7816164E-02  0.1266605E+00
        -11   -1    0    0    0    0  0.00000000000E+00  0.00000000000E+00  0.45593999997E+02  0.45594000000E+02  0.51100000000E-03 0.  1.
         11   -1    0    0    0    0 -0.00000000000E+00 -0.00000000000E+00 -0.45593999997E+02  0.45594000000E+02  0.51100000000E-03 0. -1.
    9900012    2    1    2    0    0 -0.27953328673E+02  0.39872369092E+01 -0.14813670640E+02  0.59301772880E+02  0.49999687867E+02 0.  0.
        -12    1    1    2    0    0  0.27953328673E+02 -0.39872369092E+01  0.14813670640E+02  0.31886227120E+02  0.00000000000E+00 0.  1.
         11    1    3    3    0    0 -0.74276176491E+01  0.48556178369E+00  0.96979292993E+01  0.12225183317E+02  0.51100000000E-03 0. -1.
        -11    1    3    3    0    0 -0.56838346604E+00 -0.70642341275E+01  0.58835861500E+01  0.92110287057E+01  0.51100000000E-03 0.  1.
         12    1    3    3    0    0 -0.19957327558E+02  0.10565909253E+02 -0.30395186090E+02  0.37865560857E+02  0.00000000000E+00 0. -1.
</event>
<event>
 7    1  0.1344618E-011  0.5930194E+02  0.7816164E-02  0.1266605E+00
        -11   -1    0    0    0    0  0.00000000000E+00  0.00000000000E+00  0.45593999997E+02  0.45594000000E+02  0.51100000000E-03 0. -1.
         11   -1    0    0    0    0 -0.00000000000E+00 -0.00000000000E+00 -0.45593999997E+02  0.45594000000E+02  0.51100000000E-03 0.  1.
    9900012    2    1    2    0    0  0.84863213353E+01  0.23531884279E+02  0.19772548854E+02  0.59301938536E+02  0.49999989984E+02 0.  0.
        -12    1    1    2    0    0 -0.84863213353E+01 -0.23531884279E+02 -0.19772548854E+02  0.31886061464E+02  0.00000000000E+00 0.  1.
         11    1    3    3    0    0  0.17053892031E+00  0.25699616335E+02  0.16682073108E+02  0.30639695278E+02  0.51100000000E-03 0. -1.
        -11    1    3    3    0    0  0.54874729533E+01  0.10894280560E+02 -0.48380992717E+01  0.13122686964E+02  0.51100000000E-03 0.  1.
         12    1    3    3    0    0  0.28283094617E+01 -0.13062012616E+02  0.79285750173E+01  0.15539556293E+02  0.00000000000E+00 0. -1.
</event>
<event>
 7    1  0.1344618E-011  0.5930195E+02  0.7816164E-02  0.1266605E+00
        -11   -1    0    0    0    0  0.00000000000E+00  0.00000000000E+00  0.45593999997E+02  0.45594000000E+02  0.51100000000E-03 0. -1.
         11   -1    0    0    0    0 -0.00000000000E+00 -0.00000000000E+00 -0.45593999997E+02  0.45594000000E+02  0.51100000000E-03 0.  1.
    9900012    2    1    2    0    0  0.15961645812E+02  0.23014567878E+02  0.15240601174E+02  0.59301946688E+02  0.50000004852E+02 0.  0.
        -12    1    1    2    0    0 -0.15961645812E+02 -0.23014567878E+02 -0.15240601174E+02  0.31886053312E+02  0.00000000000E+00 0.  1.
         11    1    3    3    0    0 -0.17578094048E+01 -0.51042758603E+01  0.22470400171E+00  0.54031489070E+01  0.51100000000E-03 0. -1.
        -11    1    3    3    0    0  0.19092227126E+02  0.12307568983E+02 -0.95588973758E+01  0.24644713636E+02  0.51100000000E-03 0.  1.
         12    1    3    3    0    0 -0.13727719089E+01  0.15811274755E+02  0.24574794548E+02  0.29254084145E+02  0.00000000000E+00 0. -1.
</event>
<event>
 7    1  0.1344618E-011  0.5930192E+02  0.7816164E-02  0.1266605E+00
        -11   -1    0    0    0    0  0.00000000000E+00  0.00000000000E+00  0.45593999997E+02  0.45594000000E+02  0.51100000000E-03 0.  1.
         11   -1    0    0    0    0 -0.00000000000E+00 -0.00000000000E+00 -0.45593999997E+02  0.45594000000E+02  0.51100000000E-03 0. -1.
    9900012    2    1    2    0    0  0.33191432779E+01  0.25526805798E+02 -0.18817206597E+02  0.59301924819E+02  0.49999964968E+02 0.  0.
        -12    1    1    2    0    0 -0.33191432779E+01 -0.25526805798E+02  0.18817206597E+02  0.31886075181E+02  0.00000000000E+00 0.  1.
         11    1    3    3    0    0  0.62328946770E+01  0.29449198238E+01 -0.51573387639E+01  0.86092782631E+01  0.51100000000E-03 0. -1.
        -11    1    3    3    0    0 -0.33658935487E+01  0.28167998436E+02  0.70554544853E+01  0.29232598473E+02  0.51100000000E-03 0.  1.
         12    1    3    3    0    0  0.45214214958E+00 -0.55861124613E+01 -0.20715322318E+02  0.21460048082E+02  0.00000000000E+00 0. -1.
</event>
<event>
 7    1  0.1344618E-011  0.5930194E+02  0.7816164E-02  0.1266605E+00
        -11   -1    0    0    0    0  0.00000000000E+00  0.00000000000E+00  0.45593999997E+02  0.45594000000E+02  0.51100000000E-03 0. -1.
         11   -1    0    0    0    0 -0.00000000000E+00 -0.00000000000E+00 -0.45593999997E+02  0.45594000000E+02  0.51100000000E-03 0.  1.
    9900012    2    1    2    0    0  0.12205564971E+02 -0.27150713000E+02 -0.11427332699E+02  0.59301937758E+02  0.49999988566E+02 0.  0.
        -12    1    1    2    0    0 -0.12205564971E+02  0.27150713000E+02  0.11427332699E+02  0.31886062242E+02  0.00000000000E+00 0.  1.
         11    1    3    3    0    0  0.40116934506E+01 -0.44023728879E+01  0.16702809919E+02  0.17732975803E+02  0.51100000000E-03 0. -1.
        -11    1    3    3    0    0  0.38703138782E+00 -0.16544468383E+01 -0.15853828188E+02  0.15944618406E+02  0.51100000000E-03 0.  1.
        -12    1    3    3    0    0  0.78068401329E+01 -0.21093893274E+02 -0.12276314430E+02  0.25624343548E+02  0.00000000000E+00 0.  1.
</event>
<event>
 7    1  0.1344618E-011  0.5930194E+02  0.7816164E-02  0.1266605E+00
        -11   -1    0    0    0    0  0.00000000000E+00  0.00000000000E+00  0.45593999997E+02  0.45594000000E+02  0.51100000000E-03 0.  1.
         11   -1    0    0    0    0 -0.00000000000E+00 -0.00000000000E+00 -0.45593999997E+02  0.45594000000E+02  0.51100000000E-03 0. -1.
    9900012    2    1    2    0    0  0.23309992712E+02  0.49039172135E+01 -0.21197089407E+02  0.59301940921E+02  0.49999994335E+02 0.  0.
        -12    1    1    2    0    0 -0.23309992712E+02 -0.49039172135E+01  0.21197089407E+02  0.31886059079E+02  0.00000000000E+00 0.  1.
         11    1    3    3    0    0 -0.13546807078E+01 -0.50955205277E+01 -0.61942512459E+01  0.81343861494E+01  0.51100000000E-03 0. -1.
        -11    1    3    3    0    0  0.39593175785E+01 -0.10433269685E+02 -0.18768261437E+02  0.21835222684E+02  0.51100000000E-03 0.  1.
        -12    1    3    3    0    0  0.20705355841E+02  0.20432707426E+02  0.37654232765E+01  0.29332332088E+02  0.00000000000E+00 0.  1.
</event>
<event>
 7    1  0.1344618E-011  0.5930194E+02  0.7816164E-02  0.1266605E+00
        -11   -1    0    0    0    0  0.00000000000E+00  0.00000000000E+00  0.45593999997E+02  0.45594000000E+02  0.51100000000E-03 0. -1.
         11   -1    0    0    0    0 -0.00000000000E+00 -0.00000000000E+00 -0.45593999997E+02  0.45594000000E+02  0.51100000000E-03 0.  1.
    9900012    2    1    2    0    0  0.71538655282E+01 -0.29901559765E+02  0.84522127999E+01  0.59301937690E+02  0.49999988442E+02 0.  0.
        -12    1    1    2    0    0 -0.71538655282E+01  0.29901559765E+02 -0.84522127999E+01  0.31886062310E+02  0.00000000000E+00 0.  1.
         11    1    3    3    0    0  0.61042769302E+01 -0.10104556246E+02 -0.64054201458E+01  0.13431070742E+02  0.51100000000E-03 0. -1.
        -11    1    3    3    0    0  0.14310198318E+02 -0.19722149519E+02 -0.19697229500E+01  0.24446365094E+02  0.51100000000E-03 0.  1.
         12    1    3    3    0    0 -0.13260609720E+02 -0.74853999860E-01  0.16827355896E+02  0.21424501854E+02  0.00000000000E+00 0. -1.
</event>
<event>
 7    1  0.1344618E-011  0.5930195E+02  0.7816164E-02  0.1266605E+00
        -11   -1    0    0    0    0  0.00000000000E+00  0.00000000000E+00  0.45593999997E+02  0.45594000000E+02  0.51100000000E-03 0. -1.
         11   -1    0    0    0    0 -0.00000000000E+00 -0.00000000000E+00 -0.45593999997E+02  0.45594000000E+02  0.51100000000E-03 0.  1.
    9900012    2    1    2    0    0 -0.30460782470E+02  0.92567537351E+01 -0.17813973543E+01  0.59301950779E+02  0.50000012312E+02 0.  0.
        -12    1    1    2    0    0  0.30460782470E+02 -0.92567537351E+01  0.17813973543E+01  0.31886049221E+02  0.00000000000E+00 0.  1.
         11    1    3    3    0    0 -0.13482218634E+02  0.50197464493E+01 -0.11650199774E+02  0.18512029299E+02  0.51100000000E-03 0. -1.
        -11    1    3    3    0    0  0.39500562647E+01  0.12936416308E+02  0.11925002681E+02  0.18032179585E+02  0.51100000000E-03 0.  1.
         12    1    3    3    0    0 -0.20928620100E+02 -0.86994090219E+01 -0.20562002609E+01  0.22757741895E+02  0.00000000000E+00 0. -1.
</event>
<event>
 7    1  0.1344618E-011  0.5930190E+02  0.7816164E-02  0.1266605E+00
        -11   -1    0    0    0    0  0.00000000000E+00  0.00000000000E+00  0.45593999997E+02  0.45594000000E+02  0.51100000000E-03 0.  1.
         11   -1    0    0    0    0 -0.00000000000E+00 -0.00000000000E+00 -0.45593999997E+02  0.45594000000E+02  0.51100000000E-03 0. -1.
    9900012    2    1    2    0    0  0.33232190661E+01  0.24494882782E+02  0.20141507537E+02  0.59301899685E+02  0.49999919130E+02 0.  0.
        -12    1    1    2    0    0 -0.33232190661E+01 -0.24494882782E+02 -0.20141507537E+02  0.31886100315E+02  0.00000000000E+00 0.  1.
         11    1    3    3    0    0 -0.65621791654E+01  0.93946509703E+00 -0.97580785255E+01  0.11796816810E+02  0.51100000000E-03 0. -1.
        -11    1    3    3    0    0 -0.72916522969E+01  0.13238264496E+02  0.20242004196E+02  0.25261800692E+02  0.51100000000E-03 0.  1.
         12    1    3    3    0    0  0.17177050528E+02  0.10317153189E+02  0.96575818659E+01  0.22243282183E+02  0.00000000000E+00 0. -1.
</event>
<event>
 7    1  0.1344618E-011  0.5930194E+02  0.7816164E-02  0.1266605E+00
        -11   -1    0    0    0    0  0.00000000000E+00  0.00000000000E+00  0.45593999997E+02  0.45594000000E+02  0.51100000000E-03 0.  1.
         11   -1    0    0    0    0 -0.00000000000E+00 -0.00000000000E+00 -0.45593999997E+02  0.45594000000E+02  0.51100000000E-03 0. -1.
    9900012    2    1    2    0    0 -0.17104668964E+02 -0.20331442405E+02 -0.17629047005E+02  0.59301944287E+02  0.50000000473E+02 0.  0.
        -12    1    1    2    0    0  0.17104668964E+02  0.20331442405E+02  0.17629047005E+02  0.31886055713E+02  0.00000000000E+00 0.  1.
         11    1    3    3    0    0 -0.44147753179E+01  0.71587583744E+01 -0.86869456149E+01  0.12091364148E+02  0.51100000000E-03 0. -1.
        -11    1    3    3    0    0  0.30115075084E+01  0.43487000769E+00  0.96854286836E+01  0.10152133689E+02  0.51100000000E-03 0.  1.
         12    1    3    3    0    0 -0.15701401155E+02 -0.27925070787E+02 -0.18627530074E+02  0.37058446450E+02  0.00000000000E+00 0. -1.
</event>
<event>
 7    1  0.1344618E-011  0.5930195E+02  0.7816164E-02  0.1266605E+00
        -11   -1    0    0    0    0  0.00000000000E+00  0.00000000000E+00  0.45593999997E+02  0.45594000000E+02  0.51100000000E-03 0.  1.
         11   -1    0    0    0    0 -0.00000000000E+00 -0.00000000000E+00 -0.45593999997E+02  0.45594000000E+02  0.51100000000E-03 0. -1.
    9900012    2    1    2    0    0  0.20997645867E+02 -0.20942027479E+02 -0.11715383982E+02  0.59301954953E+02  0.50000019924E+02 0.  0.
        -12    1    1    2    0    0 -0.20997645867E+02  0.20942027479E+02  0.11715383982E+02  0.31886045047E+02  0.00000000000E+00 0.  1.
         11    1    3    3    0    0  0.16011313605E+02  0.11867324190E+02 -0.70506983987E+00  0.19942233339E+02  0.51100000000E-03 0. -1.
        -11    1    3    3    0    0  0.19410359564E+01 -0.47452582657E+01 -0.98531367338E+01  0.11107177875E+02  0.51100000000E-03 0.  1.
        -12    1    3    3    0    0  0.30452963055E+01 -0.28064093404E+02 -0.11571774086E+01  0.28252543739E+02  0.00000000000E+00 0.  1.
</event>
<event>
 7    1  0.1344618E-011  0.5930193E+02  0.7816164E-02  0.1266605E+00
        -11   -1    0    0    0    0  0.00000000000E+00  0.00000000000E+00  0.45593999997E+02  0.45594000000E+02  0.51100000000E-03 0. -1.
         11   -1    0    0    0    0 -0.00000000000E+00 -0.00000000000E+00 -0.45593999997E+02  0.45594000000E+02  0.51100000000E-03 0.  1.
    9900012    2    1    2    0    0  0.56918766894E+00  0.48452983417E+01  0.31510644500E+02  0.59301927689E+02  0.49999970202E+02 0.  0.
        -12    1    1    2    0    0 -0.56918766894E+00 -0.48452983417E+01 -0.31510644500E+02  0.31886072311E+02  0.00000000000E+00 0.  1.
         11    1    3    3    0    0 -0.29063733007E+01 -0.42206242476E+01  0.37463578936E+01  0.63479030026E+01  0.51100000000E-03 0. -1.
        -11    1    3    3    0    0 -0.61177914213E+01  0.15524655590E+02 -0.56324572979E+01  0.17611555256E+02  0.51100000000E-03 0.  1.
         12    1    3    3    0    0  0.95933523909E+01 -0.64587330006E+01  0.33396743904E+02  0.35342469431E+02  0.00000000000E+00 0. -1.
</event>
<event>
 7    1  0.1344618E-011  0.5930190E+02  0.7816164E-02  0.1266605E+00
        -11   -1    0    0    0    0  0.00000000000E+00  0.00000000000E+00  0.45593999997E+02  0.45594000000E+02  0.51100000000E-03 0.  1.
         11   -1    0    0    0    0 -0.00000000000E+00 -0.00000000000E+00 -0.45593999997E+02  0.45594000000E+02  0.51100000000E-03 0. -1.
    9900012    2    1    2    0    0 -0.20495230156E+02  0.13381694936E+02 -0.20435241050E+02  0.59301901223E+02  0.49999921934E+02 0.  0.
        -12    1    1    2    0    0  0.20495230156E+02 -0.13381694936E+02  0.20435241050E+02  0.31886098777E+02  0.00000000000E+00 0.  1.
         11    1    3    3    0    0 -0.81485698028E+01 -0.26636777850E+01 -0.12579970275E+02  0.15223338055E+02  0.51100000000E-03 0. -1.
        -11    1    3    3    0    0  0.12759631392E+02  0.58762313469E+01  0.38565597900E+01  0.14567475477E+02  0.51100000000E-03 0.  1.
         12    1    3    3    0    0 -0.25106291745E+02  0.10169141374E+02 -0.11711830565E+02  0.29511087690E+02  0.00000000000E+00 0. -1.
</event>
<event>
 7    1  0.1344618E-011  0.5930196E+02  0.7816164E-02  0.1266605E+00
        -11   -1    0    0    0    0  0.00000000000E+00  0.00000000000E+00  0.45593999997E+02  0.45594000000E+02  0.51100000000E-03 0.  1.
         11   -1    0    0    0    0 -0.00000000000E+00 -0.00000000000E+00 -0.45593999997E+02  0.45594000000E+02  0.51100000000E-03 0. -1.
    9900012    2    1    2    0    0  0.29113812722E+02  0.12408041662E+02  0.38918057846E+01  0.59301956951E+02  0.50000023568E+02 0.  0.
        -12    1    1    2    0    0 -0.29113812722E+02 -0.12408041662E+02 -0.38918057846E+01  0.31886043049E+02  0.00000000000E+00 0.  1.
         11    1    3    3    0    0  0.45006250162E+01  0.94453599552E+01  0.12363996575E+01  0.10535612682E+02  0.51100000000E-03 0. -1.
        -11    1    3    3    0    0 -0.96027422290E+01 -0.11500822876E+01 -0.81525444004E+01  0.12649084079E+02  0.51100000000E-03 0.  1.
         12    1    3    3    0    0  0.34215929934E+02  0.41127639947E+01  0.10807950528E+02  0.36117260189E+02  0.00000000000E+00 0. -1.
</event>
<event>
 7    1  0.1344618E-011  0.5930194E+02  0.7816164E-02  0.1266605E+00
        -11   -1    0    0    0    0  0.00000000000E+00  0.00000000000E+00  0.45593999997E+02  0.45594000000E+02  0.51100000000E-03 0.  1.
         11   -1    0    0    0    0 -0.00000000000E+00 -0.00000000000E+00 -0.45593999997E+02  0.45594000000E+02  0.51100000000E-03 0. -1.
    9900012    2    1    2    0    0 -0.21081289834E+02  0.88123980986E+01 -0.22240540053E+02  0.59301940927E+02  0.49999994346E+02 0.  0.
        -12    1    1    2    0    0  0.21081289834E+02 -0.88123980986E+01  0.22240540053E+02  0.31886059073E+02  0.00000000000E+00 0.  1.
         11    1    3    3    0    0 -0.82846735216E+01 -0.42029546007E+01  0.58314168665E+01  0.10968412176E+02  0.51100000000E-03 0. -1.
        -11    1    3    3    0    0 -0.55713308624E+01  0.18749114360E+01  0.79815216285E+01  0.99126035045E+01  0.51100000000E-03 0.  1.
         12    1    3    3    0    0 -0.72252854504E+01  0.11140441263E+02 -0.36053478548E+02  0.38420925247E+02  0.00000000000E+00 0. -1.
</event>
<event>
 7    1  0.1344618E-011  0.5930196E+02  0.7816164E-02  0.1266605E+00
        -11   -1    0    0    0    0  0.00000000000E+00  0.00000000000E+00  0.45593999997E+02  0.45594000000E+02  0.51100000000E-03 0.  1.
         11   -1    0    0    0    0 -0.00000000000E+00 -0.00000000000E+00 -0.45593999997E+02  0.45594000000E+02  0.51100000000E-03 0. -1.
    9900012    2    1    2    0    0 -0.23683775797E+02  0.20709101168E+02  0.51895750495E+01  0.59301956088E+02  0.50000021995E+02 0.  0.
        -12    1    1    2    0    0  0.23683775797E+02 -0.20709101168E+02 -0.51895750495E+01  0.31886043912E+02  0.00000000000E+00 0.  1.
         11    1    3    3    0    0 -0.31814643940E+02 -0.44104419374E+00  0.90178482845E+01  0.33070949139E+02  0.51100000000E-03 0. -1.
        -11    1    3    3    0    0  0.60936619388E+00 -0.13236890392E+01 -0.19821112394E+01  0.24601311057E+01  0.51100000000E-03 0.  1.
        -12    1    3    3    0    0  0.75215019490E+01  0.22473834401E+02 -0.18461619957E+01  0.23770875843E+02  0.00000000000E+00 0.  1.
</event>
<event>
 7    1  0.1344618E-011  0.5930196E+02  0.7816164E-02  0.1266605E+00
        -11   -1    0    0    0    0  0.00000000000E+00  0.00000000000E+00  0.45593999997E+02  0.45594000000E+02  0.51100000000E-03 0.  1.
         11   -1    0    0    0    0 -0.00000000000E+00 -0.00000000000E+00 -0.45593999997E+02  0.45594000000E+02  0.51100000000E-03 0. -1.
    9900012    2    1    2    0    0 -0.13383850695E+02  0.26989468953E+01 -0.28815065043E+02  0.59301956859E+02  0.50000023401E+02 0.  0.
        -12    1    1    2    0    0  0.13383850695E+02 -0.26989468953E+01  0.28815065043E+02  0.31886043141E+02  0.00000000000E+00 0.  1.
         11    1    3    3    0    0 -0.26087601802E+02  0.10063264108E+02 -0.29679715938E+02  0.40776436709E+02  0.51100000000E-03 0. -1.
        -11    1    3    3    0    0  0.47480197977E+01 -0.80987140629E+01 -0.27122020275E+01  0.97718422814E+01  0.51100000000E-03 0.  1.
        -12    1    3    3    0    0  0.79557313093E+01  0.73439685059E+00  0.35768529227E+01  0.87536778688E+01  0.00000000000E+00 0.  1.
</event>
<event>
 7    1  0.1344618E-011  0.5930193E+02  0.7816164E-02  0.1266605E+00
        -11   -1    0    0    0    0  0.00000000000E+00  0.00000000000E+00  0.45593999997E+02  0.45594000000E+02  0.51100000000E-03 0. -1.
         11   -1    0    0    0    0 -0.00000000000E+00 -0.00000000000E+00 -0.45593999997E+02  0.45594000000E+02  0.51100000000E-03 0.  1.
    9900012    2    1    2    0    0 -0.25805557337E+02 -0.14041101534E+02  0.12395242980E+02  0.59301931407E+02  0.49999976983E+02 0.  0.
        -12    1    1    2    0    0  0.25805557337E+02  0.14041101534E+02 -0.12395242980E+02  0.31886068593E+02  0.00000000000E+00 0.  1.
         11    1    3    3    0    0 -0.16765280971E+02 -0.22491550068E+02  0.77506190741E+01  0.29103549041E+02  0.51100000000E-03 0. -1.
        -11    1    3    3    0    0  0.79993058970E+01  0.40651041693E+00  0.76987108884E+01  0.11109648741E+02  0.51100000000E-03 0.  1.
        -12    1    3    3    0    0 -0.17039582263E+02  0.80439381161E+01 -0.30540869827E+01  0.19088733625E+02  0.00000000000E+00 0.  1.
</event>
<event>
 7    1  0.1344618E-011  0.5930195E+02  0.7816164E-02  0.1266605E+00
        -11   -1    0    0    0    0  0.00000000000E+00  0.00000000000E+00  0.45593999997E+02  0.45594000000E+02  0.51100000000E-03 0. -1.
         11   -1    0    0    0    0 -0.00000000000E+00 -0.00000000000E+00 -0.45593999997E+02  0.45594000000E+02  0.51100000000E-03 0.  1.
    9900012    2    1    2    0    0 -0.66165744834E+01  0.23275400618E+02  0.20765281663E+02  0.59301948906E+02  0.50000008897E+02 0.  0.
        -12    1    1    2    0    0  0.66165744834E+01 -0.23275400618E+02 -0.20765281663E+02  0.31886051094E+02  0.00000000000E+00 0.  1.
         11    1    3    3    0    0  0.49362284667E+01  0.95619965788E+01 -0.27192976675E+01  0.11099221149E+02  0.51100000000E-03 0. -1.
        -11    1    3    3    0    0 -0.97480391933E+01  0.21771267186E+02  0.58645164423E+00  0.23861187497E+02  0.51100000000E-03 0.  1.
         12    1    3    3    0    0 -0.18047637567E+01 -0.80578631461E+01  0.22898127686E+02  0.24341540260E+02  0.00000000000E+00 0. -1.
</event>
<event>
 7    1  0.1344618E-011  0.5930191E+02  0.7816164E-02  0.1266605E+00
        -11   -1    0    0    0    0  0.00000000000E+00  0.00000000000E+00  0.45593999997E+02  0.45594000000E+02  0.51100000000E-03 0. -1.
         11   -1    0    0    0    0 -0.00000000000E+00 -0.00000000000E+00 -0.45593999997E+02  0.45594000000E+02  0.51100000000E-03 0.  1.
    9900012    2    1    2    0    0 -0.14180454166E+02  0.27141013965E+01  0.28430111635E+02  0.59301907823E+02  0.49999933971E+02 0.  0.
        -12    1    1    2    0    0  0.14180454166E+02 -0.27141013965E+01 -0.28430111635E+02  0.31886092177E+02  0.00000000000E+00 0.  1.
         11    1    3    3    0    0  0.22340956799E+01 -0.10966669514E+02  0.33057871648E+01  0.11669929425E+02  0.51100000000E-03 0. -1.
        -11    1    3    3    0    0  0.93468445059E+00 -0.40427115457E+01  0.22285472854E+02  0.22668468237E+02  0.51100000000E-03 0.  1.
        -12    1    3    3    0    0 -0.17349234297E+02  0.17723482456E+02  0.28388516164E+01  0.24963510161E+02  0.00000000000E+00 0.  1.
</event>
<event>
 7    1  0.1344618E-011  0.5930195E+02  0.7816164E-02  0.1266605E+00
        -11   -1    0    0    0    0  0.00000000000E+00  0.00000000000E+00  0.45593999997E+02  0.45594000000E+02  0.51100000000E-03 0.  1.
         11   -1    0    0    0    0 -0.00000000000E+00 -0.00000000000E+00 -0.45593999997E+02  0.45594000000E+02  0.51100000000E-03 0. -1.
    9900012    2    1    2    0    0 -0.50986330029E+01 -0.30290611904E+02  0.85558721292E+01  0.59301950137E+02  0.50000011141E+02 0.  0.
        -12    1    1    2    0    0  0.50986330029E+01  0.30290611904E+02 -0.85558721292E+01  0.31886049863E+02  0.00000000000E+00 0.  1.
         11    1    3    3    0    0  0.13421863246E+02 -0.18830789675E+02  0.43944540771E+01  0.23538400109E+02  0.51100000000E-03 0. -1.
        -11    1    3    3    0    0  0.47874734423E+01 -0.11225413183E+02  0.17859604597E+01  0.12333671721E+02  0.51100000000E-03 0.  1.
        -12    1    3    3    0    0 -0.23307969691E+02 -0.23440904488E+00  0.23754575924E+01  0.23429878307E+02  0.00000000000E+00 0.  1.
</event>
<event>
 7    1  0.1344618E-011  0.5930193E+02  0.7816164E-02  0.1266605E+00
        -11   -1    0    0    0    0  0.00000000000E+00  0.00000000000E+00  0.45593999997E+02  0.45594000000E+02  0.51100000000E-03 0. -1.
         11   -1    0    0    0    0 -0.00000000000E+00 -0.00000000000E+00 -0.45593999997E+02  0.45594000000E+02  0.51100000000E-03 0.  1.
    9900012    2    1    2    0    0 -0.13122674916E+02 -0.17395758551E+02  0.23278842653E+02  0.59301928938E+02  0.49999972480E+02 0.  0.
        -12    1    1    2    0    0  0.13122674916E+02  0.17395758551E+02 -0.23278842653E+02  0.31886071062E+02  0.00000000000E+00 0.  1.
         11    1    3    3    0    0 -0.14720568889E+02 -0.64646332643E+01  0.77321127539E+01  0.17840184965E+02  0.51100000000E-03 0. -1.
        -11    1    3    3    0    0 -0.35158959979E+01  0.11880038193E+01  0.24993245933E+02  0.25267275679E+02  0.51100000000E-03 0.  1.
        -12    1    3    3    0    0  0.51137899712E+01 -0.12119129106E+02 -0.94465160333E+01  0.16194468294E+02  0.00000000000E+00 0.  1.
</event>
<event>
 7    1  0.1344618E-011  0.5930196E+02  0.7816164E-02  0.1266605E+00
        -11   -1    0    0    0    0  0.00000000000E+00  0.00000000000E+00  0.45593999997E+02  0.45594000000E+02  0.51100000000E-03 0.  1.
         11   -1    0    0    0    0 -0.00000000000E+00 -0.00000000000E+00 -0.45593999997E+02  0.45594000000E+02  0.51100000000E-03 0. -1.
    9900012    2    1    2    0    0 -0.24721540183E+02  0.20138611274E+02  0.35874350934E-01  0.59301960734E+02  0.50000030469E+02 0.  0.
        -12    1    1    2    0    0  0.24721540183E+02 -0.20138611274E+02 -0.35874350934E-01  0.31886039266E+02  0.00000000000E+00 0.  1.
         11    1    3    3    0    0  0.48583676449E+01 -0.66543010353E+00 -0.85627827082E+01  0.98675114069E+01  0.51100000000E-03 0. -1.
        -11    1    3    3    0    0  0.62004600211E+01  0.13979844018E+01  0.58485904522E+01  0.86374808480E+01  0.51100000000E-03 0.  1.
        -12    1    3    3    0    0 -0.35780367849E+02  0.19406056976E+02  0.27500666070E+01  0.40796968480E+02  0.00000000000E+00 0.  1.
</event>
<event>
 7    1  0.1344618E-011  0.5930195E+02  0.7816164E-02  0.1266605E+00
        -11   -1    0    0    0    0  0.00000000000E+00  0.00000000000E+00  0.45593999997E+02  0.45594000000E+02  0.51100000000E-03 0. -1.
         11   -1    0    0    0    0 -0.00000000000E+00 -0.00000000000E+00 -0.45593999997E+02  0.45594000000E+02  0.51100000000E-03 0.  1.
    9900012    2    1    2    0    0  0.29978753679E+02  0.85272359516E+01 -0.67290859670E+01  0.59301952533E+02  0.50000015511E+02 0.  0.
        -12    1    1    2    0    0 -0.29978753679E+02 -0.85272359516E+01  0.67290859670E+01  0.31886047467E+02  0.00000000000E+00 0.  1.
         11    1    3    3    0    0  0.15476918577E+01 -0.25223031202E+01  0.10044808840E+02  0.10471654502E+02  0.51100000000E-03 0. -1.
        -11    1    3    3    0    0  0.98673817293E+01  0.18664815226E+02  0.21848104270E+01  0.21225313813E+02  0.51100000000E-03 0.  1.
        -12    1    3    3    0    0  0.18563680092E+02 -0.76152761539E+01 -0.18958705234E+02  0.27604984217E+02  0.00000000000E+00 0.  1.
</event>
<event>
 7    1  0.1344618E-011  0.5930195E+02  0.7816164E-02  0.1266605E+00
        -11   -1    0    0    0    0  0.00000000000E+00  0.00000000000E+00  0.45593999997E+02  0.45594000000E+02  0.51100000000E-03 0.  1.
         11   -1    0    0    0    0 -0.00000000000E+00 -0.00000000000E+00 -0.45593999997E+02  0.45594000000E+02  0.51100000000E-03 0. -1.
    9900012    2    1    2    0    0 -0.12770000144E+01  0.88242330507E+01 -0.30614085146E+02  0.59301952466E+02  0.50000015390E+02 0.  0.
        -12    1    1    2    0    0  0.12770000144E+01 -0.88242330507E+01  0.30614085146E+02  0.31886047534E+02  0.00000000000E+00 0.  1.
         11    1    3    3    0    0  0.11209578934E+02  0.51513573633E+00  0.58236500458E+01  0.12642583787E+02  0.51100000000E-03 0. -1.
        -11    1    3    3    0    0  0.50656004392E+01 -0.19401998944E+01 -0.19379289049E+02  0.20124152845E+02  0.51100000000E-03 0.  1.
         12    1    3    3    0    0 -0.17552179388E+02  0.10249297209E+02 -0.17058446143E+02  0.26535215834E+02  0.00000000000E+00 0. -1.
</event>
<event>
 7    1  0.1344618E-011  0.5930191E+02  0.7816164E-02  0.1266605E+00
        -11   -1    0    0    0    0  0.00000000000E+00  0.00000000000E+00  0.45593999997E+02  0.45594000000E+02  0.51100000000E-03 0.  1.
         11   -1    0    0    0    0 -0.00000000000E+00 -0.00000000000E+00 -0.45593999997E+02  0.45594000000E+02  0.51100000000E-03 0. -1.
    9900012    2    1    2    0    0 -0.13812886635E+02  0.52157838414E+00 -0.28734214678E+02  0.59301906254E+02  0.49999931110E+02 0.  0.
        -12    1    1    2    0    0  0.13812886635E+02 -0.52157838414E+00  0.28734214678E+02  0.31886093746E+02  0.00000000000E+00 0.  1.
         11    1    3    3    0    0  0.66067375850E+01 -0.84084619439E+01 -0.59093497880E+01  0.12217676905E+02  0.51100000000E-03 0. -1.
        -11    1    3    3    0    0  0.75864736921E+01 -0.29108437953E+01 -0.12622570464E+02  0.15011891289E+02  0.51100000000E-03 0.  1.
        -12    1    3    3    0    0 -0.28006097913E+02  0.11840884123E+02 -0.10202294425E+02  0.32072338060E+02  0.00000000000E+00 0.  1.
</event>
<event>
 7    1  0.1344618E-011  0.5930193E+02  0.7816164E-02  0.1266605E+00
        -11   -1    0    0    0    0  0.00000000000E+00  0.00000000000E+00  0.45593999997E+02  0.45594000000E+02  0.51100000000E-03 0. -1.
         11   -1    0    0    0    0 -0.00000000000E+00 -0.00000000000E+00 -0.45593999997E+02  0.45594000000E+02  0.51100000000E-03 0.  1.
    9900012    2    1    2    0    0 -0.55300125312E+01 -0.27067005976E+02  0.15922227298E+02  0.59301934497E+02  0.49999982619E+02 0.  0.
        -12    1    1    2    0    0  0.55300125312E+01  0.27067005976E+02 -0.15922227298E+02  0.31886065503E+02  0.00000000000E+00 0.  1.
         11    1    3    3    0    0  0.11825231561E+02 -0.19685271341E+02 -0.32498157035E+01  0.23192828884E+02  0.51100000000E-03 0. -1.
        -11    1    3    3    0    0 -0.29837631457E+01  0.22758110208E+01 -0.50766342256E+01  0.63130320475E+01  0.51100000000E-03 0.  1.
         12    1    3    3    0    0 -0.14371480947E+02 -0.96575456560E+01  0.24248677227E+02  0.29796073566E+02  0.00000000000E+00 0. -1.
</event>
<event>
 7    1  0.1344618E-011  0.5930194E+02  0.7816164E-02  0.1266605E+00
        -11   -1    0    0    0    0  0.00000000000E+00  0.00000000000E+00  0.45593999997E+02  0.45594000000E+02  0.51100000000E-03 0.  1.
         11   -1    0    0    0    0 -0.00000000000E+00 -0.00000000000E+00 -0.45593999997E+02  0.45594000000E+02  0.51100000000E-03 0. -1.
    9900012    2    1    2    0    0  0.14229837189E+01 -0.27072663977E+02 -0.16785902209E+02  0.59301944577E+02  0.50000001001E+02 0.  0.
        -12    1    1    2    0    0 -0.14229837189E+01  0.27072663977E+02  0.16785902209E+02  0.31886055423E+02  0.00000000000E+00 0.  1.
         11    1    3    3    0    0 -0.55396968322E+01 -0.16724753074E+02 -0.66255155044E+01  0.18822939790E+02  0.51100000000E-03 0. -1.
        -11    1    3    3    0    0  0.97831894816E+01 -0.12211466988E+02 -0.22656061575E+02  0.27534121536E+02  0.51100000000E-03 0.  1.
        -12    1    3    3    0    0 -0.28205089306E+01  0.18635560844E+01  0.12495674870E+02  0.12944883250E+02  0.00000000000E+00 0.  1.
</event>
<event>
 7    1  0.1344618E-011  0.5930188E+02  0.7816164E-02  0.1266605E+00
        -11   -1    0    0    0    0  0.00000000000E+00  0.00000000000E+00  0.45593999997E+02  0.45594000000E+02  0.51100000000E-03 0.  1.
         11   -1    0    0    0    0 -0.00000000000E+00 -0.00000000000E+00 -0.45593999997E+02  0.45594000000E+02  0.51100000000E-03 0. -1.
    9900012    2    1    2    0    0  0.69355364753E+01  0.26630481714E+02 -0.16107146725E+02  0.59301883928E+02  0.49999890393E+02 0.  0.
        -12    1    1    2    0    0 -0.69355364753E+01 -0.26630481714E+02  0.16107146725E+02  0.31886116072E+02  0.00000000000E+00 0.  1.
         11    1    3    3    0    0 -0.15647111755E+02  0.12012495088E+02 -0.57016788077E+01  0.20533905766E+02  0.51100000000E-03 0. -1.
        -11    1    3    3    0    0  0.36780768024E+01  0.17510520737E+02 -0.24697099990E+01  0.18062282612E+02  0.51100000000E-03 0.  1.
        -12    1    3    3    0    0  0.18904571428E+02 -0.28925341111E+01 -0.79357579184E+01  0.20705695550E+02  0.00000000000E+00 0.  1.
</event>
<event>
 7    1  0.1344618E-011  0.5930198E+02  0.7816164E-02  0.1266605E+00
        -11   -1    0    0    0    0  0.00000000000E+00  0.00000000000E+00  0.45593999997E+02  0.45594000000E+02  0.51100000000E-03 0.  1.
         11   -1    0    0    0    0 -0.00000000000E+00 -0.00000000000E+00 -0.45593999997E+02  0.45594000000E+02  0.51100000000E-03 0. -1.
    9900012    2    1    2    0    0 -0.31262600056E+02 -0.24899424083E+01 -0.57591981721E+01  0.59301978940E+02  0.50000063671E+02 0.  0.
        -12    1    1    2    0    0  0.31262600056E+02  0.24899424083E+01  0.57591981721E+01  0.31886021060E+02  0.00000000000E+00 0.  1.
         11    1    3    3    0    0 -0.28059116641E+01 -0.40114590115E+01 -0.16261521743E+02  0.16982403638E+02  0.51100000000E-03 0. -1.
        -11    1    3    3    0    0 -0.42030578413E+00 -0.34982173346E+01  0.13244988399E+02  0.13705615616E+02  0.51100000000E-03 0.  1.
         12    1    3    3    0    0 -0.28036382608E+02  0.50197339378E+01 -0.27426648282E+01  0.28613959686E+02  0.00000000000E+00 0. -1.
</event>
<event>
 7    1  0.1344618E-011  0.5930193E+02  0.7816164E-02  0.1266605E+00
        -11   -1    0    0    0    0  0.00000000000E+00  0.00000000000E+00  0.45593999997E+02  0.45594000000E+02  0.51100000000E-03 0. -1.
         11   -1    0    0    0    0 -0.00000000000E+00 -0.00000000000E+00 -0.45593999997E+02  0.45594000000E+02  0.51100000000E-03 0.  1.
    9900012    2    1    2    0    0  0.96513300579E+01 -0.39465624070E+01  0.30133008707E+02  0.59301925603E+02  0.49999966397E+02 0.  0.
        -12    1    1    2    0    0 -0.96513300579E+01  0.39465624070E+01 -0.30133008707E+02  0.31886074397E+02  0.00000000000E+00 0.  1.
         11    1    3    3    0    0 -0.70933964214E+01 -0.53425838127E+01  0.13105492826E+02  0.15830774367E+02  0.51100000000E-03 0. -1.
        -11    1    3    3    0    0  0.15269789973E+02  0.22552631381E+01  0.28211276984E+02  0.32157873795E+02  0.51100000000E-03 0.  1.
        -12    1    3    3    0    0  0.14749365058E+01 -0.85924173234E+00 -0.11183761103E+02  0.11313277441E+02  0.00000000000E+00 0.  1.
</event>
<event>
 7    1  0.1344618E-011  0.5930195E+02  0.7816164E-02  0.1266605E+00
        -11   -1    0    0    0    0  0.00000000000E+00  0.00000000000E+00  0.45593999997E+02  0.45594000000E+02  0.51100000000E-03 0.  1.
         11   -1    0    0    0    0 -0.00000000000E+00 -0.00000000000E+00 -0.45593999997E+02  0.45594000000E+02  0.51100000000E-03 0. -1.
    9900012    2    1    2    0    0 -0.29936775849E+02 -0.84595761686E+01 -0.69960642980E+01  0.59301954575E+02  0.50000019236E+02 0.  0.
        -12    1    1    2    0    0  0.29936775849E+02  0.84595761686E+01  0.69960642980E+01  0.31886045425E+02  0.00000000000E+00 0.  1.
         11    1    3    3    0    0 -0.13281896039E+01 -0.81440599928E+01 -0.17130019121E+02  0.19013872729E+02  0.51100000000E-03 0. -1.
        -11    1    3    3    0    0  0.48505391052E+01  0.10009742155E+01 -0.89613942888E+00  0.50331645243E+01  0.51100000000E-03 0.  1.
         12    1    3    3    0    0 -0.33459125350E+02 -0.13164903913E+01  0.11030094252E+02  0.35254917322E+02  0.00000000000E+00 0. -1.
</event>
<event>
 7    1  0.1344618E-011  0.5930195E+02  0.7816164E-02  0.1266605E+00
        -11   -1    0    0    0    0  0.00000000000E+00  0.00000000000E+00  0.45593999997E+02  0.45594000000E+02  0.51100000000E-03 0. -1.
         11   -1    0    0    0    0 -0.00000000000E+00 -0.00000000000E+00 -0.45593999997E+02  0.45594000000E+02  0.51100000000E-03 0.  1.
    9900012    2    1    2    0    0 -0.74075107057E+01 -0.25698175657E+02  0.17362399247E+02  0.59301947335E+02  0.50000006031E+02 0.  0.
        -12    1    1    2    0    0  0.74075107057E+01  0.25698175657E+02 -0.17362399247E+02  0.31886052665E+02  0.00000000000E+00 0.  1.
         11    1    3    3    0    0  0.84898818033E+01  0.10386724130E+01 -0.75604429235E+01  0.11415657269E+02  0.51100000000E-03 0. -1.
        -11    1    3    3    0    0  0.54299042906E+01 -0.42917717856E+01 -0.16156598050E+01  0.71072865801E+01  0.51100000000E-03 0.  1.
        -12    1    3    3    0    0 -0.21327296800E+02 -0.22445076285E+02  0.26538501975E+02  0.40779003486E+02  0.00000000000E+00 0.  1.
</event>
<event>
 7    1  0.1344618E-011  0.5930195E+02  0.7816164E-02  0.1266605E+00
        -11   -1    0    0    0    0  0.00000000000E+00  0.00000000000E+00  0.45593999997E+02  0.45594000000E+02  0.51100000000E-03 0.  1.
         11   -1    0    0    0    0 -0.00000000000E+00 -0.00000000000E+00 -0.45593999997E+02  0.45594000000E+02  0.51100000000E-03 0. -1.
    9900012    2    1    2    0    0 -0.81899859230E+01  0.27090623740E+02 -0.14688181166E+02  0.59301946152E+02  0.50000003874E+02 0.  0.
        -12    1    1    2    0    0  0.81899859230E+01 -0.27090623740E+02  0.14688181166E+02  0.31886053848E+02  0.00000000000E+00 0.  1.
         11    1    3    3    0    0  0.33959613297E+01  0.19724880925E+02 -0.12260363285E+01  0.20052596994E+02  0.51100000000E-03 0. -1.
        -11    1    3    3    0    0  0.16497960759E+01 -0.55358817945E+01  0.86675341746E+01  0.10416043551E+02  0.51100000000E-03 0.  1.
         12    1    3    3    0    0 -0.13235743329E+02  0.12901624610E+02 -0.22129679012E+02  0.28833305606E+02  0.00000000000E+00 0. -1.
</event>
<event>
 7    1  0.1344618E-011  0.5930195E+02  0.7816164E-02  0.1266605E+00
        -11   -1    0    0    0    0  0.00000000000E+00  0.00000000000E+00  0.45593999997E+02  0.45594000000E+02  0.51100000000E-03 0.  1.
         11   -1    0    0    0    0 -0.00000000000E+00 -0.00000000000E+00 -0.45593999997E+02  0.45594000000E+02  0.51100000000E-03 0. -1.
    9900012    2    1    2    0    0 -0.20348696858E+02  0.24430170582E+02  0.24119535201E+01  0.59301949472E+02  0.50000009930E+02 0.  0.
        -12    1    1    2    0    0  0.20348696858E+02 -0.24430170582E+02 -0.24119535201E+01  0.31886050528E+02  0.00000000000E+00 0.  1.
         11    1    3    3    0    0  0.32699919656E+01  0.14930550053E+02  0.69217524520E+01  0.16778701666E+02  0.51100000000E-03 0. -1.
        -11    1    3    3    0    0  0.17447530766E+01  0.12090287032E+02 -0.10753522584E+02  0.16274441682E+02  0.51100000000E-03 0.  1.
        -12    1    3    3    0    0 -0.25363441900E+02 -0.25906665030E+01  0.62437236523E+01  0.26248806125E+02  0.00000000000E+00 0.  1.
</event>
<event>
 7    1  0.1672492E-011  0.5930173E+02  0.7816164E-02  0.1266606E+00
        -11   -1    0    0    0    0  0.00000000000E+00  0.00000000000E+00  0.45593999997E+02  0.45594000000E+02  0.51100000000E-03 0.  1.
         11   -1    0    0    0    0 -0.00000000000E+00 -0.00000000000E+00 -0.45593999997E+02  0.45594000000E+02  0.51100000000E-03 0. -1.
    9900012    2    1    2    0    0 -0.79161441303E+00  0.30912053891E+02 -0.77815596705E+01  0.59301727091E+02  0.49999604357E+02 0.  0.
        -12    1    1    2    0    0  0.79161441303E+00 -0.30912053891E+02  0.77815596705E+01  0.31886272909E+02  0.00000000000E+00 0.  1.
         11    1    3    3    0    0  0.10061639500E+02  0.21659136510E+02 -0.16825184330E+02  0.29213723005E+02  0.51100000000E-03 0. -1.
        -11    1    3    3    0    0 -0.84062982534E+01  0.17799088651E+02  0.49274485808E+01  0.20291701676E+02  0.51100000000E-03 0.  1.
        -12    1    3    3    0    0 -0.24469556598E+01 -0.85461712702E+01  0.41161760790E+01  0.97963024093E+01  0.00000000000E+00 0.  1.
</event>
<event>
 7    1  0.1344618E-011  0.5930195E+02  0.7816164E-02  0.1266605E+00
        -11   -1    0    0    0    0  0.00000000000E+00  0.00000000000E+00  0.45593999997E+02  0.45594000000E+02  0.51100000000E-03 0.  1.
         11   -1    0    0    0    0 -0.00000000000E+00 -0.00000000000E+00 -0.45593999997E+02  0.45594000000E+02  0.51100000000E-03 0. -1.
    9900012    2    1    2    0    0  0.16062711539E+02 -0.14610767812E+02 -0.23350271187E+02  0.59301946582E+02  0.50000004659E+02 0.  0.
        -12    1    1    2    0    0 -0.16062711539E+02  0.14610767812E+02  0.23350271187E+02  0.31886053418E+02  0.00000000000E+00 0.  1.
         11    1    3    3    0    0 -0.80798229638E+01 -0.19587601321E+02 -0.20842356256E+02  0.29721397665E+02  0.51100000000E-03 0. -1.
        -11    1    3    3    0    0 -0.16954977476E+01  0.24812183659E+01 -0.20138723433E+01  0.36175736714E+01  0.51100000000E-03 0.  1.
         12    1    3    3    0    0  0.25838032250E+02  0.24956151432E+01 -0.49404258820E+00  0.25962975245E+02  0.00000000000E+00 0. -1.
</event>
<event>
 7    1  0.1344618E-011  0.5930196E+02  0.7816164E-02  0.1266605E+00
        -11   -1    0    0    0    0  0.00000000000E+00  0.00000000000E+00  0.45593999997E+02  0.45594000000E+02  0.51100000000E-03 0.  1.
         11   -1    0    0    0    0 -0.00000000000E+00 -0.00000000000E+00 -0.45593999997E+02  0.45594000000E+02  0.51100000000E-03 0. -1.
    9900012    2    1    2    0    0  0.30252435108E+02 -0.23402809039E+01 -0.97996441210E+01  0.59301956508E+02  0.50000022761E+02 0.  0.
        -12    1    1    2    0    0 -0.30252435108E+02  0.23402809039E+01  0.97996441210E+01  0.31886043492E+02  0.00000000000E+00 0.  1.
         11    1    3    3    0    0  0.45763728304E+01 -0.58233170652E+01 -0.98463164577E+01  0.12320883003E+02  0.51100000000E-03 0. -1.
        -11    1    3    3    0    0  0.92565302496E+01  0.20949986086E+02  0.15876911334E+01  0.22958789878E+02  0.51100000000E-03 0.  1.
         12    1    3    3    0    0  0.16419532028E+02 -0.17466949925E+02 -0.15410187967E+01  0.24022283627E+02  0.00000000000E+00 0. -1.
</event>
<event>
 7    1  0.1344618E-011  0.5930202E+02  0.7816164E-02  0.1266605E+00
        -11   -1    0    0    0    0  0.00000000000E+00  0.00000000000E+00  0.45593999997E+02  0.45594000000E+02  0.51100000000E-03 0. -1.
         11   -1    0    0    0    0 -0.00000000000E+00 -0.00000000000E+00 -0.45593999997E+02  0.45594000000E+02  0.51100000000E-03 0.  1.
    9900012    2    1    2    0    0 -0.86286099529E+01 -0.13505137929E+02  0.27565816909E+02  0.59302016841E+02  0.50000132793E+02 0.  0.
        -12    1    1    2    0    0  0.86286099529E+01  0.13505137929E+02 -0.27565816909E+02  0.31885983159E+02  0.00000000000E+00 0.  1.
         11    1    3    3    0    0 -0.39725762288E+01 -0.11778621272E+02  0.34668334801E+01  0.12904891150E+02  0.51100000000E-03 0. -1.
        -11    1    3    3    0    0 -0.39711505377E+00 -0.15911484524E+02 -0.23448616727E+01  0.16088238457E+02  0.51100000000E-03 0.  1.
        -12    1    3    3    0    0 -0.42589186703E+01  0.14184967867E+02  0.26443845101E+02  0.30308887234E+02  0.00000000000E+00 0.  1.
</event>
<event>
 7    1  0.1344618E-011  0.5930196E+02  0.7816164E-02  0.1266605E+00
        -11   -1    0    0    0    0  0.00000000000E+00  0.00000000000E+00  0.45593999997E+02  0.45594000000E+02  0.51100000000E-03 0. -1.
         11   -1    0    0    0    0 -0.00000000000E+00 -0.00000000000E+00 -0.45593999997E+02  0.45594000000E+02  0.51100000000E-03 0.  1.
    9900012    2    1    2    0    0  0.20860276876E+01  0.27800665233E+02  0.15475506387E+02  0.59301956080E+02  0.50000021980E+02 0.  0.
        -12    1    1    2    0    0 -0.20860276876E+01 -0.27800665233E+02 -0.15475506387E+02  0.31886043920E+02  0.00000000000E+00 0.  1.
         11    1    3    3    0    0 -0.39265116753E+01 -0.21319296332E+01  0.16766606717E+02  0.17351706514E+02  0.51100000000E-03 0. -1.
        -11    1    3    3    0    0  0.69530221882E+01 -0.34160732706E+01 -0.35301200263E+01  0.85132732718E+01  0.51100000000E-03 0.  1.
        -12    1    3    3    0    0 -0.94048282530E+00  0.33348668137E+02  0.22390196968E+01  0.33436976294E+02  0.00000000000E+00 0.  1.
</event>
<event>
 7    1  0.1344618E-011  0.5930201E+02  0.7816164E-02  0.1266605E+00
        -11   -1    0    0    0    0  0.00000000000E+00  0.00000000000E+00  0.45593999997E+02  0.45594000000E+02  0.51100000000E-03 0.  1.
         11   -1    0    0    0    0 -0.00000000000E+00 -0.00000000000E+00 -0.45593999997E+02  0.45594000000E+02  0.51100000000E-03 0. -1.
    9900012    2    1    2    0    0 -0.27868662832E+02 -0.13997355956E+02 -0.66428903120E+01  0.59302010389E+02  0.50000121026E+02 0.  0.
        -12    1    1    2    0    0  0.27868662832E+02  0.13997355956E+02  0.66428903120E+01  0.31885989611E+02  0.00000000000E+00 0.  1.
         11    1    3    3    0    0 -0.19625972041E+02 -0.11313994071E+02 -0.14483999938E+02  0.26888129255E+02  0.51100000000E-03 0. -1.
        -11    1    3    3    0    0 -0.13448681408E+02  0.98970478435E+01  0.85908701530E+01  0.18778222437E+02  0.51100000000E-03 0.  1.
         12    1    3    3    0    0  0.52059906168E+01 -0.12580409729E+02 -0.74976052662E+00  0.13635658697E+02  0.00000000000E+00 0. -1.
</event>
<event>
 7    1  0.1344618E-011  0.5930200E+02  0.7816164E-02  0.1266605E+00
        -11   -1    0    0    0    0  0.00000000000E+00  0.00000000000E+00  0.45593999997E+02  0.45594000000E+02  0.51100000000E-03 0. -1.
         11   -1    0    0    0    0 -0.00000000000E+00 -0.00000000000E+00 -0.45593999997E+02  0.45594000000E+02  0.51100000000E-03 0.  1.
    9900012    2    1    2    0    0  0.46293251839E+01  0.16670928968E+02  0.26783695220E+02  0.59302002227E+02  0.50000106142E+02 0.  0.
        -12    1    1    2    0    0 -0.46293251839E+01 -0.16670928968E+02 -0.26783695220E+02  0.31885997773E+02  0.00000000000E+00 0.  1.
         11    1    3    3    0    0 -0.26924808431E+01  0.50466818113E+01  0.19645229362E+02  0.20461023614E+02  0.51100000000E-03 0. -1.
        -11    1    3    3    0    0  0.16495681756E+00  0.80959184103E+00  0.20327497101E+02  0.20344281466E+02  0.51100000000E-03 0.  1.
        -12    1    3    3    0    0  0.71568492095E+01  0.10814655315E+02 -0.13189031243E+02  0.18496697147E+02  0.00000000000E+00 0.  1.
</event>
<event>
 7    1  0.1344618E-011  0.5930195E+02  0.7816164E-02  0.1266605E+00
        -11   -1    0    0    0    0  0.00000000000E+00  0.00000000000E+00  0.45593999997E+02  0.45594000000E+02  0.51100000000E-03 0. -1.
         11   -1    0    0    0    0 -0.00000000000E+00 -0.00000000000E+00 -0.45593999997E+02  0.45594000000E+02  0.51100000000E-03 0.  1.
    9900012    2    1    2    0    0 -0.67876340331E+01  0.84962328893E+01  0.29974364311E+02  0.59301945604E+02  0.50000002876E+02 0.  0.
        -12    1    1    2    0    0  0.67876340331E+01 -0.84962328893E+01 -0.29974364311E+02  0.31886054396E+02  0.00000000000E+00 0.  1.
         11    1    3    3    0    0 -0.13043618857E+02 -0.10309370709E+02  0.73037957472E+01  0.18159420417E+02  0.51100000000E-03 0. -1.
        -11    1    3    3    0    0 -0.12888959932E+01 -0.69341277306E+01  0.21590915704E+01  0.73759783715E+01  0.51100000000E-03 0.  1.
         12    1    3    3    0    0  0.75448808167E+01  0.25739731329E+02  0.20511476993E+02  0.33766546816E+02  0.00000000000E+00 0. -1.
</event>
<event>
 7    1  0.1344618E-011  0.5930194E+02  0.7816164E-02  0.1266605E+00
        -11   -1    0    0    0    0  0.00000000000E+00  0.00000000000E+00  0.45593999997E+02  0.45594000000E+02  0.51100000000E-03 0. -1.
         11   -1    0    0    0    0 -0.00000000000E+00 -0.00000000000E+00 -0.45593999997E+02  0.45594000000E+02  0.51100000000E-03 0.  1.
    9900012    2    1    2    0    0 -0.27610059795E+02 -0.12215677518E+02 -0.10255848230E+02  0.59301943455E+02  0.49999998955E+02 0.  0.
        -12    1    1    2    0    0  0.27610059795E+02  0.12215677518E+02  0.10255848230E+02  0.31886056545E+02  0.00000000000E+00 0.  1.
         11    1    3    3    0    0 -0.27912782362E+02 -0.17414343796E+02  0.10579759938E+01  0.32916593118E+02  0.51100000000E-03 0. -1.
        -11    1    3    3    0    0 -0.94552910603E+01 -0.64610639146E+00  0.11087049816E+01  0.95419709443E+01  0.51100000000E-03 0.  1.
        -12    1    3    3    0    0  0.97580136269E+01  0.58447726702E+01 -0.12422529205E+02  0.16843379393E+02  0.00000000000E+00 0.  1.
</event>
<event>
 7    1  0.1344618E-011  0.5930189E+02  0.7816164E-02  0.1266605E+00
        -11   -1    0    0    0    0  0.00000000000E+00  0.00000000000E+00  0.45593999997E+02  0.45594000000E+02  0.51100000000E-03 0. -1.
         11   -1    0    0    0    0 -0.00000000000E+00 -0.00000000000E+00 -0.45593999997E+02  0.45594000000E+02  0.51100000000E-03 0.  1.
    9900012    2    1    2    0    0 -0.45248507357E+01 -0.21481375798E+02  0.23125749047E+02  0.59301889397E+02  0.49999900367E+02 0.  0.
        -12    1    1    2    0    0  0.45248507357E+01  0.21481375798E+02 -0.23125749047E+02  0.31886110603E+02  0.00000000000E+00 0.  1.
         11    1    3    3    0    0 -0.89358839974E+01 -0.23605992893E+02  0.11595951905E+02  0.27776951311E+02  0.51100000000E-03 0. -1.
        -11    1    3    3    0    0 -0.10006609376E+02  0.88804293378E+01  0.60855721091E+01  0.14697906129E+02  0.51100000000E-03 0.  1.
        -12    1    3    3    0    0  0.14417642637E+02 -0.67558122433E+01  0.54442250335E+01  0.16827031958E+02  0.00000000000E+00 0.  1.
</event>
<event>
 7    1  0.1344618E-011  0.5930202E+02  0.7816164E-02  0.1266604E+00
        -11   -1    0    0    0    0  0.00000000000E+00  0.00000000000E+00  0.45593999997E+02  0.45594000000E+02  0.51100000000E-03 0.  1.
         11   -1    0    0    0    0 -0.00000000000E+00 -0.00000000000E+00 -0.45593999997E+02  0.45594000000E+02  0.51100000000E-03 0. -1.
    9900012    2    1    2    0    0  0.46825355845E+01  0.29687255874E+02 -0.10651591318E+02  0.59302020347E+02  0.50000139188E+02 0.  0.
        -12    1    1    2    0    0 -0.46825355845E+01 -0.29687255874E+02  0.10651591318E+02  0.31885979653E+02  0.00000000000E+00 0.  1.
         11    1    3    3    0    0 -0.99652919191E+01 -0.16241198509E+01  0.20966465862E+01  0.10312164443E+02  0.51100000000E-03 0. -1.
        -11    1    3    3    0    0  0.20681404158E+02  0.69147145364E+01 -0.29053775285E+01  0.21999431218E+02  0.51100000000E-03 0.  1.
         12    1    3    3    0    0 -0.60335766545E+01  0.24396661188E+02 -0.98428603759E+01  0.26990424687E+02  0.00000000000E+00 0. -1.
</event>
<event>
 7    1  0.1344618E-011  0.5930187E+02  0.7816164E-02  0.1266605E+00
        -11   -1    0    0    0    0  0.00000000000E+00  0.00000000000E+00  0.45593999997E+02  0.45594000000E+02  0.51100000000E-03 0. -1.
         11   -1    0    0    0    0 -0.00000000000E+00 -0.00000000000E+00 -0.45593999997E+02  0.45594000000E+02  0.51100000000E-03 0.  1.
    9900012    2    1    2    0    0  0.19878931375E+02  0.13895823770E+02  0.20699266342E+02  0.59301867310E+02  0.49999860085E+02 0.  0.
        -12    1    1    2    0    0 -0.19878931375E+02 -0.13895823770E+02 -0.20699266342E+02  0.31886132690E+02  0.00000000000E+00 0.  1.
         11    1    3    3    0    0  0.95472792286E+01  0.32179413508E+01  0.11306568650E+02  0.15144113777E+02  0.51100000000E-03 0. -1.
        -11    1    3    3    0    0  0.14502294174E+02 -0.22453580711E+00  0.22396847457E+02  0.26683060711E+02  0.51100000000E-03 0.  1.
        -12    1    3    3    0    0 -0.41706420283E+01  0.10902418226E+02 -0.13004149765E+02  0.17474692822E+02  0.00000000000E+00 0.  1.
</event>
<event>
 7    1  0.1344618E-011  0.5930195E+02  0.7816164E-02  0.1266605E+00
        -11   -1    0    0    0    0  0.00000000000E+00  0.00000000000E+00  0.45593999997E+02  0.45594000000E+02  0.51100000000E-03 0.  1.
         11   -1    0    0    0    0 -0.00000000000E+00 -0.00000000000E+00 -0.45593999997E+02  0.45594000000E+02  0.51100000000E-03 0. -1.
    9900012    2    1    2    0    0  0.27982462790E+01 -0.21308019417E+02 -0.23555426745E+02  0.59301952850E+02  0.50000016089E+02 0.  0.
        -12    1    1    2    0    0 -0.27982462790E+01  0.21308019417E+02  0.23555426745E+02  0.31886047150E+02  0.00000000000E+00 0.  1.
         11    1    3    3    0    0 -0.59713750316E+00 -0.34174008225E+00  0.12167650987E+01  0.13978115209E+01  0.51100000000E-03 0.  1.
        -11    1    3    3    0    0  0.79058011764E+01 -0.26277988479E+02  0.45052554189E+01  0.27808842072E+02  0.51100000000E-03 0. -1.
         12    1    3    3    0    0 -0.45104173942E+01  0.53117091446E+01 -0.29277447263E+02  0.30095299256E+02  0.00000000000E+00 0. -1.
</event>
<event>
 7    1  0.1344618E-011  0.5930192E+02  0.7816164E-02  0.1266605E+00
        -11   -1    0    0    0    0  0.00000000000E+00  0.00000000000E+00  0.45593999997E+02  0.45594000000E+02  0.51100000000E-03 0.  1.
         11   -1    0    0    0    0 -0.00000000000E+00 -0.00000000000E+00 -0.45593999997E+02  0.45594000000E+02  0.51100000000E-03 0. -1.
    9900012    2    1    2    0    0 -0.16179365320E+02 -0.29734126452E+01 -0.27314995767E+02  0.59301920927E+02  0.49999957869E+02 0.  0.
        -12    1    1    2    0    0  0.16179365320E+02  0.29734126452E+01  0.27314995767E+02  0.31886079073E+02  0.00000000000E+00 0.  1.
         11    1    3    3    0    0 -0.10917201836E+02  0.43847487334E+01 -0.47535115011E+01  0.12688860833E+02  0.51100000000E-03 0. -1.
        -11    1    3    3    0    0  0.91619361744E+00  0.16213141867E+02 -0.68841060137E+01  0.17637922095E+02  0.51100000000E-03 0.  1.
         12    1    3    3    0    0 -0.61783571015E+01 -0.23571303246E+02 -0.15677378252E+02  0.28975137999E+02  0.00000000000E+00 0. -1.
</event>
<event>
 7    1  0.1344618E-011  0.5930202E+02  0.7816164E-02  0.1266605E+00
        -11   -1    0    0    0    0  0.00000000000E+00  0.00000000000E+00  0.45593999997E+02  0.45594000000E+02  0.51100000000E-03 0.  1.
         11   -1    0    0    0    0 -0.00000000000E+00 -0.00000000000E+00 -0.45593999997E+02  0.45594000000E+02  0.51100000000E-03 0. -1.
    9900012    2    1    2    0    0  0.73022217271E+01 -0.36152273811E+01 -0.30827319921E+02  0.59302016172E+02  0.50000131573E+02 0.  0.
        -12    1    1    2    0    0 -0.73022217271E+01  0.36152273811E+01  0.30827319921E+02  0.31885983828E+02  0.00000000000E+00 0.  1.
         11    1    3    3    0    0  0.20128736045E+02 -0.10119955183E+02 -0.13593693596E+02  0.26312886833E+02  0.51100000000E-03 0. -1.
        -11    1    3    3    0    0  0.72217817317E+01  0.26813574448E+01 -0.42202725830E+01  0.87837640031E+01  0.51100000000E-03 0.  1.
        -12    1    3    3    0    0 -0.20048296050E+02  0.38233703566E+01 -0.13013353743E+02  0.24205365335E+02  0.00000000000E+00 0.  1.
</event>
<event>
 7    1  0.1344618E-011  0.5930187E+02  0.7816164E-02  0.1266605E+00
        -11   -1    0    0    0    0  0.00000000000E+00  0.00000000000E+00  0.45593999997E+02  0.45594000000E+02  0.51100000000E-03 0.  1.
         11   -1    0    0    0    0 -0.00000000000E+00 -0.00000000000E+00 -0.45593999997E+02  0.45594000000E+02  0.51100000000E-03 0. -1.
    9900012    2    1    2    0    0 -0.40549782728E+01 -0.31002590549E+02  0.62547589128E+01  0.59301866986E+02  0.49999859494E+02 0.  0.
        -12    1    1    2    0    0  0.40549782728E+01  0.31002590549E+02 -0.62547589128E+01  0.31886133014E+02  0.00000000000E+00 0.  1.
         11    1    3    3    0    0 -0.87779090738E+01 -0.19082248184E+02 -0.13716147711E+02  0.25086183284E+02  0.51100000000E-03 0. -1.
        -11    1    3    3    0    0 -0.91966522462E+01 -0.99237976266E+01  0.77951852070E+01  0.15614899441E+02  0.51100000000E-03 0.  1.
        -12    1    3    3    0    0  0.13919583047E+02 -0.19965447388E+01  0.12175721417E+02  0.18600784261E+02  0.00000000000E+00 0.  1.
</event>
<event>
 7    1  0.1344618E-011  0.5930193E+02  0.7816164E-02  0.1266605E+00
        -11   -1    0    0    0    0  0.00000000000E+00  0.00000000000E+00  0.45593999997E+02  0.45594000000E+02  0.51100000000E-03 0. -1.
         11   -1    0    0    0    0 -0.00000000000E+00 -0.00000000000E+00 -0.45593999997E+02  0.45594000000E+02  0.51100000000E-03 0.  1.
    9900012    2    1    2    0    0 -0.11567041483E+02  0.28477302327E+02 -0.84834039842E+01  0.59301931888E+02  0.49999977860E+02 0.  0.
        -12    1    1    2    0    0  0.11567041483E+02 -0.28477302327E+02  0.84834039842E+01  0.31886068112E+02  0.00000000000E+00 0.  1.
         11    1    3    3    0    0 -0.10551504134E+02  0.33683837868E+02 -0.13186135989E+02  0.37680357689E+02  0.51100000000E-03 0. -1.
        -11    1    3    3    0    0 -0.27099163247E+01 -0.20510112628E+01 -0.78573187413E+01  0.85608265811E+01  0.51100000000E-03 0.  1.
        -12    1    3    3    0    0  0.16943789756E+01 -0.31555242780E+01  0.12560050746E+02  0.13060747618E+02  0.00000000000E+00 0.  1.
</event>
<event>
 7    1  0.1344618E-011  0.5930195E+02  0.7816164E-02  0.1266605E+00
        -11   -1    0    0    0    0  0.00000000000E+00  0.00000000000E+00  0.45593999997E+02  0.45594000000E+02  0.51100000000E-03 0.  1.
         11   -1    0    0    0    0 -0.00000000000E+00 -0.00000000000E+00 -0.45593999997E+02  0.45594000000E+02  0.51100000000E-03 0. -1.
    9900012    2    1    2    0    0  0.14675819961E+02  0.20215763081E+02 -0.19815734003E+02  0.59301951600E+02  0.50000013811E+02 0.  0.
        -12    1    1    2    0    0 -0.14675819961E+02 -0.20215763081E+02  0.19815734003E+02  0.31886048400E+02  0.00000000000E+00 0.  1.
         11    1    3    3    0    0  0.10110028741E+02  0.13515622777E+02 -0.14635768658E+02  0.22340332689E+02  0.51100000000E-03 0. -1.
        -11    1    3    3    0    0 -0.94731633896E+01  0.16577699295E+02 -0.22363531462E+00  0.19094788596E+02  0.51100000000E-03 0.  1.
         12    1    3    3    0    0  0.14038954610E+02 -0.98775589904E+01 -0.49563300302E+01  0.17866830315E+02  0.00000000000E+00 0. -1.
</event>
<event>
 7    1  0.1344618E-011  0.5930193E+02  0.7816164E-02  0.1266605E+00
        -11   -1    0    0    0    0  0.00000000000E+00  0.00000000000E+00  0.45593999997E+02  0.45594000000E+02  0.51100000000E-03 0. -1.
         11   -1    0    0    0    0 -0.00000000000E+00 -0.00000000000E+00 -0.45593999997E+02  0.45594000000E+02  0.51100000000E-03 0.  1.
    9900012    2    1    2    0    0  0.87274589997E+01 -0.13178400463E+02  0.27692644546E+02  0.59301931862E+02  0.49999977813E+02 0.  0.
        -12    1    1    2    0    0 -0.87274589997E+01  0.13178400463E+02 -0.27692644546E+02  0.31886068138E+02  0.00000000000E+00 0.  1.
         11    1    3    3    0    0  0.27978365496E+01  0.21382994238E+01  0.11149462491E+02  0.11692336289E+02  0.51100000000E-03 0. -1.
        -11    1    3    3    0    0 -0.54825550823E+01  0.10539342113E+02 -0.41470135741E+01  0.12583078489E+02  0.51100000000E-03 0.  1.
         12    1    3    3    0    0  0.11412177532E+02 -0.25856042000E+02  0.20690195629E+02  0.35026517085E+02  0.00000000000E+00 0. -1.
</event>
<event>
 7    1  0.2618580E-011  0.5930187E+02  0.7816164E-02  0.1266605E+00
        -11   -1    0    0    0    0  0.00000000000E+00  0.00000000000E+00  0.45593999997E+02  0.45594000000E+02  0.51100000000E-03 0. -1.
         11   -1    0    0    0    0 -0.00000000000E+00 -0.00000000000E+00 -0.45593999997E+02  0.45594000000E+02  0.51100000000E-03 0.  1.
    9900012    2    1    2    0    0 -0.16098544455E+02 -0.81361459904E-01  0.27523724885E+02  0.59301871593E+02  0.49999867896E+02 0.  0.
        -12    1    1    2    0    0  0.16098544455E+02  0.81361459904E-01 -0.27523724885E+02  0.31886128407E+02  0.00000000000E+00 0.  1.
         11    1    3    3    0    0  0.22229904387E+01  0.65115517479E+01  0.24098013908E+02  0.25061050801E+02  0.51100000000E-03 0. -1.
        -11    1    3    3    0    0 -0.61529949437E+01  0.97127812683E+01 -0.45804641215E+01  0.12376514799E+02  0.51100000000E-03 0.  1.
        -12    1    3    3    0    0 -0.12168539950E+02 -0.16305694476E+02  0.80061750980E+01  0.21864305993E+02  0.00000000000E+00 0.  1.
</event>
<event>
 7    1  0.1344618E-011  0.5930195E+02  0.7816164E-02  0.1266605E+00
        -11   -1    0    0    0    0  0.00000000000E+00  0.00000000000E+00  0.45593999997E+02  0.45594000000E+02  0.51100000000E-03 0.  1.
         11   -1    0    0    0    0 -0.00000000000E+00 -0.00000000000E+00 -0.45593999997E+02  0.45594000000E+02  0.51100000000E-03 0. -1.
    9900012    2    1    2    0    0 -0.42663055263E+01 -0.82810177158E+01 -0.30494974117E+02  0.59301951897E+02  0.50000014351E+02 0.  0.
        -12    1    1    2    0    0  0.42663055263E+01  0.82810177158E+01  0.30494974117E+02  0.31886048103E+02  0.00000000000E+00 0.  1.
         11    1    3    3    0    0  0.71812421674E+01 -0.14056616611E+02 -0.25029743219E+02  0.29591329060E+02  0.51100000000E-03 0. -1.
        -11    1    3    3    0    0  0.36197943476E+01  0.65708223363E+01  0.69077785310E+01  0.10197843977E+02  0.51100000000E-03 0.  1.
         12    1    3    3    0    0 -0.15067342041E+02 -0.79522344073E+00 -0.12373009429E+02  0.19512778860E+02  0.00000000000E+00 0. -1.
</event>
<event>
 7    1  0.1344618E-011  0.5930184E+02  0.7816164E-02  0.1266605E+00
        -11   -1    0    0    0    0  0.00000000000E+00  0.00000000000E+00  0.45593999997E+02  0.45594000000E+02  0.51100000000E-03 0.  1.
         11   -1    0    0    0    0 -0.00000000000E+00 -0.00000000000E+00 -0.45593999997E+02  0.45594000000E+02  0.51100000000E-03 0. -1.
    9900012    2    1    2    0    0  0.10585857522E+02 -0.15121331185E+02 -0.26000227923E+02  0.59301844880E+02  0.49999819179E+02 0.  0.
        -12    1    1    2    0    0 -0.10585857522E+02  0.15121331185E+02  0.26000227923E+02  0.31886155120E+02  0.00000000000E+00 0.  1.
         11    1    3    3    0    0  0.27167330429E+02 -0.44296060081E+01 -0.19559131948E+02  0.33767512417E+02  0.51100000000E-03 0. -1.
        -11    1    3    3    0    0 -0.53174845199E+01 -0.11969118485E+01 -0.90583459506E+01  0.10571748730E+02  0.51100000000E-03 0.  1.
        -12    1    3    3    0    0 -0.11263988388E+02 -0.94948133280E+01  0.26172499752E+01  0.14962583733E+02  0.00000000000E+00 0.  1.
</event>
<event>
 7    1  0.1344618E-011  0.5930194E+02  0.7816164E-02  0.1266605E+00
        -11   -1    0    0    0    0  0.00000000000E+00  0.00000000000E+00  0.45593999997E+02  0.45594000000E+02  0.51100000000E-03 0.  1.
         11   -1    0    0    0    0 -0.00000000000E+00 -0.00000000000E+00 -0.45593999997E+02  0.45594000000E+02  0.51100000000E-03 0. -1.
    9900012    2    1    2    0    0 -0.28266239114E+02  0.13255377564E+02  0.64834708483E+01  0.59301941883E+02  0.49999996088E+02 0.  0.
        -12    1    1    2    0    0  0.28266239114E+02 -0.13255377564E+02 -0.64834708483E+01  0.31886058117E+02  0.00000000000E+00 0.  1.
         11    1    3    3    0    0 -0.87569865506E+01 -0.51051664681E+01  0.19893481231E+02  0.22327071771E+02  0.51100000000E-03 0. -1.
        -11    1    3    3    0    0 -0.12407003566E+02  0.41612169917E+01  0.37341210458E+01  0.13608568058E+02  0.51100000000E-03 0.  1.
         12    1    3    3    0    0 -0.71022489970E+01  0.14199327041E+02 -0.17144131429E+02  0.23366302054E+02  0.00000000000E+00 0. -1.
</event>
<event>
 7    1  0.1344618E-011  0.5930193E+02  0.7816164E-02  0.1266605E+00
        -11   -1    0    0    0    0  0.00000000000E+00  0.00000000000E+00  0.45593999997E+02  0.45594000000E+02  0.51100000000E-03 0. -1.
         11   -1    0    0    0    0 -0.00000000000E+00 -0.00000000000E+00 -0.45593999997E+02  0.45594000000E+02  0.51100000000E-03 0.  1.
    9900012    2    1    2    0    0  0.24070893959E+02  0.20351651641E+02  0.48086956647E+01  0.59301933850E+02  0.49999981439E+02 0.  0.
        -12    1    1    2    0    0 -0.24070893959E+02 -0.20351651641E+02 -0.48086956647E+01  0.31886066150E+02  0.00000000000E+00 0.  1.
         11    1    3    3    0    0  0.23267923165E+02  0.94277615493E+01 -0.27603453571E+01  0.25256651460E+02  0.51100000000E-03 0. -1.
        -11    1    3    3    0    0 -0.13236188250E+01  0.21132564376E+02  0.23792222056E-01  0.21173989001E+02  0.51100000000E-03 0.  1.
         12    1    3    3    0    0  0.21265896193E+01 -0.10208674284E+02  0.75452487997E+01  0.12871293389E+02  0.00000000000E+00 0. -1.
</event>
<event>
 7    1  0.1344618E-011  0.5930204E+02  0.7816164E-02  0.1266604E+00
        -11   -1    0    0    0    0  0.00000000000E+00  0.00000000000E+00  0.45593999997E+02  0.45594000000E+02  0.51100000000E-03 0.  1.
         11   -1    0    0    0    0 -0.00000000000E+00 -0.00000000000E+00 -0.45593999997E+02  0.45594000000E+02  0.51100000000E-03 0. -1.
    9900012    2    1    2    0    0  0.18212204745E+02 -0.60885011188E+01 -0.25455058911E+02  0.59302042719E+02  0.50000179989E+02 0.  0.
        -12    1    1    2    0    0 -0.18212204745E+02  0.60885011188E+01  0.25455058911E+02  0.31885957281E+02  0.00000000000E+00 0.  1.
         11    1    3    3    0    0  0.30611294641E+02 -0.59237790356E+01 -0.17778485211E+02  0.35891740753E+02  0.51100000000E-03 0. -1.
        -11    1    3    3    0    0  0.96912138454E+00 -0.18520532140E+01  0.46815408503E+01  0.51269993524E+01  0.51100000000E-03 0.  1.
        -12    1    3    3    0    0 -0.13368211281E+02  0.16873311307E+01 -0.12358114551E+02  0.18283302613E+02  0.00000000000E+00 0.  1.
</event>
<event>
 7    1  0.1344618E-011  0.5930196E+02  0.7816164E-02  0.1266605E+00
        -11   -1    0    0    0    0  0.00000000000E+00  0.00000000000E+00  0.45593999997E+02  0.45594000000E+02  0.51100000000E-03 0. -1.
         11   -1    0    0    0    0 -0.00000000000E+00 -0.00000000000E+00 -0.45593999997E+02  0.45594000000E+02  0.51100000000E-03 0.  1.
    9900012    2    1    2    0    0 -0.27989385083E+02  0.83533471428E+01  0.12788103242E+02  0.59301958064E+02  0.50000025599E+02 0.  0.
        -12    1    1    2    0    0  0.27989385083E+02 -0.83533471428E+01 -0.12788103242E+02  0.31886041936E+02  0.00000000000E+00 0.  1.
         11    1    3    3    0    0 -0.61923517685E+00 -0.43965120393E+01  0.45172086902E+00  0.44628267186E+01  0.51100000000E-03 0. -1.
        -11    1    3    3    0    0  0.57669033211E+01  0.86413840907E+01  0.18181770998E+02  0.20940570427E+02  0.51100000000E-03 0.  1.
         12    1    3    3    0    0 -0.33137053228E+02  0.41084750914E+01 -0.58453886253E+01  0.33898560919E+02  0.00000000000E+00 0. -1.
</event>
<event>
 7    1  0.1344618E-011  0.5930193E+02  0.7816164E-02  0.1266605E+00
        -11   -1    0    0    0    0  0.00000000000E+00  0.00000000000E+00  0.45593999997E+02  0.45594000000E+02  0.51100000000E-03 0.  1.
         11   -1    0    0    0    0 -0.00000000000E+00 -0.00000000000E+00 -0.45593999997E+02  0.45594000000E+02  0.51100000000E-03 0. -1.
    9900012    2    1    2    0    0 -0.10328244867E+02  0.13672693945E+02 -0.26890636833E+02  0.59301928573E+02  0.49999971814E+02 0.  0.
        -12    1    1    2    0    0  0.10328244867E+02 -0.13672693945E+02  0.26890636833E+02  0.31886071427E+02  0.00000000000E+00 0.  1.
         11    1    3    3    0    0 -0.58574480639E+01  0.19923791578E+02 -0.15146860103E+02  0.25703979068E+02  0.51100000000E-03 0. -1.
        -11    1    3    3    0    0 -0.34435363542E+01  0.24593601722E+00  0.10158590927E+02  0.10729184360E+02  0.51100000000E-03 0.  1.
        -12    1    3    3    0    0 -0.10272604488E+01 -0.64970336502E+01 -0.21902367657E+02  0.22868765145E+02  0.00000000000E+00 0.  1.
</event>
<event>
 7    1  0.1344618E-011  0.5930202E+02  0.7816164E-02  0.1266604E+00
        -11   -1    0    0    0    0  0.00000000000E+00  0.00000000000E+00  0.45593999997E+02  0.45594000000E+02  0.51100000000E-03 0.  1.
         11   -1    0    0    0    0 -0.00000000000E+00 -0.00000000000E+00 -0.45593999997E+02  0.45594000000E+02  0.51100000000E-03 0. -1.
    9900012    2    1    2    0    0 -0.30192075996E+02  0.66879818742E+01  0.77733613746E+01  0.59302020298E+02  0.50000139098E+02 0.  0.
        -12    1    1    2    0    0  0.30192075996E+02 -0.66879818742E+01 -0.77733613746E+01  0.31885979702E+02  0.00000000000E+00 0.  1.
         11    1    3    3    0    0 -0.95133785998E+01 -0.10740907924E+02 -0.10211000721E+02  0.17610678902E+02  0.51100000000E-03 0. -1.
        -11    1    3    3    0    0  0.19673193177E+01 -0.17433374731E+01  0.10863551587E+02  0.11177044520E+02  0.51100000000E-03 0.  1.
         12    1    3    3    0    0 -0.22646016714E+02  0.19172227271E+02  0.71208105085E+01  0.30514296876E+02  0.00000000000E+00 0. -1.
</event>
<event>
 7    1  0.1344618E-011  0.5930193E+02  0.7816164E-02  0.1266605E+00
        -11   -1    0    0    0    0  0.00000000000E+00  0.00000000000E+00  0.45593999997E+02  0.45594000000E+02  0.51100000000E-03 0. -1.
         11   -1    0    0    0    0 -0.00000000000E+00 -0.00000000000E+00 -0.45593999997E+02  0.45594000000E+02  0.51100000000E-03 0.  1.
    9900012    2    1    2    0    0 -0.25438390337E+02  0.18095867210E+02  0.64922530264E+01  0.59301929963E+02  0.49999974350E+02 0.  0.
        -12    1    1    2    0    0  0.25438390337E+02 -0.18095867210E+02 -0.64922530264E+01  0.31886070037E+02  0.00000000000E+00 0.  1.
         11    1    3    3    0    0  0.11140012730E+01 -0.29878549489E+01 -0.35940020124E+01  0.48046984045E+01  0.51100000000E-03 0.  1.
        -11    1    3    3    0    0  0.34029777060E+01  0.19665954571E+02  0.13821192674E+02  0.24276642966E+02  0.51100000000E-03 0. -1.
         12    1    3    3    0    0 -0.29955369316E+02  0.14177675877E+01 -0.37349376355E+01  0.30220588593E+02  0.00000000000E+00 0. -1.
</event>
<event>
 7    1  0.1344618E-011  0.5930194E+02  0.7816164E-02  0.1266605E+00
        -11   -1    0    0    0    0  0.00000000000E+00  0.00000000000E+00  0.45593999997E+02  0.45594000000E+02  0.51100000000E-03 0.  1.
         11   -1    0    0    0    0 -0.00000000000E+00 -0.00000000000E+00 -0.45593999997E+02  0.45594000000E+02  0.51100000000E-03 0. -1.
    9900012    2    1    2    0    0 -0.19171971373E+02  0.23761924862E+02 -0.91938610011E+01  0.59301942865E+02  0.49999997879E+02 0.  0.
        -12    1    1    2    0    0  0.19171971373E+02 -0.23761924862E+02  0.91938610011E+01  0.31886057135E+02  0.00000000000E+00 0.  1.
         11    1    3    3    0    0 -0.23620580426E+02  0.25649088409E+01  0.65625948084E+01  0.24649101970E+02  0.51100000000E-03 0. -1.
        -11    1    3    3    0    0 -0.52606000281E+01  0.87860616711E+00 -0.10119560184E+02  0.11439027932E+02  0.51100000000E-03 0.  1.
         12    1    3    3    0    0  0.97092090810E+01  0.20318409854E+02 -0.56368956257E+01  0.23213812963E+02  0.00000000000E+00 0. -1.
</event>
<event>
 7    1  0.1344618E-011  0.5930197E+02  0.7816164E-02  0.1266605E+00
        -11   -1    0    0    0    0  0.00000000000E+00  0.00000000000E+00  0.45593999997E+02  0.45594000000E+02  0.51100000000E-03 0.  1.
         11   -1    0    0    0    0 -0.00000000000E+00 -0.00000000000E+00 -0.45593999997E+02  0.45594000000E+02  0.51100000000E-03 0. -1.
    9900012    2    1    2    0    0 -0.10482358648E+02 -0.20914240926E+02 -0.21666419137E+02  0.59301968034E+02  0.50000043781E+02 0.  0.
        -12    1    1    2    0    0  0.10482358648E+02  0.20914240926E+02  0.21666419137E+02  0.31886031966E+02  0.00000000000E+00 0.  1.
         11    1    3    3    0    0 -0.18267257300E+01 -0.19628729644E+01  0.10902020851E+02  0.11226925495E+02  0.51100000000E-03 0. -1.
        -11    1    3    3    0    0 -0.23274372954E+01 -0.41809106380E+01  0.51780888060E+01  0.70505022566E+01  0.51100000000E-03 0.  1.
         12    1    3    3    0    0 -0.63281956227E+01 -0.14770457324E+02 -0.37746528794E+02  0.41024540282E+02  0.00000000000E+00 0. -1.
</event>
<event>
 7    1  0.1344618E-011  0.5930194E+02  0.7816164E-02  0.1266605E+00
        -11   -1    0    0    0    0  0.00000000000E+00  0.00000000000E+00  0.45593999997E+02  0.45594000000E+02  0.51100000000E-03 0. -1.
         11   -1    0    0    0    0 -0.00000000000E+00 -0.00000000000E+00 -0.45593999997E+02  0.45594000000E+02  0.51100000000E-03 0.  1.
    9900012    2    1    2    0    0 -0.24333681120E+02  0.14219067577E+02 -0.14913446148E+02  0.59301940419E+02  0.49999993418E+02 0.  0.
        -12    1    1    2    0    0  0.24333681120E+02 -0.14219067577E+02  0.14913446148E+02  0.31886059581E+02  0.00000000000E+00 0.  1.
         11    1    3    3    0    0 -0.15995973135E+02 -0.73599510875E+01  0.33659059851E+00  0.17611170603E+02  0.51100000000E-03 0. -1.
        -11    1    3    3    0    0 -0.15339890635E+02  0.13917162578E+01  0.62962652905E-01  0.15403021891E+02  0.51100000000E-03 0.  1.
        -12    1    3    3    0    0  0.70021826488E+01  0.20187302407E+02 -0.15312999399E+02  0.26287747924E+02  0.00000000000E+00 0.  1.
</event>
<event>
 7    1  0.1344618E-011  0.5930196E+02  0.7816164E-02  0.1266605E+00
        -11   -1    0    0    0    0  0.00000000000E+00  0.00000000000E+00  0.45593999997E+02  0.45594000000E+02  0.51100000000E-03 0.  1.
         11   -1    0    0    0    0 -0.00000000000E+00 -0.00000000000E+00 -0.45593999997E+02  0.45594000000E+02  0.51100000000E-03 0. -1.
    9900012    2    1    2    0    0  0.61176592114E+01  0.20983096090E+02 -0.23216443645E+02  0.59301963381E+02  0.50000035296E+02 0.  0.
        -12    1    1    2    0    0 -0.61176592114E+01 -0.20983096090E+02  0.23216443645E+02  0.31886036619E+02  0.00000000000E+00 0.  1.
         11    1    3    3    0    0 -0.12549844893E+02  0.22064506757E+02 -0.15046305348E+02  0.29508174633E+02  0.51100000000E-03 0. -1.
        -11    1    3    3    0    0 -0.53648130156E-01  0.44686436526E+01  0.46385638092E+01  0.64411123798E+01  0.51100000000E-03 0.  1.
         12    1    3    3    0    0  0.18721152235E+02 -0.55500543191E+01 -0.12808702106E+02  0.23352676368E+02  0.00000000000E+00 0. -1.
</event>
<event>
 7    1  0.1344618E-011  0.5930195E+02  0.7816164E-02  0.1266605E+00
        -11   -1    0    0    0    0  0.00000000000E+00  0.00000000000E+00  0.45593999997E+02  0.45594000000E+02  0.51100000000E-03 0.  1.
         11   -1    0    0    0    0 -0.00000000000E+00 -0.00000000000E+00 -0.45593999997E+02  0.45594000000E+02  0.51100000000E-03 0. -1.
    9900012    2    1    2    0    0 -0.10913224239E+02 -0.13528938885E+02 -0.26731812743E+02  0.59301945632E+02  0.50000002926E+02 0.  0.
        -12    1    1    2    0    0  0.10913224239E+02  0.13528938885E+02  0.26731812743E+02  0.31886054368E+02  0.00000000000E+00 0.  1.
         11    1    3    3    0    0 -0.11553977498E+02  0.34870387379E+01  0.28786782631E+01  0.12407281087E+02  0.51100000000E-03 0. -1.
        -11    1    3    3    0    0 -0.95297539717E+01 -0.20192296673E+02 -0.97656629431E+01  0.24370335013E+02  0.51100000000E-03 0.  1.
        -12    1    3    3    0    0  0.10170507230E+02  0.31763190500E+01 -0.19844828063E+02  0.22524329532E+02  0.00000000000E+00 0.  1.
</event>
<event>
 7    1  0.1344618E-011  0.5930194E+02  0.7816164E-02  0.1266605E+00
        -11   -1    0    0    0    0  0.00000000000E+00  0.00000000000E+00  0.45593999997E+02  0.45594000000E+02  0.51100000000E-03 0. -1.
         11   -1    0    0    0    0 -0.00000000000E+00 -0.00000000000E+00 -0.45593999997E+02  0.45594000000E+02  0.51100000000E-03 0.  1.
    9900012    2    1    2    0    0  0.67403018329E+01 -0.26035104405E+02  0.17130750966E+02  0.59301937860E+02  0.49999988751E+02 0.  0.
        -12    1    1    2    0    0 -0.67403018329E+01  0.26035104405E+02 -0.17130750966E+02  0.31886062140E+02  0.00000000000E+00 0.  1.
         11    1    3    3    0    0  0.91498542615E+01 -0.17855007363E+02 -0.82543973334E+00  0.20079902189E+02  0.51100000000E-03 0. -1.
        -11    1    3    3    0    0 -0.98439220547E+01  0.56863487634E+01 -0.41382320368E+01  0.12098029936E+02  0.51100000000E-03 0.  1.
         12    1    3    3    0    0  0.74343696261E+01 -0.13866445805E+02  0.22094422736E+02  0.27124005734E+02  0.00000000000E+00 0. -1.
</event>
<event>
 7    1  0.1344618E-011  0.5930207E+02  0.7816164E-02  0.1266604E+00
        -11   -1    0    0    0    0  0.00000000000E+00  0.00000000000E+00  0.45593999997E+02  0.45594000000E+02  0.51100000000E-03 0.  1.
         11   -1    0    0    0    0 -0.00000000000E+00 -0.00000000000E+00 -0.45593999997E+02  0.45594000000E+02  0.51100000000E-03 0. -1.
    9900012    2    1    2    0    0 -0.28041432660E+02  0.94157846473E+01 -0.11905187253E+02  0.59302071604E+02  0.50000232667E+02 0.  0.
        -12    1    1    2    0    0  0.28041432660E+02 -0.94157846473E+01  0.11905187253E+02  0.31885928396E+02  0.00000000000E+00 0.  1.
         11    1    3    3    0    0 -0.98218460188E+01  0.20763412119E+02  0.26992629165E+01  0.23127342316E+02  0.51100000000E-03 0. -1.
        -11    1    3    3    0    0  0.57069030945E+00 -0.10131015198E+02  0.28076731952E+01  0.10528351505E+02  0.51100000000E-03 0.  1.
         12    1    3    3    0    0 -0.18790276951E+02 -0.12166122739E+01 -0.17412123365E+02  0.25646377783E+02  0.00000000000E+00 0. -1.
</event>
<event>
 7    1  0.1344618E-011  0.5930195E+02  0.7816164E-02  0.1266605E+00
        -11   -1    0    0    0    0  0.00000000000E+00  0.00000000000E+00  0.45593999997E+02  0.45594000000E+02  0.51100000000E-03 0. -1.
         11   -1    0    0    0    0 -0.00000000000E+00 -0.00000000000E+00 -0.45593999997E+02  0.45594000000E+02  0.51100000000E-03 0.  1.
    9900012    2    1    2    0    0  0.14791628685E+02 -0.25993651677E+02  0.11057037775E+02  0.59301948331E+02  0.50000007849E+02 0.  0.
        -12    1    1    2    0    0 -0.14791628685E+02  0.25993651677E+02 -0.11057037775E+02  0.31886051669E+02  0.00000000000E+00 0.  1.
         11    1    3    3    0    0  0.49577141839E+01 -0.20936973538E+02  0.22033829302E+02  0.30796516440E+02  0.51100000000E-03 0. -1.
        -11    1    3    3    0    0 -0.51218636588E+01 -0.62469856278E+01  0.23764732662E+01  0.84205666210E+01  0.51100000000E-03 0.  1.
        -12    1    3    3    0    0  0.14955778160E+02  0.11903074889E+01 -0.13353264793E+02  0.20084865270E+02  0.00000000000E+00 0.  1.
</event>
<event>
 7    1  0.1344618E-011  0.5930199E+02  0.7816164E-02  0.1266605E+00
        -11   -1    0    0    0    0  0.00000000000E+00  0.00000000000E+00  0.45593999997E+02  0.45594000000E+02  0.51100000000E-03 0. -1.
         11   -1    0    0    0    0 -0.00000000000E+00 -0.00000000000E+00 -0.45593999997E+02  0.45594000000E+02  0.51100000000E-03 0.  1.
    9900012    2    1    2    0    0  0.22719311155E+02  0.10799197929E+02  0.19594071937E+02  0.59301993189E+02  0.50000089659E+02 0.  0.
        -12    1    1    2    0    0 -0.22719311155E+02 -0.10799197929E+02 -0.19594071937E+02  0.31886006811E+02  0.00000000000E+00 0.  1.
         11    1    3    3    0    0 -0.11091523277E+01 -0.53911750428E+01  0.10307857711E+02  0.11685329182E+02  0.51100000000E-03 0. -1.
        -11    1    3    3    0    0  0.24806438020E+02 -0.90610864454E+00 -0.49927874496E+01  0.25320117039E+02  0.51100000000E-03 0.  1.
        -12    1    3    3    0    0 -0.97797453718E+00  0.17096481616E+02  0.14279001675E+02  0.22296546968E+02  0.00000000000E+00 0.  1.
</event>
<event>
 7    1  0.1344618E-011  0.5930192E+02  0.7816164E-02  0.1266605E+00
        -11   -1    0    0    0    0  0.00000000000E+00  0.00000000000E+00  0.45593999997E+02  0.45594000000E+02  0.51100000000E-03 0.  1.
         11   -1    0    0    0    0 -0.00000000000E+00 -0.00000000000E+00 -0.45593999997E+02  0.45594000000E+02  0.51100000000E-03 0. -1.
    9900012    2    1    2    0    0 -0.25748303993E+02  0.30473047965E+01 -0.18559650576E+02  0.59301923814E+02  0.49999963135E+02 0.  0.
        -12    1    1    2    0    0  0.25748303993E+02 -0.30473047965E+01  0.18559650576E+02  0.31886076186E+02  0.00000000000E+00 0.  1.
         11    1    3    3    0    0 -0.81679771900E+01 -0.19339672172E+01  0.13760310601E+02  0.16118381701E+02  0.51100000000E-03 0. -1.
        -11    1    3    3    0    0 -0.11145359624E+02  0.32183129763E+01 -0.15562724907E+01  0.11704638562E+02  0.51100000000E-03 0.  1.
         12    1    3    3    0    0 -0.64349671797E+01  0.17629590374E+01 -0.30763688686E+02  0.31478903550E+02  0.00000000000E+00 0. -1.
</event>
<event>
 7    1  0.1344618E-011  0.5930194E+02  0.7816164E-02  0.1266605E+00
        -11   -1    0    0    0    0  0.00000000000E+00  0.00000000000E+00  0.45593999997E+02  0.45594000000E+02  0.51100000000E-03 0.  1.
         11   -1    0    0    0    0 -0.00000000000E+00 -0.00000000000E+00 -0.45593999997E+02  0.45594000000E+02  0.51100000000E-03 0. -1.
    9900012    2    1    2    0    0 -0.13467357337E+02  0.15096325252E+01 -0.28862984835E+02  0.59301943524E+02  0.49999999081E+02 0.  0.
        -12    1    1    2    0    0  0.13467357337E+02 -0.15096325252E+01  0.28862984835E+02  0.31886056476E+02  0.00000000000E+00 0.  1.
         11    1    3    3    0    0 -0.64671291304E+01 -0.43673003758E+01  0.10495014593E+02  0.13078318062E+02  0.51100000000E-03 0. -1.
        -11    1    3    3    0    0 -0.36620124327E+01  0.67161278042E+01 -0.10037066075E+01  0.77151885885E+01  0.51100000000E-03 0.  1.
         12    1    3    3    0    0 -0.33382157736E+01 -0.83919490316E+00 -0.38354292821E+02  0.38508436873E+02  0.00000000000E+00 0. -1.
</event>
<event>
 7    1  0.1344618E-011  0.5930190E+02  0.7816164E-02  0.1266605E+00
        -11   -1    0    0    0    0  0.00000000000E+00  0.00000000000E+00  0.45593999997E+02  0.45594000000E+02  0.51100000000E-03 0. -1.
         11   -1    0    0    0    0 -0.00000000000E+00 -0.00000000000E+00 -0.45593999997E+02  0.45594000000E+02  0.51100000000E-03 0.  1.
    9900012    2    1    2    0    0 -0.40368714520E+01  0.29069667121E+02  0.12465223914E+02  0.59301895113E+02  0.49999910791E+02 0.  0.
        -12    1    1    2    0    0  0.40368714520E+01 -0.29069667121E+02 -0.12465223914E+02  0.31886104887E+02  0.00000000000E+00 0.  1.
         11    1    3    3    0    0  0.16430776926E+01  0.12188499084E+02  0.75433462774E+00  0.12321860055E+02  0.51100000000E-03 0. -1.
        -11    1    3    3    0    0  0.11689231722E+02 -0.83135771613E+01  0.71931742911E+01  0.16046665078E+02  0.51100000000E-03 0.  1.
         12    1    3    3    0    0 -0.17369180867E+02  0.25194745198E+02  0.45177149951E+01  0.30933369981E+02  0.00000000000E+00 0. -1.
</event>
<event>
 7    1  0.1344618E-011  0.5930194E+02  0.7816164E-02  0.1266605E+00
        -11   -1    0    0    0    0  0.00000000000E+00  0.00000000000E+00  0.45593999997E+02  0.45594000000E+02  0.51100000000E-03 0.  1.
         11   -1    0    0    0    0 -0.00000000000E+00 -0.00000000000E+00 -0.45593999997E+02  0.45594000000E+02  0.51100000000E-03 0. -1.
    9900012    2    1    2    0    0  0.27301655203E+02  0.15524126760E+02 -0.55083274233E+01  0.59301944121E+02  0.50000000170E+02 0.  0.
        -12    1    1    2    0    0 -0.27301655203E+02 -0.15524126760E+02  0.55083274233E+01  0.31886055879E+02  0.00000000000E+00 0.  1.
         11    1    3    3    0    0 -0.12931209203E+01 -0.18971512243E+00 -0.97908716683E+01  0.98777184526E+01  0.51100000000E-03 0. -1.
        -11    1    3    3    0    0 -0.38395908021E+01  0.10595731625E+02 -0.85746169164E+01  0.14161074879E+02  0.51100000000E-03 0.  1.
        -12    1    3    3    0    0  0.32434366926E+02  0.51181102574E+01  0.12857161161E+02  0.35263150790E+02  0.00000000000E+00 0.  1.
</event>
<event>
 7    1  0.1344618E-011  0.5930221E+02  0.7816164E-02  0.1266604E+00
        -11   -1    0    0    0    0  0.00000000000E+00  0.00000000000E+00  0.45593999997E+02  0.45594000000E+02  0.51100000000E-03 0.  1.
         11   -1    0    0    0    0 -0.00000000000E+00 -0.00000000000E+00 -0.45593999997E+02  0.45594000000E+02  0.51100000000E-03 0. -1.
    9900012    2    1    2    0    0 -0.26678000290E+02 -0.18796786181E+01 -0.17362449104E+02  0.59302211158E+02  0.50000487179E+02 0.  0.
        -12    1    1    2    0    0  0.26678000290E+02  0.18796786181E+01  0.17362449104E+02  0.31885788842E+02  0.00000000000E+00 0.  1.
         11    1    3    3    0    0 -0.10880184919E+02  0.14091130297E+02 -0.14355067696E+02  0.22869331992E+02  0.51100000000E-03 0. -1.
        -11    1    3    3    0    0 -0.94905460483E+01  0.74399863729E+01 -0.12475097722E+01  0.12123536712E+02  0.51100000000E-03 0.  1.
        -12    1    3    3    0    0 -0.63072693226E+01 -0.23410795288E+02 -0.17598716358E+01  0.24309342453E+02  0.00000000000E+00 0.  1.
</event>
<event>
 7    1  0.1344618E-011  0.5930195E+02  0.7816164E-02  0.1266605E+00
        -11   -1    0    0    0    0  0.00000000000E+00  0.00000000000E+00  0.45593999997E+02  0.45594000000E+02  0.51100000000E-03 0. -1.
         11   -1    0    0    0    0 -0.00000000000E+00 -0.00000000000E+00 -0.45593999997E+02  0.45594000000E+02  0.51100000000E-03 0.  1.
    9900012    2    1    2    0    0  0.72044404960E+01 -0.27895757271E+02  0.13661723492E+02  0.59301954065E+02  0.50000018306E+02 0.  0.
        -12    1    1    2    0    0 -0.72044404960E+01  0.27895757271E+02 -0.13661723492E+02  0.31886045935E+02  0.00000000000E+00 0.  1.
         11    1    3    3    0    0  0.34908530951E+01 -0.32363306553E+01  0.17932367015E+02  0.18553427674E+02  0.51100000000E-03 0. -1.
        -11    1    3    3    0    0 -0.12452303355E+02 -0.31192963475E+01  0.22646835996E+01  0.13035285214E+02  0.51100000000E-03 0.  1.
        -12    1    3    3    0    0  0.16165890756E+02 -0.21540130269E+02 -0.65353271225E+01  0.27713241177E+02  0.00000000000E+00 0.  1.
</event>
<event>
 7    1  0.1344618E-011  0.5930193E+02  0.7816164E-02  0.1266605E+00
        -11   -1    0    0    0    0  0.00000000000E+00  0.00000000000E+00  0.45593999997E+02  0.45594000000E+02  0.51100000000E-03 0. -1.
         11   -1    0    0    0    0 -0.00000000000E+00 -0.00000000000E+00 -0.45593999997E+02  0.45594000000E+02  0.51100000000E-03 0.  1.
    9900012    2    1    2    0    0 -0.91919893779E+01  0.20326263557E+02  0.22783143050E+02  0.59301933040E+02  0.49999979962E+02 0.  0.
        -12    1    1    2    0    0  0.91919893779E+01 -0.20326263557E+02 -0.22783143050E+02  0.31886066960E+02  0.00000000000E+00 0.  1.
         11    1    3    3    0    0 -0.69991350221E+01  0.19526876944E+02  0.99527523457E+01  0.23007479083E+02  0.51100000000E-03 0. -1.
        -11    1    3    3    0    0  0.58959982200E+01  0.14807564142E+02  0.12260817799E+02  0.20108565444E+02  0.51100000000E-03 0.  1.
        -12    1    3    3    0    0 -0.80888525759E+01 -0.14008177529E+02  0.56957290510E+00  0.16185888514E+02  0.00000000000E+00 0.  1.
</event>
<event>
 7    1  0.1344618E-011  0.5930195E+02  0.7816164E-02  0.1266605E+00
        -11   -1    0    0    0    0  0.00000000000E+00  0.00000000000E+00  0.45593999997E+02  0.45594000000E+02  0.51100000000E-03 0. -1.
         11   -1    0    0    0    0 -0.00000000000E+00 -0.00000000000E+00 -0.45593999997E+02  0.45594000000E+02  0.51100000000E-03 0.  1.
    9900012    2    1    2    0    0 -0.96610335949E+01  0.65121257609E+01  0.29681258434E+02  0.59301945772E+02  0.50000003181E+02 0.  0.
        -12    1    1    2    0    0  0.96610335949E+01 -0.65121257609E+01 -0.29681258434E+02  0.31886054228E+02  0.00000000000E+00 0.  1.
         11    1    3    3    0    0 -0.11701720066E+00  0.62225594195E+01 -0.68739918321E+01  0.92728476060E+01  0.51100000000E-03 0. -1.
        -11    1    3    3    0    0 -0.74861696505E+01  0.83718186795E+01 -0.12635295789E+01  0.11301618968E+02  0.51100000000E-03 0.  1.
         12    1    3    3    0    0 -0.20578467437E+01 -0.80822523381E+01  0.37818779845E+02  0.38727479198E+02  0.00000000000E+00 0. -1.
</event>
<event>
 7    1  0.1344618E-011  0.5930178E+02  0.7816164E-02  0.1266605E+00
        -11   -1    0    0    0    0  0.00000000000E+00  0.00000000000E+00  0.45593999997E+02  0.45594000000E+02  0.51100000000E-03 0.  1.
         11   -1    0    0    0    0 -0.00000000000E+00 -0.00000000000E+00 -0.45593999997E+02  0.45594000000E+02  0.51100000000E-03 0. -1.
    9900012    2    1    2    0    0  0.12281014152E+02  0.68280090593E+01 -0.28623167896E+02  0.59301784221E+02  0.49999708549E+02 0.  0.
        -12    1    1    2    0    0 -0.12281014152E+02 -0.68280090593E+01  0.28623167896E+02  0.31886215779E+02  0.00000000000E+00 0.  1.
         11    1    3    3    0    0  0.10409115978E+02  0.10726687393E+01  0.22675988904E+01  0.10707115329E+02  0.51100000000E-03 0. -1.
        -11    1    3    3    0    0 -0.90091359404E+01  0.96335085257E+01  0.23558204634E+01  0.13398466600E+02  0.51100000000E-03 0.  1.
         12    1    3    3    0    0  0.10881034114E+02 -0.38781682058E+01 -0.33246587250E+02  0.35196202292E+02  0.00000000000E+00 0. -1.
</event>
<event>
 7    1  0.1344618E-011  0.5930199E+02  0.7816164E-02  0.1266605E+00
        -11   -1    0    0    0    0  0.00000000000E+00  0.00000000000E+00  0.45593999997E+02  0.45594000000E+02  0.51100000000E-03 0.  1.
         11   -1    0    0    0    0 -0.00000000000E+00 -0.00000000000E+00 -0.45593999997E+02  0.45594000000E+02  0.51100000000E-03 0. -1.
    9900012    2    1    2    0    0  0.54924140536E+00  0.38678559633E+01 -0.31645785805E+02  0.59301988410E+02  0.50000080942E+02 0.  0.
        -12    1    1    2    0    0 -0.54924140536E+00 -0.38678559633E+01  0.31645785805E+02  0.31886011590E+02  0.00000000000E+00 0.  1.
         11    1    3    3    0    0 -0.12170415671E+01 -0.43699963482E+01 -0.61167778348E+01  0.76153154630E+01  0.51100000000E-03 0. -1.
        -11    1    3    3    0    0  0.37291738334E+01 -0.10560060147E+02 -0.30207015289E+02  0.32216228530E+02  0.51100000000E-03 0.  1.
        -12    1    3    3    0    0 -0.19628908609E+01  0.18797912458E+02  0.46780073180E+01  0.19470444417E+02  0.00000000000E+00 0.  1.
</event>
<event>
 7    1  0.1344618E-011  0.5930194E+02  0.7816164E-02  0.1266605E+00
        -11   -1    0    0    0    0  0.00000000000E+00  0.00000000000E+00  0.45593999997E+02  0.45594000000E+02  0.51100000000E-03 0.  1.
         11   -1    0    0    0    0 -0.00000000000E+00 -0.00000000000E+00 -0.45593999997E+02  0.45594000000E+02  0.51100000000E-03 0. -1.
    9900012    2    1    2    0    0 -0.26389789910E+02 -0.11081546134E+02 -0.14053448994E+02  0.59301935570E+02  0.49999984575E+02 0.  0.
        -12    1    1    2    0    0  0.26389789910E+02  0.11081546134E+02  0.14053448994E+02  0.31886064430E+02  0.00000000000E+00 0.  1.
         11    1    3    3    0    0 -0.10383361832E+02  0.87989722744E+01 -0.21715158597E+01  0.13782292894E+02  0.51100000000E-03 0. -1.
        -11    1    3    3    0    0 -0.24772585444E+02 -0.31132346433E+01 -0.56451409142E+01  0.25597672467E+02  0.51100000000E-03 0.  1.
        -12    1    3    3    0    0  0.87661573660E+01 -0.16767283765E+02 -0.62367922197E+01  0.19921970209E+02  0.00000000000E+00 0.  1.
</event>
<event>
 7    1  0.1344618E-011  0.5930196E+02  0.7816164E-02  0.1266605E+00
        -11   -1    0    0    0    0  0.00000000000E+00  0.00000000000E+00  0.45593999997E+02  0.45594000000E+02  0.51100000000E-03 0. -1.
         11   -1    0    0    0    0 -0.00000000000E+00 -0.00000000000E+00 -0.45593999997E+02  0.45594000000E+02  0.51100000000E-03 0.  1.
    9900012    2    1    2    0    0  0.93611210336E+01  0.26150449668E+02  0.15660224508E+02  0.59301964868E+02  0.50000038007E+02 0.  0.
        -12    1    1    2    0    0 -0.93611210336E+01 -0.26150449668E+02 -0.15660224508E+02  0.31886035132E+02  0.00000000000E+00 0.  1.
         11    1    3    3    0    0  0.39472620642E+01  0.18314426741E+02  0.44664785911E+01  0.19260024297E+02  0.51100000000E-03 0. -1.
        -11    1    3    3    0    0  0.16823608255E+02  0.10448017193E+02  0.17777323740E+02  0.26612555263E+02  0.51100000000E-03 0.  1.
        -12    1    3    3    0    0 -0.11409749285E+02 -0.26119942665E+01 -0.65835778237E+01  0.13429385308E+02  0.00000000000E+00 0.  1.
</event>
<event>
 7    1  0.1344618E-011  0.5930194E+02  0.7816164E-02  0.1266605E+00
        -11   -1    0    0    0    0  0.00000000000E+00  0.00000000000E+00  0.45593999997E+02  0.45594000000E+02  0.51100000000E-03 0.  1.
         11   -1    0    0    0    0 -0.00000000000E+00 -0.00000000000E+00 -0.45593999997E+02  0.45594000000E+02  0.51100000000E-03 0. -1.
    9900012    2    1    2    0    0 -0.14918863031E+02 -0.89192846499E+01 -0.26731909521E+02  0.59301935655E+02  0.49999984730E+02 0.  0.
        -12    1    1    2    0    0  0.14918863031E+02  0.89192846499E+01  0.26731909521E+02  0.31886064345E+02  0.00000000000E+00 0.  1.
         11    1    3    3    0    0 -0.47401390455E+00 -0.11258502791E+02 -0.12861836079E+02  0.17099865551E+02  0.51100000000E-03 0. -1.
        -11    1    3    3    0    0  0.80285760628E+01 -0.35784395424E+00  0.75588116506E+01  0.11032756669E+02  0.51100000000E-03 0.  1.
         12    1    3    3    0    0 -0.22473425189E+02  0.26970620956E+01 -0.21428885092E+02  0.31169313434E+02  0.00000000000E+00 0. -1.
</event>
<event>
 7    1  0.1344618E-011  0.5930195E+02  0.7816164E-02  0.1266605E+00
        -11   -1    0    0    0    0  0.00000000000E+00  0.00000000000E+00  0.45593999997E+02  0.45594000000E+02  0.51100000000E-03 0. -1.
         11   -1    0    0    0    0 -0.00000000000E+00 -0.00000000000E+00 -0.45593999997E+02  0.45594000000E+02  0.51100000000E-03 0.  1.
    9900012    2    1    2    0    0 -0.29103881478E+02  0.20610393201E+01 -0.12862217767E+02  0.59301945900E+02  0.50000003415E+02 0.  0.
        -12    1    1    2    0    0  0.29103881478E+02 -0.20610393201E+01  0.12862217767E+02  0.31886054100E+02  0.00000000000E+00 0.  1.
         11    1    3    3    0    0 -0.45497126580E+01  0.82712155842E+01  0.69448002926E+00  0.94654738541E+01  0.51100000000E-03 0.  1.
        -11    1    3    3    0    0 -0.34321156638E+02 -0.71690109934E+00 -0.16732368772E+02  0.38189369007E+02  0.51100000000E-03 0. -1.
        -12    1    3    3    0    0  0.97669878174E+01 -0.54932751648E+01  0.31756709761E+01  0.11647103039E+02  0.00000000000E+00 0.  1.
</event>
<event>
 7    1  0.1344618E-011  0.5930193E+02  0.7816164E-02  0.1266605E+00
        -11   -1    0    0    0    0  0.00000000000E+00  0.00000000000E+00  0.45593999997E+02  0.45594000000E+02  0.51100000000E-03 0. -1.
         11   -1    0    0    0    0 -0.00000000000E+00 -0.00000000000E+00 -0.45593999997E+02  0.45594000000E+02  0.51100000000E-03 0.  1.
    9900012    2    1    2    0    0 -0.38417101064E+01 -0.31255803388E+02  0.50037699437E+01  0.59301926306E+02  0.49999967680E+02 0.  0.
        -12    1    1    2    0    0  0.38417101064E+01  0.31255803388E+02 -0.50037699437E+01  0.31886073694E+02  0.00000000000E+00 0.  1.
         11    1    3    3    0    0 -0.34856252923E+01 -0.15037555815E+02  0.41814843800E+01  0.15992575792E+02  0.51100000000E-03 0. -1.
        -11    1    3    3    0    0 -0.18621744705E+02 -0.15558033571E+02 -0.35290806885E+01  0.24520933816E+02  0.51100000000E-03 0.  1.
        -12    1    3    3    0    0  0.18265659891E+02 -0.66021400121E+00  0.43513662522E+01  0.18788416698E+02  0.00000000000E+00 0.  1.
</event>
<event>
 7    1  0.1344618E-011  0.5930194E+02  0.7816164E-02  0.1266605E+00
        -11   -1    0    0    0    0  0.00000000000E+00  0.00000000000E+00  0.45593999997E+02  0.45594000000E+02  0.51100000000E-03 0.  1.
         11   -1    0    0    0    0 -0.00000000000E+00 -0.00000000000E+00 -0.45593999997E+02  0.45594000000E+02  0.51100000000E-03 0. -1.
    9900012    2    1    2    0    0  0.95042540312E+01 -0.18455068973E+00 -0.30436090874E+02  0.59301944563E+02  0.50000000975E+02 0.  0.
        -12    1    1    2    0    0 -0.95042540312E+01  0.18455068973E+00  0.30436090874E+02  0.31886055437E+02  0.00000000000E+00 0.  1.
         11    1    3    3    0    0 -0.43634808343E+01  0.35051317647E+01  0.36252343408E+01  0.66684509421E+01  0.51100000000E-03 0. -1.
        -11    1    3    3    0    0  0.15442648261E+02 -0.18114845203E+02 -0.13191445428E+02  0.27214651105E+02  0.51100000000E-03 0.  1.
         12    1    3    3    0    0 -0.15749133951E+01  0.14425162748E+02 -0.20869879787E+02  0.25418842516E+02  0.00000000000E+00 0. -1.
</event>
<event>
 7    1  0.1344618E-011  0.5930200E+02  0.7816164E-02  0.1266605E+00
        -11   -1    0    0    0    0  0.00000000000E+00  0.00000000000E+00  0.45593999997E+02  0.45594000000E+02  0.51100000000E-03 0.  1.
         11   -1    0    0    0    0 -0.00000000000E+00 -0.00000000000E+00 -0.45593999997E+02  0.45594000000E+02  0.51100000000E-03 0. -1.
    9900012    2    1    2    0    0  0.29785539174E+02 -0.10426349164E+02 -0.45639595430E+01  0.59302002642E+02  0.50000106899E+02 0.  0.
        -12    1    1    2    0    0 -0.29785539174E+02  0.10426349164E+02  0.45639595430E+01  0.31885997358E+02  0.00000000000E+00 0.  1.
         11    1    3    3    0    0 -0.32501178332E+00  0.94921798777E+01  0.32548761827E+01  0.10039986589E+02  0.51100000000E-03 0.  1.
        -11    1    3    3    0    0  0.12051751557E+02 -0.25812400023E+02  0.57695549052E+00  0.28493114755E+02  0.51100000000E-03 0. -1.
        -12    1    3    3    0    0  0.18058799401E+02  0.58938709822E+01 -0.83957912163E+01  0.20768901298E+02  0.00000000000E+00 0.  1.
</event>
<event>
 7    1  0.1344618E-011  0.5930195E+02  0.7816164E-02  0.1266605E+00
        -11   -1    0    0    0    0  0.00000000000E+00  0.00000000000E+00  0.45593999997E+02  0.45594000000E+02  0.51100000000E-03 0. -1.
         11   -1    0    0    0    0 -0.00000000000E+00 -0.00000000000E+00 -0.45593999997E+02  0.45594000000E+02  0.51100000000E-03 0.  1.
    9900012    2    1    2    0    0  0.40081177612E+01 -0.23454976932E+02  0.21225444181E+02  0.59301946128E+02  0.50000003830E+02 0.  0.
        -12    1    1    2    0    0 -0.40081177612E+01  0.23454976932E+02 -0.21225444181E+02  0.31886053872E+02  0.00000000000E+00 0.  1.
         11    1    3    3    0    0  0.17503431781E+02 -0.52141020239E+01  0.16689259948E+02  0.24740420003E+02  0.51100000000E-03 0. -1.
        -11    1    3    3    0    0 -0.71730586294E+01 -0.18556460001E+02  0.13167743325E+02  0.23857586684E+02  0.51100000000E-03 0.  1.
        -12    1    3    3    0    0 -0.63222553906E+01  0.31558509274E+00 -0.86315590925E+01  0.10703939440E+02  0.00000000000E+00 0.  1.
</event>
<event>
 7    1  0.1344618E-011  0.5930194E+02  0.7816164E-02  0.1266605E+00
        -11   -1    0    0    0    0  0.00000000000E+00  0.00000000000E+00  0.45593999997E+02  0.45594000000E+02  0.51100000000E-03 0. -1.
         11   -1    0    0    0    0 -0.00000000000E+00 -0.00000000000E+00 -0.45593999997E+02  0.45594000000E+02  0.51100000000E-03 0.  1.
    9900012    2    1    2    0    0 -0.10280202943E+02  0.19220775980E+02  0.23272298922E+02  0.59301941934E+02  0.49999996182E+02 0.  0.
        -12    1    1    2    0    0  0.10280202943E+02 -0.19220775980E+02 -0.23272298922E+02  0.31886058066E+02  0.00000000000E+00 0.  1.
         11    1    3    3    0    0 -0.76434596699E+00 -0.63192443399E+01 -0.49714286908E+01  0.80766439363E+01  0.51100000000E-03 0. -1.
        -11    1    3    3    0    0 -0.51824267350E+01  0.20249266089E+02 -0.12594707584E+01  0.20939832637E+02  0.51100000000E-03 0.  1.
         12    1    3    3    0    0 -0.43334302407E+01  0.52907542313E+01  0.29503198372E+02  0.30285465361E+02  0.00000000000E+00 0. -1.
</event>
<event>
 7    1  0.1344618E-011  0.5930192E+02  0.7816164E-02  0.1266605E+00
        -11   -1    0    0    0    0  0.00000000000E+00  0.00000000000E+00  0.45593999997E+02  0.45594000000E+02  0.51100000000E-03 0.  1.
         11   -1    0    0    0    0 -0.00000000000E+00 -0.00000000000E+00 -0.45593999997E+02  0.45594000000E+02  0.51100000000E-03 0. -1.
    9900012    2    1    2    0    0  0.17080322959E+02 -0.68382148607E+01 -0.26042727949E+02  0.59301916925E+02  0.49999950572E+02 0.  0.
        -12    1    1    2    0    0 -0.17080322959E+02  0.68382148607E+01  0.26042727949E+02  0.31886083075E+02  0.00000000000E+00 0.  1.
         11    1    3    3    0    0  0.26568256885E+02  0.18121556931E+01 -0.12313213344E+02  0.29338906000E+02  0.51100000000E-03 0. -1.
        -11    1    3    3    0    0  0.45891376469E+00 -0.13706936442E+02 -0.12810338990E+02  0.18766872242E+02  0.51100000000E-03 0.  1.
        -12    1    3    3    0    0 -0.99468476917E+01  0.50565658884E+01 -0.91917561522E+00  0.11196138682E+02  0.00000000000E+00 0.  1.
</event>
<event>
 7    1  0.1427488E-011  0.5930195E+02  0.7816164E-02  0.1266605E+00
        -11   -1    0    0    0    0  0.00000000000E+00  0.00000000000E+00  0.45593999997E+02  0.45594000000E+02  0.51100000000E-03 0. -1.
         11   -1    0    0    0    0 -0.00000000000E+00 -0.00000000000E+00 -0.45593999997E+02  0.45594000000E+02  0.51100000000E-03 0.  1.
    9900012    2    1    2    0    0  0.10594977514E+02 -0.18104054571E+02  0.24014778422E+02  0.59301954100E+02  0.50000018370E+02 0.  0.
        -12    1    1    2    0    0 -0.10594977514E+02  0.18104054571E+02 -0.24014778422E+02  0.31886045900E+02  0.00000000000E+00 0.  1.
         11    1    3    3    0    0  0.91133493891E+01  0.47397247579E+00  0.24253561722E+02  0.25913568713E+02  0.51100000000E-03 0. -1.
        -11    1    3    3    0    0 -0.36999977585E+01 -0.19216967815E+02  0.99393629375E+01  0.21949322798E+02  0.51100000000E-03 0.  1.
        -12    1    3    3    0    0  0.51816258834E+01  0.63894076871E+00 -0.10178146237E+02  0.11439062589E+02  0.00000000000E+00 0.  1.
</event>
<event>
 7    1  0.1344618E-011  0.5930194E+02  0.7816164E-02  0.1266605E+00
        -11   -1    0    0    0    0  0.00000000000E+00  0.00000000000E+00  0.45593999997E+02  0.45594000000E+02  0.51100000000E-03 0.  1.
         11   -1    0    0    0    0 -0.00000000000E+00 -0.00000000000E+00 -0.45593999997E+02  0.45594000000E+02  0.51100000000E-03 0. -1.
    9900012    2    1    2    0    0  0.45776842564E+01 -0.22831195610E+01 -0.31473056060E+02  0.59301935868E+02  0.49999985118E+02 0.  0.
        -12    1    1    2    0    0 -0.45776842564E+01  0.22831195610E+01  0.31473056060E+02  0.31886064132E+02  0.00000000000E+00 0.  1.
         11    1    3    3    0    0 -0.17694418181E+01 -0.10636338035E+02 -0.19007098184E+01  0.10948758341E+02  0.51100000000E-03 0. -1.
        -11    1    3    3    0    0  0.17373408969E+02 -0.74123151207E+01 -0.12671816460E+02  0.22745388265E+02  0.51100000000E-03 0.  1.
         12    1    3    3    0    0 -0.11026282894E+02  0.15765533594E+02 -0.16900529782E+02  0.25607789262E+02  0.00000000000E+00 0. -1.
</event>
<event>
 7    1  0.1344618E-011  0.5930197E+02  0.7816164E-02  0.1266605E+00
        -11   -1    0    0    0    0  0.00000000000E+00  0.00000000000E+00  0.45593999997E+02  0.45594000000E+02  0.51100000000E-03 0.  1.
         11   -1    0    0    0    0 -0.00000000000E+00 -0.00000000000E+00 -0.45593999997E+02  0.45594000000E+02  0.51100000000E-03 0. -1.
    9900012    2    1    2    0    0  0.17355061046E+02 -0.27716978572E+01 -0.26605228425E+02  0.59301974339E+02  0.50000055280E+02 0.  0.
        -12    1    1    2    0    0 -0.17355061046E+02  0.27716978572E+01  0.26605228425E+02  0.31886025661E+02  0.00000000000E+00 0.  1.
         11    1    3    3    0    0  0.30834071421E+01  0.14568474343E+02 -0.11158525995E+01  0.14932949192E+02  0.51100000000E-03 0. -1.
        -11    1    3    3    0    0 -0.87692910847E+00  0.41738890665E+01  0.32809624895E+01  0.53809915182E+01  0.51100000000E-03 0.  1.
         12    1    3    3    0    0  0.15148583012E+02 -0.21514061267E+02 -0.28770338315E+02  0.38988033629E+02  0.00000000000E+00 0. -1.
</event>
<event>
 7    1  0.1344618E-011  0.5930191E+02  0.7816164E-02  0.1266605E+00
        -11   -1    0    0    0    0  0.00000000000E+00  0.00000000000E+00  0.45593999997E+02  0.45594000000E+02  0.51100000000E-03 0.  1.
         11   -1    0    0    0    0 -0.00000000000E+00 -0.00000000000E+00 -0.45593999997E+02  0.45594000000E+02  0.51100000000E-03 0. -1.
    9900012    2    1    2    0    0  0.23113410941E+02  0.93963190543E+01 -0.19854528209E+02  0.59301907930E+02  0.49999934166E+02 0.  0.
        -12    1    1    2    0    0 -0.23113410941E+02 -0.93963190543E+01  0.19854528209E+02  0.31886092070E+02  0.00000000000E+00 0.  1.
         11    1    3    3    0    0  0.55542798177E+01 -0.53517699501E+01 -0.11456355070E+02  0.13810848549E+02  0.51100000000E-03 0. -1.
        -11    1    3    3    0    0  0.25117089513E+02 -0.30102257966E+01 -0.63592959348E+01  0.26083908641E+02  0.51100000000E-03 0.  1.
         12    1    3    3    0    0 -0.75579583896E+01  0.17758314801E+02 -0.20388772043E+01  0.19407150740E+02  0.00000000000E+00 0. -1.
</event>
<event>
 7    1  0.1344618E-011  0.5930193E+02  0.7816164E-02  0.1266605E+00
        -11   -1    0    0    0    0  0.00000000000E+00  0.00000000000E+00  0.45593999997E+02  0.45594000000E+02  0.51100000000E-03 0.  1.
         11   -1    0    0    0    0 -0.00000000000E+00 -0.00000000000E+00 -0.45593999997E+02  0.45594000000E+02  0.51100000000E-03 0. -1.
    9900012    2    1    2    0    0  0.27517546882E+01  0.64618140847E+01 -0.31102960377E+02  0.59301931893E+02  0.49999977869E+02 0.  0.
        -12    1    1    2    0    0 -0.27517546882E+01 -0.64618140847E+01  0.31102960377E+02  0.31886068107E+02  0.00000000000E+00 0.  1.
         11    1    3    3    0    0  0.10775117726E+02  0.18788122502E+02 -0.17041323418E+02  0.27559089485E+02  0.51100000000E-03 0. -1.
        -11    1    3    3    0    0 -0.47968517415E+01 -0.16101704435E+01  0.65572848706E+01  0.82825370885E+01  0.51100000000E-03 0.  1.
        -12    1    3    3    0    0 -0.32265112968E+01 -0.10716137974E+02 -0.20618921830E+02  0.23460305319E+02  0.00000000000E+00 0.  1.
</event>
<event>
 7    1  0.1344618E-011  0.5930193E+02  0.7816164E-02  0.1266605E+00
        -11   -1    0    0    0    0  0.00000000000E+00  0.00000000000E+00  0.45593999997E+02  0.45594000000E+02  0.51100000000E-03 0.  1.
         11   -1    0    0    0    0 -0.00000000000E+00 -0.00000000000E+00 -0.45593999997E+02  0.45594000000E+02  0.51100000000E-03 0. -1.
    9900012    2    1    2    0    0  0.25188913885E+01 -0.97157461201E+01 -0.30265180498E+02  0.59301926440E+02  0.49999967924E+02 0.  0.
        -12    1    1    2    0    0 -0.25188913885E+01  0.97157461201E+01  0.30265180498E+02  0.31886073560E+02  0.00000000000E+00 0.  1.
         11    1    3    3    0    0  0.61134703428E+00  0.33963423226E+01  0.70608076813E+01  0.78590006835E+01  0.51100000000E-03 0. -1.
        -11    1    3    3    0    0 -0.10537552410E+02 -0.13902737855E+02 -0.72635206684E+01  0.18896689218E+02  0.51100000000E-03 0.  1.
         12    1    3    3    0    0  0.12445096764E+02  0.79064941226E+00 -0.30062467511E+02  0.32546236538E+02  0.00000000000E+00 0. -1.
</event>
<event>
 7    1  0.1344618E-011  0.5930193E+02  0.7816164E-02  0.1266605E+00
        -11   -1    0    0    0    0  0.00000000000E+00  0.00000000000E+00  0.45593999997E+02  0.45594000000E+02  0.51100000000E-03 0.  1.
         11   -1    0    0    0    0 -0.00000000000E+00 -0.00000000000E+00 -0.45593999997E+02  0.45594000000E+02  0.51100000000E-03 0. -1.
    9900012    2    1    2    0    0 -0.15799399990E+02  0.27604224566E+02  0.22599060255E+01  0.59301930484E+02  0.49999975299E+02 0.  0.
        -12    1    1    2    0    0  0.15799399990E+02 -0.27604224566E+02 -0.22599060255E+01  0.31886069516E+02  0.00000000000E+00 0.  1.
         11    1    3    3    0    0  0.15535679676E+00  0.14769570738E+02 -0.10545896565E+02  0.18148837157E+02  0.51100000000E-03 0. -1.
        -11    1    3    3    0    0 -0.91671852712E+01 -0.10532008938E+02  0.71235836503E+00  0.13980985400E+02  0.51100000000E-03 0.  1.
         12    1    3    3    0    0 -0.67875715159E+01  0.23366662766E+02  0.12093444226E+02  0.27172107926E+02  0.00000000000E+00 0. -1.
</event>
<event>
 7    1  0.1344618E-011  0.5930188E+02  0.7816164E-02  0.1266605E+00
        -11   -1    0    0    0    0  0.00000000000E+00  0.00000000000E+00  0.45593999997E+02  0.45594000000E+02  0.51100000000E-03 0.  1.
         11   -1    0    0    0    0 -0.00000000000E+00 -0.00000000000E+00 -0.45593999997E+02  0.45594000000E+02  0.51100000000E-03 0. -1.
    9900012    2    1    2    0    0 -0.11250291912E+02  0.17407879818E+00 -0.29834968002E+02  0.59301879395E+02  0.49999882126E+02 0.  0.
        -12    1    1    2    0    0  0.11250291912E+02 -0.17407879818E+00  0.29834968002E+02  0.31886120605E+02  0.00000000000E+00 0.  1.
         11    1    3    3    0    0  0.11120366592E+02 -0.30212884790E+01 -0.13599886732E+02  0.17825477738E+02  0.51100000000E-03 0. -1.
        -11    1    3    3    0    0 -0.17966754799E+01  0.95182227368E+01  0.52897112591E+01  0.11036559804E+02  0.51100000000E-03 0.  1.
         12    1    3    3    0    0 -0.20573983024E+02 -0.63228554596E+01 -0.21524792529E+02  0.30439841853E+02  0.00000000000E+00 0. -1.
</event>
<event>
 7    1  0.1344618E-011  0.5930194E+02  0.7816164E-02  0.1266605E+00
        -11   -1    0    0    0    0  0.00000000000E+00  0.00000000000E+00  0.45593999997E+02  0.45594000000E+02  0.51100000000E-03 0.  1.
         11   -1    0    0    0    0 -0.00000000000E+00 -0.00000000000E+00 -0.45593999997E+02  0.45594000000E+02  0.51100000000E-03 0. -1.
    9900012    2    1    2    0    0  0.22225038868E+02  0.99013720910E+01 -0.20609005760E+02  0.59301942853E+02  0.49999997858E+02 0.  0.
        -12    1    1    2    0    0 -0.22225038868E+02 -0.99013720910E+01  0.20609005760E+02  0.31886057147E+02  0.00000000000E+00 0.  1.
         11    1    3    3    0    0  0.54527051182E+01 -0.37113586199E+01  0.10566880106E+01  0.66800273745E+01  0.51100000000E-03 0. -1.
        -11    1    3    3    0    0  0.16346591510E+02  0.52611351344E+01  0.99991684973E+01  0.19871435977E+02  0.51100000000E-03 0.  1.
        -12    1    3    3    0    0  0.42574223943E+00  0.83515955765E+01 -0.31664862268E+02  0.32750479502E+02  0.00000000000E+00 0.  1.
</event>
<event>
 7    1  0.1344618E-011  0.5930194E+02  0.7816164E-02  0.1266605E+00
        -11   -1    0    0    0    0  0.00000000000E+00  0.00000000000E+00  0.45593999997E+02  0.45594000000E+02  0.51100000000E-03 0. -1.
         11   -1    0    0    0    0 -0.00000000000E+00 -0.00000000000E+00 -0.45593999997E+02  0.45594000000E+02  0.51100000000E-03 0.  1.
    9900012    2    1    2    0    0 -0.16104076245E+01  0.31734310855E+02  0.26571814783E+01  0.59301944873E+02  0.50000001542E+02 0.  0.
        -12    1    1    2    0    0  0.16104076245E+01 -0.31734310855E+02 -0.26571814783E+01  0.31886055127E+02  0.00000000000E+00 0.  1.
         11    1    3    3    0    0 -0.98556694199E+01  0.18539803596E+02  0.12197934333E+01  0.21032033506E+02  0.51100000000E-03 0. -1.
        -11    1    3    3    0    0  0.60783959745E+01  0.21540278698E+02 -0.95240187201E+01  0.24323598353E+02  0.51100000000E-03 0.  1.
         12    1    3    3    0    0  0.21668658209E+01 -0.83457714396E+01  0.10961406765E+02  0.13946313014E+02  0.00000000000E+00 0. -1.
</event>
<event>
 7    1  0.1344618E-011  0.5930195E+02  0.7816164E-02  0.1266605E+00
        -11   -1    0    0    0    0  0.00000000000E+00  0.00000000000E+00  0.45593999997E+02  0.45594000000E+02  0.51100000000E-03 0.  1.
         11   -1    0    0    0    0 -0.00000000000E+00 -0.00000000000E+00 -0.45593999997E+02  0.45594000000E+02  0.51100000000E-03 0. -1.
    9900012    2    1    2    0    0 -0.13265083751E+02 -0.19223308751E+02 -0.21707647808E+02  0.59301952587E+02  0.50000015611E+02 0.  0.
        -12    1    1    2    0    0  0.13265083751E+02  0.19223308751E+02  0.21707647808E+02  0.31886047413E+02  0.00000000000E+00 0.  1.
         11    1    3    3    0    0  0.87533957684E+01 -0.16785041172E+01 -0.72417294906E+01  0.11483987105E+02  0.51100000000E-03 0. -1.
        -11    1    3    3    0    0  0.55803112356E+01  0.64644885172E+01 -0.54897537731E+01  0.10152186071E+02  0.51100000000E-03 0.  1.
         12    1    3    3    0    0 -0.27598790755E+02 -0.24009293151E+02 -0.89761645446E+01  0.37665779411E+02  0.00000000000E+00 0. -1.
</event>
<event>
 7    1  0.1344618E-011  0.5930195E+02  0.7816164E-02  0.1266605E+00
        -11   -1    0    0    0    0  0.00000000000E+00  0.00000000000E+00  0.45593999997E+02  0.45594000000E+02  0.51100000000E-03 0.  1.
         11   -1    0    0    0    0 -0.00000000000E+00 -0.00000000000E+00 -0.45593999997E+02  0.45594000000E+02  0.51100000000E-03 0. -1.
    9900012    2    1    2    0    0  0.20996735108E+02  0.22580618728E+02  0.81223613154E+01  0.59301953198E+02  0.50000016725E+02 0.  0.
        -12    1    1    2    0    0 -0.20996735108E+02 -0.22580618728E+02 -0.81223613154E+01  0.31886046802E+02  0.00000000000E+00 0.  1.
         11    1    3    3    0    0 -0.64128048939E+01  0.26425409369E+01  0.18820813347E+02  0.20058168025E+02  0.51100000000E-03 0.  1.
        -11    1    3    3    0    0  0.42693408482E+00  0.36257327124E+01  0.31353033143E+01  0.48123110403E+01  0.51100000000E-03 0. -1.
         12    1    3    3    0    0  0.26982605917E+02  0.16312345078E+02 -0.13833755346E+02  0.34431474133E+02  0.00000000000E+00 0. -1.
</event>
<event>
 7    1  0.1344618E-011  0.5930195E+02  0.7816164E-02  0.1266605E+00
        -11   -1    0    0    0    0  0.00000000000E+00  0.00000000000E+00  0.45593999997E+02  0.45594000000E+02  0.51100000000E-03 0. -1.
         11   -1    0    0    0    0 -0.00000000000E+00 -0.00000000000E+00 -0.45593999997E+02  0.45594000000E+02  0.51100000000E-03 0.  1.
    9900012    2    1    2    0    0  0.18222260289E+02 -0.12740783054E+02  0.22854806101E+02  0.59301945293E+02  0.50000002307E+02 0.  0.
        -12    1    1    2    0    0 -0.18222260289E+02  0.12740783054E+02 -0.22854806101E+02  0.31886054707E+02  0.00000000000E+00 0.  1.
         11    1    3    3    0    0 -0.35585915912E+01 -0.80452761700E+01  0.10190349173E+02  0.13462290270E+02  0.51100000000E-03 0.  1.
        -11    1    3    3    0    0  0.27930861478E+02 -0.13828938853E+02  0.32193434395E+01  0.31332678550E+02  0.51100000000E-03 0. -1.
         12    1    3    3    0    0 -0.61500095973E+01  0.91334319690E+01  0.94451134878E+01  0.14506976473E+02  0.00000000000E+00 0. -1.
</event>
<event>
 7    1  0.1344618E-011  0.5930202E+02  0.7816164E-02  0.1266604E+00
        -11   -1    0    0    0    0  0.00000000000E+00  0.00000000000E+00  0.45593999997E+02  0.45594000000E+02  0.51100000000E-03 0. -1.
         11   -1    0    0    0    0 -0.00000000000E+00 -0.00000000000E+00 -0.45593999997E+02  0.45594000000E+02  0.51100000000E-03 0.  1.
    9900012    2    1    2    0    0  0.24285893844E+02 -0.12365148195E+02  0.16553364655E+02  0.59302024853E+02  0.50000147405E+02 0.  0.
        -12    1    1    2    0    0 -0.24285893844E+02  0.12365148195E+02 -0.16553364655E+02  0.31885975147E+02  0.00000000000E+00 0.  1.
         11    1    3    3    0    0 -0.36491611217E+01 -0.76276199377E+01 -0.31478071966E+01  0.90225081443E+01  0.51100000000E-03 0. -1.
        -11    1    3    3    0    0  0.28813048285E+02 -0.94989028595E+01  0.35898204315E+00  0.30340563202E+02  0.51100000000E-03 0.  1.
         12    1    3    3    0    0 -0.87799331938E+00  0.47613746023E+01  0.19342189808E+02  0.19938953507E+02  0.00000000000E+00 0. -1.
</event>
<event>
 7    1  0.1344618E-011  0.5930193E+02  0.7816164E-02  0.1266605E+00
        -11   -1    0    0    0    0  0.00000000000E+00  0.00000000000E+00  0.45593999997E+02  0.45594000000E+02  0.51100000000E-03 0.  1.
         11   -1    0    0    0    0 -0.00000000000E+00 -0.00000000000E+00 -0.45593999997E+02  0.45594000000E+02  0.51100000000E-03 0. -1.
    9900012    2    1    2    0    0  0.92211598218E+00  0.28095599941E+02 -0.15050188661E+02  0.59301933879E+02  0.49999981491E+02 0.  0.
        -12    1    1    2    0    0 -0.92211598218E+00 -0.28095599941E+02  0.15050188661E+02  0.31886066121E+02  0.00000000000E+00 0.  1.
         11    1    3    3    0    0 -0.62565720393E+01 -0.93360709103E+01 -0.76721560983E+01  0.13607677729E+02  0.51100000000E-03 0. -1.
        -11    1    3    3    0    0  0.99478712820E+00 -0.17077583118E+01  0.40055349649E+01  0.44665815226E+01  0.51100000000E-03 0.  1.
         12    1    3    3    0    0  0.61839008933E+01  0.39139429163E+02 -0.11383567528E+02  0.41227674627E+02  0.00000000000E+00 0. -1.
</event>
<event>
 7    1  0.1344618E-011  0.5930194E+02  0.7816164E-02  0.1266605E+00
        -11   -1    0    0    0    0  0.00000000000E+00  0.00000000000E+00  0.45593999997E+02  0.45594000000E+02  0.51100000000E-03 0. -1.
         11   -1    0    0    0    0 -0.00000000000E+00 -0.00000000000E+00 -0.45593999997E+02  0.45594000000E+02  0.51100000000E-03 0.  1.
    9900012    2    1    2    0    0 -0.26745513467E+02  0.17359547885E+02  0.21069800677E+00  0.59301940553E+02  0.49999993663E+02 0.  0.
        -12    1    1    2    0    0  0.26745513467E+02 -0.17359547885E+02 -0.21069800677E+00  0.31886059447E+02  0.00000000000E+00 0.  1.
         11    1    3    3    0    0 -0.13309471947E+02  0.65278095209E+01  0.24494256342E+01  0.15025113206E+02  0.51100000000E-03 0. -1.
        -11    1    3    3    0    0 -0.62930693244E+01  0.23558374076E+02  0.88575721998E+01  0.25943328549E+02  0.51100000000E-03 0.  1.
         12    1    3    3    0    0 -0.71429721955E+01 -0.12726635712E+02 -0.11096299827E+02  0.18333498799E+02  0.00000000000E+00 0. -1.
</event>
<event>
 7    1  0.1344618E-011  0.5930194E+02  0.7816164E-02  0.1266605E+00
        -11   -1    0    0    0    0  0.00000000000E+00  0.00000000000E+00  0.45593999997E+02  0.45594000000E+02  0.51100000000E-03 0.  1.
         11   -1    0    0    0    0 -0.00000000000E+00 -0.00000000000E+00 -0.45593999997E+02  0.45594000000E+02  0.51100000000E-03 0. -1.
    9900012    2    1    2    0    0  0.41471389081E+01  0.31917077337E+01 -0.31453696504E+02  0.59301940614E+02  0.49999993775E+02 0.  0.
        -12    1    1    2    0    0 -0.41471389081E+01 -0.31917077337E+01  0.31453696504E+02  0.31886059386E+02  0.00000000000E+00 0.  1.
         11    1    3    3    0    0  0.68427424555E+01  0.52627829838E+00 -0.18206281454E+02  0.19456843984E+02  0.51100000000E-03 0. -1.
        -11    1    3    3    0    0  0.15850322320E+02 -0.61112591307E+01 -0.47675084267E+01  0.17643960515E+02  0.51100000000E-03 0.  1.
        -12    1    3    3    0    0 -0.18545925867E+02  0.87766885660E+01 -0.84799066231E+01  0.22201136115E+02  0.00000000000E+00 0.  1.
</event>
<event>
 7    1  0.1344618E-011  0.5930197E+02  0.7816164E-02  0.1266605E+00
        -11   -1    0    0    0    0  0.00000000000E+00  0.00000000000E+00  0.45593999997E+02  0.45594000000E+02  0.51100000000E-03 0.  1.
         11   -1    0    0    0    0 -0.00000000000E+00 -0.00000000000E+00 -0.45593999997E+02  0.45594000000E+02  0.51100000000E-03 0. -1.
    9900012    2    1    2    0    0 -0.12309619935E+02 -0.15381030776E+02 -0.25072212338E+02  0.59301973559E+02  0.50000053857E+02 0.  0.
        -12    1    1    2    0    0  0.12309619935E+02  0.15381030776E+02  0.25072212338E+02  0.31886026441E+02  0.00000000000E+00 0.  1.
         11    1    3    3    0    0  0.82703535130E+01  0.28273176794E+01 -0.12057870187E+02  0.14892437887E+02  0.51100000000E-03 0. -1.
        -11    1    3    3    0    0  0.20157068970E+01  0.59752221453E+01  0.37210165599E+01  0.73220433269E+01  0.51100000000E-03 0.  1.
        -12    1    3    3    0    0 -0.22595680345E+02 -0.24183570601E+02 -0.16735358710E+02  0.37087492345E+02  0.00000000000E+00 0.  1.
</event>
<event>
 7    1  0.1344618E-011  0.5930191E+02  0.7816164E-02  0.1266605E+00
        -11   -1    0    0    0    0  0.00000000000E+00  0.00000000000E+00  0.45593999997E+02  0.45594000000E+02  0.51100000000E-03 0. -1.
         11   -1    0    0    0    0 -0.00000000000E+00 -0.00000000000E+00 -0.45593999997E+02  0.45594000000E+02  0.51100000000E-03 0.  1.
    9900012    2    1    2    0    0  0.20111350294E+02  0.38535167146E+01  0.24441901217E+02  0.59301913115E+02  0.49999943623E+02 0.  0.
        -12    1    1    2    0    0 -0.20111350294E+02 -0.38535167146E+01 -0.24441901217E+02  0.31886086885E+02  0.00000000000E+00 0.  1.
         11    1    3    3    0    0 -0.12377851689E+02  0.45046496033E+01  0.12546591021E+01  0.13231676016E+02  0.51100000000E-03 0. -1.
        -11    1    3    3    0    0  0.63027146045E+01  0.13916868961E+01 -0.45291899454E+01  0.78850850107E+01  0.51100000000E-03 0.  1.
         12    1    3    3    0    0  0.26186487378E+02 -0.20428197848E+01  0.27716432060E+02  0.38185152088E+02  0.00000000000E+00 0. -1.
</event>
<event>
 7    1  0.1344618E-011  0.5930195E+02  0.7816164E-02  0.1266605E+00
        -11   -1    0    0    0    0  0.00000000000E+00  0.00000000000E+00  0.45593999997E+02  0.45594000000E+02  0.51100000000E-03 0. -1.
         11   -1    0    0    0    0 -0.00000000000E+00 -0.00000000000E+00 -0.45593999997E+02  0.45594000000E+02  0.51100000000E-03 0.  1.
    9900012    2    1    2    0    0 -0.12258951964E+02  0.15726492940E+02  0.24882036475E+02  0.59301949404E+02  0.50000009805E+02 0.  0.
        -12    1    1    2    0    0  0.12258951964E+02 -0.15726492940E+02 -0.24882036475E+02  0.31886050596E+02  0.00000000000E+00 0.  1.
         11    1    3    3    0    0 -0.20000062351E+02  0.14205795090E+02  0.15408917791E+02  0.28969671312E+02  0.51100000000E-03 0. -1.
        -11    1    3    3    0    0  0.11315811102E+00  0.98995109482E+01 -0.56779747436E+01  0.11412822579E+02  0.51100000000E-03 0.  1.
        -12    1    3    3    0    0  0.76279522761E+01 -0.83788130977E+01  0.15151093428E+02  0.18919455513E+02  0.00000000000E+00 0.  1.
</event>
<event>
 7    1  0.1344618E-011  0.5930197E+02  0.7816164E-02  0.1266605E+00
        -11   -1    0    0    0    0  0.00000000000E+00  0.00000000000E+00  0.45593999997E+02  0.45594000000E+02  0.51100000000E-03 0. -1.
         11   -1    0    0    0    0 -0.00000000000E+00 -0.00000000000E+00 -0.45593999997E+02  0.45594000000E+02  0.51100000000E-03 0.  1.
    9900012    2    1    2    0    0 -0.52639722735E+01 -0.30915897035E+01  0.31296191491E+02  0.59301969629E+02  0.50000046690E+02 0.  0.
        -12    1    1    2    0    0  0.52639722735E+01  0.30915897035E+01 -0.31296191491E+02  0.31886030371E+02  0.00000000000E+00 0.  1.
         11    1    3    3    0    0 -0.25931450055E+01  0.12403939601E+02  0.16951685140E+02  0.21164634370E+02  0.51100000000E-03 0. -1.
        -11    1    3    3    0    0 -0.15590953479E+02 -0.38350142685E+01  0.78520170452E+00  0.16074878127E+02  0.51100000000E-03 0.  1.
         12    1    3    3    0    0  0.12920126211E+02 -0.11660515036E+02  0.13559304646E+02  0.22062457132E+02  0.00000000000E+00 0. -1.
</event>
<event>
 7    1  0.1344618E-011  0.5930195E+02  0.7816164E-02  0.1266605E+00
        -11   -1    0    0    0    0  0.00000000000E+00  0.00000000000E+00  0.45593999997E+02  0.45594000000E+02  0.51100000000E-03 0.  1.
         11   -1    0    0    0    0 -0.00000000000E+00 -0.00000000000E+00 -0.45593999997E+02  0.45594000000E+02  0.51100000000E-03 0. -1.
    9900012    2    1    2    0    0 -0.15295876746E+02 -0.16701762391E+02 -0.22445662433E+02  0.59301945455E+02  0.50000002603E+02 0.  0.
        -12    1    1    2    0    0  0.15295876746E+02  0.16701762391E+02  0.22445662433E+02  0.31886054545E+02  0.00000000000E+00 0.  1.
         11    1    3    3    0    0 -0.13788224761E+02 -0.96775165860E+01 -0.88444581522E+01  0.19026137537E+02  0.51100000000E-03 0. -1.
        -11    1    3    3    0    0  0.65050049107E+01 -0.19656343824E+02 -0.14519855283E+02  0.25288597017E+02  0.51100000000E-03 0.  1.
        -12    1    3    3    0    0 -0.80126568964E+01  0.12632098019E+02  0.91865100234E+00  0.14987210900E+02  0.00000000000E+00 0.  1.
</event>
<event>
 7    1  0.1344618E-011  0.5930189E+02  0.7816164E-02  0.1266605E+00
        -11   -1    0    0    0    0  0.00000000000E+00  0.00000000000E+00  0.45593999997E+02  0.45594000000E+02  0.51100000000E-03 0.  1.
         11   -1    0    0    0    0 -0.00000000000E+00 -0.00000000000E+00 -0.45593999997E+02  0.45594000000E+02  0.51100000000E-03 0. -1.
    9900012    2    1    2    0    0  0.79162302809E+01  0.18920379062E+02 -0.24414682384E+02  0.59301887637E+02  0.49999897157E+02 0.  0.
        -12    1    1    2    0    0 -0.79162302809E+01 -0.18920379062E+02  0.24414682384E+02  0.31886112363E+02  0.00000000000E+00 0.  1.
         11    1    3    3    0    0 -0.74665806133E+01  0.46386985315E+01 -0.79348694375E+01  0.11841853882E+02  0.51100000000E-03 0. -1.
        -11    1    3    3    0    0  0.27501644781E+02  0.16029567050E+02 -0.14788027250E+02  0.35099476288E+02  0.51100000000E-03 0.  1.
         12    1    3    3    0    0 -0.12118833887E+02 -0.17478865195E+01 -0.16917856966E+01  0.12360557467E+02  0.00000000000E+00 0. -1.
</event>
<event>
 7    1  0.1344618E-011  0.5930194E+02  0.7816164E-02  0.1266605E+00
        -11   -1    0    0    0    0  0.00000000000E+00  0.00000000000E+00  0.45593999997E+02  0.45594000000E+02  0.51100000000E-03 0. -1.
         11   -1    0    0    0    0 -0.00000000000E+00 -0.00000000000E+00 -0.45593999997E+02  0.45594000000E+02  0.51100000000E-03 0.  1.
    9900012    2    1    2    0    0  0.24063737680E+02  0.20835030737E+02  0.18864244356E+01  0.59301943893E+02  0.49999999753E+02 0.  0.
        -12    1    1    2    0    0 -0.24063737680E+02 -0.20835030737E+02 -0.18864244356E+01  0.31886056107E+02  0.00000000000E+00 0.  1.
         11    1    3    3    0    0  0.16190264681E+01 -0.12889608238E+01 -0.21713734136E+01  0.29995882171E+01  0.51100000000E-03 0. -1.
        -11    1    3    3    0    0  0.33622530689E+02  0.98881528822E+01 -0.78254523548E+01  0.35909439458E+02  0.51100000000E-03 0.  1.
         12    1    3    3    0    0 -0.11177819477E+02  0.12235838678E+02  0.11883250204E+02  0.20392916217E+02  0.00000000000E+00 0. -1.
</event>
<event>
 7    1  0.1344618E-011  0.5930194E+02  0.7816164E-02  0.1266605E+00
        -11   -1    0    0    0    0  0.00000000000E+00  0.00000000000E+00  0.45593999997E+02  0.45594000000E+02  0.51100000000E-03 0.  1.
         11   -1    0    0    0    0 -0.00000000000E+00 -0.00000000000E+00 -0.45593999997E+02  0.45594000000E+02  0.51100000000E-03 0. -1.
    9900012    2    1    2    0    0 -0.19541141869E+02  0.99731929169E+01  0.23138711538E+02  0.59301940755E+02  0.49999994032E+02 0.  0.
        -12    1    1    2    0    0  0.19541141869E+02 -0.99731929169E+01 -0.23138711538E+02  0.31886059245E+02  0.00000000000E+00 0.  1.
         11    1    3    3    0    0 -0.22926762890E+01 -0.70727462698E+01 -0.10241863530E+01  0.75052689699E+01  0.51100000000E-03 0. -1.
        -11    1    3    3    0    0  0.94282649291E+01 -0.54754453773E+01  0.56671811707E+01  0.12287783540E+02  0.51100000000E-03 0.  1.
        -12    1    3    3    0    0 -0.26676730509E+02  0.22521384564E+02  0.18495716721E+02  0.39508888245E+02  0.00000000000E+00 0.  1.
</event>
<event>
 7    1  0.1344618E-011  0.5930193E+02  0.7816164E-02  0.1266605E+00
        -11   -1    0    0    0    0  0.00000000000E+00  0.00000000000E+00  0.45593999997E+02  0.45594000000E+02  0.51100000000E-03 0. -1.
         11   -1    0    0    0    0 -0.00000000000E+00 -0.00000000000E+00 -0.45593999997E+02  0.45594000000E+02  0.51100000000E-03 0.  1.
    9900012    2    1    2    0    0  0.62599184861E+01 -0.21385576083E+02  0.22807721011E+02  0.59301928095E+02  0.49999970943E+02 0.  0.
        -12    1    1    2    0    0 -0.62599184861E+01  0.21385576083E+02 -0.22807721011E+02  0.31886071905E+02  0.00000000000E+00 0.  1.
         11    1    3    3    0    0  0.22981762769E+02 -0.12918024731E+02  0.17912515320E+02  0.31873107603E+02  0.51100000000E-03 0. -1.
        -11    1    3    3    0    0  0.37763212470E+01 -0.39805623763E+01  0.32587100944E+01  0.63815884176E+01  0.51100000000E-03 0.  1.
        -12    1    3    3    0    0 -0.20498165530E+02 -0.44869889750E+01  0.16364955962E+01  0.21047232074E+02  0.00000000000E+00 0.  1.
</event>
<event>
 7    1  0.1344618E-011  0.5930196E+02  0.7816164E-02  0.1266605E+00
        -11   -1    0    0    0    0  0.00000000000E+00  0.00000000000E+00  0.45593999997E+02  0.45594000000E+02  0.51100000000E-03 0.  1.
         11   -1    0    0    0    0 -0.00000000000E+00 -0.00000000000E+00 -0.45593999997E+02  0.45594000000E+02  0.51100000000E-03 0. -1.
    9900012    2    1    2    0    0 -0.76560048394E+01  0.24230397813E+02 -0.19261179206E+02  0.59301958968E+02  0.50000027247E+02 0.  0.
        -12    1    1    2    0    0  0.76560048394E+01 -0.24230397813E+02  0.19261179206E+02  0.31886041032E+02  0.00000000000E+00 0.  1.
         11    1    3    3    0    0  0.50001162256E+01  0.27444136892E+02 -0.60087328147E+01  0.28535708898E+02  0.51100000000E-03 0. -1.
        -11    1    3    3    0    0 -0.29592579547E+01  0.20927663844E+00  0.72477851452E+01  0.78314362748E+01  0.51100000000E-03 0.  1.
         12    1    3    3    0    0 -0.96968631103E+01 -0.34230157169E+01 -0.20500231537E+02  0.22934813795E+02  0.00000000000E+00 0. -1.
</event>
<event>
 7    1  0.1344618E-011  0.5930195E+02  0.7816164E-02  0.1266605E+00
        -11   -1    0    0    0    0  0.00000000000E+00  0.00000000000E+00  0.45593999997E+02  0.45594000000E+02  0.51100000000E-03 0. -1.
         11   -1    0    0    0    0 -0.00000000000E+00 -0.00000000000E+00 -0.45593999997E+02  0.45594000000E+02  0.51100000000E-03 0.  1.
    9900012    2    1    2    0    0  0.20846975583E+02  0.17697282023E+02 -0.16399081098E+02  0.59301952223E+02  0.50000014946E+02 0.  0.
        -12    1    1    2    0    0 -0.20846975583E+02 -0.17697282023E+02  0.16399081098E+02  0.31886047777E+02  0.00000000000E+00 0.  1.
         11    1    3    3    0    0  0.77593394122E+01  0.30630189368E+02 -0.66289084935E+01  0.32285573820E+02  0.51100000000E-03 0. -1.
        -11    1    3    3    0    0  0.29356068441E+01  0.20304051559E+01  0.31757630874E+01  0.47776358263E+01  0.51100000000E-03 0.  1.
        -12    1    3    3    0    0  0.10152029327E+02 -0.14963312501E+02 -0.12945935692E+02  0.22238742576E+02  0.00000000000E+00 0.  1.
</event>
<event>
 7    1  0.1344618E-011  0.5930192E+02  0.7816164E-02  0.1266605E+00
        -11   -1    0    0    0    0  0.00000000000E+00  0.00000000000E+00  0.45593999997E+02  0.45594000000E+02  0.51100000000E-03 0. -1.
         11   -1    0    0    0    0 -0.00000000000E+00 -0.00000000000E+00 -0.45593999997E+02  0.45594000000E+02  0.51100000000E-03 0.  1.
    9900012    2    1    2    0    0 -0.14488942458E+01 -0.30863100830E+02 -0.78798436952E+01  0.59301918020E+02  0.49999952568E+02 0.  0.
        -12    1    1    2    0    0  0.14488942458E+01  0.30863100830E+02  0.78798436952E+01  0.31886081980E+02  0.00000000000E+00 0.  1.
         11    1    3    3    0    0 -0.47307658481E+00  0.43714855469E+01  0.11720485316E+02  0.12518125405E+02  0.51100000000E-03 0.  1.
        -11    1    3    3    0    0 -0.97477303847E+01 -0.97321386657E+01 -0.13173398002E+02  0.19059674337E+02  0.51100000000E-03 0. -1.
        -12    1    3    3    0    0  0.87719127237E+01 -0.25502447711E+02 -0.64269310099E+01  0.27724118278E+02  0.00000000000E+00 0.  1.
</event>
<event>
 7    1  0.1344618E-011  0.5930195E+02  0.7816164E-02  0.1266605E+00
        -11   -1    0    0    0    0  0.00000000000E+00  0.00000000000E+00  0.45593999997E+02  0.45594000000E+02  0.51100000000E-03 0.  1.
         11   -1    0    0    0    0 -0.00000000000E+00 -0.00000000000E+00 -0.45593999997E+02  0.45594000000E+02  0.51100000000E-03 0. -1.
    9900012    2    1    2    0    0  0.10084877857E+02  0.96162393123E+01 -0.28680022073E+02  0.59301945273E+02  0.50000002272E+02 0.  0.
        -12    1    1    2    0    0 -0.10084877857E+02 -0.96162393123E+01  0.28680022073E+02  0.31886054727E+02  0.00000000000E+00 0.  1.
         11    1    3    3    0    0 -0.10618287813E+02  0.55536143610E+01 -0.17125276908E+02  0.20901334359E+02  0.51100000000E-03 0. -1.
        -11    1    3    3    0    0  0.34115696038E+01  0.37311405509E+01 -0.18933992455E+02  0.19597354095E+02  0.51100000000E-03 0.  1.
        -12    1    3    3    0    0  0.17291596067E+02  0.33148440040E+00  0.73792472900E+01  0.18803256819E+02  0.00000000000E+00 0.  1.
</event>
<event>
 7    1  0.1344618E-011  0.5930193E+02  0.7816164E-02  0.1266605E+00
        -11   -1    0    0    0    0  0.00000000000E+00  0.00000000000E+00  0.45593999997E+02  0.45594000000E+02  0.51100000000E-03 0. -1.
         11   -1    0    0    0    0 -0.00000000000E+00 -0.00000000000E+00 -0.45593999997E+02  0.45594000000E+02  0.51100000000E-03 0.  1.
    9900012    2    1    2    0    0  0.26937918408E+02  0.16700624675E+02  0.34869534240E+01  0.59301934754E+02  0.49999983087E+02 0.  0.
        -12    1    1    2    0    0 -0.26937918408E+02 -0.16700624675E+02 -0.34869534240E+01  0.31886065246E+02  0.00000000000E+00 0.  1.
         11    1    3    3    0    0 -0.15012941806E+01 -0.10506164555E+02 -0.83457097736E+01  0.13501268450E+02  0.51100000000E-03 0. -1.
        -11    1    3    3    0    0  0.55776623932E+01  0.10528821048E+02 -0.49472921987E+01  0.12901243769E+02  0.51100000000E-03 0.  1.
         12    1    3    3    0    0  0.22861550196E+02  0.16677968182E+02  0.16779955396E+02  0.32899422535E+02  0.00000000000E+00 0. -1.
</event>
<event>
 7    1  0.1344618E-011  0.5930196E+02  0.7816164E-02  0.1266605E+00
        -11   -1    0    0    0    0  0.00000000000E+00  0.00000000000E+00  0.45593999997E+02  0.45594000000E+02  0.51100000000E-03 0.  1.
         11   -1    0    0    0    0 -0.00000000000E+00 -0.00000000000E+00 -0.45593999997E+02  0.45594000000E+02  0.51100000000E-03 0. -1.
    9900012    2    1    2    0    0 -0.27820309997E+02  0.51173886765E+01 -0.14716049749E+02  0.59301961747E+02  0.50000032316E+02 0.  0.
        -12    1    1    2    0    0  0.27820309997E+02 -0.51173886765E+01  0.14716049749E+02  0.31886038253E+02  0.00000000000E+00 0.  1.
         11    1    3    3    0    0 -0.24982040463E+01  0.15319978136E+02 -0.11447849425E+02  0.19287198093E+02  0.51100000000E-03 0. -1.
        -11    1    3    3    0    0 -0.24136157057E+02  0.49407502599E+01 -0.30384284503E+01  0.24823318439E+02  0.51100000000E-03 0.  1.
        -12    1    3    3    0    0 -0.11859488938E+01 -0.15143339719E+02 -0.22977187376E+00  0.15191445216E+02  0.00000000000E+00 0.  1.
</event>
<event>
 7    1  0.1344618E-011  0.5930195E+02  0.7816164E-02  0.1266605E+00
        -11   -1    0    0    0    0  0.00000000000E+00  0.00000000000E+00  0.45593999997E+02  0.45594000000E+02  0.51100000000E-03 0. -1.
         11   -1    0    0    0    0 -0.00000000000E+00 -0.00000000000E+00 -0.45593999997E+02  0.45594000000E+02  0.51100000000E-03 0.  1.
    9900012    2    1    2    0    0  0.16305609543E+00 -0.31811548567E+02 -0.21723553452E+01  0.59301947606E+02  0.50000006525E+02 0.  0.
        -12    1    1    2    0    0 -0.16305609543E+00  0.31811548567E+02  0.21723553452E+01  0.31886052394E+02  0.00000000000E+00 0.  1.
         11    1    3    3    0    0 -0.29653210784E+00 -0.32945378972E+02  0.11496875313E+02  0.34895043618E+02  0.51100000000E-03 0. -1.
        -11    1    3    3    0    0  0.10307935035E+00 -0.91072580014E+01 -0.99912788719E+01  0.13519557220E+02  0.51100000000E-03 0.  1.
         12    1    3    3    0    0  0.35650885292E+00  0.10241088406E+02 -0.36779517864E+01  0.10887346768E+02  0.00000000000E+00 0. -1.
</event>
<event>
 7    1  0.1344618E-011  0.5930196E+02  0.7816164E-02  0.1266605E+00
        -11   -1    0    0    0    0  0.00000000000E+00  0.00000000000E+00  0.45593999997E+02  0.45594000000E+02  0.51100000000E-03 0.  1.
         11   -1    0    0    0    0 -0.00000000000E+00 -0.00000000000E+00 -0.45593999997E+02  0.45594000000E+02  0.51100000000E-03 0. -1.
    9900012    2    1    2    0    0 -0.13787287161E+02 -0.54891484237E+01 -0.28222325031E+02  0.59301958103E+02  0.50000025670E+02 0.  0.
        -12    1    1    2    0    0  0.13787287161E+02  0.54891484237E+01  0.28222325031E+02  0.31886041897E+02  0.00000000000E+00 0.  1.
         11    1    3    3    0    0 -0.14135025739E+02 -0.37584548556E+01 -0.35001735294E+02  0.37934765181E+02  0.51100000000E-03 0. -1.
        -11    1    3    3    0    0 -0.85746052862E+01  0.34945132290E+01  0.50609567358E+00  0.92731662130E+01  0.51100000000E-03 0.  1.
        -12    1    3    3    0    0  0.89223438644E+01 -0.52252067971E+01  0.62733145886E+01  0.12094026709E+02  0.00000000000E+00 0.  1.
</event>
<event>
 7    1  0.1344618E-011  0.5930195E+02  0.7816164E-02  0.1266605E+00
        -11   -1    0    0    0    0  0.00000000000E+00  0.00000000000E+00  0.45593999997E+02  0.45594000000E+02  0.51100000000E-03 0. -1.
         11   -1    0    0    0    0 -0.00000000000E+00 -0.00000000000E+00 -0.45593999997E+02  0.45594000000E+02  0.51100000000E-03 0.  1.
    9900012    2    1    2    0    0  0.19541226776E+02  0.21121551017E+02  0.13738283904E+02  0.59301954370E+02  0.50000018862E+02 0.  0.
        -12    1    1    2    0    0 -0.19541226776E+02 -0.21121551017E+02 -0.13738283904E+02  0.31886045630E+02  0.00000000000E+00 0.  1.
         11    1    3    3    0    0  0.14381763233E+02  0.22124415892E+02  0.27147691660E+02  0.37859240022E+02  0.51100000000E-03 0. -1.
        -11    1    3    3    0    0  0.96695327567E+01 -0.43516627767E-01 -0.31086674742E+01  0.10157045395E+02  0.51100000000E-03 0.  1.
        -12    1    3    3    0    0 -0.45100692142E+01 -0.95934824738E+00 -0.10300740282E+02  0.11285668954E+02  0.00000000000E+00 0.  1.
</event>
<event>
 7    1  0.1344618E-011  0.5930199E+02  0.7816164E-02  0.1266605E+00
        -11   -1    0    0    0    0  0.00000000000E+00  0.00000000000E+00  0.45593999997E+02  0.45594000000E+02  0.51100000000E-03 0.  1.
         11   -1    0    0    0    0 -0.00000000000E+00 -0.00000000000E+00 -0.45593999997E+02  0.45594000000E+02  0.51100000000E-03 0. -1.
    9900012    2    1    2    0    0  0.25775405417E+02  0.18734834088E+02  0.11629339350E+01  0.59301985071E+02  0.50000074854E+02 0.  0.
        -12    1    1    2    0    0 -0.25775405417E+02 -0.18734834088E+02 -0.11629339350E+01  0.31886014929E+02  0.00000000000E+00 0.  1.
         11    1    3    3    0    0  0.17711637918E+02  0.76787833376E+01 -0.10132123992E+02  0.21801967071E+02  0.51100000000E-03 0. -1.
        -11    1    3    3    0    0  0.28582033919E+01 -0.36343126552E+01  0.19392882592E+02  0.19936435253E+02  0.51100000000E-03 0.  1.
         12    1    3    3    0    0  0.52055641066E+01  0.14690363405E+02 -0.80978246644E+01  0.17563582748E+02  0.00000000000E+00 0. -1.
</event>
<event>
 7    1  0.1344618E-011  0.5930196E+02  0.7816164E-02  0.1266605E+00
        -11   -1    0    0    0    0  0.00000000000E+00  0.00000000000E+00  0.45593999997E+02  0.45594000000E+02  0.51100000000E-03 0.  1.
         11   -1    0    0    0    0 -0.00000000000E+00 -0.00000000000E+00 -0.45593999997E+02  0.45594000000E+02  0.51100000000E-03 0. -1.
    9900012    2    1    2    0    0 -0.25156295676E+02 -0.28682678327E-01 -0.19592847827E+02  0.59301957273E+02  0.50000024156E+02 0.  0.
        -12    1    1    2    0    0  0.25156295676E+02  0.28682678327E-01  0.19592847827E+02  0.31886042727E+02  0.00000000000E+00 0.  1.
         11    1    3    3    0    0 -0.17585101620E+02  0.13808847304E+02 -0.21733209488E+02  0.31180963066E+02  0.51100000000E-03 0. -1.
        -11    1    3    3    0    0 -0.65083778940E+01  0.38641626020E+01  0.63667884254E+01  0.98907396357E+01  0.51100000000E-03 0.  1.
         12    1    3    3    0    0 -0.10628161611E+01 -0.17701692584E+02 -0.42264267648E+01  0.18230254571E+02  0.00000000000E+00 0. -1.
</event>
<event>
 7    1  0.1344618E-011  0.5930194E+02  0.7816164E-02  0.1266605E+00
        -11   -1    0    0    0    0  0.00000000000E+00  0.00000000000E+00  0.45593999997E+02  0.45594000000E+02  0.51100000000E-03 0.  1.
         11   -1    0    0    0    0 -0.00000000000E+00 -0.00000000000E+00 -0.45593999997E+02  0.45594000000E+02  0.51100000000E-03 0. -1.
    9900012    2    1    2    0    0 -0.26365411972E+02  0.68770772063E+01 -0.16561744321E+02  0.59301944829E+02  0.50000001462E+02 0.  0.
        -12    1    1    2    0    0  0.26365411972E+02 -0.68770772063E+01  0.16561744321E+02  0.31886055171E+02  0.00000000000E+00 0.  1.
         11    1    3    3    0    0  0.13541530701E+01 -0.12478421993E+02 -0.43264416050E+01  0.13276401741E+02  0.51100000000E-03 0. -1.
        -11    1    3    3    0    0 -0.12342476116E+02  0.16809291071E+02  0.63218350999E+01  0.21791158351E+02  0.51100000000E-03 0.  1.
        -12    1    3    3    0    0 -0.15377088926E+02  0.25462081283E+01 -0.18557137816E+02  0.24234384738E+02  0.00000000000E+00 0.  1.
</event>
<event>
 7    1  0.1344618E-011  0.5930209E+02  0.7816164E-02  0.1266604E+00
        -11   -1    0    0    0    0  0.00000000000E+00  0.00000000000E+00  0.45593999997E+02  0.45594000000E+02  0.51100000000E-03 0.  1.
         11   -1    0    0    0    0 -0.00000000000E+00 -0.00000000000E+00 -0.45593999997E+02  0.45594000000E+02  0.51100000000E-03 0. -1.
    9900012    2    1    2    0    0 -0.28274705166E+02 -0.13129996156E+02 -0.66974084895E+01  0.59302093525E+02  0.50000272646E+02 0.  0.
        -12    1    1    2    0    0  0.28274705166E+02  0.13129996156E+02  0.66974084895E+01  0.31885906475E+02  0.00000000000E+00 0.  1.
         11    1    3    3    0    0  0.27000574823E+01 -0.36082337628E-01 -0.32659208294E+01  0.42376705237E+01  0.51100000000E-03 0. -1.
        -11    1    3    3    0    0 -0.35162365042E+01 -0.41196138961E+01 -0.20707978668E+02  0.21404567704E+02  0.51100000000E-03 0.  1.
        -12    1    3    3    0    0 -0.27458526144E+02 -0.89742999224E+01  0.17276491008E+02  0.33659855297E+02  0.00000000000E+00 0.  1.
</event>
<event>
 7    1  0.1344618E-011  0.5930198E+02  0.7816164E-02  0.1266605E+00
        -11   -1    0    0    0    0  0.00000000000E+00  0.00000000000E+00  0.45593999997E+02  0.45594000000E+02  0.51100000000E-03 0.  1.
         11   -1    0    0    0    0 -0.00000000000E+00 -0.00000000000E+00 -0.45593999997E+02  0.45594000000E+02  0.51100000000E-03 0. -1.
    9900012    2    1    2    0    0 -0.24332818347E+02 -0.78373316098E+01 -0.19058025778E+02  0.59301981715E+02  0.50000068733E+02 0.  0.
        -12    1    1    2    0    0  0.24332818347E+02  0.78373316098E+01  0.19058025778E+02  0.31886018285E+02  0.00000000000E+00 0.  1.
         11    1    3    3    0    0 -0.18981441955E+02 -0.98962941754E+01 -0.15879297849E+02  0.26653027549E+02  0.51100000000E-03 0. -1.
        -11    1    3    3    0    0  0.21795588974E+01 -0.59816516158E+01 -0.15117859718E+02  0.16403667753E+02  0.51100000000E-03 0.  1.
        -12    1    3    3    0    0 -0.75309352896E+01  0.80406141814E+01  0.11939131789E+02  0.16245286413E+02  0.00000000000E+00 0.  1.
</event>
<event>
 7    1  0.1344618E-011  0.5930193E+02  0.7816164E-02  0.1266605E+00
        -11   -1    0    0    0    0  0.00000000000E+00  0.00000000000E+00  0.45593999997E+02  0.45594000000E+02  0.51100000000E-03 0.  1.
         11   -1    0    0    0    0 -0.00000000000E+00 -0.00000000000E+00 -0.45593999997E+02  0.45594000000E+02  0.51100000000E-03 0. -1.
    9900012    2    1    2    0    0  0.22928917498E+02 -0.18777045250E+02 -0.11764735923E+02  0.59301926280E+02  0.49999967632E+02 0.  0.
        -12    1    1    2    0    0 -0.22928917498E+02  0.18777045250E+02  0.11764735923E+02  0.31886073720E+02  0.00000000000E+00 0.  1.
         11    1    3    3    0    0  0.38453358134E+01  0.44852341021E+01  0.82780771923E+01  0.10170078403E+02  0.51100000000E-03 0. -1.
        -11    1    3    3    0    0 -0.92577849794E+01 -0.91400212841E+01 -0.78886207099E+01  0.15214365211E+02  0.51100000000E-03 0.  1.
         12    1    3    3    0    0  0.28341366664E+02 -0.14122258068E+02 -0.12154192405E+02  0.33917482666E+02  0.00000000000E+00 0. -1.
</event>
<event>
 7    1  0.1344618E-011  0.5930196E+02  0.7816164E-02  0.1266605E+00
        -11   -1    0    0    0    0  0.00000000000E+00  0.00000000000E+00  0.45593999997E+02  0.45594000000E+02  0.51100000000E-03 0.  1.
         11   -1    0    0    0    0 -0.00000000000E+00 -0.00000000000E+00 -0.45593999997E+02  0.45594000000E+02  0.51100000000E-03 0. -1.
    9900012    2    1    2    0    0  0.17637062140E+02  0.22428868607E+02  0.14233751373E+02  0.59301956250E+02  0.50000022290E+02 0.  0.
        -12    1    1    2    0    0 -0.17637062140E+02 -0.22428868607E+02 -0.14233751373E+02  0.31886043750E+02  0.00000000000E+00 0.  1.
         11    1    3    3    0    0  0.30346758194E+02  0.20109223630E+02  0.68970610271E+01  0.37052342152E+02  0.51100000000E-03 0. -1.
        -11    1    3    3    0    0 -0.10423108143E+02  0.62451649257E+01 -0.15693955873E+01  0.12251786444E+02  0.51100000000E-03 0.  1.
        -12    1    3    3    0    0 -0.22865879105E+01 -0.39255199492E+01  0.89060859329E+01  0.99978276534E+01  0.00000000000E+00 0.  1.
</event>
<event>
 7    1  0.1344618E-011  0.5930193E+02  0.7816164E-02  0.1266605E+00
        -11   -1    0    0    0    0  0.00000000000E+00  0.00000000000E+00  0.45593999997E+02  0.45594000000E+02  0.51100000000E-03 0. -1.
         11   -1    0    0    0    0 -0.00000000000E+00 -0.00000000000E+00 -0.45593999997E+02  0.45594000000E+02  0.51100000000E-03 0.  1.
    9900012    2    1    2    0    0  0.13172488918E+02 -0.16892753219E+02  0.23618677125E+02  0.59301929612E+02  0.49999973710E+02 0.  0.
        -12    1    1    2    0    0 -0.13172488918E+02  0.16892753219E+02 -0.23618677125E+02  0.31886070388E+02  0.00000000000E+00 0.  1.
         11    1    3    3    0    0  0.16787756500E+02 -0.16025259703E+01  0.26581481516E+01  0.17072276054E+02  0.51100000000E-03 0. -1.
        -11    1    3    3    0    0  0.62172780597E+01 -0.64951635792E+01 -0.69462463847E+01  0.11361867606E+02  0.51100000000E-03 0.  1.
         12    1    3    3    0    0 -0.98325456414E+01 -0.87950636696E+01  0.27906775358E+02  0.30867785953E+02  0.00000000000E+00 0. -1.
</event>
<event>
 7    1  0.1344618E-011  0.5930205E+02  0.7816164E-02  0.1266604E+00
        -11   -1    0    0    0    0  0.00000000000E+00  0.00000000000E+00  0.45593999997E+02  0.45594000000E+02  0.51100000000E-03 0. -1.
         11   -1    0    0    0    0 -0.00000000000E+00 -0.00000000000E+00 -0.45593999997E+02  0.45594000000E+02  0.51100000000E-03 0.  1.
    9900012    2    1    2    0    0  0.18995266652E+02 -0.25419794213E+02  0.31189682288E+01  0.59302046104E+02  0.50000186163E+02 0.  0.
        -12    1    1    2    0    0 -0.18995266652E+02  0.25419794213E+02 -0.31189682288E+01  0.31885953896E+02  0.00000000000E+00 0.  1.
         11    1    3    3    0    0  0.88669561247E+01 -0.11012071628E+02  0.15313328592E+02  0.20841944854E+02  0.51100000000E-03 0. -1.
        -11    1    3    3    0    0  0.63516023736E+01  0.54537794236E+01  0.67499320381E+01  0.10753982774E+02  0.51100000000E-03 0.  1.
        -12    1    3    3    0    0  0.37767081542E+01 -0.19861502008E+02 -0.18944292401E+02  0.27706118477E+02  0.00000000000E+00 0.  1.
</event>
<event>
 7    1  0.2083952E-011  0.5930195E+02  0.7816164E-02  0.1266605E+00
        -11   -1    0    0    0    0  0.00000000000E+00  0.00000000000E+00  0.45593999997E+02  0.45594000000E+02  0.51100000000E-03 0. -1.
         11   -1    0    0    0    0 -0.00000000000E+00 -0.00000000000E+00 -0.45593999997E+02  0.45594000000E+02  0.51100000000E-03 0.  1.
    9900012    2    1    2    0    0 -0.80636094642E+01 -0.78297945933E+01  0.29839449474E+02  0.59301949353E+02  0.50000009712E+02 0.  0.
        -12    1    1    2    0    0  0.80636094642E+01  0.78297945933E+01 -0.29839449474E+02  0.31886050647E+02  0.00000000000E+00 0.  1.
         11    1    3    3    0    0  0.33544629927E+01  0.75414654851E+01  0.26787030413E+02  0.28029825583E+02  0.51100000000E-03 0. -1.
        -11    1    3    3    0    0 -0.63001066690E+01  0.60412760746E+01 -0.13159555784E+01  0.88272362603E+01  0.51100000000E-03 0.  1.
        -12    1    3    3    0    0 -0.51179657879E+01 -0.21412536153E+02  0.43683746397E+01  0.22444887509E+02  0.00000000000E+00 0.  1.
</event>
<event>
 7    1  0.1344618E-011  0.5930194E+02  0.7816164E-02  0.1266605E+00
        -11   -1    0    0    0    0  0.00000000000E+00  0.00000000000E+00  0.45593999997E+02  0.45594000000E+02  0.51100000000E-03 0.  1.
         11   -1    0    0    0    0 -0.00000000000E+00 -0.00000000000E+00 -0.45593999997E+02  0.45594000000E+02  0.51100000000E-03 0. -1.
    9900012    2    1    2    0    0  0.24022558680E+02 -0.18209752028E+02 -0.10394358526E+02  0.59301935902E+02  0.49999985181E+02 0.  0.
        -12    1    1    2    0    0 -0.24022558680E+02  0.18209752028E+02  0.10394358526E+02  0.31886064098E+02  0.00000000000E+00 0.  1.
         11    1    3    3    0    0  0.69373987799E+01 -0.12496133190E+02  0.33418032300E+01  0.14678163905E+02  0.51100000000E-03 0. -1.
        -11    1    3    3    0    0 -0.12341315888E+01 -0.13395291240E+02  0.76174404288E+01  0.15459052595E+02  0.51100000000E-03 0.  1.
        -12    1    3    3    0    0  0.18319291489E+02  0.76816724021E+01 -0.21353602185E+02  0.29164719403E+02  0.00000000000E+00 0.  1.
</event>
<event>
 7    1  0.1344618E-011  0.5930194E+02  0.7816164E-02  0.1266605E+00
        -11   -1    0    0    0    0  0.00000000000E+00  0.00000000000E+00  0.45593999997E+02  0.45594000000E+02  0.51100000000E-03 0. -1.
         11   -1    0    0    0    0 -0.00000000000E+00 -0.00000000000E+00 -0.45593999997E+02  0.45594000000E+02  0.51100000000E-03 0.  1.
    9900012    2    1    2    0    0  0.19113349631E+01  0.27517224174E+02  0.15995944480E+02  0.59301936157E+02  0.49999985645E+02 0.  0.
        -12    1    1    2    0    0 -0.19113349631E+01 -0.27517224174E+02 -0.15995944480E+02  0.31886063843E+02  0.00000000000E+00 0.  1.
         11    1    3    3    0    0  0.28651558600E+01 -0.20438444988E+01  0.51946884859E+01  0.62746479714E+01  0.51100000000E-03 0. -1.
        -11    1    3    3    0    0  0.15759416100E+01  0.35417635578E+02  0.20846487301E+02  0.41127466916E+02  0.51100000000E-03 0.  1.
        -12    1    3    3    0    0 -0.25297625070E+01 -0.58565669044E+01 -0.10045231306E+02  0.11899821270E+02  0.00000000000E+00 0.  1.
</event>
<event>
 7    1  0.1344618E-011  0.5930195E+02  0.7816164E-02  0.1266605E+00
        -11   -1    0    0    0    0  0.00000000000E+00  0.00000000000E+00  0.45593999997E+02  0.45594000000E+02  0.51100000000E-03 0.  1.
         11   -1    0    0    0    0 -0.00000000000E+00 -0.00000000000E+00 -0.45593999997E+02  0.45594000000E+02  0.51100000000E-03 0. -1.
    9900012    2    1    2    0    0 -0.90312039484E+01 -0.30156362128E+02  0.50745828120E+01  0.59301949566E+02  0.50000010100E+02 0.  0.
        -12    1    1    2    0    0  0.90312039484E+01  0.30156362128E+02 -0.50745828120E+01  0.31886050434E+02  0.00000000000E+00 0.  1.
         11    1    3    3    0    0  0.37654318717E+01  0.62952323911E+01 -0.80026672333E+00  0.73789467492E+01  0.51100000000E-03 0. -1.
        -11    1    3    3    0    0 -0.10213124440E+01 -0.20415116750E+02  0.19146458616E+02  0.28007266000E+02  0.51100000000E-03 0.  1.
         12    1    3    3    0    0 -0.11775323376E+02 -0.16036477770E+02 -0.13271609081E+02  0.23915736816E+02  0.00000000000E+00 0. -1.
</event>
<event>
 7    1  0.1344618E-011  0.5930196E+02  0.7816164E-02  0.1266605E+00
        -11   -1    0    0    0    0  0.00000000000E+00  0.00000000000E+00  0.45593999997E+02  0.45594000000E+02  0.51100000000E-03 0. -1.
         11   -1    0    0    0    0 -0.00000000000E+00 -0.00000000000E+00 -0.45593999997E+02  0.45594000000E+02  0.51100000000E-03 0.  1.
    9900012    2    1    2    0    0  0.10863919161E+02  0.29958039681E+02 -0.11003644138E+01  0.59301957867E+02  0.50000025239E+02 0.  0.
        -12    1    1    2    0    0 -0.10863919161E+02 -0.29958039681E+02  0.11003644138E+01  0.31886042133E+02  0.00000000000E+00 0.  1.
         11    1    3    3    0    0  0.21286541074E+01  0.20823362741E+02 -0.11361548063E+01  0.20962691912E+02  0.51100000000E-03 0. -1.
        -11    1    3    3    0    0  0.19726342298E+02  0.32657758438E+01  0.10027121360E+02  0.22368214845E+02  0.51100000000E-03 0.  1.
        -12    1    3    3    0    0 -0.10991077244E+02  0.58689010957E+01 -0.99913309678E+01  0.15971051110E+02  0.00000000000E+00 0.  1.
</event>
<event>
 7    1  0.1344618E-011  0.5930192E+02  0.7816164E-02  0.1266605E+00
        -11   -1    0    0    0    0  0.00000000000E+00  0.00000000000E+00  0.45593999997E+02  0.45594000000E+02  0.51100000000E-03 0.  1.
         11   -1    0    0    0    0 -0.00000000000E+00 -0.00000000000E+00 -0.45593999997E+02  0.45594000000E+02  0.51100000000E-03 0. -1.
    9900012    2    1    2    0    0  0.75508735069E+01  0.30395222254E+02 -0.59863903381E+01  0.59301920029E+02  0.49999956233E+02 0.  0.
        -12    1    1    2    0    0 -0.75508735069E+01 -0.30395222254E+02  0.59863903381E+01  0.31886079971E+02  0.00000000000E+00 0.  1.
         11    1    3    3    0    0 -0.74835833692E+01  0.30360489221E+02  0.98867255995E+00  0.31284833378E+02  0.51100000000E-03 0. -1.
        -11    1    3    3    0    0 -0.60283405462E+00  0.89091563278E+01 -0.40327491111E+01  0.97979355491E+01  0.51100000000E-03 0.  1.
        -12    1    3    3    0    0  0.15637290931E+02 -0.88744232947E+01 -0.29423137869E+01  0.18219151102E+02  0.00000000000E+00 0.  1.
</event>
<event>
 7    1  0.1344618E-011  0.5930195E+02  0.7816164E-02  0.1266605E+00
        -11   -1    0    0    0    0  0.00000000000E+00  0.00000000000E+00  0.45593999997E+02  0.45594000000E+02  0.51100000000E-03 0. -1.
         11   -1    0    0    0    0 -0.00000000000E+00 -0.00000000000E+00 -0.45593999997E+02  0.45594000000E+02  0.51100000000E-03 0.  1.
    9900012    2    1    2    0    0  0.13230814272E+02  0.23363922128E+02  0.17198625635E+02  0.59301952467E+02  0.50000015392E+02 0.  0.
        -12    1    1    2    0    0 -0.13230814272E+02 -0.23363922128E+02 -0.17198625635E+02  0.31886047533E+02  0.00000000000E+00 0.  1.
         11    1    3    3    0    0 -0.63463844029E+01  0.17540461789E+02  0.27115389531E+02  0.32911832894E+02  0.51100000000E-03 0. -1.
        -11    1    3    3    0    0  0.12578050871E+02 -0.92889827754E+00 -0.15878039334E+00  0.12613303580E+02  0.51100000000E-03 0.  1.
        -12    1    3    3    0    0  0.69991478035E+01  0.67523586170E+01 -0.97579835029E+01  0.13776815993E+02  0.00000000000E+00 0.  1.
</event>
<event>
 7    1  0.1344618E-011  0.5930195E+02  0.7816164E-02  0.1266605E+00
        -11   -1    0    0    0    0  0.00000000000E+00  0.00000000000E+00  0.45593999997E+02  0.45594000000E+02  0.51100000000E-03 0.  1.
         11   -1    0    0    0    0 -0.00000000000E+00 -0.00000000000E+00 -0.45593999997E+02  0.45594000000E+02  0.51100000000E-03 0. -1.
    9900012    2    1    2    0    0 -0.25035509029E+02 -0.12207383424E+02 -0.15521694219E+02  0.59301954245E+02  0.50000018635E+02 0.  0.
        -12    1    1    2    0    0  0.25035509029E+02  0.12207383424E+02  0.15521694219E+02  0.31886045755E+02  0.00000000000E+00 0.  1.
         11    1    3    3    0    0 -0.32576144514E+01  0.37167308533E+01 -0.22006792084E+02  0.22554933789E+02  0.51100000000E-03 0. -1.
        -11    1    3    3    0    0 -0.18662012523E+02 -0.20232206975E+01  0.11056673587E+02  0.21785641246E+02  0.51100000000E-03 0.  1.
         12    1    3    3    0    0 -0.31158820550E+01 -0.13900893580E+02 -0.45715757228E+01  0.14961379211E+02  0.00000000000E+00 0. -1.
</event>
<event>
 7    1  0.1344618E-011  0.5930211E+02  0.7816164E-02  0.1266604E+00
        -11   -1    0    0    0    0  0.00000000000E+00  0.00000000000E+00  0.45593999997E+02  0.45594000000E+02  0.51100000000E-03 0. -1.
         11   -1    0    0    0    0 -0.00000000000E+00 -0.00000000000E+00 -0.45593999997E+02  0.45594000000E+02  0.51100000000E-03 0.  1.
    9900012    2    1    2    0    0  0.26752898110E+02  0.65329127756E+00  0.17336825101E+02  0.59302112034E+02  0.50000306402E+02 0.  0.
        -12    1    1    2    0    0 -0.26752898110E+02 -0.65329127756E+00 -0.17336825101E+02  0.31885887966E+02  0.00000000000E+00 0.  1.
         11    1    3    3    0    0  0.17727120106E+02 -0.10851781518E+02  0.93811746656E+01  0.22803911676E+02  0.51100000000E-03 0. -1.
        -11    1    3    3    0    0  0.15837542370E+02  0.50193208850E+01 -0.76396064560E+01  0.18286194726E+02  0.51100000000E-03 0.  1.
        -12    1    3    3    0    0 -0.68117643668E+01  0.64857519101E+01  0.15595256892E+02  0.18212005632E+02  0.00000000000E+00 0.  1.
</event>
<event>
 7    1  0.1344618E-011  0.5930196E+02  0.7816164E-02  0.1266605E+00
        -11   -1    0    0    0    0  0.00000000000E+00  0.00000000000E+00  0.45593999997E+02  0.45594000000E+02  0.51100000000E-03 0.  1.
         11   -1    0    0    0    0 -0.00000000000E+00 -0.00000000000E+00 -0.45593999997E+02  0.45594000000E+02  0.51100000000E-03 0. -1.
    9900012    2    1    2    0    0 -0.27866986978E+02  0.10074750955E+02 -0.11774984324E+02  0.59301955625E+02  0.50000021150E+02 0.  0.
        -12    1    1    2    0    0  0.27866986978E+02 -0.10074750955E+02  0.11774984324E+02  0.31886044375E+02  0.00000000000E+00 0.  1.
         11    1    3    3    0    0 -0.34654784810E+02  0.16868376362E+02 -0.67855490867E+01  0.39134893739E+02  0.51100000000E-03 0. -1.
        -11    1    3    3    0    0  0.12957264341E+01 -0.11930456288E+02 -0.26274543447E+01  0.12284877323E+02  0.51100000000E-03 0.  1.
        -12    1    3    3    0    0  0.54920713975E+01  0.51368308821E+01 -0.23619808926E+01  0.78821845629E+01  0.00000000000E+00 0.  1.
</event>
<event>
 7    1  0.1344618E-011  0.5930196E+02  0.7816164E-02  0.1266605E+00
        -11   -1    0    0    0    0  0.00000000000E+00  0.00000000000E+00  0.45593999997E+02  0.45594000000E+02  0.51100000000E-03 0. -1.
         11   -1    0    0    0    0 -0.00000000000E+00 -0.00000000000E+00 -0.45593999997E+02  0.45594000000E+02  0.51100000000E-03 0.  1.
    9900012    2    1    2    0    0 -0.34472424799E+01  0.10487886593E+02  0.29913883847E+02  0.59301957714E+02  0.50000024960E+02 0.  0.
        -12    1    1    2    0    0  0.34472424799E+01 -0.10487886593E+02 -0.29913883847E+02  0.31886042286E+02  0.00000000000E+00 0.  1.
         11    1    3    3    0    0  0.72071078206E+01  0.45420438911E+01  0.17483605745E+02  0.19448625554E+02  0.51100000000E-03 0. -1.
        -11    1    3    3    0    0 -0.81358701995E+01  0.17606407659E+02  0.18204055327E+02  0.26600105360E+02  0.51100000000E-03 0.  1.
        -12    1    3    3    0    0 -0.25184801010E+01 -0.11660564957E+02 -0.57737772251E+01  0.13253226799E+02  0.00000000000E+00 0.  1.
</event>
<event>
 7    1  0.1344618E-011  0.5930198E+02  0.7816164E-02  0.1266605E+00
        -11   -1    0    0    0    0  0.00000000000E+00  0.00000000000E+00  0.45593999997E+02  0.45594000000E+02  0.51100000000E-03 0.  1.
         11   -1    0    0    0    0 -0.00000000000E+00 -0.00000000000E+00 -0.45593999997E+02  0.45594000000E+02  0.51100000000E-03 0. -1.
    9900012    2    1    2    0    0 -0.22755746075E+02  0.21009274726E+02 -0.75831693996E+01  0.59301983283E+02  0.50000071592E+02 0.  0.
        -12    1    1    2    0    0  0.22755746075E+02 -0.21009274726E+02  0.75831693996E+01  0.31886016717E+02  0.00000000000E+00 0.  1.
         11    1    3    3    0    0 -0.29287554704E+02  0.13130936082E+02 -0.16499744756E+02  0.36089110826E+02  0.51100000000E-03 0. -1.
        -11    1    3    3    0    0  0.74896519277E+01 -0.10115315943E+01 -0.31556672045E+01  0.81900133047E+01  0.51100000000E-03 0.  1.
        -12    1    3    3    0    0 -0.95784329854E+00  0.88898702379E+01  0.12072242561E+02  0.15022859152E+02  0.00000000000E+00 0.  1.
</event>
<event>
 7    1  0.1344618E-011  0.5930194E+02  0.7816164E-02  0.1266605E+00
        -11   -1    0    0    0    0  0.00000000000E+00  0.00000000000E+00  0.45593999997E+02  0.45594000000E+02  0.51100000000E-03 0. -1.
         11   -1    0    0    0    0 -0.00000000000E+00 -0.00000000000E+00 -0.45593999997E+02  0.45594000000E+02  0.51100000000E-03 0.  1.
    9900012    2    1    2    0    0 -0.19982263311E+02 -0.11238311947E+02  0.22161453924E+02  0.59301944388E+02  0.50000000657E+02 0.  0.
        -12    1    1    2    0    0  0.19982263311E+02  0.11238311947E+02 -0.22161453924E+02  0.31886055612E+02  0.00000000000E+00 0.  1.
         11    1    3    3    0    0  0.10091207965E+02 -0.11260104201E+02  0.50582114080E+01  0.15943899389E+02  0.51100000000E-03 0. -1.
        -11    1    3    3    0    0 -0.66633674016E+01  0.99097726653E+01  0.12937233484E+02  0.17606137279E+02  0.51100000000E-03 0.  1.
        -12    1    3    3    0    0 -0.23410103874E+02 -0.98879804116E+01  0.41660090327E+01  0.25751907721E+02  0.00000000000E+00 0.  1.
</event>
<event>
 7    1  0.1344618E-011  0.5930203E+02  0.7816164E-02  0.1266604E+00
        -11   -1    0    0    0    0  0.00000000000E+00  0.00000000000E+00  0.45593999997E+02  0.45594000000E+02  0.51100000000E-03 0. -1.
         11   -1    0    0    0    0 -0.00000000000E+00 -0.00000000000E+00 -0.45593999997E+02  0.45594000000E+02  0.51100000000E-03 0.  1.
    9900012    2    1    2    0    0  0.21137516427E+01 -0.22481953536E+02 -0.22512417237E+02  0.59302029564E+02  0.50000155998E+02 0.  0.
        -12    1    1    2    0    0 -0.21137516427E+01  0.22481953536E+02  0.22512417237E+02  0.31885970436E+02  0.00000000000E+00 0.  1.
         11    1    3    3    0    0 -0.74387147665E+01 -0.10816612136E+02 -0.11089710052E+02  0.17184738717E+02  0.51100000000E-03 0. -1.
        -11    1    3    3    0    0 -0.86102662011E+01 -0.18677638377E+02 -0.91685535057E+01  0.22517842549E+02  0.51100000000E-03 0.  1.
         12    1    3    3    0    0  0.18162732610E+02  0.70122969776E+01 -0.22541536792E+01  0.19599448298E+02  0.00000000000E+00 0. -1.
</event>
<event>
 7    1  0.1344618E-011  0.5930194E+02  0.7816164E-02  0.1266605E+00
        -11   -1    0    0    0    0  0.00000000000E+00  0.00000000000E+00  0.45593999997E+02  0.45594000000E+02  0.51100000000E-03 0.  1.
         11   -1    0    0    0    0 -0.00000000000E+00 -0.00000000000E+00 -0.45593999997E+02  0.45594000000E+02  0.51100000000E-03 0. -1.
    9900012    2    1    2    0    0 -0.28807613226E+02  0.63708687217E+01 -0.12093563006E+02  0.59301940127E+02  0.49999992886E+02 0.  0.
        -12    1    1    2    0    0  0.28807613226E+02 -0.63708687217E+01  0.12093563006E+02  0.31886059873E+02  0.00000000000E+00 0.  1.
         11    1    3    3    0    0 -0.25649855690E+02  0.10202760874E+02 -0.14068602269E+02  0.30982850037E+02  0.51100000000E-03 0. -1.
        -11    1    3    3    0    0 -0.11637603440E+02  0.25427461605E+01 -0.75155102962E+01  0.14084824001E+02  0.51100000000E-03 0.  1.
        -12    1    3    3    0    0  0.84798459041E+01 -0.63746383123E+01  0.94905495591E+01  0.14234266089E+02  0.00000000000E+00 0.  1.
</event>
<event>
 7    1  0.1344618E-011  0.5930194E+02  0.7816164E-02  0.1266605E+00
        -11   -1    0    0    0    0  0.00000000000E+00  0.00000000000E+00  0.45593999997E+02  0.45594000000E+02  0.51100000000E-03 0.  1.
         11   -1    0    0    0    0 -0.00000000000E+00 -0.00000000000E+00 -0.45593999997E+02  0.45594000000E+02  0.51100000000E-03 0. -1.
    9900012    2    1    2    0    0  0.19629405471E+02 -0.25575484385E+00 -0.25126515844E+02  0.59301940850E+02  0.49999994204E+02 0.  0.
        -12    1    1    2    0    0 -0.19629405471E+02  0.25575484385E+00  0.25126515844E+02  0.31886059150E+02  0.00000000000E+00 0.  1.
         11    1    3    3    0    0  0.13725750127E+02 -0.11136609273E+02 -0.21212422741E+02  0.27611359283E+02  0.51100000000E-03 0. -1.
        -11    1    3    3    0    0  0.13132106805E+02 -0.56225045161E+00  0.64518097199E+01  0.14642206242E+02  0.51100000000E-03 0.  1.
        -12    1    3    3    0    0 -0.72284514620E+01  0.11443104881E+02 -0.10365902823E+02  0.17048375324E+02  0.00000000000E+00 0.  1.
</event>
<event>
 7    1  0.1344618E-011  0.5930190E+02  0.7816164E-02  0.1266605E+00
        -11   -1    0    0    0    0  0.00000000000E+00  0.00000000000E+00  0.45593999997E+02  0.45594000000E+02  0.51100000000E-03 0.  1.
         11   -1    0    0    0    0 -0.00000000000E+00 -0.00000000000E+00 -0.45593999997E+02  0.45594000000E+02  0.51100000000E-03 0. -1.
    9900012    2    1    2    0    0  0.19380776624E+02  0.20740325179E+02 -0.14524034187E+02  0.59301903341E+02  0.49999925797E+02 0.  0.
        -12    1    1    2    0    0 -0.19380776624E+02 -0.20740325179E+02  0.14524034187E+02  0.31886096659E+02  0.00000000000E+00 0.  1.
         11    1    3    3    0    0  0.36811175419E+01 -0.20957570095E+01 -0.18506225218E+02  0.18984814876E+02  0.51100000000E-03 0. -1.
        -11    1    3    3    0    0 -0.39610911216E+01 -0.61100720682E+00 -0.67836947274E+01  0.78792186856E+01  0.51100000000E-03 0.  1.
        -12    1    3    3    0    0  0.19660750204E+02  0.23447089395E+02  0.10765885758E+02  0.32437869779E+02  0.00000000000E+00 0.  1.
</event>
<event>
 7    1  0.1344618E-011  0.5930193E+02  0.7816164E-02  0.1266605E+00
        -11   -1    0    0    0    0  0.00000000000E+00  0.00000000000E+00  0.45593999997E+02  0.45594000000E+02  0.51100000000E-03 0. -1.
         11   -1    0    0    0    0 -0.00000000000E+00 -0.00000000000E+00 -0.45593999997E+02  0.45594000000E+02  0.51100000000E-03 0.  1.
    9900012    2    1    2    0    0 -0.25911437262E+02 -0.18251855153E+02  0.34912013739E+01  0.59301932752E+02  0.49999979436E+02 0.  0.
        -12    1    1    2    0    0  0.25911437262E+02  0.18251855153E+02 -0.34912013739E+01  0.31886067248E+02  0.00000000000E+00 0.  1.
         11    1    3    3    0    0  0.40031864961E+01 -0.15177433778E+01  0.34451457760E+01  0.54952776783E+01  0.51100000000E-03 0. -1.
        -11    1    3    3    0    0 -0.19114494568E+01 -0.96527765771E+01  0.17486518561E+02  0.20065095722E+02  0.51100000000E-03 0.  1.
        -12    1    3    3    0    0 -0.28003174301E+02 -0.70813351985E+01 -0.17440462963E+02  0.33741559352E+02  0.00000000000E+00 0.  1.
</event>
<event>
 7    1  0.1344618E-011  0.5930194E+02  0.7816164E-02  0.1266605E+00
        -11   -1    0    0    0    0  0.00000000000E+00  0.00000000000E+00  0.45593999997E+02  0.45594000000E+02  0.51100000000E-03 0. -1.
         11   -1    0    0    0    0 -0.00000000000E+00 -0.00000000000E+00 -0.45593999997E+02  0.45594000000E+02  0.51100000000E-03 0.  1.
    9900012    2    1    2    0    0  0.13647030823E+02 -0.12529429557E+02  0.25951737211E+02  0.59301941611E+02  0.49999995593E+02 0.  0.
        -12    1    1    2    0    0 -0.13647030823E+02  0.12529429557E+02 -0.25951737211E+02  0.31886058389E+02  0.00000000000E+00 0.  1.
         11    1    3    3    0    0 -0.71332151960E+01 -0.13322588029E+02  0.25753764262E+02  0.29860182262E+02  0.51100000000E-03 0. -1.
        -11    1    3    3    0    0  0.50030141950E+01 -0.61973574852E+01  0.72780790623E+01  0.10789245846E+02  0.51100000000E-03 0.  1.
         12    1    3    3    0    0  0.15777231824E+02  0.69905159577E+01 -0.70801061128E+01  0.18652513502E+02  0.00000000000E+00 0. -1.
</event>
<event>
 7    1  0.1344618E-011  0.5930204E+02  0.7816164E-02  0.1266604E+00
        -11   -1    0    0    0    0  0.00000000000E+00  0.00000000000E+00  0.45593999997E+02  0.45594000000E+02  0.51100000000E-03 0.  1.
         11   -1    0    0    0    0 -0.00000000000E+00 -0.00000000000E+00 -0.45593999997E+02  0.45594000000E+02  0.51100000000E-03 0. -1.
    9900012    2    1    2    0    0 -0.58396444438E+00 -0.93852409105E+01 -0.30467863430E+02  0.59302039714E+02  0.50000174508E+02 0.  0.
        -12    1    1    2    0    0  0.58396444438E+00  0.93852409105E+01  0.30467863430E+02  0.31885960286E+02  0.00000000000E+00 0.  1.
         11    1    3    3    0    0 -0.11153893996E+02 -0.37489837003E+01 -0.36599395336E+02  0.38444505060E+02  0.51100000000E-03 0. -1.
        -11    1    3    3    0    0 -0.52189053752E+00  0.44258268247E+01 -0.48971951203E+00  0.44833177756E+01  0.51100000000E-03 0.  1.
         12    1    3    3    0    0  0.11091820090E+02 -0.10062084035E+02  0.66212514185E+01  0.16374216878E+02  0.00000000000E+00 0. -1.
</event>
<event>
 7    1  0.1344618E-011  0.5930195E+02  0.7816164E-02  0.1266605E+00
        -11   -1    0    0    0    0  0.00000000000E+00  0.00000000000E+00  0.45593999997E+02  0.45594000000E+02  0.51100000000E-03 0. -1.
         11   -1    0    0    0    0 -0.00000000000E+00 -0.00000000000E+00 -0.45593999997E+02  0.45594000000E+02  0.51100000000E-03 0.  1.
    9900012    2    1    2    0    0 -0.26770771543E+02 -0.17832743108E+01  0.17229806249E+02  0.59301945060E+02  0.50000001883E+02 0.  0.
        -12    1    1    2    0    0  0.26770771543E+02  0.17832743108E+01 -0.17229806249E+02  0.31886054940E+02  0.00000000000E+00 0.  1.
         11    1    3    3    0    0  0.11151065435E+02 -0.10873618670E+01  0.24675737010E+01  0.11472468627E+02  0.51100000000E-03 0. -1.
        -11    1    3    3    0    0  0.32031590757E+01  0.15653561013E+01 -0.10418711205E+01  0.37143052488E+01  0.51100000000E-03 0.  1.
         12    1    3    3    0    0 -0.41124996054E+02 -0.22612685451E+01  0.15804103669E+02  0.44115171184E+02  0.00000000000E+00 0. -1.
</event>
<event>
 7    1  0.1344618E-011  0.5930195E+02  0.7816164E-02  0.1266605E+00
        -11   -1    0    0    0    0  0.00000000000E+00  0.00000000000E+00  0.45593999997E+02  0.45594000000E+02  0.51100000000E-03 0.  1.
         11   -1    0    0    0    0 -0.00000000000E+00 -0.00000000000E+00 -0.45593999997E+02  0.45594000000E+02  0.51100000000E-03 0. -1.
    9900012    2    1    2    0    0 -0.23055886614E+02 -0.16604378178E+02 -0.14472080776E+02  0.59301946557E+02  0.50000004612E+02 0.  0.
        -12    1    1    2    0    0  0.23055886614E+02  0.16604378178E+02  0.14472080776E+02  0.31886053443E+02  0.00000000000E+00 0.  1.
         11    1    3    3    0    0 -0.61262607523E+01  0.51650309788E+01 -0.26306838671E+02  0.27500152308E+02  0.51100000000E-03 0. -1.
        -11    1    3    3    0    0 -0.94906750700E+01 -0.12277059882E+02  0.93457484520E+00  0.15545820758E+02  0.51100000000E-03 0.  1.
        -12    1    3    3    0    0 -0.74389507912E+01 -0.94923492739E+01  0.10900183050E+02  0.16255973491E+02  0.00000000000E+00 0.  1.
</event>
<event>
 7    1  0.1344618E-011  0.5930194E+02  0.7816164E-02  0.1266605E+00
        -11   -1    0    0    0    0  0.00000000000E+00  0.00000000000E+00  0.45593999997E+02  0.45594000000E+02  0.51100000000E-03 0. -1.
         11   -1    0    0    0    0 -0.00000000000E+00 -0.00000000000E+00 -0.45593999997E+02  0.45594000000E+02  0.51100000000E-03 0.  1.
    9900012    2    1    2    0    0 -0.25517996047E+01 -0.62154520777E+01  0.31170138274E+02  0.59301936496E+02  0.49999986263E+02 0.  0.
        -12    1    1    2    0    0  0.25517996047E+01  0.62154520777E+01 -0.31170138274E+02  0.31886063504E+02  0.00000000000E+00 0.  1.
         11    1    3    3    0    0  0.56267614198E+01  0.51637241082E+01  0.19399731006E+02  0.20848838196E+02  0.51100000000E-03 0.  1.
        -11    1    3    3    0    0 -0.88369912029E+01 -0.20206041776E+02  0.17288410945E+02  0.28022592511E+02  0.51100000000E-03 0. -1.
        -12    1    3    3    0    0  0.65843017848E+00  0.88268655898E+01 -0.55180036767E+01  0.10430505789E+02  0.00000000000E+00 0.  1.
</event>
<event>
 7    1  0.1344618E-011  0.5930194E+02  0.7816164E-02  0.1266605E+00
        -11   -1    0    0    0    0  0.00000000000E+00  0.00000000000E+00  0.45593999997E+02  0.45594000000E+02  0.51100000000E-03 0. -1.
         11   -1    0    0    0    0 -0.00000000000E+00 -0.00000000000E+00 -0.45593999997E+02  0.45594000000E+02  0.51100000000E-03 0.  1.
    9900012    2    1    2    0    0  0.24107472837E+02 -0.17550579871E+02  0.11292805749E+02  0.59301944081E+02  0.50000000098E+02 0.  0.
        -12    1    1    2    0    0 -0.24107472837E+02  0.17550579871E+02 -0.11292805749E+02  0.31886055919E+02  0.00000000000E+00 0.  1.
         11    1    3    3    0    0 -0.81551631382E+01 -0.14269494476E+02  0.10640579312E+02  0.19579251435E+02  0.51100000000E-03 0. -1.
        -11    1    3    3    0    0  0.52920829406E+01 -0.35645558162E+01 -0.90374943705E+01  0.11062933823E+02  0.51100000000E-03 0.  1.
        -12    1    3    3    0    0  0.26970553034E+02  0.28347042137E+00  0.96897208077E+01  0.28659758823E+02  0.00000000000E+00 0.  1.
</event>
<event>
 7    1  0.3060514E-011  0.5930196E+02  0.7816164E-02  0.1266605E+00
        -11   -1    0    0    0    0  0.00000000000E+00  0.00000000000E+00  0.45593999997E+02  0.45594000000E+02  0.51100000000E-03 0. -1.
         11   -1    0    0    0    0 -0.00000000000E+00 -0.00000000000E+00 -0.45593999997E+02  0.45594000000E+02  0.51100000000E-03 0.  1.
    9900012    2    1    2    0    0  0.23518047674E+02 -0.68531623884E+01  0.20412138929E+02  0.59301955768E+02  0.50000021411E+02 0.  0.
        -12    1    1    2    0    0 -0.23518047674E+02  0.68531623884E+01 -0.20412138929E+02  0.31886044232E+02  0.00000000000E+00 0.  1.
         11    1    3    3    0    0  0.23527596049E+02 -0.91710284303E+01  0.19078235337E+02  0.31648611378E+02  0.51100000000E-03 0. -1.
        -11    1    3    3    0    0  0.89137207225E+01  0.10844544387E+02  0.47966308690E+01  0.14834629353E+02  0.51100000000E-03 0.  1.
        -12    1    3    3    0    0 -0.89232690977E+01 -0.85266783455E+01 -0.34627272769E+01  0.12818715037E+02  0.00000000000E+00 0.  1.
</event>
<event>
 7    1  0.1344618E-011  0.5930200E+02  0.7816164E-02  0.1266605E+00
        -11   -1    0    0    0    0  0.00000000000E+00  0.00000000000E+00  0.45593999997E+02  0.45594000000E+02  0.51100000000E-03 0. -1.
         11   -1    0    0    0    0 -0.00000000000E+00 -0.00000000000E+00 -0.45593999997E+02  0.45594000000E+02  0.51100000000E-03 0.  1.
    9900012    2    1    2    0    0 -0.11099971286E+02 -0.29646152072E+02 -0.38227295469E+01  0.59302000621E+02  0.50000103212E+02 0.  0.
        -12    1    1    2    0    0  0.11099971286E+02  0.29646152072E+02  0.38227295469E+01  0.31885999379E+02  0.00000000000E+00 0.  1.
         11    1    3    3    0    0  0.88328779779E+01 -0.12136937331E+02 -0.13145663690E+02  0.19953281817E+02  0.51100000000E-03 0. -1.
        -11    1    3    3    0    0 -0.10341148569E+02 -0.48869922823E+01 -0.94077894810E+01  0.14809745119E+02  0.51100000000E-03 0.  1.
         12    1    3    3    0    0 -0.95917006942E+01 -0.12622222459E+02  0.18730723625E+02  0.24538973685E+02  0.00000000000E+00 0. -1.
</event>
<event>
 7    1  0.1344618E-011  0.5930192E+02  0.7816164E-02  0.1266605E+00
        -11   -1    0    0    0    0  0.00000000000E+00  0.00000000000E+00  0.45593999997E+02  0.45594000000E+02  0.51100000000E-03 0.  1.
         11   -1    0    0    0    0 -0.00000000000E+00 -0.00000000000E+00 -0.45593999997E+02  0.45594000000E+02  0.51100000000E-03 0. -1.
    9900012    2    1    2    0    0  0.31836357717E+02 -0.17689390787E+01 -0.19753521143E+00  0.59301924069E+02  0.49999963600E+02 0.  0.
        -12    1    1    2    0    0 -0.31836357717E+02  0.17689390787E+01  0.19753521143E+00  0.31886075931E+02  0.00000000000E+00 0.  1.
         11    1    3    3    0    0  0.31365343028E+01 -0.67635455094E+00 -0.88820260488E+01  0.94438175493E+01  0.51100000000E-03 0. -1.
        -11    1    3    3    0    0  0.16991756338E+02  0.18297313073E+02 -0.15170205797E+01  0.25016250735E+02  0.51100000000E-03 0.  1.
        -12    1    3    3    0    0  0.11708067076E+02 -0.19389897601E+02  0.10201511417E+02  0.24841855785E+02  0.00000000000E+00 0.  1.
</event>
<event>
 7    1  0.1344618E-011  0.5930194E+02  0.7816164E-02  0.1266605E+00
        -11   -1    0    0    0    0  0.00000000000E+00  0.00000000000E+00  0.45593999997E+02  0.45594000000E+02  0.51100000000E-03 0.  1.
         11   -1    0    0    0    0 -0.00000000000E+00 -0.00000000000E+00 -0.45593999997E+02  0.45594000000E+02  0.51100000000E-03 0. -1.
    9900012    2    1    2    0    0  0.61125086099E+01 -0.22221453710E+01 -0.31215702296E+02  0.59301940955E+02  0.49999994396E+02 0.  0.
        -12    1    1    2    0    0 -0.61125086099E+01  0.22221453710E+01  0.31215702296E+02  0.31886059045E+02  0.00000000000E+00 0.  1.
         11    1    3    3    0    0  0.11456130702E+02 -0.19767536057E+02 -0.24062010735E+02  0.33181000185E+02  0.51100000000E-03 0. -1.
        -11    1    3    3    0    0  0.38194655534E+01 -0.60522378442E+00 -0.39675522941E+01  0.55404047154E+01  0.51100000000E-03 0.  1.
        -12    1    3    3    0    0 -0.91630876458E+01  0.18150614471E+02 -0.31861392677E+01  0.20580536055E+02  0.00000000000E+00 0.  1.
</event>
<event>
 7    1  0.1344618E-011  0.5930194E+02  0.7816164E-02  0.1266605E+00
        -11   -1    0    0    0    0  0.00000000000E+00  0.00000000000E+00  0.45593999997E+02  0.45594000000E+02  0.51100000000E-03 0.  1.
         11   -1    0    0    0    0 -0.00000000000E+00 -0.00000000000E+00 -0.45593999997E+02  0.45594000000E+02  0.51100000000E-03 0. -1.
    9900012    2    1    2    0    0  0.30850467212E+02 -0.79478157070E+01  0.13421931566E+01  0.59301943735E+02  0.49999999465E+02 0.  0.
        -12    1    1    2    0    0 -0.30850467212E+02  0.79478157070E+01 -0.13421931566E+01  0.31886056265E+02  0.00000000000E+00 0.  1.
         11    1    3    3    0    0  0.13400533560E+02  0.16068572208E+02  0.27325779480E+01  0.21100717879E+02  0.51100000000E-03 0.  1.
        -11    1    3    3    0    0 -0.25349819971E+01 -0.94850242179E+00  0.61875743597E+01  0.67536558461E+01  0.51100000000E-03 0. -1.
         12    1    3    3    0    0  0.19984915649E+02 -0.23067885493E+02 -0.75779591511E+01  0.31447570009E+02  0.00000000000E+00 0. -1.
</event>
<event>
 7    1  0.1344618E-011  0.5930181E+02  0.7816164E-02  0.1266605E+00
        -11   -1    0    0    0    0  0.00000000000E+00  0.00000000000E+00  0.45593999997E+02  0.45594000000E+02  0.51100000000E-03 0. -1.
         11   -1    0    0    0    0 -0.00000000000E+00 -0.00000000000E+00 -0.45593999997E+02  0.45594000000E+02  0.51100000000E-03 0.  1.
    9900012    2    1    2    0    0  0.28833944634E+02 -0.24941005732E+01  0.13383277256E+02  0.59301811596E+02  0.49999758476E+02 0.  0.
        -12    1    1    2    0    0 -0.28833944634E+02  0.24941005732E+01 -0.13383277256E+02  0.31886188404E+02  0.00000000000E+00 0.  1.
         11    1    3    3    0    0  0.22035858233E+01  0.42727320160E+01 -0.39800162168E+01  0.62411984994E+01  0.51100000000E-03 0. -1.
        -11    1    3    3    0    0  0.88489811129E+01  0.17613695620E+02  0.42821945093E+01  0.20171364113E+02  0.51100000000E-03 0.  1.
         12    1    3    3    0    0  0.17781377698E+02 -0.24380528209E+02  0.13081098963E+02  0.32889248983E+02  0.00000000000E+00 0. -1.
</event>
<event>
 7    1  0.1344618E-011  0.5930195E+02  0.7816164E-02  0.1266605E+00
        -11   -1    0    0    0    0  0.00000000000E+00  0.00000000000E+00  0.45593999997E+02  0.45594000000E+02  0.51100000000E-03 0.  1.
         11   -1    0    0    0    0 -0.00000000000E+00 -0.00000000000E+00 -0.45593999997E+02  0.45594000000E+02  0.51100000000E-03 0. -1.
    9900012    2    1    2    0    0  0.27455995201E+02 -0.31111899230E+00 -0.16210856822E+02  0.59301947463E+02  0.50000006265E+02 0.  0.
        -12    1    1    2    0    0 -0.27455995201E+02  0.31111899230E+00  0.16210856822E+02  0.31886052537E+02  0.00000000000E+00 0.  1.
         11    1    3    3    0    0  0.22862570849E+02  0.55801418250E+01 -0.57459327301E+01  0.24225005094E+02  0.51100000000E-03 0. -1.
        -11    1    3    3    0    0 -0.42120831340E+00 -0.93803292468E+01 -0.20940981309E+02  0.22949786310E+02  0.51100000000E-03 0.  1.
         12    1    3    3    0    0  0.50146326653E+01  0.34890684295E+01  0.10476057217E+02  0.12127156059E+02  0.00000000000E+00 0. -1.
</event>
<event>
 7    1  0.1344618E-011  0.5930195E+02  0.7816164E-02  0.1266605E+00
        -11   -1    0    0    0    0  0.00000000000E+00  0.00000000000E+00  0.45593999997E+02  0.45594000000E+02  0.51100000000E-03 0. -1.
         11   -1    0    0    0    0 -0.00000000000E+00 -0.00000000000E+00 -0.45593999997E+02  0.45594000000E+02  0.51100000000E-03 0.  1.
    9900012    2    1    2    0    0 -0.99033526690E+01 -0.55086685049E+00  0.30304125430E+02  0.59301954989E+02  0.50000019991E+02 0.  0.
        -12    1    1    2    0    0  0.99033526690E+01  0.55086685049E+00 -0.30304125430E+02  0.31886045011E+02  0.00000000000E+00 0.  1.
         11    1    3    3    0    0  0.29042098886E+01 -0.10725481273E+02 -0.36995802130E+01  0.11711416550E+02  0.51100000000E-03 0. -1.
        -11    1    3    3    0    0  0.73787841996E+01  0.10742883439E+02  0.11862316668E+02  0.17623012168E+02  0.51100000000E-03 0.  1.
         12    1    3    3    0    0 -0.20186346757E+02 -0.56826901741E+00  0.22141388975E+02  0.29967526271E+02  0.00000000000E+00 0. -1.
</event>
<event>
 7    1  0.1344618E-011  0.5930198E+02  0.7816164E-02  0.1266605E+00
        -11   -1    0    0    0    0  0.00000000000E+00  0.00000000000E+00  0.45593999997E+02  0.45594000000E+02  0.51100000000E-03 0.  1.
         11   -1    0    0    0    0 -0.00000000000E+00 -0.00000000000E+00 -0.45593999997E+02  0.45594000000E+02  0.51100000000E-03 0. -1.
    9900012    2    1    2    0    0 -0.18237689955E+02  0.41104162900E+01 -0.25830397903E+02  0.59301979351E+02  0.50000064422E+02 0.  0.
        -12    1    1    2    0    0  0.18237689955E+02 -0.41104162900E+01  0.25830397903E+02  0.31886020649E+02  0.00000000000E+00 0.  1.
         11    1    3    3    0    0 -0.41925453028E+01  0.33129188397E+00 -0.10963192967E+02  0.11742179982E+02  0.51100000000E-03 0. -1.
        -11    1    3    3    0    0  0.10378704700E+02  0.29889183035E+01 -0.19870618976E+02  0.22616203099E+02  0.51100000000E-03 0.  1.
        -12    1    3    3    0    0 -0.24423849352E+02  0.79020610253E+00  0.50034140399E+01  0.24943596270E+02  0.00000000000E+00 0.  1.
</event>
<event>
 7    1  0.1344618E-011  0.5930196E+02  0.7816164E-02  0.1266605E+00
        -11   -1    0    0    0    0  0.00000000000E+00  0.00000000000E+00  0.45593999997E+02  0.45594000000E+02  0.51100000000E-03 0. -1.
         11   -1    0    0    0    0 -0.00000000000E+00 -0.00000000000E+00 -0.45593999997E+02  0.45594000000E+02  0.51100000000E-03 0.  1.
    9900012    2    1    2    0    0  0.29442711103E+02  0.12130974735E+02  0.16388459661E+01  0.59301959148E+02  0.50000027576E+02 0.  0.
        -12    1    1    2    0    0 -0.29442711103E+02 -0.12130974735E+02 -0.16388459661E+01  0.31886040852E+02  0.00000000000E+00 0.  1.
         11    1    3    3    0    0  0.24004060741E+01  0.61479831021E+01 -0.29191601261E+01  0.72167265188E+01  0.51100000000E-03 0. -1.
        -11    1    3    3    0    0  0.16236446757E+01  0.38980553649E+01 -0.17723145902E+02  0.18219246927E+02  0.51100000000E-03 0.  1.
         12    1    3    3    0    0  0.25418660353E+02  0.20849362675E+01  0.22281151994E+02  0.33865985702E+02  0.00000000000E+00 0. -1.
</event>
<event>
 7    1  0.1344618E-011  0.5930194E+02  0.7816164E-02  0.1266605E+00
        -11   -1    0    0    0    0  0.00000000000E+00  0.00000000000E+00  0.45593999997E+02  0.45594000000E+02  0.51100000000E-03 0. -1.
         11   -1    0    0    0    0 -0.00000000000E+00 -0.00000000000E+00 -0.45593999997E+02  0.45594000000E+02  0.51100000000E-03 0.  1.
    9900012    2    1    2    0    0 -0.26201493387E+00  0.30567462382E+02 -0.90709540083E+01  0.59301943253E+02  0.49999998587E+02 0.  0.
        -12    1    1    2    0    0  0.26201493387E+00 -0.30567462382E+02  0.90709540083E+01  0.31886056747E+02  0.00000000000E+00 0.  1.
         11    1    3    3    0    0 -0.30336615788E+01 -0.25219245431E+01 -0.86212477256E+01  0.94809872157E+01  0.51100000000E-03 0. -1.
        -11    1    3    3    0    0 -0.28084174015E+01 -0.56632884352E+01 -0.77423658556E+01  0.99952125292E+01  0.51100000000E-03 0.  1.
         12    1    3    3    0    0  0.55800640465E+01  0.38752675360E+02  0.72926595730E+01  0.39825743508E+02  0.00000000000E+00 0. -1.
</event>
<event>
 7    1  0.1344618E-011  0.5930197E+02  0.7816164E-02  0.1266605E+00
        -11   -1    0    0    0    0  0.00000000000E+00  0.00000000000E+00  0.45593999997E+02  0.45594000000E+02  0.51100000000E-03 0. -1.
         11   -1    0    0    0    0 -0.00000000000E+00 -0.00000000000E+00 -0.45593999997E+02  0.45594000000E+02  0.51100000000E-03 0.  1.
    9900012    2    1    2    0    0 -0.26723340932E+01 -0.90296856898E+01  0.30463783397E+02  0.59301973405E+02  0.50000053578E+02 0.  0.
        -12    1    1    2    0    0  0.26723340932E+01  0.90296856898E+01 -0.30463783397E+02  0.31886026595E+02  0.00000000000E+00 0.  1.
         11    1    3    3    0    0  0.54028847743E+01  0.62476043014E+01  0.15012886693E+01  0.83950932884E+01  0.51100000000E-03 0. -1.
        -11    1    3    3    0    0  0.34236407680E+01  0.53530403602E+01  0.26395167459E+02  0.27149239817E+02  0.51100000000E-03 0.  1.
        -12    1    3    3    0    0 -0.11498859635E+02 -0.20630330351E+02  0.25673272687E+01  0.23757640300E+02  0.00000000000E+00 0.  1.
</event>
<event>
 7    1  0.1344618E-011  0.5930196E+02  0.7816164E-02  0.1266605E+00
        -11   -1    0    0    0    0  0.00000000000E+00  0.00000000000E+00  0.45593999997E+02  0.45594000000E+02  0.51100000000E-03 0. -1.
         11   -1    0    0    0    0 -0.00000000000E+00 -0.00000000000E+00 -0.45593999997E+02  0.45594000000E+02  0.51100000000E-03 0.  1.
    9900012    2    1    2    0    0 -0.26112707048E+02  0.36153568413E+01  0.17938102531E+02  0.59301956080E+02  0.50000021980E+02 0.  0.
        -12    1    1    2    0    0  0.26112707048E+02 -0.36153568413E+01 -0.17938102531E+02  0.31886043920E+02  0.00000000000E+00 0.  1.
         11    1    3    3    0    0 -0.18452644566E+02  0.47121012194E+01  0.83827071817E+01  0.20808021755E+02  0.51100000000E-03 0. -1.
        -11    1    3    3    0    0 -0.20565665281E+02 -0.52401090217E+01  0.12490252879E+02  0.24625428894E+02  0.51100000000E-03 0.  1.
        -12    1    3    3    0    0  0.12905602798E+02  0.41433646435E+01 -0.29348575301E+01  0.13868505431E+02  0.00000000000E+00 0.  1.
</event>
<event>
 7    1  0.1344618E-011  0.5930194E+02  0.7816164E-02  0.1266605E+00
        -11   -1    0    0    0    0  0.00000000000E+00  0.00000000000E+00  0.45593999997E+02  0.45594000000E+02  0.51100000000E-03 0.  1.
         11   -1    0    0    0    0 -0.00000000000E+00 -0.00000000000E+00 -0.45593999997E+02  0.45594000000E+02  0.51100000000E-03 0. -1.
    9900012    2    1    2    0    0 -0.28128702425E+01  0.20986728181E+02 -0.23840419965E+02  0.59301943127E+02  0.49999998358E+02 0.  0.
        -12    1    1    2    0    0  0.28128702425E+01 -0.20986728181E+02  0.23840419965E+02  0.31886056873E+02  0.00000000000E+00 0.  1.
         11    1    3    3    0    0  0.14876560873E+02  0.17974703867E+02 -0.21243688885E+01  0.23428934802E+02  0.51100000000E-03 0. -1.
        -11    1    3    3    0    0 -0.12300120332E+01 -0.78984011862E+01 -0.26439648853E+01  0.84195143254E+01  0.51100000000E-03 0.  1.
        -12    1    3    3    0    0 -0.16459419082E+02  0.10910425501E+02 -0.19072086192E+02  0.27453494001E+02  0.00000000000E+00 0.  1.
</event>
<event>
 7    1  0.1344618E-011  0.5930189E+02  0.7816164E-02  0.1266605E+00
        -11   -1    0    0    0    0  0.00000000000E+00  0.00000000000E+00  0.45593999997E+02  0.45594000000E+02  0.51100000000E-03 0.  1.
         11   -1    0    0    0    0 -0.00000000000E+00 -0.00000000000E+00 -0.45593999997E+02  0.45594000000E+02  0.51100000000E-03 0. -1.
    9900012    2    1    2    0    0  0.11911410975E+02  0.25545733449E+02  0.14908311779E+02  0.59301890658E+02  0.49999902666E+02 0.  0.
        -12    1    1    2    0    0 -0.11911410975E+02 -0.25545733449E+02 -0.14908311779E+02  0.31886109342E+02  0.00000000000E+00 0.  1.
         11    1    3    3    0    0  0.98895502383E+01  0.16240888773E+02  0.15506457472E+02  0.24536093733E+02  0.51100000000E-03 0. -1.
        -11    1    3    3    0    0 -0.45411418002E+00  0.68448401544E+01 -0.16824001948E+02  0.18168794628E+02  0.51100000000E-03 0.  1.
         12    1    3    3    0    0  0.24759749169E+01  0.24600045216E+01  0.16225856255E+02  0.16597002297E+02  0.00000000000E+00 0. -1.
</event>
<event>
 7    1  0.1344618E-011  0.5930196E+02  0.7816164E-02  0.1266605E+00
        -11   -1    0    0    0    0  0.00000000000E+00  0.00000000000E+00  0.45593999997E+02  0.45594000000E+02  0.51100000000E-03 0. -1.
         11   -1    0    0    0    0 -0.00000000000E+00 -0.00000000000E+00 -0.45593999997E+02  0.45594000000E+02  0.51100000000E-03 0.  1.
    9900012    2    1    2    0    0  0.82815771060E+01 -0.25263504314E+02  0.17603707481E+02  0.59301957808E+02  0.50000025131E+02 0.  0.
        -12    1    1    2    0    0 -0.82815771060E+01  0.25263504314E+02 -0.17603707481E+02  0.31886042192E+02  0.00000000000E+00 0.  1.
         11    1    3    3    0    0  0.39295799785E+01 -0.41991485710E+01 -0.70404414234E+01  0.90907790220E+01  0.51100000000E-03 0. -1.
        -11    1    3    3    0    0  0.98363002607E+01 -0.16531998066E+01 -0.73496033722E+01  0.12389614296E+02  0.51100000000E-03 0.  1.
        -12    1    3    3    0    0 -0.54843031333E+01 -0.19411155937E+02  0.31993752277E+02  0.37821564489E+02  0.00000000000E+00 0.  1.
</event>
<event>
 7    1  0.1344618E-011  0.5930195E+02  0.7816164E-02  0.1266605E+00
        -11   -1    0    0    0    0  0.00000000000E+00  0.00000000000E+00  0.45593999997E+02  0.45594000000E+02  0.51100000000E-03 0.  1.
         11   -1    0    0    0    0 -0.00000000000E+00 -0.00000000000E+00 -0.45593999997E+02  0.45594000000E+02  0.51100000000E-03 0. -1.
    9900012    2    1    2    0    0  0.28144721705E+02  0.64863981655E+01 -0.13510039889E+02  0.59301954482E+02  0.50000019065E+02 0.  0.
        -12    1    1    2    0    0 -0.28144721705E+02 -0.64863981655E+01  0.13510039889E+02  0.31886045518E+02  0.00000000000E+00 0.  1.
         11    1    3    3    0    0  0.51716322118E+01  0.40339986904E+01  0.38899027757E+01  0.76256323694E+01  0.51100000000E-03 0. -1.
        -11    1    3    3    0    0  0.34863675763E+02  0.35448262045E+01 -0.67737347698E+01  0.35692088248E+02  0.51100000000E-03 0.  1.
         12    1    3    3    0    0 -0.11890586270E+02 -0.10924267294E+01 -0.10626207895E+02  0.15984233864E+02  0.00000000000E+00 0. -1.
</event>
<event>
 7    1  0.1344618E-011  0.5930193E+02  0.7816164E-02  0.1266605E+00
        -11   -1    0    0    0    0  0.00000000000E+00  0.00000000000E+00  0.45593999997E+02  0.45594000000E+02  0.51100000000E-03 0.  1.
         11   -1    0    0    0    0 -0.00000000000E+00 -0.00000000000E+00 -0.45593999997E+02  0.45594000000E+02  0.51100000000E-03 0. -1.
    9900012    2    1    2    0    0  0.18305993187E+02  0.30943827116E+01 -0.25923678155E+02  0.59301926551E+02  0.49999968126E+02 0.  0.
        -12    1    1    2    0    0 -0.18305993187E+02 -0.30943827116E+01  0.25923678155E+02  0.31886073449E+02  0.00000000000E+00 0.  1.
         11    1    3    3    0    0 -0.35812477403E+01  0.11265490586E+02  0.25648971086E+01  0.12096086597E+02  0.51100000000E-03 0.  1.
        -11    1    3    3    0    0  0.19646442104E+02  0.54164343686E+01 -0.26284473174E+02  0.33259494568E+02  0.51100000000E-03 0. -1.
         12    1    3    3    0    0  0.22407988235E+01 -0.13587542243E+02 -0.22041020893E+01  0.13946345385E+02  0.00000000000E+00 0. -1.
</event>
<event>
 7    1  0.1344618E-011  0.5930196E+02  0.7816164E-02  0.1266605E+00
        -11   -1    0    0    0    0  0.00000000000E+00  0.00000000000E+00  0.45593999997E+02  0.45594000000E+02  0.51100000000E-03 0.  1.
         11   -1    0    0    0    0 -0.00000000000E+00 -0.00000000000E+00 -0.45593999997E+02  0.45594000000E+02  0.51100000000E-03 0. -1.
    9900012    2    1    2    0    0  0.12805416494E+02  0.17533028340E+02 -0.23352385773E+02  0.59301957667E+02  0.50000024874E+02 0.  0.
        -12    1    1    2    0    0 -0.12805416494E+02 -0.17533028340E+02  0.23352385773E+02  0.31886042333E+02  0.00000000000E+00 0.  1.
         11    1    3    3    0    0  0.88436151547E+01  0.22503211815E+02 -0.13420021022E+02  0.27653228301E+02  0.51100000000E-03 0. -1.
        -11    1    3    3    0    0 -0.32040160872E+01  0.13390811286E+01 -0.18498507455E+02  0.18821626807E+02  0.51100000000E-03 0.  1.
         12    1    3    3    0    0  0.71658174267E+01 -0.63092646034E+01  0.85661427035E+01  0.12827102558E+02  0.00000000000E+00 0. -1.
</event>
<event>
 7    1  0.1344618E-011  0.5930196E+02  0.7816164E-02  0.1266605E+00
        -11   -1    0    0    0    0  0.00000000000E+00  0.00000000000E+00  0.45593999997E+02  0.45594000000E+02  0.51100000000E-03 0. -1.
         11   -1    0    0    0    0 -0.00000000000E+00 -0.00000000000E+00 -0.45593999997E+02  0.45594000000E+02  0.51100000000E-03 0.  1.
    9900012    2    1    2    0    0 -0.14239471160E+02 -0.27919499615E+02  0.58701614021E+01  0.59301956148E+02  0.50000022104E+02 0.  0.
        -12    1    1    2    0    0  0.14239471160E+02  0.27919499615E+02 -0.58701614021E+01  0.31886043852E+02  0.00000000000E+00 0.  1.
         11    1    3    3    0    0 -0.16847261801E+02 -0.22551942382E+02  0.15218728653E+02  0.32000469332E+02  0.51100000000E-03 0. -1.
        -11    1    3    3    0    0 -0.77052462495E+01 -0.27426298666E+01  0.48872113737E+01  0.95277318194E+01  0.51100000000E-03 0.  1.
        -12    1    3    3    0    0  0.10313036891E+02 -0.26249273663E+01 -0.14235778625E+02  0.17773754996E+02  0.00000000000E+00 0.  1.
</event>
<event>
 7    1  0.1344618E-011  0.5930196E+02  0.7816164E-02  0.1266605E+00
        -11   -1    0    0    0    0  0.00000000000E+00  0.00000000000E+00  0.45593999997E+02  0.45594000000E+02  0.51100000000E-03 0. -1.
         11   -1    0    0    0    0 -0.00000000000E+00 -0.00000000000E+00 -0.45593999997E+02  0.45594000000E+02  0.51100000000E-03 0.  1.
    9900012    2    1    2    0    0  0.94758879591E+01  0.26690428900E+02  0.14647457158E+02  0.59301961540E+02  0.50000031938E+02 0.  0.
        -12    1    1    2    0    0 -0.94758879591E+01 -0.26690428900E+02 -0.14647457158E+02  0.31886038460E+02  0.00000000000E+00 0.  1.
         11    1    3    3    0    0  0.25635512350E+01 -0.34335690836E+01  0.15578658052E+02  0.16157220632E+02  0.51100000000E-03 0. -1.
        -11    1    3    3    0    0  0.25313293380E+00  0.37935542930E+01 -0.12911997695E+02  0.13460119434E+02  0.51100000000E-03 0.  1.
         12    1    3    3    0    0  0.66592037902E+01  0.26330443691E+02  0.11980796800E+02  0.29684621474E+02  0.00000000000E+00 0. -1.
</event>
<event>
 7    1  0.1344618E-011  0.5930181E+02  0.7816164E-02  0.1266605E+00
        -11   -1    0    0    0    0  0.00000000000E+00  0.00000000000E+00  0.45593999997E+02  0.45594000000E+02  0.51100000000E-03 0.  1.
         11   -1    0    0    0    0 -0.00000000000E+00 -0.00000000000E+00 -0.45593999997E+02  0.45594000000E+02  0.51100000000E-03 0. -1.
    9900012    2    1    2    0    0  0.15611317711E+02  0.13116822423E+02 -0.24514587205E+02  0.59301807738E+02  0.49999751439E+02 0.  0.
        -12    1    1    2    0    0 -0.15611317711E+02 -0.13116822423E+02  0.24514587205E+02  0.31886192262E+02  0.00000000000E+00 0.  1.
         11    1    3    3    0    0 -0.24777904088E+01 -0.82993617561E+01  0.24323803877E+00  0.86647571157E+01  0.51100000000E-03 0.  1.
        -11    1    3    3    0    0  0.24803211087E+02  0.50986639249E+01 -0.20256290916E+02  0.32427040814E+02  0.51100000000E-03 0. -1.
         12    1    3    3    0    0 -0.67141029668E+01  0.16317520254E+02 -0.45015343280E+01  0.18210009808E+02  0.00000000000E+00 0. -1.
</event>
<event>
 7    1  0.1344618E-011  0.5930195E+02  0.7816164E-02  0.1266605E+00
        -11   -1    0    0    0    0  0.00000000000E+00  0.00000000000E+00  0.45593999997E+02  0.45594000000E+02  0.51100000000E-03 0.  1.
         11   -1    0    0    0    0 -0.00000000000E+00 -0.00000000000E+00 -0.45593999997E+02  0.45594000000E+02  0.51100000000E-03 0. -1.
    9900012    2    1    2    0    0  0.24595007682E+02  0.14819491613E+02 -0.13863207509E+02  0.59301948865E+02  0.50000008822E+02 0.  0.
        -12    1    1    2    0    0 -0.24595007682E+02 -0.14819491613E+02  0.13863207509E+02  0.31886051135E+02  0.00000000000E+00 0.  1.
         11    1    3    3    0    0  0.92325944696E+01 -0.77515286571E+01 -0.14201201927E+02  0.18627966438E+02  0.51100000000E-03 0. -1.
        -11    1    3    3    0    0 -0.30164158287E+01  0.11558110496E+02 -0.11169212711E+02  0.16353592741E+02  0.51100000000E-03 0.  1.
         12    1    3    3    0    0  0.18378829041E+02  0.11012909774E+02  0.11507207129E+02  0.24320389687E+02  0.00000000000E+00 0. -1.
</event>
<event>
 7    1  0.1344618E-011  0.5930194E+02  0.7816164E-02  0.1266605E+00
        -11   -1    0    0    0    0  0.00000000000E+00  0.00000000000E+00  0.45593999997E+02  0.45594000000E+02  0.51100000000E-03 0.  1.
         11   -1    0    0    0    0 -0.00000000000E+00 -0.00000000000E+00 -0.45593999997E+02  0.45594000000E+02  0.51100000000E-03 0. -1.
    9900012    2    1    2    0    0 -0.16525459429E+02  0.15429360192E+02 -0.22484775390E+02  0.59301935808E+02  0.49999985010E+02 0.  0.
        -12    1    1    2    0    0  0.16525459429E+02 -0.15429360192E+02  0.22484775390E+02  0.31886064192E+02  0.00000000000E+00 0.  1.
         11    1    3    3    0    0  0.75830445794E+01  0.50639377012E+01 -0.75131642644E+00  0.91493446087E+01  0.51100000000E-03 0. -1.
        -11    1    3    3    0    0 -0.16861502516E+02  0.14064000940E+02  0.47351437694E+01  0.22461700210E+02  0.51100000000E-03 0.  1.
        -12    1    3    3    0    0 -0.72470014927E+01 -0.36985784490E+01 -0.26468602733E+02  0.27690890990E+02  0.00000000000E+00 0.  1.
</event>
<event>
 7    1  0.1344618E-011  0.5930196E+02  0.7816164E-02  0.1266605E+00
        -11   -1    0    0    0    0  0.00000000000E+00  0.00000000000E+00  0.45593999997E+02  0.45594000000E+02  0.51100000000E-03 0. -1.
         11   -1    0    0    0    0 -0.00000000000E+00 -0.00000000000E+00 -0.45593999997E+02  0.45594000000E+02  0.51100000000E-03 0.  1.
    9900012    2    1    2    0    0 -0.28656226284E+02 -0.13857236061E+02 -0.18754899768E+01  0.59301956678E+02  0.50000023071E+02 0.  0.
        -12    1    1    2    0    0  0.28656226284E+02  0.13857236061E+02  0.18754899768E+01  0.31886043322E+02  0.00000000000E+00 0.  1.
         11    1    3    3    0    0 -0.25819539345E+02 -0.65453410565E+01  0.95467417006E+01  0.28295412683E+02  0.51100000000E-03 0. -1.
        -11    1    3    3    0    0  0.55317631042E+01 -0.65707812575E+01  0.67906718898E+01  0.10949374153E+02  0.51100000000E-03 0.  1.
        -12    1    3    3    0    0 -0.83684500428E+01 -0.74111374676E+00 -0.18212903567E+02  0.20057169842E+02  0.00000000000E+00 0.  1.
</event>
<event>
 7    1  0.1344618E-011  0.5930214E+02  0.7816164E-02  0.1266604E+00
        -11   -1    0    0    0    0  0.00000000000E+00  0.00000000000E+00  0.45593999997E+02  0.45594000000E+02  0.51100000000E-03 0. -1.
         11   -1    0    0    0    0 -0.00000000000E+00 -0.00000000000E+00 -0.45593999997E+02  0.45594000000E+02  0.51100000000E-03 0.  1.
    9900012    2    1    2    0    0 -0.22849936827E+02 -0.12835040551E+02  0.18161769533E+02  0.59302144962E+02  0.50000366454E+02 0.  0.
        -12    1    1    2    0    0  0.22849936827E+02  0.12835040551E+02 -0.18161769533E+02  0.31885855038E+02  0.00000000000E+00 0.  1.
         11    1    3    3    0    0  0.10046620657E+02  0.22184891090E+01  0.16865010393E+01  0.10425956387E+02  0.51100000000E-03 0.  1.
        -11    1    3    3    0    0 -0.15311474938E+02  0.50245905794E+01  0.15204975064E+02  0.22155790264E+02  0.51100000000E-03 0. -1.
         12    1    3    3    0    0 -0.17585082546E+02 -0.20078120239E+02  0.12702934302E+01  0.26720398311E+02  0.00000000000E+00 0. -1.
</event>
<event>
 7    1  0.1344618E-011  0.5930195E+02  0.7816164E-02  0.1266605E+00
        -11   -1    0    0    0    0  0.00000000000E+00  0.00000000000E+00  0.45593999997E+02  0.45594000000E+02  0.51100000000E-03 0.  1.
         11   -1    0    0    0    0 -0.00000000000E+00 -0.00000000000E+00 -0.45593999997E+02  0.45594000000E+02  0.51100000000E-03 0. -1.
    9900012    2    1    2    0    0 -0.44919270588E+01  0.75009179976E+01 -0.30663969954E+02  0.59301949243E+02  0.50000009512E+02 0.  0.
        -12    1    1    2    0    0  0.44919270588E+01 -0.75009179976E+01  0.30663969954E+02  0.31886050757E+02  0.00000000000E+00 0.  1.
         11    1    3    3    0    0 -0.79320539489E+01  0.52804341271E+01 -0.24337559491E+02  0.26136512137E+02  0.51100000000E-03 0. -1.
        -11    1    3    3    0    0 -0.80550174632E+01 -0.98610564942E+01  0.42436892490E+01  0.13421350164E+02  0.51100000000E-03 0.  1.
        -12    1    3    3    0    0  0.11495144353E+02  0.12081540365E+02 -0.10570099712E+02  0.19744086943E+02  0.00000000000E+00 0.  1.
</event>
<event>
 7    1  0.1344618E-011  0.5930193E+02  0.7816164E-02  0.1266605E+00
        -11   -1    0    0    0    0  0.00000000000E+00  0.00000000000E+00  0.45593999997E+02  0.45594000000E+02  0.51100000000E-03 0. -1.
         11   -1    0    0    0    0 -0.00000000000E+00 -0.00000000000E+00 -0.45593999997E+02  0.45594000000E+02  0.51100000000E-03 0.  1.
    9900012    2    1    2    0    0 -0.16223457793E+01  0.16783543471E+02  0.27062932875E+02  0.59301926660E+02  0.49999968325E+02 0.  0.
        -12    1    1    2    0    0  0.16223457793E+01 -0.16783543471E+02 -0.27062932875E+02  0.31886073340E+02  0.00000000000E+00 0.  1.
         11    1    3    3    0    0 -0.18223964727E+02  0.22096389416E+02  0.15292649475E+02  0.32468884241E+02  0.51100000000E-03 0. -1.
        -11    1    3    3    0    0 -0.16092065194E+01 -0.49533846438E+01  0.54873571152E+01  0.75654909572E+01  0.51100000000E-03 0.  1.
        -12    1    3    3    0    0  0.18210825467E+02 -0.35946130093E+00  0.62829262845E+01  0.19267551462E+02  0.00000000000E+00 0.  1.
</event>
<event>
 7    1  0.1344618E-011  0.5930199E+02  0.7816164E-02  0.1266605E+00
        -11   -1    0    0    0    0  0.00000000000E+00  0.00000000000E+00  0.45593999997E+02  0.45594000000E+02  0.51100000000E-03 0.  1.
         11   -1    0    0    0    0 -0.00000000000E+00 -0.00000000000E+00 -0.45593999997E+02  0.45594000000E+02  0.51100000000E-03 0. -1.
    9900012    2    1    2    0    0 -0.31104845777E+02  0.70146986957E+01 -0.20061128732E-01  0.59301986906E+02  0.50000078199E+02 0.  0.
        -12    1    1    2    0    0  0.31104845777E+02 -0.70146986957E+01  0.20061128732E-01  0.31886013094E+02  0.00000000000E+00 0.  1.
         11    1    3    3    0    0 -0.10049266802E+02  0.16135774939E+02  0.60799590736E+01  0.19957878113E+02  0.51100000000E-03 0. -1.
        -11    1    3    3    0    0 -0.23569761233E+02  0.45217522924E+01 -0.80967559597E+01  0.25328587519E+02  0.51100000000E-03 0.  1.
        -12    1    3    3    0    0  0.25141822588E+01 -0.13642828536E+02  0.19967357573E+01  0.14015521274E+02  0.00000000000E+00 0.  1.
</event>
<event>
 7    1  0.1344618E-011  0.5930196E+02  0.7816164E-02  0.1266605E+00
        -11   -1    0    0    0    0  0.00000000000E+00  0.00000000000E+00  0.45593999997E+02  0.45594000000E+02  0.51100000000E-03 0.  1.
         11   -1    0    0    0    0 -0.00000000000E+00 -0.00000000000E+00 -0.45593999997E+02  0.45594000000E+02  0.51100000000E-03 0. -1.
    9900012    2    1    2    0    0  0.14622342535E+02  0.38080027027E+01 -0.28078568474E+02  0.59301956136E+02  0.50000022082E+02 0.  0.
        -12    1    1    2    0    0 -0.14622342535E+02 -0.38080027027E+01  0.28078568474E+02  0.31886043864E+02  0.00000000000E+00 0.  1.
         11    1    3    3    0    0  0.50149982349E+01 -0.52986743330E+01  0.21490282101E+01  0.76055558306E+01  0.51100000000E-03 0. -1.
        -11    1    3    3    0    0  0.85536739165E+00 -0.14373494211E+02 -0.30286524141E+01  0.14713997585E+02  0.51100000000E-03 0.  1.
         12    1    3    3    0    0  0.87519769081E+01  0.23480171247E+02 -0.27198944270E+02  0.36982402720E+02  0.00000000000E+00 0. -1.
</event>
<event>
 7    1  0.1344618E-011  0.5930195E+02  0.7816164E-02  0.1266605E+00
        -11   -1    0    0    0    0  0.00000000000E+00  0.00000000000E+00  0.45593999997E+02  0.45594000000E+02  0.51100000000E-03 0. -1.
         11   -1    0    0    0    0 -0.00000000000E+00 -0.00000000000E+00 -0.45593999997E+02  0.45594000000E+02  0.51100000000E-03 0.  1.
    9900012    2    1    2    0    0  0.20936913624E+02  0.16937415959E+02  0.17073079515E+02  0.59301945751E+02  0.50000003143E+02 0.  0.
        -12    1    1    2    0    0 -0.20936913624E+02 -0.16937415959E+02 -0.17073079515E+02  0.31886054249E+02  0.00000000000E+00 0.  1.
         11    1    3    3    0    0  0.73329768059E+01  0.26119311067E+01  0.21730606632E+02  0.23082764085E+02  0.51100000000E-03 0. -1.
        -11    1    3    3    0    0 -0.70012199224E+01 -0.42341978491E+01 -0.80849317104E+00  0.82218716419E+01  0.51100000000E-03 0.  1.
         12    1    3    3    0    0  0.20605156740E+02  0.18559682701E+02 -0.38490339462E+01  0.27997310024E+02  0.00000000000E+00 0. -1.
</event>
<event>
 7    1  0.1344618E-011  0.5930195E+02  0.7816164E-02  0.1266605E+00
        -11   -1    0    0    0    0  0.00000000000E+00  0.00000000000E+00  0.45593999997E+02  0.45594000000E+02  0.51100000000E-03 0. -1.
         11   -1    0    0    0    0 -0.00000000000E+00 -0.00000000000E+00 -0.45593999997E+02  0.45594000000E+02  0.51100000000E-03 0.  1.
    9900012    2    1    2    0    0  0.97169456609E+01 -0.46554687076E+01  0.30010457383E+02  0.59301953299E+02  0.50000016909E+02 0.  0.
        -12    1    1    2    0    0 -0.97169456609E+01  0.46554687076E+01 -0.30010457383E+02  0.31886046701E+02  0.00000000000E+00 0.  1.
         11    1    3    3    0    0 -0.49874042267E+01 -0.18009719707E+02  0.73787814739E+01  0.20091555967E+02  0.51100000000E-03 0.  1.
        -11    1    3    3    0    0  0.13085209470E+02  0.89976002932E+01  0.27950673931E+02  0.32146845745E+02  0.51100000000E-03 0. -1.
         12    1    3    3    0    0  0.16191404180E+01  0.43566507066E+01 -0.53189980221E+01  0.70635515877E+01  0.00000000000E+00 0. -1.
</event>
<event>
 7    1  0.1344618E-011  0.5930194E+02  0.7816164E-02  0.1266605E+00
        -11   -1    0    0    0    0  0.00000000000E+00  0.00000000000E+00  0.45593999997E+02  0.45594000000E+02  0.51100000000E-03 0.  1.
         11   -1    0    0    0    0 -0.00000000000E+00 -0.00000000000E+00 -0.45593999997E+02  0.45594000000E+02  0.51100000000E-03 0. -1.
    9900012    2    1    2    0    0 -0.21358786917E+02  0.82146821587E+01 -0.22204555822E+02  0.59301935947E+02  0.49999985263E+02 0.  0.
        -12    1    1    2    0    0  0.21358786917E+02 -0.82146821587E+01  0.22204555822E+02  0.31886064053E+02  0.00000000000E+00 0.  1.
         11    1    3    3    0    0 -0.38304034488E+01 -0.49183856818E+01 -0.64544625354E+01  0.89734383142E+01  0.51100000000E-03 0.  1.
        -11    1    3    3    0    0 -0.80824737708E+01  0.20399222642E+02 -0.26412451852E+02  0.34337621929E+02  0.51100000000E-03 0. -1.
        -12    1    3    3    0    0 -0.94459096974E+01 -0.72661548015E+01  0.10662358565E+02  0.15990875704E+02  0.00000000000E+00 0.  1.
</event>
<event>
 7    1  0.1344618E-011  0.5930190E+02  0.7816164E-02  0.1266605E+00
        -11   -1    0    0    0    0  0.00000000000E+00  0.00000000000E+00  0.45593999997E+02  0.45594000000E+02  0.51100000000E-03 0. -1.
         11   -1    0    0    0    0 -0.00000000000E+00 -0.00000000000E+00 -0.45593999997E+02  0.45594000000E+02  0.51100000000E-03 0.  1.
    9900012    2    1    2    0    0 -0.56357370716E+01 -0.15370273534E+02  0.27362684706E+02  0.59301900283E+02  0.49999920220E+02 0.  0.
        -12    1    1    2    0    0  0.56357370716E+01  0.15370273534E+02 -0.27362684706E+02  0.31886099717E+02  0.00000000000E+00 0.  1.
         11    1    3    3    0    0 -0.42418334606E+01 -0.23959720494E+01  0.15528664605E+02  0.16274927276E+02  0.51100000000E-03 0. -1.
        -11    1    3    3    0    0 -0.14425920703E+02  0.61245638801E+01 -0.24303130666E+01  0.15859504807E+02  0.51100000000E-03 0.  1.
         12    1    3    3    0    0  0.13032017092E+02 -0.19098865365E+02  0.14264333167E+02  0.27167468200E+02  0.00000000000E+00 0. -1.
</event>
<event>
 7    1  0.1344618E-011  0.5930195E+02  0.7816164E-02  0.1266605E+00
        -11   -1    0    0    0    0  0.00000000000E+00  0.00000000000E+00  0.45593999997E+02  0.45594000000E+02  0.51100000000E-03 0. -1.
         11   -1    0    0    0    0 -0.00000000000E+00 -0.00000000000E+00 -0.45593999997E+02  0.45594000000E+02  0.51100000000E-03 0.  1.
    9900012    2    1    2    0    0 -0.27347513672E+02 -0.14633380884E+02  0.73957964853E+01  0.59301950609E+02  0.50000012002E+02 0.  0.
        -12    1    1    2    0    0  0.27347513672E+02  0.14633380884E+02 -0.73957964853E+01  0.31886049391E+02  0.00000000000E+00 0.  1.
         11    1    3    3    0    0 -0.31832717343E+01 -0.88189744810E+00  0.80947027271E+01  0.87427212322E+01  0.51100000000E-03 0. -1.
        -11    1    3    3    0    0  0.19146096450E+01  0.10975853117E+02 -0.82160515483E+01  0.13843358879E+02  0.51100000000E-03 0.  1.
        -12    1    3    3    0    0 -0.26078851582E+02 -0.24727336553E+02  0.75171453065E+01  0.36715870498E+02  0.00000000000E+00 0.  1.
</event>
<event>
 7    1  0.1344618E-011  0.5930189E+02  0.7816164E-02  0.1266605E+00
        -11   -1    0    0    0    0  0.00000000000E+00  0.00000000000E+00  0.45593999997E+02  0.45594000000E+02  0.51100000000E-03 0.  1.
         11   -1    0    0    0    0 -0.00000000000E+00 -0.00000000000E+00 -0.45593999997E+02  0.45594000000E+02  0.51100000000E-03 0. -1.
    9900012    2    1    2    0    0 -0.10037567289E+02 -0.29443045976E+02 -0.70055716774E+01  0.59301894124E+02  0.49999908987E+02 0.  0.
        -12    1    1    2    0    0  0.10037567289E+02  0.29443045976E+02  0.70055716774E+01  0.31886105876E+02  0.00000000000E+00 0.  1.
         11    1    3    3    0    0  0.16551204447E+01 -0.24132607517E+02 -0.15826090186E+02  0.28906526946E+02  0.51100000000E-03 0. -1.
        -11    1    3    3    0    0 -0.82263681660E+01 -0.15460735438E+02  0.89526716799E+01  0.19668701126E+02  0.51100000000E-03 0.  1.
        -12    1    3    3    0    0 -0.34663195677E+01  0.10150296980E+02 -0.13215317154E+00  0.10726666052E+02  0.00000000000E+00 0.  1.
</event>
<event>
 7    1  0.1344618E-011  0.5930193E+02  0.7816164E-02  0.1266605E+00
        -11   -1    0    0    0    0  0.00000000000E+00  0.00000000000E+00  0.45593999997E+02  0.45594000000E+02  0.51100000000E-03 0.  1.
         11   -1    0    0    0    0 -0.00000000000E+00 -0.00000000000E+00 -0.45593999997E+02  0.45594000000E+02  0.51100000000E-03 0. -1.
    9900012    2    1    2    0    0  0.29815211309E+02 -0.11301498964E+02 -0.22561313696E+00  0.59301927719E+02  0.49999970256E+02 0.  0.
        -12    1    1    2    0    0 -0.29815211309E+02  0.11301498964E+02  0.22561313696E+00  0.31886072281E+02  0.00000000000E+00 0.  1.
         11    1    3    3    0    0  0.11767064992E+02  0.51598114437E+01 -0.17543098023E+02  0.21745062914E+02  0.51100000000E-03 0. -1.
        -11    1    3    3    0    0  0.13799457204E+01  0.44594796882E+01  0.79421976375E+01  0.92124759351E+01  0.51100000000E-03 0.  1.
        -12    1    3    3    0    0  0.16668200597E+02 -0.20920790096E+02  0.93752872483E+01  0.28344388869E+02  0.00000000000E+00 0.  1.
</event>
<event>
 7    1  0.1344618E-011  0.5930196E+02  0.7816164E-02  0.1266605E+00
        -11   -1    0    0    0    0  0.00000000000E+00  0.00000000000E+00  0.45593999997E+02  0.45594000000E+02  0.51100000000E-03 0. -1.
         11   -1    0    0    0    0 -0.00000000000E+00 -0.00000000000E+00 -0.45593999997E+02  0.45594000000E+02  0.51100000000E-03 0.  1.
    9900012    2    1    2    0    0 -0.29959483938E+02 -0.10866890917E+02  0.10294390750E+01  0.59301956959E+02  0.50000023583E+02 0.  0.
        -12    1    1    2    0    0  0.29959483938E+02  0.10866890917E+02 -0.10294390750E+01  0.31886043041E+02  0.00000000000E+00 0.  1.
         11    1    3    3    0    0  0.90662686061E+01 -0.34402940902E+01  0.64207862809E+00  0.97182876624E+01  0.51100000000E-03 0. -1.
        -11    1    3    3    0    0 -0.98865952465E+01 -0.15703041050E+02 -0.39815375114E+01  0.18978485319E+02  0.51100000000E-03 0.  1.
         12    1    3    3    0    0 -0.29139157297E+02  0.82764442225E+01  0.43688979583E+01  0.30605183978E+02  0.00000000000E+00 0. -1.
</event>
<event>
 7    1  0.1868494E-011  0.5930194E+02  0.7816164E-02  0.1266605E+00
        -11   -1    0    0    0    0  0.00000000000E+00  0.00000000000E+00  0.45593999997E+02  0.45594000000E+02  0.51100000000E-03 0. -1.
         11   -1    0    0    0    0 -0.00000000000E+00 -0.00000000000E+00 -0.45593999997E+02  0.45594000000E+02  0.51100000000E-03 0.  1.
    9900012    2    1    2    0    0  0.10356166155E+02  0.69159931994E+00  0.30149499333E+02  0.59301940396E+02  0.49999993376E+02 0.  0.
        -12    1    1    2    0    0 -0.10356166155E+02 -0.69159931994E+00 -0.30149499333E+02  0.31886059604E+02  0.00000000000E+00 0.  1.
         11    1    3    3    0    0 -0.13081731410E+01 -0.16241703959E+02  0.23521497226E+02  0.28614071652E+02  0.51100000000E-03 0. -1.
        -11    1    3    3    0    0 -0.39111927587E+01  0.76659271539E+01  0.89491721642E+01  0.12415778293E+02  0.51100000000E-03 0.  1.
        -12    1    3    3    0    0  0.15575532055E+02  0.92673761254E+01 -0.23211700572E+01  0.18272090452E+02  0.00000000000E+00 0.  1.
</event>
<event>
 7    1  0.1344618E-011  0.5930182E+02  0.7816164E-02  0.1266605E+00
        -11   -1    0    0    0    0  0.00000000000E+00  0.00000000000E+00  0.45593999997E+02  0.45594000000E+02  0.51100000000E-03 0. -1.
         11   -1    0    0    0    0 -0.00000000000E+00 -0.00000000000E+00 -0.45593999997E+02  0.45594000000E+02  0.51100000000E-03 0.  1.
    9900012    2    1    2    0    0  0.24774351756E+02  0.89860374104E+01  0.17950247353E+02  0.59301815636E+02  0.49999765844E+02 0.  0.
        -12    1    1    2    0    0 -0.24774351756E+02 -0.89860374104E+01 -0.17950247353E+02  0.31886184364E+02  0.00000000000E+00 0.  1.
         11    1    3    3    0    0  0.27240480890E+01  0.59604218519E+01 -0.68616445759E+01  0.94883735799E+01  0.51100000000E-03 0. -1.
        -11    1    3    3    0    0  0.46405968408E+01 -0.15205440047E+02  0.23907678137E+01  0.16076576659E+02  0.51100000000E-03 0.  1.
         12    1    3    3    0    0  0.17409706826E+02  0.18231055606E+02  0.22421124115E+02  0.33736865397E+02  0.00000000000E+00 0. -1.
</event>
<event>
 7    1  0.1344618E-011  0.5930195E+02  0.7816164E-02  0.1266605E+00
        -11   -1    0    0    0    0  0.00000000000E+00  0.00000000000E+00  0.45593999997E+02  0.45594000000E+02  0.51100000000E-03 0. -1.
         11   -1    0    0    0    0 -0.00000000000E+00 -0.00000000000E+00 -0.45593999997E+02  0.45594000000E+02  0.51100000000E-03 0.  1.
    9900012    2    1    2    0    0 -0.30541560704E+00 -0.22365453520E+02  0.22724731087E+02  0.59301949871E+02  0.50000010656E+02 0.  0.
        -12    1    1    2    0    0  0.30541560704E+00  0.22365453520E+02 -0.22724731087E+02  0.31886050129E+02  0.00000000000E+00 0.  1.
         11    1    3    3    0    0  0.13610928929E+02 -0.51400019698E+01  0.23051418418E+02  0.27258849900E+02  0.51100000000E-03 0. -1.
        -11    1    3    3    0    0 -0.14526895925E+02 -0.96592438974E+01  0.93115191760E+01  0.19774632424E+02  0.51100000000E-03 0.  1.
        -12    1    3    3    0    0  0.61055138953E+00 -0.75662076533E+01 -0.96382065067E+01  0.12268467546E+02  0.00000000000E+00 0.  1.
</event>
<event>
 7    1  0.1344618E-011  0.5930195E+02  0.7816164E-02  0.1266605E+00
        -11   -1    0    0    0    0  0.00000000000E+00  0.00000000000E+00  0.45593999997E+02  0.45594000000E+02  0.51100000000E-03 0.  1.
         11   -1    0    0    0    0 -0.00000000000E+00 -0.00000000000E+00 -0.45593999997E+02  0.45594000000E+02  0.51100000000E-03 0. -1.
    9900012    2    1    2    0    0 -0.23276595927E+02 -0.34104079988E+01 -0.21524159958E+02  0.59301948777E+02  0.50000008662E+02 0.  0.
        -12    1    1    2    0    0  0.23276595927E+02  0.34104079988E+01  0.21524159958E+02  0.31886051223E+02  0.00000000000E+00 0.  1.
         11    1    3    3    0    0  0.26600551900E+01  0.71009915802E+01 -0.12053781386E+01  0.76780799523E+01  0.51100000000E-03 0. -1.
        -11    1    3    3    0    0  0.42177688113E+01  0.91092728584E+01  0.51394225113E+00  0.10051495543E+02  0.51100000000E-03 0.  1.
        -12    1    3    3    0    0 -0.30154419928E+02 -0.19620672437E+02 -0.20832724071E+02  0.41572373282E+02  0.00000000000E+00 0.  1.
</event>
<event>
 7    1  0.1344618E-011  0.5930189E+02  0.7816164E-02  0.1266605E+00
        -11   -1    0    0    0    0  0.00000000000E+00  0.00000000000E+00  0.45593999997E+02  0.45594000000E+02  0.51100000000E-03 0.  1.
         11   -1    0    0    0    0 -0.00000000000E+00 -0.00000000000E+00 -0.45593999997E+02  0.45594000000E+02  0.51100000000E-03 0. -1.
    9900012    2    1    2    0    0 -0.35408579670E+01  0.24331698272E+02 -0.20301588418E+02  0.59301894746E+02  0.49999910123E+02 0.  0.
        -12    1    1    2    0    0  0.35408579670E+01 -0.24331698272E+02  0.20301588418E+02  0.31886105254E+02  0.00000000000E+00 0.  1.
         11    1    3    3    0    0 -0.11537696891E+02 -0.37164071214E+01 -0.21609602792E+00  0.12123400068E+02  0.51100000000E-03 0. -1.
        -11    1    3    3    0    0  0.13793414259E+02  0.15731343183E+02  0.22281274216E+01  0.21040389429E+02  0.51100000000E-03 0.  1.
        -12    1    3    3    0    0 -0.57965753341E+01  0.12316762211E+02 -0.22313619812E+02  0.26138105250E+02  0.00000000000E+00 0.  1.
</event>
<event>
 7    1  0.1344618E-011  0.5930195E+02  0.7816164E-02  0.1266605E+00
        -11   -1    0    0    0    0  0.00000000000E+00  0.00000000000E+00  0.45593999997E+02  0.45594000000E+02  0.51100000000E-03 0.  1.
         11   -1    0    0    0    0 -0.00000000000E+00 -0.00000000000E+00 -0.45593999997E+02  0.45594000000E+02  0.51100000000E-03 0. -1.
    9900012    2    1    2    0    0  0.57684053091E+01 -0.18448968536E+02 -0.25359041829E+02  0.59301953799E+02  0.50000017820E+02 0.  0.
        -12    1    1    2    0    0 -0.57684053091E+01  0.18448968536E+02  0.25359041829E+02  0.31886046201E+02  0.00000000000E+00 0.  1.
         11    1    3    3    0    0  0.83008300265E+01 -0.22618282368E+02  0.70364900465E+01  0.25099853960E+02  0.51100000000E-03 0. -1.
        -11    1    3    3    0    0 -0.27156775211E+01  0.71853497394E+01 -0.19525388865E+02  0.20982015296E+02  0.51100000000E-03 0.  1.
        -12    1    3    3    0    0  0.18325280366E+00 -0.30160359077E+01 -0.12870143011E+02  0.13220084543E+02  0.00000000000E+00 0.  1.
</event>
<event>
 7    1  0.1344618E-011  0.5930194E+02  0.7816164E-02  0.1266605E+00
        -11   -1    0    0    0    0  0.00000000000E+00  0.00000000000E+00  0.45593999997E+02  0.45594000000E+02  0.51100000000E-03 0.  1.
         11   -1    0    0    0    0 -0.00000000000E+00 -0.00000000000E+00 -0.45593999997E+02  0.45594000000E+02  0.51100000000E-03 0. -1.
    9900012    2    1    2    0    0 -0.26706411176E+01 -0.83499525449E+01 -0.30657242329E+02  0.59301944448E+02  0.50000000766E+02 0.  0.
        -12    1    1    2    0    0  0.26706411176E+01  0.83499525449E+01  0.30657242329E+02  0.31886055552E+02  0.00000000000E+00 0.  1.
         11    1    3    3    0    0 -0.31610450183E+01 -0.95015244972E+01 -0.28266712918E+02  0.29987968135E+02  0.51100000000E-03 0. -1.
        -11    1    3    3    0    0  0.80781720247E+01 -0.77031116721E+01 -0.10328424005E+02  0.15207601237E+02  0.51100000000E-03 0.  1.
        -12    1    3    3    0    0 -0.75877681239E+01  0.88546836244E+01  0.79378945947E+01  0.14106375076E+02  0.00000000000E+00 0.  1.
</event>
<event>
 7    1  0.1344618E-011  0.5930196E+02  0.7816164E-02  0.1266605E+00
        -11   -1    0    0    0    0  0.00000000000E+00  0.00000000000E+00  0.45593999997E+02  0.45594000000E+02  0.51100000000E-03 0. -1.
         11   -1    0    0    0    0 -0.00000000000E+00 -0.00000000000E+00 -0.45593999997E+02  0.45594000000E+02  0.51100000000E-03 0.  1.
    9900012    2    1    2    0    0 -0.24167200483E+02 -0.11864925282E+02  0.17084765492E+02  0.59301964764E+02  0.50000037818E+02 0.  0.
        -12    1    1    2    0    0  0.24167200483E+02  0.11864925282E+02 -0.17084765492E+02  0.31886035236E+02  0.00000000000E+00 0.  1.
         11    1    3    3    0    0 -0.88029385996E+01 -0.38370252079E+01 -0.34866341813E+01  0.10216217921E+02  0.51100000000E-03 0. -1.
        -11    1    3    3    0    0 -0.20978330797E+02 -0.15541408935E+02 -0.40158363092E+00  0.26111051767E+02  0.51100000000E-03 0.  1.
        -12    1    3    3    0    0  0.56140689136E+01  0.75135088605E+01  0.20972983304E+02  0.22974695076E+02  0.00000000000E+00 0.  1.
</event>
<event>
 7    1  0.1449977E-011  0.5930196E+02  0.7816164E-02  0.1266605E+00
        -11   -1    0    0    0    0  0.00000000000E+00  0.00000000000E+00  0.45593999997E+02  0.45594000000E+02  0.51100000000E-03 0. -1.
         11   -1    0    0    0    0 -0.00000000000E+00 -0.00000000000E+00 -0.45593999997E+02  0.45594000000E+02  0.51100000000E-03 0.  1.
    9900012    2    1    2    0    0  0.29769229390E+02 -0.10929801983E+02 -0.33244555594E+01  0.59301959251E+02  0.50000027764E+02 0.  0.
        -12    1    1    2    0    0 -0.29769229390E+02  0.10929801983E+02  0.33244555594E+01  0.31886040749E+02  0.00000000000E+00 0.  1.
         11    1    3    3    0    0  0.13202672977E+02 -0.40987252852E+01 -0.15277888206E+02  0.20603979980E+02  0.51100000000E-03 0. -1.
        -11    1    3    3    0    0  0.72660183445E+00 -0.45556175128E+01 -0.10301320018E+02  0.11287107492E+02  0.51100000000E-03 0.  1.
        -12    1    3    3    0    0  0.15839954579E+02 -0.22754591849E+01  0.22254752665E+02  0.27410871780E+02  0.00000000000E+00 0.  1.
</event>
<event>
 7    1  0.1344618E-011  0.5930194E+02  0.7816164E-02  0.1266605E+00
        -11   -1    0    0    0    0  0.00000000000E+00  0.00000000000E+00  0.45593999997E+02  0.45594000000E+02  0.51100000000E-03 0.  1.
         11   -1    0    0    0    0 -0.00000000000E+00 -0.00000000000E+00 -0.45593999997E+02  0.45594000000E+02  0.51100000000E-03 0. -1.
    9900012    2    1    2    0    0  0.88554679478E+01  0.25220725486E+02 -0.17384375674E+02  0.59301939970E+02  0.49999992600E+02 0.  0.
        -12    1    1    2    0    0 -0.88554679478E+01 -0.25220725486E+02  0.17384375674E+02  0.31886060030E+02  0.00000000000E+00 0.  1.
         11    1    3    3    0    0 -0.16231002940E+01 -0.72127303941E+00  0.30556275839E+01  0.35343386304E+01  0.51100000000E-03 0. -1.
        -11    1    3    3    0    0 -0.14169643957E+01  0.27985333573E+02  0.41962204642E+01  0.28333636367E+02  0.51100000000E-03 0.  1.
         12    1    3    3    0    0  0.11895532637E+02 -0.20433350479E+01 -0.24636223723E+02  0.27433964973E+02  0.00000000000E+00 0. -1.
</event>
<event>
 7    1  0.1344618E-011  0.5930176E+02  0.7816164E-02  0.1266605E+00
        -11   -1    0    0    0    0  0.00000000000E+00  0.00000000000E+00  0.45593999997E+02  0.45594000000E+02  0.51100000000E-03 0.  1.
         11   -1    0    0    0    0 -0.00000000000E+00 -0.00000000000E+00 -0.45593999997E+02  0.45594000000E+02  0.51100000000E-03 0. -1.
    9900012    2    1    2    0    0 -0.13963271334E+02 -0.22104110507E+02 -0.18252879689E+02  0.59301760576E+02  0.49999665427E+02 0.  0.
        -12    1    1    2    0    0  0.13963271334E+02  0.22104110507E+02  0.18252879689E+02  0.31886239424E+02  0.00000000000E+00 0.  1.
         11    1    3    3    0    0  0.17786016933E+00 -0.24177476568E+02 -0.65374826203E+01  0.25046370729E+02  0.51100000000E-03 0. -1.
        -11    1    3    3    0    0 -0.16549157319E+02 -0.91077671819E+01 -0.15499125026E+01  0.18953317916E+02  0.51100000000E-03 0.  1.
         12    1    3    3    0    0  0.24080258150E+01  0.11181133242E+02 -0.10165484566E+02  0.15302071931E+02  0.00000000000E+00 0. -1.
</event>
<event>
 7    1  0.1344618E-011  0.5930194E+02  0.7816164E-02  0.1266605E+00
        -11   -1    0    0    0    0  0.00000000000E+00  0.00000000000E+00  0.45593999997E+02  0.45594000000E+02  0.51100000000E-03 0.  1.
         11   -1    0    0    0    0 -0.00000000000E+00 -0.00000000000E+00 -0.45593999997E+02  0.45594000000E+02  0.51100000000E-03 0. -1.
    9900012    2    1    2    0    0  0.20786689848E+02 -0.17290982710E+02  0.16901365754E+02  0.59301941569E+02  0.49999995516E+02 0.  0.
        -12    1    1    2    0    0 -0.20786689848E+02  0.17290982710E+02 -0.16901365754E+02  0.31886058431E+02  0.00000000000E+00 0.  1.
         11    1    3    3    0    0  0.32068095758E+02 -0.13293382611E+02  0.19479514449E+02  0.39806133575E+02  0.51100000000E-03 0. -1.
        -11    1    3    3    0    0 -0.83228358648E+00 -0.75649122536E+01 -0.35773623780E+01  0.84094063534E+01  0.51100000000E-03 0.  1.
        -12    1    3    3    0    0 -0.10449122324E+02  0.35673121546E+01  0.99921368300E+00  0.11086401640E+02  0.00000000000E+00 0.  1.
</event>
<event>
 7    1  0.1344618E-011  0.5930194E+02  0.7816164E-02  0.1266605E+00
        -11   -1    0    0    0    0  0.00000000000E+00  0.00000000000E+00  0.45593999997E+02  0.45594000000E+02  0.51100000000E-03 0.  1.
         11   -1    0    0    0    0 -0.00000000000E+00 -0.00000000000E+00 -0.45593999997E+02  0.45594000000E+02  0.51100000000E-03 0. -1.
    9900012    2    1    2    0    0 -0.17639761977E+02  0.77736093742E+01 -0.25399424239E+02  0.59301937888E+02  0.49999988803E+02 0.  0.
        -12    1    1    2    0    0  0.17639761977E+02 -0.77736093742E+01  0.25399424239E+02  0.31886062112E+02  0.00000000000E+00 0.  1.
         11    1    3    3    0    0 -0.16960734498E+02  0.84755622044E+01 -0.37548146374E+01  0.19328742914E+02  0.51100000000E-03 0. -1.
        -11    1    3    3    0    0 -0.30208852353E+00  0.16756849216E+01  0.90376473445E+01  0.91966432581E+01  0.51100000000E-03 0.  1.
         12    1    3    3    0    0 -0.37693895526E+00 -0.23776377518E+01 -0.30682256946E+02  0.30776551716E+02  0.00000000000E+00 0. -1.
</event>
<event>
 7    1  0.1344618E-011  0.5930192E+02  0.7816164E-02  0.1266605E+00
        -11   -1    0    0    0    0  0.00000000000E+00  0.00000000000E+00  0.45593999997E+02  0.45594000000E+02  0.51100000000E-03 0.  1.
         11   -1    0    0    0    0 -0.00000000000E+00 -0.00000000000E+00 -0.45593999997E+02  0.45594000000E+02  0.51100000000E-03 0. -1.
    9900012    2    1    2    0    0 -0.16096530660E+02 -0.27523548953E+02  0.27957121123E+00  0.59301918297E+02  0.49999953074E+02 0.  0.
        -12    1    1    2    0    0  0.16096530660E+02  0.27523548953E+02 -0.27957121123E+00  0.31886081703E+02  0.00000000000E+00 0.  1.
         11    1    3    3    0    0 -0.17434378415E+02 -0.21793168127E+02 -0.13432832575E+02  0.30973225840E+02  0.51100000000E-03 0. -1.
        -11    1    3    3    0    0 -0.32443235168E+01  0.82276138250E+01  0.96430314129E+01  0.13084621486E+02  0.51100000000E-03 0.  1.
        -12    1    3    3    0    0  0.45821712719E+01 -0.13957994652E+02  0.40693723729E+01  0.15244070971E+02  0.00000000000E+00 0.  1.
</event>
<event>
 7    1  0.1344618E-011  0.5930197E+02  0.7816164E-02  0.1266605E+00
        -11   -1    0    0    0    0  0.00000000000E+00  0.00000000000E+00  0.45593999997E+02  0.45594000000E+02  0.51100000000E-03 0. -1.
         11   -1    0    0    0    0 -0.00000000000E+00 -0.00000000000E+00 -0.45593999997E+02  0.45594000000E+02  0.51100000000E-03 0.  1.
    9900012    2    1    2    0    0 -0.77180694532E+00 -0.26507546089E+02  0.17705170761E+02  0.59301972381E+02  0.50000051710E+02 0.  0.
        -12    1    1    2    0    0  0.77180694532E+00  0.26507546089E+02 -0.17705170761E+02  0.31886027619E+02  0.00000000000E+00 0.  1.
         11    1    3    3    0    0 -0.26706120226E+01  0.48774140094E+01  0.91662489792E+01  0.10721075347E+02  0.51100000000E-03 0. -1.
        -11    1    3    3    0    0 -0.10904920814E+02  0.13315879439E+01  0.77407581264E+01  0.13439113105E+02  0.51100000000E-03 0.  1.
         12    1    3    3    0    0  0.12803725891E+02 -0.32716548042E+02  0.79816365519E+00  0.35141783929E+02  0.00000000000E+00 0. -1.
</event>
<event>
 7    1  0.1344618E-011  0.5930196E+02  0.7816164E-02  0.1266605E+00
        -11   -1    0    0    0    0  0.00000000000E+00  0.00000000000E+00  0.45593999997E+02  0.45594000000E+02  0.51100000000E-03 0. -1.
         11   -1    0    0    0    0 -0.00000000000E+00 -0.00000000000E+00 -0.45593999997E+02  0.45594000000E+02  0.51100000000E-03 0.  1.
    9900012    2    1    2    0    0  0.10334217626E+02  0.29935381735E+02 -0.37143875162E+01  0.59301955903E+02  0.50000021657E+02 0.  0.
        -12    1    1    2    0    0 -0.10334217626E+02 -0.29935381735E+02  0.37143875162E+01  0.31886044097E+02  0.00000000000E+00 0.  1.
         11    1    3    3    0    0 -0.67169885176E+01  0.12299817551E+02 -0.14500923438E+02  0.20166314174E+02  0.51100000000E-03 0. -1.
        -11    1    3    3    0    0  0.62420279320E+01 -0.70953401057E+01 -0.13434287530E+01  0.95452378176E+01  0.51100000000E-03 0.  1.
         12    1    3    3    0    0  0.10809178211E+02  0.24730904290E+02  0.12129964675E+02  0.29590403911E+02  0.00000000000E+00 0. -1.
</event>
<event>
 7    1  0.1344618E-011  0.5930194E+02  0.7816164E-02  0.1266605E+00
        -11   -1    0    0    0    0  0.00000000000E+00  0.00000000000E+00  0.45593999997E+02  0.45594000000E+02  0.51100000000E-03 0. -1.
         11   -1    0    0    0    0 -0.00000000000E+00 -0.00000000000E+00 -0.45593999997E+02  0.45594000000E+02  0.51100000000E-03 0.  1.
    9900012    2    1    2    0    0 -0.20530123742E+02 -0.11698003519E+02 -0.21410078001E+02  0.59301941805E+02  0.49999995946E+02 0.  0.
        -12    1    1    2    0    0  0.20530123742E+02  0.11698003519E+02  0.21410078001E+02  0.31886058195E+02  0.00000000000E+00 0.  1.
         11    1    3    3    0    0  0.26476971296E+01 -0.14642373407E+02 -0.13326325094E+02  0.19974992862E+02  0.51100000000E-03 0. -1.
        -11    1    3    3    0    0 -0.10434241005E+02  0.13930061827E+02 -0.13084516960E+02  0.21774402223E+02  0.51100000000E-03 0.  1.
         12    1    3    3    0    0 -0.12743579867E+02 -0.10985691939E+02  0.50007640535E+01  0.17552546719E+02  0.00000000000E+00 0. -1.
</event>
<event>
 7    1  0.1344618E-011  0.5930194E+02  0.7816164E-02  0.1266605E+00
        -11   -1    0    0    0    0  0.00000000000E+00  0.00000000000E+00  0.45593999997E+02  0.45594000000E+02  0.51100000000E-03 0.  1.
         11   -1    0    0    0    0 -0.00000000000E+00 -0.00000000000E+00 -0.45593999997E+02  0.45594000000E+02  0.51100000000E-03 0. -1.
    9900012    2    1    2    0    0  0.14335556088E+02  0.19506224431E+02 -0.20753788065E+02  0.59301942248E+02  0.49999996755E+02 0.  0.
        -12    1    1    2    0    0 -0.14335556088E+02 -0.19506224431E+02  0.20753788065E+02  0.31886057752E+02  0.00000000000E+00 0.  1.
         11    1    3    3    0    0 -0.91746330314E+01 -0.21799594468E+01 -0.95074493755E+01  0.13390956215E+02  0.51100000000E-03 0. -1.
        -11    1    3    3    0    0  0.11772901882E+02 -0.67006808629E+01 -0.56998019818E+01  0.14696533116E+02  0.51100000000E-03 0.  1.
         12    1    3    3    0    0  0.11737287237E+02  0.28386864740E+02 -0.55465367081E+01  0.31214452917E+02  0.00000000000E+00 0. -1.
</event>
<event>
 7    1  0.1344618E-011  0.5930204E+02  0.7816164E-02  0.1266604E+00
        -11   -1    0    0    0    0  0.00000000000E+00  0.00000000000E+00  0.45593999997E+02  0.45594000000E+02  0.51100000000E-03 0. -1.
         11   -1    0    0    0    0 -0.00000000000E+00 -0.00000000000E+00 -0.45593999997E+02  0.45594000000E+02  0.51100000000E-03 0.  1.
    9900012    2    1    2    0    0  0.31094383730E+01  0.78255087740E+01  0.30753981353E+02  0.59302038142E+02  0.50000171641E+02 0.  0.
        -12    1    1    2    0    0 -0.31094383730E+01 -0.78255087740E+01 -0.30753981353E+02  0.31885961858E+02  0.00000000000E+00 0.  1.
         11    1    3    3    0    0 -0.32597343438E+01  0.26043972378E+01 -0.94754531805E+01  0.10353403605E+02  0.51100000000E-03 0. -1.
        -11    1    3    3    0    0  0.79043253620E+01  0.10020860049E+02  0.55713103160E+01  0.13926072470E+02  0.51100000000E-03 0.  1.
         12    1    3    3    0    0 -0.15351526452E+01 -0.47997485130E+01  0.34658124217E+02  0.35022562067E+02  0.00000000000E+00 0. -1.
</event>
<event>
 7    1  0.1344618E-011  0.5930196E+02  0.7816164E-02  0.1266605E+00
        -11   -1    0    0    0    0  0.00000000000E+00  0.00000000000E+00  0.45593999997E+02  0.45594000000E+02  0.51100000000E-03 0.  1.
         11   -1    0    0    0    0 -0.00000000000E+00 -0.00000000000E+00 -0.45593999997E+02  0.45594000000E+02  0.51100000000E-03 0. -1.
    9900012    2    1    2    0    0  0.29448782854E+02  0.98715971886E+01  0.72138937088E+01  0.59301960655E+02  0.50000030325E+02 0.  0.
        -12    1    1    2    0    0 -0.29448782854E+02 -0.98715971886E+01 -0.72138937088E+01  0.31886039345E+02  0.00000000000E+00 0.  1.
         11    1    3    3    0    0  0.15480255609E+02 -0.14894258438E+02 -0.30684715970E+01  0.21700063741E+02  0.51100000000E-03 0. -1.
        -11    1    3    3    0    0 -0.21971511510E+01  0.16558338169E+02 -0.11167080834E+00  0.16703847064E+02  0.51100000000E-03 0.  1.
        -12    1    3    3    0    0  0.16165678396E+02  0.82075174578E+01  0.10394036114E+02  0.20898049851E+02  0.00000000000E+00 0.  1.
</event>
<event>
 7    1  0.1344618E-011  0.5930205E+02  0.7816164E-02  0.1266604E+00
        -11   -1    0    0    0    0  0.00000000000E+00  0.00000000000E+00  0.45593999997E+02  0.45594000000E+02  0.51100000000E-03 0.  1.
         11   -1    0    0    0    0 -0.00000000000E+00 -0.00000000000E+00 -0.45593999997E+02  0.45594000000E+02  0.51100000000E-03 0. -1.
    9900012    2    1    2    0    0  0.32408911075E+00 -0.19214577259E+01 -0.31826352338E+02  0.59302051109E+02  0.50000195290E+02 0.  0.
        -12    1    1    2    0    0 -0.32408911075E+00  0.19214577259E+01  0.31826352338E+02  0.31885948891E+02  0.00000000000E+00 0.  1.
         11    1    3    3    0    0 -0.13547333624E+02 -0.40054777468E+01 -0.11625209720E+00  0.14127548093E+02  0.51100000000E-03 0. -1.
        -11    1    3    3    0    0  0.67930273918E+01 -0.54559720913E+01  0.27971790166E+01  0.91507957752E+01  0.51100000000E-03 0.  1.
         12    1    3    3    0    0  0.70783953428E+01  0.75399921122E+01 -0.34507279257E+02  0.36023707241E+02  0.00000000000E+00 0. -1.
</event>
<event>
 7    1  0.1344618E-011  0.5930194E+02  0.7816164E-02  0.1266605E+00
        -11   -1    0    0    0    0  0.00000000000E+00  0.00000000000E+00  0.45593999997E+02  0.45594000000E+02  0.51100000000E-03 0.  1.
         11   -1    0    0    0    0 -0.00000000000E+00 -0.00000000000E+00 -0.45593999997E+02  0.45594000000E+02  0.51100000000E-03 0. -1.
    9900012    2    1    2    0    0  0.19377708183E+01 -0.31710611278E+02 -0.27208065699E+01  0.59301943302E+02  0.49999998677E+02 0.  0.
        -12    1    1    2    0    0 -0.19377708183E+01  0.31710611278E+02  0.27208065699E+01  0.31886056698E+02  0.00000000000E+00 0.  1.
         11    1    3    3    0    0  0.33022218947E+01 -0.60892561738E+01 -0.89050077606E+01  0.11281971178E+02  0.51100000000E-03 0. -1.
        -11    1    3    3    0    0 -0.15905445754E+02 -0.10084877687E+01  0.10533384175E+02  0.19103728293E+02  0.51100000000E-03 0.  1.
         12    1    3    3    0    0  0.14540994678E+02 -0.24612867335E+02 -0.43491829847E+01  0.28916243831E+02  0.00000000000E+00 0. -1.
</event>
<event>
 7    1  0.1344618E-011  0.5930193E+02  0.7816164E-02  0.1266605E+00
        -11   -1    0    0    0    0  0.00000000000E+00  0.00000000000E+00  0.45593999997E+02  0.45594000000E+02  0.51100000000E-03 0.  1.
         11   -1    0    0    0    0 -0.00000000000E+00 -0.00000000000E+00 -0.45593999997E+02  0.45594000000E+02  0.51100000000E-03 0. -1.
    9900012    2    1    2    0    0  0.21669191255E+02 -0.22630493144E+02 -0.59184978627E+01  0.59301926448E+02  0.49999967939E+02 0.  0.
        -12    1    1    2    0    0 -0.21669191255E+02  0.22630493144E+02  0.59184978627E+01  0.31886073552E+02  0.00000000000E+00 0.  1.
         11    1    3    3    0    0  0.46826011688E+01 -0.89854529453E+01  0.45318533981E+01  0.11099676294E+02  0.51100000000E-03 0. -1.
        -11    1    3    3    0    0  0.29696714210E+02 -0.19782923941E+01 -0.75758676868E+01  0.30711597926E+02  0.51100000000E-03 0.  1.
         12    1    3    3    0    0 -0.12710124124E+02 -0.11666747805E+02 -0.28744835741E+01  0.17490652229E+02  0.00000000000E+00 0. -1.
</event>
<event>
 7    1  0.1344618E-011  0.5930198E+02  0.7816164E-02  0.1266605E+00
        -11   -1    0    0    0    0  0.00000000000E+00  0.00000000000E+00  0.45593999997E+02  0.45594000000E+02  0.51100000000E-03 0.  1.
         11   -1    0    0    0    0 -0.00000000000E+00 -0.00000000000E+00 -0.45593999997E+02  0.45594000000E+02  0.51100000000E-03 0. -1.
    9900012    2    1    2    0    0  0.22371909812E+02 -0.11826692725E+02 -0.19399621996E+02  0.59301978877E+02  0.50000063557E+02 0.  0.
        -12    1    1    2    0    0 -0.22371909812E+02  0.11826692725E+02  0.19399621996E+02  0.31886021123E+02  0.00000000000E+00 0.  1.
         11    1    3    3    0    0  0.67185785970E+01 -0.12999579006E+02 -0.10623958238E+02  0.18083053990E+02  0.51100000000E-03 0. -1.
        -11    1    3    3    0    0 -0.10682475745E+02 -0.66319618160E+01 -0.72120266078E+00  0.12594377282E+02  0.51100000000E-03 0.  1.
         12    1    3    3    0    0  0.26335806960E+02  0.78048480972E+01 -0.80544610964E+01  0.28624547606E+02  0.00000000000E+00 0. -1.
</event>
<event>
 7    1  0.1344618E-011  0.5930196E+02  0.7816164E-02  0.1266605E+00
        -11   -1    0    0    0    0  0.00000000000E+00  0.00000000000E+00  0.45593999997E+02  0.45594000000E+02  0.51100000000E-03 0.  1.
         11   -1    0    0    0    0 -0.00000000000E+00 -0.00000000000E+00 -0.45593999997E+02  0.45594000000E+02  0.51100000000E-03 0. -1.
    9900012    2    1    2    0    0  0.73696011295E+01  0.21950113964E+02 -0.21922619871E+02  0.59301956253E+02  0.50000022296E+02 0.  0.
        -12    1    1    2    0    0 -0.73696011295E+01 -0.21950113964E+02  0.21922619871E+02  0.31886043747E+02  0.00000000000E+00 0.  1.
         11    1    3    3    0    0  0.22219009773E+01  0.15372200943E+02  0.75609566498E+01  0.17274532454E+02  0.51100000000E-03 0. -1.
        -11    1    3    3    0    0  0.12898520829E+02  0.77809541198E+01 -0.43217435667E+01  0.15671392864E+02  0.51100000000E-03 0.  1.
         12    1    3    3    0    0 -0.77508206766E+01 -0.12030410985E+01 -0.25161832954E+02  0.26356030935E+02  0.00000000000E+00 0. -1.
</event>
<event>
 7    1  0.1344618E-011  0.5930193E+02  0.7816164E-02  0.1266605E+00
        -11   -1    0    0    0    0  0.00000000000E+00  0.00000000000E+00  0.45593999997E+02  0.45594000000E+02  0.51100000000E-03 0. -1.
         11   -1    0    0    0    0 -0.00000000000E+00 -0.00000000000E+00 -0.45593999997E+02  0.45594000000E+02  0.51100000000E-03 0.  1.
    9900012    2    1    2    0    0 -0.31339054913E+02  0.19628211751E+01  0.55437023812E+01  0.59301926772E+02  0.49999968529E+02 0.  0.
        -12    1    1    2    0    0  0.31339054913E+02 -0.19628211751E+01 -0.55437023812E+01  0.31886073228E+02  0.00000000000E+00 0.  1.
         11    1    3    3    0    0 -0.16968355847E+02  0.84111921872E+01  0.88394946583E+01  0.20899998092E+02  0.51100000000E-03 0. -1.
        -11    1    3    3    0    0 -0.24925068972E+02 -0.10273370381E+02 -0.12296715810E+01  0.26987280239E+02  0.51100000000E-03 0.  1.
        -12    1    3    3    0    0  0.10554369906E+02  0.38249993693E+01 -0.20661206961E+01  0.11414648440E+02  0.00000000000E+00 0.  1.
</event>
<event>
 7    1  0.1344618E-011  0.5930196E+02  0.7816164E-02  0.1266605E+00
        -11   -1    0    0    0    0  0.00000000000E+00  0.00000000000E+00  0.45593999997E+02  0.45594000000E+02  0.51100000000E-03 0.  1.
         11   -1    0    0    0    0 -0.00000000000E+00 -0.00000000000E+00 -0.45593999997E+02  0.45594000000E+02  0.51100000000E-03 0. -1.
    9900012    2    1    2    0    0 -0.21833774285E+02 -0.26001818277E+01 -0.23092098182E+02  0.59301958485E+02  0.50000026367E+02 0.  0.
        -12    1    1    2    0    0  0.21833774285E+02  0.26001818277E+01  0.23092098182E+02  0.31886041515E+02  0.00000000000E+00 0.  1.
         11    1    3    3    0    0 -0.11889427168E+02  0.64131717173E+00 -0.16251364694E+02  0.20146379843E+02  0.51100000000E-03 0. -1.
        -11    1    3    3    0    0 -0.80818276367E+00  0.11363562431E+02 -0.16002685204E+02  0.19643564965E+02  0.51100000000E-03 0.  1.
         12    1    3    3    0    0 -0.91361643529E+01 -0.14605061431E+02  0.91619517171E+01  0.19512013677E+02  0.00000000000E+00 0. -1.
</event>
<event>
 7    1  0.1344618E-011  0.5930196E+02  0.7816164E-02  0.1266605E+00
        -11   -1    0    0    0    0  0.00000000000E+00  0.00000000000E+00  0.45593999997E+02  0.45594000000E+02  0.51100000000E-03 0.  1.
         11   -1    0    0    0    0 -0.00000000000E+00 -0.00000000000E+00 -0.45593999997E+02  0.45594000000E+02  0.51100000000E-03 0. -1.
    9900012    2    1    2    0    0 -0.11221203741E+02  0.29723909826E+02  0.27005682364E+01  0.59301963910E+02  0.50000036260E+02 0.  0.
        -12    1    1    2    0    0  0.11221203741E+02 -0.29723909826E+02 -0.27005682364E+01  0.31886036090E+02  0.00000000000E+00 0.  1.
         11    1    3    3    0    0  0.40478717461E+01  0.10881393390E+02  0.13357356616E+02  0.17697710694E+02  0.51100000000E-03 0. -1.
        -11    1    3    3    0    0 -0.40107227547E+01  0.37445125173E+01  0.11369296596E+02  0.12624110913E+02  0.51100000000E-03 0.  1.
         12    1    3    3    0    0 -0.11258352732E+02  0.15098003918E+02 -0.22026084975E+02  0.28980142303E+02  0.00000000000E+00 0. -1.
</event>
<event>
 7    1  0.1344618E-011  0.5930195E+02  0.7816164E-02  0.1266605E+00
        -11   -1    0    0    0    0  0.00000000000E+00  0.00000000000E+00  0.45593999997E+02  0.45594000000E+02  0.51100000000E-03 0.  1.
         11   -1    0    0    0    0 -0.00000000000E+00 -0.00000000000E+00 -0.45593999997E+02  0.45594000000E+02  0.51100000000E-03 0. -1.
    9900012    2    1    2    0    0 -0.22092034756E+02 -0.17194013419E+02 -0.15265249671E+02  0.59301953764E+02  0.50000017756E+02 0.  0.
        -12    1    1    2    0    0  0.22092034756E+02  0.17194013419E+02  0.15265249671E+02  0.31886046236E+02  0.00000000000E+00 0.  1.
         11    1    3    3    0    0 -0.14566540867E+02 -0.10575526218E+02 -0.73790186419E+01  0.19454454091E+02  0.51100000000E-03 0. -1.
        -11    1    3    3    0    0  0.10428141886E+01 -0.81685714099E+01  0.14028155322E+02  0.16266596519E+02  0.51100000000E-03 0.  1.
         12    1    3    3    0    0 -0.85683080769E+01  0.15500842090E+01 -0.21914386351E+02  0.23580903153E+02  0.00000000000E+00 0. -1.
</event>
<event>
 7    1  0.1344618E-011  0.5930194E+02  0.7816164E-02  0.1266605E+00
        -11   -1    0    0    0    0  0.00000000000E+00  0.00000000000E+00  0.45593999997E+02  0.45594000000E+02  0.51100000000E-03 0.  1.
         11   -1    0    0    0    0 -0.00000000000E+00 -0.00000000000E+00 -0.45593999997E+02  0.45594000000E+02  0.51100000000E-03 0. -1.
    9900012    2    1    2    0    0  0.17944226976E+02  0.16564827727E+02 -0.20501993968E+02  0.59301944176E+02  0.50000000270E+02 0.  0.
        -12    1    1    2    0    0 -0.17944226976E+02 -0.16564827727E+02  0.20501993968E+02  0.31886055824E+02  0.00000000000E+00 0.  1.
         11    1    3    3    0    0  0.28021609921E+02  0.11364673148E+02 -0.14724016389E+01  0.30274318906E+02  0.51100000000E-03 0. -1.
        -11    1    3    3    0    0  0.42741411371E+01 -0.79388826359E+00  0.13101670623E+00  0.43492190877E+01  0.51100000000E-03 0.  1.
         12    1    3    3    0    0 -0.14351524083E+02  0.59940428422E+01 -0.19160609035E+02  0.24678406182E+02  0.00000000000E+00 0. -1.
</event>
<event>
 7    1  0.1344618E-011  0.5930194E+02  0.7816164E-02  0.1266605E+00
        -11   -1    0    0    0    0  0.00000000000E+00  0.00000000000E+00  0.45593999997E+02  0.45594000000E+02  0.51100000000E-03 0. -1.
         11   -1    0    0    0    0 -0.00000000000E+00 -0.00000000000E+00 -0.45593999997E+02  0.45594000000E+02  0.51100000000E-03 0.  1.
    9900012    2    1    2    0    0 -0.18026559987E+02 -0.25942750037E+02  0.43286874401E+01  0.59301942241E+02  0.49999996742E+02 0.  0.
        -12    1    1    2    0    0  0.18026559987E+02  0.25942750037E+02 -0.43286874401E+01  0.31886057759E+02  0.00000000000E+00 0.  1.
         11    1    3    3    0    0 -0.23486787898E+02 -0.95333982995E+01  0.10590053780E+02  0.27471150835E+02  0.51100000000E-03 0. -1.
        -11    1    3    3    0    0 -0.18500293030E+01  0.44653523786E+01  0.50484483022E+01  0.69891924290E+01  0.51100000000E-03 0.  1.
        -12    1    3    3    0    0  0.73102572141E+01 -0.20874704116E+02 -0.11309814643E+02  0.24841598977E+02  0.00000000000E+00 0.  1.
</event>
<event>
 7    1  0.1654436E-011  0.5930194E+02  0.7816164E-02  0.1266605E+00
        -11   -1    0    0    0    0  0.00000000000E+00  0.00000000000E+00  0.45593999997E+02  0.45594000000E+02  0.51100000000E-03 0. -1.
         11   -1    0    0    0    0 -0.00000000000E+00 -0.00000000000E+00 -0.45593999997E+02  0.45594000000E+02  0.51100000000E-03 0.  1.
    9900012    2    1    2    0    0  0.28429074807E+02 -0.87068906947E+01  0.11519495403E+02  0.59301936990E+02  0.49999987165E+02 0.  0.
        -12    1    1    2    0    0 -0.28429074807E+02  0.87068906947E+01 -0.11519495403E+02  0.31886063010E+02  0.00000000000E+00 0.  1.
         11    1    3    3    0    0  0.12190912203E+02 -0.67835271344E+01  0.25037558862E+02  0.28662064384E+02  0.51100000000E-03 0. -1.
        -11    1    3    3    0    0 -0.53211554786E+01  0.14157889027E+01 -0.13899862128E+01  0.56790153880E+01  0.51100000000E-03 0.  1.
        -12    1    3    3    0    0  0.21559318082E+02 -0.33391524631E+01 -0.12128077247E+02  0.24960857218E+02  0.00000000000E+00 0.  1.
</event>
<event>
 7    1  0.1344618E-011  0.5930195E+02  0.7816164E-02  0.1266605E+00
        -11   -1    0    0    0    0  0.00000000000E+00  0.00000000000E+00  0.45593999997E+02  0.45594000000E+02  0.51100000000E-03 0. -1.
         11   -1    0    0    0    0 -0.00000000000E+00 -0.00000000000E+00 -0.45593999997E+02  0.45594000000E+02  0.51100000000E-03 0.  1.
    9900012    2    1    2    0    0 -0.21848754541E+02 -0.23223657541E+02  0.11651299948E+00  0.59301954151E+02  0.50000018462E+02 0.  0.
        -12    1    1    2    0    0  0.21848754541E+02  0.23223657541E+02 -0.11651299948E+00  0.31886045849E+02  0.00000000000E+00 0.  1.
         11    1    3    3    0    0 -0.14529460737E+01 -0.56251926663E+01  0.13728851066E+01  0.59698122754E+01  0.51100000000E-03 0. -1.
        -11    1    3    3    0    0  0.27160029885E+01 -0.27869641440E+02 -0.14642256294E+01  0.28039927661E+02  0.51100000000E-03 0.  1.
         12    1    3    3    0    0 -0.23111811456E+02  0.10271176565E+02  0.20785352227E+00  0.25292214215E+02  0.00000000000E+00 0. -1.
</event>
<event>
 7    1  0.1344618E-011  0.5930193E+02  0.7816164E-02  0.1266605E+00
        -11   -1    0    0    0    0  0.00000000000E+00  0.00000000000E+00  0.45593999997E+02  0.45594000000E+02  0.51100000000E-03 0.  1.
         11   -1    0    0    0    0 -0.00000000000E+00 -0.00000000000E+00 -0.45593999997E+02  0.45594000000E+02  0.51100000000E-03 0. -1.
    9900012    2    1    2    0    0  0.35299050481E+01  0.21380654760E+02 -0.23390781928E+02  0.59301932403E+02  0.49999978799E+02 0.  0.
        -12    1    1    2    0    0 -0.35299050481E+01 -0.21380654760E+02  0.23390781928E+02  0.31886067597E+02  0.00000000000E+00 0.  1.
         11    1    3    3    0    0  0.17415693506E+02  0.11568427331E+02 -0.23829781413E+02  0.31701630458E+02  0.51100000000E-03 0. -1.
        -11    1    3    3    0    0  0.52707026976E+01  0.40155640861E+01 -0.30326836041E+01  0.72871278265E+01  0.51100000000E-03 0.  1.
        -12    1    3    3    0    0 -0.19156491156E+02  0.57966633420E+01  0.34716830890E+01  0.20313174119E+02  0.00000000000E+00 0.  1.
</event>
<event>
 7    1  0.1344618E-011  0.5930194E+02  0.7816164E-02  0.1266605E+00
        -11   -1    0    0    0    0  0.00000000000E+00  0.00000000000E+00  0.45593999997E+02  0.45594000000E+02  0.51100000000E-03 0.  1.
         11   -1    0    0    0    0 -0.00000000000E+00 -0.00000000000E+00 -0.45593999997E+02  0.45594000000E+02  0.51100000000E-03 0. -1.
    9900012    2    1    2    0    0  0.29504457377E+02  0.11193645767E+02 -0.45727867379E+01  0.59301935815E+02  0.49999985022E+02 0.  0.
        -12    1    1    2    0    0 -0.29504457377E+02 -0.11193645767E+02  0.45727867379E+01  0.31886064185E+02  0.00000000000E+00 0.  1.
         11    1    3    3    0    0  0.17594099472E+02  0.10937026233E+02 -0.14991208336E+01  0.20770610068E+02  0.51100000000E-03 0. -1.
        -11    1    3    3    0    0  0.10845293804E+02 -0.38713674841E+01  0.15592869014E+02  0.19384154566E+02  0.51100000000E-03 0.  1.
        -12    1    3    3    0    0  0.10650641000E+01  0.41279870180E+01 -0.18666534918E+02  0.19147171181E+02  0.00000000000E+00 0.  1.
</event>
<event>
 7    1  0.1344618E-011  0.5930190E+02  0.7816164E-02  0.1266605E+00
        -11   -1    0    0    0    0  0.00000000000E+00  0.00000000000E+00  0.45593999997E+02  0.45594000000E+02  0.51100000000E-03 0.  1.
         11   -1    0    0    0    0 -0.00000000000E+00 -0.00000000000E+00 -0.45593999997E+02  0.45594000000E+02  0.51100000000E-03 0. -1.
    9900012    2    1    2    0    0  0.15631176487E+02  0.17890082508E+02 -0.21268165422E+02  0.59301896586E+02  0.49999913477E+02 0.  0.
        -12    1    1    2    0    0 -0.15631176487E+02 -0.17890082508E+02  0.21268165422E+02  0.31886103414E+02  0.00000000000E+00 0.  1.
         11    1    3    3    0    0  0.70460319271E+01  0.84379592636E+01 -0.32144168392E+02  0.33971948492E+02  0.51100000000E-03 0. -1.
        -11    1    3    3    0    0  0.25593918539E+01  0.17995011106E+01 -0.54702376839E+01  0.63017609831E+01  0.51100000000E-03 0.  1.
        -12    1    3    3    0    0  0.60257527061E+01  0.76526221342E+01  0.16346240654E+02  0.19028187111E+02  0.00000000000E+00 0.  1.
</event>
<event>
 7    1  0.1344618E-011  0.5930193E+02  0.7816164E-02  0.1266605E+00
        -11   -1    0    0    0    0  0.00000000000E+00  0.00000000000E+00  0.45593999997E+02  0.45594000000E+02  0.51100000000E-03 0.  1.
         11   -1    0    0    0    0 -0.00000000000E+00 -0.00000000000E+00 -0.45593999997E+02  0.45594000000E+02  0.51100000000E-03 0. -1.
    9900012    2    1    2    0    0  0.24615950150E+02 -0.14577398427E+02 -0.14081045866E+02  0.59301930951E+02  0.49999976152E+02 0.  0.
        -12    1    1    2    0    0 -0.24615950150E+02  0.14577398427E+02  0.14081045866E+02  0.31886069049E+02  0.00000000000E+00 0.  1.
         11    1    3    3    0    0  0.27730842938E+02 -0.12391466932E+02 -0.85357421087E+01  0.31550071259E+02  0.51100000000E-03 0. -1.
        -11    1    3    3    0    0  0.34405378077E+01  0.71518362122E+01 -0.12192223177E+02  0.14547727241E+02  0.51100000000E-03 0.  1.
         12    1    3    3    0    0 -0.65554305960E+01 -0.93377677067E+01  0.66469194197E+01  0.13204132452E+02  0.00000000000E+00 0. -1.
</event>
<event>
 7    1  0.1344618E-011  0.5930190E+02  0.7816164E-02  0.1266605E+00
        -11   -1    0    0    0    0  0.00000000000E+00  0.00000000000E+00  0.45593999997E+02  0.45594000000E+02  0.51100000000E-03 0. -1.
         11   -1    0    0    0    0 -0.00000000000E+00 -0.00000000000E+00 -0.45593999997E+02  0.45594000000E+02  0.51100000000E-03 0.  1.
    9900012    2    1    2    0    0 -0.11084023692E+02 -0.22618000164E+02 -0.19552340373E+02  0.59301897593E+02  0.49999915315E+02 0.  0.
        -12    1    1    2    0    0  0.11084023692E+02  0.22618000164E+02  0.19552340373E+02  0.31886102407E+02  0.00000000000E+00 0.  1.
         11    1    3    3    0    0 -0.94051347523E+01  0.73461447537E+01  0.17720475781E+01  0.12064930805E+02  0.51100000000E-03 0. -1.
        -11    1    3    3    0    0  0.26588595239E+01 -0.11042602451E+02 -0.25018640409E+02  0.27476189165E+02  0.51100000000E-03 0.  1.
         12    1    3    3    0    0 -0.43377484634E+01 -0.18921542467E+02  0.36942524579E+01  0.19760777623E+02  0.00000000000E+00 0. -1.
</event>
<event>
 7    1  0.1344618E-011  0.5930190E+02  0.7816164E-02  0.1266605E+00
        -11   -1    0    0    0    0  0.00000000000E+00  0.00000000000E+00  0.45593999997E+02  0.45594000000E+02  0.51100000000E-03 0. -1.
         11   -1    0    0    0    0 -0.00000000000E+00 -0.00000000000E+00 -0.45593999997E+02  0.45594000000E+02  0.51100000000E-03 0.  1.
    9900012    2    1    2    0    0  0.69127039937E+00 -0.13008179272E+02  0.29103827649E+02  0.59301900104E+02  0.49999919894E+02 0.  0.
        -12    1    1    2    0    0 -0.69127039937E+00  0.13008179272E+02 -0.29103827649E+02  0.31886099896E+02  0.00000000000E+00 0.  1.
         11    1    3    3    0    0 -0.17592252278E+01  0.29914587534E+01 -0.72596006248E+01  0.80464588713E+01  0.51100000000E-03 0. -1.
        -11    1    3    3    0    0 -0.10332927020E+02 -0.99115942043E+01  0.24783047564E+01  0.14531038339E+02  0.51100000000E-03 0.  1.
         12    1    3    3    0    0  0.12783422647E+02 -0.60880438206E+01  0.33885123518E+02  0.36724402894E+02  0.00000000000E+00 0. -1.
</event>
<event>
 7    1  0.1344618E-011  0.5930200E+02  0.7816164E-02  0.1266605E+00
        -11   -1    0    0    0    0  0.00000000000E+00  0.00000000000E+00  0.45593999997E+02  0.45594000000E+02  0.51100000000E-03 0. -1.
         11   -1    0    0    0    0 -0.00000000000E+00 -0.00000000000E+00 -0.45593999997E+02  0.45594000000E+02  0.51100000000E-03 0.  1.
    9900012    2    1    2    0    0  0.19141101182E+02  0.20520262583E+02  0.15141146293E+02  0.59301996142E+02  0.50000095044E+02 0.  0.
        -12    1    1    2    0    0 -0.19141101182E+02 -0.20520262583E+02 -0.15141146293E+02  0.31886003858E+02  0.00000000000E+00 0.  1.
         11    1    3    3    0    0  0.20901711863E+01  0.20147428456E+02  0.78790457350E+01  0.21734006785E+02  0.51100000000E-03 0. -1.
        -11    1    3    3    0    0 -0.16861245443E+01  0.13175824597E+02  0.66769366285E+01  0.14866971877E+02  0.51100000000E-03 0.  1.
        -12    1    3    3    0    0  0.18737054540E+02 -0.12802990470E+02  0.58516392925E+00  0.22701017480E+02  0.00000000000E+00 0.  1.
</event>
<event>
 7    1  0.1344618E-011  0.5930193E+02  0.7816164E-02  0.1266605E+00
        -11   -1    0    0    0    0  0.00000000000E+00  0.00000000000E+00  0.45593999997E+02  0.45594000000E+02  0.51100000000E-03 0.  1.
         11   -1    0    0    0    0 -0.00000000000E+00 -0.00000000000E+00 -0.45593999997E+02  0.45594000000E+02  0.51100000000E-03 0. -1.
    9900012    2    1    2    0    0 -0.22072584717E+02 -0.23010384100E+02 -0.21116775939E+00  0.59301931501E+02  0.49999977154E+02 0.  0.
        -12    1    1    2    0    0  0.22072584717E+02  0.23010384100E+02  0.21116775939E+00  0.31886068499E+02  0.00000000000E+00 0.  1.
         11    1    3    3    0    0 -0.18053617662E+02  0.12650800759E+02  0.43691781223E+01  0.22473664327E+02  0.51100000000E-03 0. -1.
        -11    1    3    3    0    0  0.58172450244E+00 -0.48711331285E+01 -0.27930534830E+01  0.56451297037E+01  0.51100000000E-03 0.  1.
        -12    1    3    3    0    0 -0.46006915571E+01 -0.30790051731E+02 -0.17872923987E+01  0.31183137470E+02  0.00000000000E+00 0.  1.
</event>
<event>
 7    1  0.1344618E-011  0.5930202E+02  0.7816164E-02  0.1266604E+00
        -11   -1    0    0    0    0  0.00000000000E+00  0.00000000000E+00  0.45593999997E+02  0.45594000000E+02  0.51100000000E-03 0.  1.
         11   -1    0    0    0    0 -0.00000000000E+00 -0.00000000000E+00 -0.45593999997E+02  0.45594000000E+02  0.51100000000E-03 0. -1.
    9900012    2    1    2    0    0  0.30609937104E+02  0.34847409560E+01  0.82221509745E+01  0.59302024467E+02  0.50000146702E+02 0.  0.
        -12    1    1    2    0    0 -0.30609937104E+02 -0.34847409560E+01 -0.82221509745E+01  0.31885975533E+02  0.00000000000E+00 0.  1.
         11    1    3    3    0    0  0.67385215195E+01 -0.65711893179E+01  0.10150070317E+02  0.13842403297E+02  0.51100000000E-03 0. -1.
        -11    1    3    3    0    0 -0.87205918013E+01  0.23608884685E+01  0.62521966793E+01  0.10986923104E+02  0.51100000000E-03 0.  1.
         12    1    3    3    0    0  0.32592007386E+02  0.76950418054E+01 -0.81801160220E+01  0.34472698066E+02  0.00000000000E+00 0. -1.
</event>
<event>
 7    1  0.1344618E-011  0.5930194E+02  0.7816164E-02  0.1266605E+00
        -11   -1    0    0    0    0  0.00000000000E+00  0.00000000000E+00  0.45593999997E+02  0.45594000000E+02  0.51100000000E-03 0. -1.
         11   -1    0    0    0    0 -0.00000000000E+00 -0.00000000000E+00 -0.45593999997E+02  0.45594000000E+02  0.51100000000E-03 0.  1.
    9900012    2    1    2    0    0 -0.16227625161E+02 -0.11785897004E+02  0.24788653324E+02  0.59301944738E+02  0.50000001296E+02 0.  0.
        -12    1    1    2    0    0  0.16227625161E+02  0.11785897004E+02 -0.24788653324E+02  0.31886055262E+02  0.00000000000E+00 0.  1.
         11    1    3    3    0    0  0.99888045089E+01 -0.21998831076E+01 -0.78809234815E+01  0.12912190224E+02  0.51100000000E-03 0.  1.
        -11    1    3    3    0    0 -0.12267004127E+02 -0.99793873904E+01  0.72602705755E+01  0.17400548613E+02  0.51100000000E-03 0. -1.
        -12    1    3    3    0    0 -0.13949425542E+02  0.39337349448E+00  0.25409306230E+02  0.28989205901E+02  0.00000000000E+00 0.  1.
</event>
<event>
 7    1  0.1344618E-011  0.5930171E+02  0.7816164E-02  0.1266606E+00
        -11   -1    0    0    0    0  0.00000000000E+00  0.00000000000E+00  0.45593999997E+02  0.45594000000E+02  0.51100000000E-03 0.  1.
         11   -1    0    0    0    0 -0.00000000000E+00 -0.00000000000E+00 -0.45593999997E+02  0.45594000000E+02  0.51100000000E-03 0. -1.
    9900012    2    1    2    0    0  0.40425641500E-02  0.22956751646E+01 -0.31803543685E+02  0.59301709345E+02  0.49999571994E+02 0.  0.
        -12    1    1    2    0    0 -0.40425641500E-02 -0.22956751646E+01  0.31803543685E+02  0.31886290655E+02  0.00000000000E+00 0.  1.
         11    1    3    3    0    0 -0.14365594306E+02 -0.46763285432E+01  0.15789551511E+01  0.15189846874E+02  0.51100000000E-03 0. -1.
        -11    1    3    3    0    0  0.26763630873E+01 -0.84828179829E+01 -0.67098279773E+01  0.11141943818E+02  0.51100000000E-03 0.  1.
         12    1    3    3    0    0  0.11693273783E+02  0.15454821691E+02 -0.26672670859E+02  0.32969918653E+02  0.00000000000E+00 0. -1.
</event>
<event>
 7    1  0.1344618E-011  0.5930196E+02  0.7816164E-02  0.1266605E+00
        -11   -1    0    0    0    0  0.00000000000E+00  0.00000000000E+00  0.45593999997E+02  0.45594000000E+02  0.51100000000E-03 0.  1.
         11   -1    0    0    0    0 -0.00000000000E+00 -0.00000000000E+00 -0.45593999997E+02  0.45594000000E+02  0.51100000000E-03 0. -1.
    9900012    2    1    2    0    0  0.23214968931E+02  0.83823080867E+01 -0.20187162911E+02  0.59301962025E+02  0.50000032823E+02 0.  0.
        -12    1    1    2    0    0 -0.23214968931E+02 -0.83823080867E+01  0.20187162911E+02  0.31886037975E+02  0.00000000000E+00 0.  1.
         11    1    3    3    0    0  0.12466056017E+02 -0.38342666149E+01  0.52192342846E+01  0.14047937923E+02  0.51100000000E-03 0. -1.
        -11    1    3    3    0    0 -0.86265590583E+01  0.15545424397E+02 -0.12619530079E+02  0.21802070557E+02  0.51100000000E-03 0.  1.
         12    1    3    3    0    0  0.19375471972E+02 -0.33288496959E+01 -0.12786867116E+02  0.23451953545E+02  0.00000000000E+00 0. -1.
</event>
<event>
 7    1  0.1344618E-011  0.5930197E+02  0.7816164E-02  0.1266605E+00
        -11   -1    0    0    0    0  0.00000000000E+00  0.00000000000E+00  0.45593999997E+02  0.45594000000E+02  0.51100000000E-03 0.  1.
         11   -1    0    0    0    0 -0.00000000000E+00 -0.00000000000E+00 -0.45593999997E+02  0.45594000000E+02  0.51100000000E-03 0. -1.
    9900012    2    1    2    0    0 -0.65205679344E+01 -0.15111628594E+02 -0.27310064943E+02  0.59301972149E+02  0.50000051286E+02 0.  0.
        -12    1    1    2    0    0  0.65205679344E+01  0.15111628594E+02  0.27310064943E+02  0.31886027851E+02  0.00000000000E+00 0.  1.
         11    1    3    3    0    0  0.34172925566E+00  0.43841181879E+01 -0.15136027563E+02  0.15761871774E+02  0.51100000000E-03 0. -1.
        -11    1    3    3    0    0  0.11310787378E+02 -0.14033525540E+02  0.41646566191E+01  0.18499138229E+02  0.51100000000E-03 0.  1.
        -12    1    3    3    0    0 -0.18173084568E+02 -0.54622212424E+01 -0.16338693999E+02  0.25040962146E+02  0.00000000000E+00 0.  1.
</event>
<event>
 7    1  0.1344618E-011  0.5930235E+02  0.7816164E-02  0.1266603E+00
        -11   -1    0    0    0    0  0.00000000000E+00  0.00000000000E+00  0.45593999997E+02  0.45594000000E+02  0.51100000000E-03 0. -1.
         11   -1    0    0    0    0 -0.00000000000E+00 -0.00000000000E+00 -0.45593999997E+02  0.45594000000E+02  0.51100000000E-03 0.  1.
    9900012    2    1    2    0    0 -0.18851919652E+02 -0.34648615316E+01  0.25481255586E+02  0.59302352347E+02  0.50000744671E+02 0.  0.
        -12    1    1    2    0    0  0.18851919652E+02  0.34648615316E+01 -0.25481255586E+02  0.31885647653E+02  0.00000000000E+00 0.  1.
         11    1    3    3    0    0 -0.12747687055E+01 -0.96851925518E+01  0.19724042988E+01  0.99658601734E+01  0.51100000000E-03 0. -1.
        -11    1    3    3    0    0  0.32422841701E+01 -0.13432721917E+02  0.12593153082E+02  0.18695933503E+02  0.51100000000E-03 0.  1.
        -12    1    3    3    0    0 -0.20819435117E+02  0.19653052937E+02  0.10915698206E+02  0.30640558671E+02  0.00000000000E+00 0.  1.
</event>
<event>
 7    1  0.1344618E-011  0.5930193E+02  0.7816164E-02  0.1266605E+00
        -11   -1    0    0    0    0  0.00000000000E+00  0.00000000000E+00  0.45593999997E+02  0.45594000000E+02  0.51100000000E-03 0. -1.
         11   -1    0    0    0    0 -0.00000000000E+00 -0.00000000000E+00 -0.45593999997E+02  0.45594000000E+02  0.51100000000E-03 0.  1.
    9900012    2    1    2    0    0  0.59538526158E+01 -0.13744622667E+02  0.28148858984E+02  0.59301932896E+02  0.49999979699E+02 0.  0.
        -12    1    1    2    0    0 -0.59538526158E+01  0.13744622667E+02 -0.28148858984E+02  0.31886067104E+02  0.00000000000E+00 0.  1.
         11    1    3    3    0    0 -0.50380884625E+01  0.11832013601E+01  0.75489249989E+01  0.91525171246E+01  0.51100000000E-03 0. -1.
        -11    1    3    3    0    0 -0.91977241207E+01 -0.10584430595E+02  0.25339782762E+02  0.28960885531E+02  0.51100000000E-03 0.  1.
        -12    1    3    3    0    0  0.20189665199E+02 -0.43433934314E+01 -0.47398487771E+01  0.21188530241E+02  0.00000000000E+00 0.  1.
</event>
<event>
 7    1  0.1344618E-011  0.5930194E+02  0.7816164E-02  0.1266605E+00
        -11   -1    0    0    0    0  0.00000000000E+00  0.00000000000E+00  0.45593999997E+02  0.45594000000E+02  0.51100000000E-03 0.  1.
         11   -1    0    0    0    0 -0.00000000000E+00 -0.00000000000E+00 -0.45593999997E+02  0.45594000000E+02  0.51100000000E-03 0. -1.
    9900012    2    1    2    0    0 -0.85309408169E+01  0.83499146896E+01 -0.29567257175E+02  0.59301941551E+02  0.49999995483E+02 0.  0.
        -12    1    1    2    0    0  0.85309408169E+01 -0.83499146896E+01  0.29567257175E+02  0.31886058449E+02  0.00000000000E+00 0.  1.
         11    1    3    3    0    0 -0.18826084483E+01  0.17188481006E+01 -0.14661003722E+02  0.14880983965E+02  0.51100000000E-03 0. -1.
        -11    1    3    3    0    0 -0.12043285356E+02  0.17902563718E+02 -0.21356285153E+02  0.30358416059E+02  0.51100000000E-03 0.  1.
        -12    1    3    3    0    0  0.53949529872E+01 -0.11271497129E+02  0.64500316995E+01  0.14062541527E+02  0.00000000000E+00 0.  1.
</event>
<event>
 7    1  0.1344618E-011  0.5930185E+02  0.7816164E-02  0.1266605E+00
        -11   -1    0    0    0    0  0.00000000000E+00  0.00000000000E+00  0.45593999997E+02  0.45594000000E+02  0.51100000000E-03 0.  1.
         11   -1    0    0    0    0 -0.00000000000E+00 -0.00000000000E+00 -0.45593999997E+02  0.45594000000E+02  0.51100000000E-03 0. -1.
    9900012    2    1    2    0    0  0.10307525735E+02 -0.46275082404E+01 -0.29817241763E+02  0.59301845863E+02  0.49999820971E+02 0.  0.
        -12    1    1    2    0    0 -0.10307525735E+02  0.46275082404E+01  0.29817241763E+02  0.31886154137E+02  0.00000000000E+00 0.  1.
         11    1    3    3    0    0 -0.10745862052E+02 -0.53034385370E+01 -0.23957127217E+02  0.26787010962E+02  0.51100000000E-03 0. -1.
        -11    1    3    3    0    0 -0.23542062781E+01  0.40963017033E+01 -0.74318635953E+01  0.88065073443E+01  0.51100000000E-03 0.  1.
        -12    1    3    3    0    0  0.23407594065E+02 -0.34203714067E+01  0.15717490489E+01  0.23708327557E+02  0.00000000000E+00 0.  1.
</event>
<event>
 7    1  0.1344618E-011  0.5930196E+02  0.7816164E-02  0.1266605E+00
        -11   -1    0    0    0    0  0.00000000000E+00  0.00000000000E+00  0.45593999997E+02  0.45594000000E+02  0.51100000000E-03 0. -1.
         11   -1    0    0    0    0 -0.00000000000E+00 -0.00000000000E+00 -0.45593999997E+02  0.45594000000E+02  0.51100000000E-03 0.  1.
    9900012    2    1    2    0    0 -0.16926988525E+02 -0.26690445130E+02  0.42209834799E+01  0.59301960683E+02  0.50000030375E+02 0.  0.
        -12    1    1    2    0    0  0.16926988525E+02  0.26690445130E+02 -0.42209834799E+01  0.31886039317E+02  0.00000000000E+00 0.  1.
         11    1    3    3    0    0  0.59285863130E+01 -0.11430451340E+02 -0.46455090288E+00  0.12884842308E+02  0.51100000000E-03 0. -1.
        -11    1    3    3    0    0 -0.21382173456E+02 -0.20398825552E+02 -0.96738488418E+01  0.31094899538E+02  0.51100000000E-03 0.  1.
         12    1    3    3    0    0 -0.14734013824E+01  0.51388317614E+01  0.14359383225E+02  0.15322218837E+02  0.00000000000E+00 0. -1.
</event>
<event>
 7    1  0.1344618E-011  0.5930219E+02  0.7816164E-02  0.1266604E+00
        -11   -1    0    0    0    0  0.00000000000E+00  0.00000000000E+00  0.45593999997E+02  0.45594000000E+02  0.51100000000E-03 0.  1.
         11   -1    0    0    0    0 -0.00000000000E+00 -0.00000000000E+00 -0.45593999997E+02  0.45594000000E+02  0.51100000000E-03 0. -1.
    9900012    2    1    2    0    0 -0.19251469209E+02  0.14488987704E+02 -0.20884326478E+02  0.59302189302E+02  0.50000447320E+02 0.  0.
        -12    1    1    2    0    0  0.19251469209E+02 -0.14488987704E+02  0.20884326478E+02  0.31885810698E+02  0.00000000000E+00 0.  1.
         11    1    3    3    0    0  0.12583094496E+02  0.83679785643E+01 -0.15854558214E+01  0.15194439864E+02  0.51100000000E-03 0.  1.
        -11    1    3    3    0    0 -0.21352454554E+02  0.55475224126E+01 -0.24005485204E+02  0.32603153844E+02  0.51100000000E-03 0. -1.
        -12    1    3    3    0    0 -0.10482109152E+02  0.57348672725E+00  0.47066145477E+01  0.11504595595E+02  0.00000000000E+00 0.  1.
</event>
<event>
 7    1  0.1344618E-011  0.5930197E+02  0.7816164E-02  0.1266605E+00
        -11   -1    0    0    0    0  0.00000000000E+00  0.00000000000E+00  0.45593999997E+02  0.45594000000E+02  0.51100000000E-03 0. -1.
         11   -1    0    0    0    0 -0.00000000000E+00 -0.00000000000E+00 -0.45593999997E+02  0.45594000000E+02  0.51100000000E-03 0.  1.
    9900012    2    1    2    0    0  0.26737080119E+01 -0.25857259691E+02  0.18465432246E+02  0.59301972005E+02  0.50000051024E+02 0.  0.
        -12    1    1    2    0    0 -0.26737080119E+01  0.25857259691E+02 -0.18465432246E+02  0.31886027995E+02  0.00000000000E+00 0.  1.
         11    1    3    3    0    0  0.14504066788E+02 -0.72405421505E+01  0.67411067565E+01  0.17556649013E+02  0.51100000000E-03 0. -1.
        -11    1    3    3    0    0  0.11537661483E+02 -0.92231277951E+01  0.28590713887E+01  0.15045198845E+02  0.51100000000E-03 0.  1.
         12    1    3    3    0    0 -0.23368020259E+02 -0.93935897455E+01  0.88652541008E+01  0.26700124146E+02  0.00000000000E+00 0. -1.
</event>
<event>
 7    1  0.1344618E-011  0.5930194E+02  0.7816164E-02  0.1266605E+00
        -11   -1    0    0    0    0  0.00000000000E+00  0.00000000000E+00  0.45593999997E+02  0.45594000000E+02  0.51100000000E-03 0.  1.
         11   -1    0    0    0    0 -0.00000000000E+00 -0.00000000000E+00 -0.45593999997E+02  0.45594000000E+02  0.51100000000E-03 0. -1.
    9900012    2    1    2    0    0  0.12064649942E+02 -0.23767954743E+01 -0.29419647067E+02  0.59301943980E+02  0.49999999913E+02 0.  0.
        -12    1    1    2    0    0 -0.12064649942E+02  0.23767954743E+01  0.29419647067E+02  0.31886056020E+02  0.00000000000E+00 0.  1.
         11    1    3    3    0    0  0.30373061743E+01  0.13900171861E+02 -0.10982798070E+02  0.17973921672E+02  0.51100000000E-03 0. -1.
        -11    1    3    3    0    0 -0.37731241480E+01  0.10929302387E+01 -0.19337317296E+02  0.19732278196E+02  0.51100000000E-03 0.  1.
        -12    1    3    3    0    0  0.12800467916E+02 -0.17369897574E+02  0.90046829856E+00  0.21595744112E+02  0.00000000000E+00 0.  1.
</event>
<event>
 7    1  0.1344618E-011  0.5930199E+02  0.7816164E-02  0.1266605E+00
        -11   -1    0    0    0    0  0.00000000000E+00  0.00000000000E+00  0.45593999997E+02  0.45594000000E+02  0.51100000000E-03 0.  1.
         11   -1    0    0    0    0 -0.00000000000E+00 -0.00000000000E+00 -0.45593999997E+02  0.45594000000E+02  0.51100000000E-03 0. -1.
    9900012    2    1    2    0    0 -0.71613919601E+01 -0.97410170089E+01 -0.29504991667E+02  0.59301992404E+02  0.50000088226E+02 0.  0.
        -12    1    1    2    0    0  0.71613919601E+01  0.97410170089E+01  0.29504991667E+02  0.31886007596E+02  0.00000000000E+00 0.  1.
         11    1    3    3    0    0  0.74904466866E+00  0.39981396648E+01  0.18977836721E+01  0.44886269418E+01  0.51100000000E-03 0. -1.
        -11    1    3    3    0    0  0.95178723416E+01  0.29232232595E+01  0.50060759429E+01  0.11144322534E+02  0.51100000000E-03 0.  1.
         12    1    3    3    0    0 -0.17428308970E+02 -0.16662379933E+02 -0.36408851282E+02  0.43669042928E+02  0.00000000000E+00 0. -1.
</event>
<event>
 7    1  0.1344618E-011  0.5930197E+02  0.7816164E-02  0.1266605E+00
        -11   -1    0    0    0    0  0.00000000000E+00  0.00000000000E+00  0.45593999997E+02  0.45594000000E+02  0.51100000000E-03 0.  1.
         11   -1    0    0    0    0 -0.00000000000E+00 -0.00000000000E+00 -0.45593999997E+02  0.45594000000E+02  0.51100000000E-03 0. -1.
    9900012    2    1    2    0    0  0.74449289186E+00 -0.31818561912E+02  0.19348749199E+01  0.59301970257E+02  0.50000047836E+02 0.  0.
        -12    1    1    2    0    0 -0.74449289186E+00  0.31818561912E+02 -0.19348749199E+01  0.31886029743E+02  0.00000000000E+00 0.  1.
         11    1    3    3    0    0 -0.18741537203E+01 -0.43875820676E+01 -0.36520596713E+01  0.60083998428E+01  0.51100000000E-03 0.  1.
        -11    1    3    3    0    0 -0.64840230075E+01 -0.27967807141E+02 -0.13811380160E+02  0.31858986375E+02  0.51100000000E-03 0. -1.
        -12    1    3    3    0    0  0.91026696197E+01  0.53682729652E+00  0.19398314751E+02  0.21434584040E+02  0.00000000000E+00 0.  1.
</event>
<event>
 7    1  0.1344618E-011  0.5930189E+02  0.7816164E-02  0.1266605E+00
        -11   -1    0    0    0    0  0.00000000000E+00  0.00000000000E+00  0.45593999997E+02  0.45594000000E+02  0.51100000000E-03 0. -1.
         11   -1    0    0    0    0 -0.00000000000E+00 -0.00000000000E+00 -0.45593999997E+02  0.45594000000E+02  0.51100000000E-03 0.  1.
    9900012    2    1    2    0    0 -0.29250681061E+01 -0.24652093227E+02  0.20011046165E+02  0.59301894993E+02  0.49999910572E+02 0.  0.
        -12    1    1    2    0    0  0.29250681061E+01  0.24652093227E+02 -0.20011046165E+02  0.31886105007E+02  0.00000000000E+00 0.  1.
         11    1    3    3    0    0 -0.27397115655E+01  0.42729008865E+01 -0.34340971936E+01  0.61283542036E+01  0.51100000000E-03 0.  1.
        -11    1    3    3    0    0 -0.14208745192E+02  0.12877414913E+01  0.89926863043E+01  0.16864611627E+02  0.51100000000E-03 0. -1.
        -12    1    3    3    0    0  0.14023388652E+02 -0.30212735605E+02  0.14452457054E+02  0.36308929163E+02  0.00000000000E+00 0.  1.
</event>
<event>
 7    1  0.1344618E-011  0.5930212E+02  0.7816164E-02  0.1266604E+00
        -11   -1    0    0    0    0  0.00000000000E+00  0.00000000000E+00  0.45593999997E+02  0.45594000000E+02  0.51100000000E-03 0.  1.
         11   -1    0    0    0    0 -0.00000000000E+00 -0.00000000000E+00 -0.45593999997E+02  0.45594000000E+02  0.51100000000E-03 0. -1.
    9900012    2    1    2    0    0  0.24551960820E+02  0.17303764170E+02 -0.10700024112E+02  0.59302116751E+02  0.50000315005E+02 0.  0.
        -12    1    1    2    0    0 -0.24551960820E+02 -0.17303764170E+02  0.10700024112E+02  0.31885883249E+02  0.00000000000E+00 0.  1.
         11    1    3    3    0    0  0.63708701656E+01 -0.10111772988E+02 -0.14794448587E+02  0.19018718382E+02  0.51100000000E-03 0. -1.
        -11    1    3    3    0    0  0.73569523665E+01  0.11468800544E+01  0.87542310961E+01  0.11492460325E+02  0.51100000000E-03 0.  1.
        -12    1    3    3    0    0  0.10824138288E+02  0.26268657104E+02 -0.46598066210E+01  0.28790938044E+02  0.00000000000E+00 0.  1.
</event>
<event>
 7    1  0.1344618E-011  0.5930195E+02  0.7816164E-02  0.1266605E+00
        -11   -1    0    0    0    0  0.00000000000E+00  0.00000000000E+00  0.45593999997E+02  0.45594000000E+02  0.51100000000E-03 0.  1.
         11   -1    0    0    0    0 -0.00000000000E+00 -0.00000000000E+00 -0.45593999997E+02  0.45594000000E+02  0.51100000000E-03 0. -1.
    9900012    2    1    2    0    0  0.30087768799E+02 -0.45706178573E+01  0.95160767129E+01  0.59301951407E+02  0.50000013458E+02 0.  0.
        -12    1    1    2    0    0 -0.30087768799E+02  0.45706178573E+01 -0.95160767129E+01  0.31886048593E+02  0.00000000000E+00 0.  1.
         11    1    3    3    0    0  0.10076701255E+02  0.65160587622E+01  0.99236328373E+01  0.15571686451E+02  0.51100000000E-03 0. -1.
        -11    1    3    3    0    0 -0.24863981525E+01 -0.96846334936E+01  0.13832529990E+02  0.17067899340E+02  0.51100000000E-03 0.  1.
         12    1    3    3    0    0  0.22497465696E+02 -0.14020431259E+01 -0.14240086115E+02  0.26662365616E+02  0.00000000000E+00 0. -1.
</event>
<event>
 7    1  0.1344618E-011  0.5930194E+02  0.7816164E-02  0.1266605E+00
        -11   -1    0    0    0    0  0.00000000000E+00  0.00000000000E+00  0.45593999997E+02  0.45594000000E+02  0.51100000000E-03 0.  1.
         11   -1    0    0    0    0 -0.00000000000E+00 -0.00000000000E+00 -0.45593999997E+02  0.45594000000E+02  0.51100000000E-03 0. -1.
    9900012    2    1    2    0    0 -0.73917413222E+01  0.31013962659E+02  0.46568627182E+00  0.59301943748E+02  0.49999999491E+02 0.  0.
        -12    1    1    2    0    0  0.73917413222E+01 -0.31013962659E+02 -0.46568627182E+00  0.31886056252E+02  0.00000000000E+00 0.  1.
         11    1    3    3    0    0 -0.99754069296E+01  0.18106203368E+02  0.61705712555E+01  0.21573578602E+02  0.51100000000E-03 0. -1.
        -11    1    3    3    0    0 -0.13094376531E+02  0.16269748137E+02 -0.57227176337E+00  0.20892460277E+02  0.51100000000E-03 0.  1.
         12    1    3    3    0    0  0.15678042138E+02 -0.33619888467E+01 -0.51326132203E+01  0.16835904869E+02  0.00000000000E+00 0. -1.
</event>
<event>
 7    1  0.1344618E-011  0.5930194E+02  0.7816164E-02  0.1266605E+00
        -11   -1    0    0    0    0  0.00000000000E+00  0.00000000000E+00  0.45593999997E+02  0.45594000000E+02  0.51100000000E-03 0. -1.
         11   -1    0    0    0    0 -0.00000000000E+00 -0.00000000000E+00 -0.45593999997E+02  0.45594000000E+02  0.51100000000E-03 0.  1.
    9900012    2    1    2    0    0 -0.31838543244E+02 -0.46944260223E+00  0.16756581348E+01  0.59301936548E+02  0.49999986359E+02 0.  0.
        -12    1    1    2    0    0  0.31838543244E+02  0.46944260223E+00 -0.16756581348E+01  0.31886063452E+02  0.00000000000E+00 0.  1.
         11    1    3    3    0    0 -0.38150739690E+00  0.34533771136E-01 -0.13950429800E+01  0.14466809089E+01  0.51100000000E-03 0.  1.
        -11    1    3    3    0    0  0.11202584583E+02  0.64203634895E+01 -0.50801726464E+01  0.13875414338E+02  0.51100000000E-03 0. -1.
         12    1    3    3    0    0 -0.42659620430E+02 -0.69243398629E+01  0.81508737612E+01  0.43979841301E+02  0.00000000000E+00 0. -1.
</event>
<event>
 7    1  0.1344618E-011  0.5930197E+02  0.7816164E-02  0.1266605E+00
        -11   -1    0    0    0    0  0.00000000000E+00  0.00000000000E+00  0.45593999997E+02  0.45594000000E+02  0.51100000000E-03 0. -1.
         11   -1    0    0    0    0 -0.00000000000E+00 -0.00000000000E+00 -0.45593999997E+02  0.45594000000E+02  0.51100000000E-03 0.  1.
    9900012    2    1    2    0    0 -0.21945760036E+01  0.18410582942E+01  0.31757097344E+02  0.59301970282E+02  0.50000047881E+02 0.  0.
        -12    1    1    2    0    0  0.21945760036E+01 -0.18410582942E+01 -0.31757097344E+02  0.31886029718E+02  0.00000000000E+00 0.  1.
         11    1    3    3    0    0 -0.40921279538E+00 -0.77033991724E+01  0.36309873307E+01  0.85260707937E+01  0.51100000000E-03 0. -1.
        -11    1    3    3    0    0 -0.99650284342E+01 -0.13846915546E+02  0.15089092003E+02  0.22775415684E+02  0.51100000000E-03 0.  1.
        -12    1    3    3    0    0  0.81796652260E+01  0.23391373013E+02  0.13037018011E+02  0.28000483804E+02  0.00000000000E+00 0.  1.
</event>
<event>
 7    1  0.1344618E-011  0.5930192E+02  0.7816164E-02  0.1266605E+00
        -11   -1    0    0    0    0  0.00000000000E+00  0.00000000000E+00  0.45593999997E+02  0.45594000000E+02  0.51100000000E-03 0. -1.
         11   -1    0    0    0    0 -0.00000000000E+00 -0.00000000000E+00 -0.45593999997E+02  0.45594000000E+02  0.51100000000E-03 0.  1.
    9900012    2    1    2    0    0 -0.22214922677E+02 -0.10350209060E+01  0.22850553732E+02  0.59301923670E+02  0.49999962872E+02 0.  0.
        -12    1    1    2    0    0  0.22214922677E+02  0.10350209060E+01 -0.22850553732E+02  0.31886076330E+02  0.00000000000E+00 0.  1.
         11    1    3    3    0    0  0.45880597020E+01  0.93570420559E+01  0.16164078691E+02  0.19232315723E+02  0.51100000000E-03 0. -1.
        -11    1    3    3    0    0  0.43247071571E+01  0.15066547031E+01  0.48858938462E+01  0.66966453786E+01  0.51100000000E-03 0.  1.
        -12    1    3    3    0    0 -0.31127689537E+02 -0.11898717665E+02  0.18005811948E+01  0.33372962568E+02  0.00000000000E+00 0.  1.
</event>
<event>
 7    1  0.1344618E-011  0.5930194E+02  0.7816164E-02  0.1266605E+00
        -11   -1    0    0    0    0  0.00000000000E+00  0.00000000000E+00  0.45593999997E+02  0.45594000000E+02  0.51100000000E-03 0.  1.
         11   -1    0    0    0    0 -0.00000000000E+00 -0.00000000000E+00 -0.45593999997E+02  0.45594000000E+02  0.51100000000E-03 0. -1.
    9900012    2    1    2    0    0  0.56432568520E+01 -0.14928279724E+02 -0.27604731357E+02  0.59301936011E+02  0.49999985379E+02 0.  0.
        -12    1    1    2    0    0 -0.56432568520E+01  0.14928279724E+02  0.27604731357E+02  0.31886063989E+02  0.00000000000E+00 0.  1.
         11    1    3    3    0    0 -0.49757823798E+01 -0.91911465547E+01 -0.16728148111E+02  0.19724769321E+02  0.51100000000E-03 0. -1.
        -11    1    3    3    0    0 -0.11658594932E+02 -0.90355677105E+01 -0.44183261910E+00  0.14756677674E+02  0.51100000000E-03 0.  1.
        -12    1    3    3    0    0  0.22277634164E+02  0.32984345410E+01 -0.10434750627E+02  0.24820489016E+02  0.00000000000E+00 0.  1.
</event>
<event>
 7    1  0.1344618E-011  0.5930196E+02  0.7816164E-02  0.1266605E+00
        -11   -1    0    0    0    0  0.00000000000E+00  0.00000000000E+00  0.45593999997E+02  0.45594000000E+02  0.51100000000E-03 0.  1.
         11   -1    0    0    0    0 -0.00000000000E+00 -0.00000000000E+00 -0.45593999997E+02  0.45594000000E+02  0.51100000000E-03 0. -1.
    9900012    2    1    2    0    0  0.31261507984E+02  0.44305445988E+00 -0.62642915560E+01  0.59301960306E+02  0.50000029688E+02 0.  0.
        -12    1    1    2    0    0 -0.31261507984E+02 -0.44305445988E+00  0.62642915560E+01  0.31886039694E+02  0.00000000000E+00 0.  1.
         11    1    3    3    0    0  0.22177454130E+02 -0.80571962915E+01  0.41778094533E+01  0.23962720544E+02  0.51100000000E-03 0. -1.
        -11    1    3    3    0    0  0.16234437796E+02  0.16198510853E+02 -0.93846640795E+01  0.24779439956E+02  0.51100000000E-03 0.  1.
         12    1    3    3    0    0 -0.71503839417E+01 -0.76982601011E+01 -0.10574369298E+01  0.10559799807E+02  0.00000000000E+00 0. -1.
</event>
<event>
 7    1  0.1344618E-011  0.5930195E+02  0.7816164E-02  0.1266605E+00
        -11   -1    0    0    0    0  0.00000000000E+00  0.00000000000E+00  0.45593999997E+02  0.45594000000E+02  0.51100000000E-03 0.  1.
         11   -1    0    0    0    0 -0.00000000000E+00 -0.00000000000E+00 -0.45593999997E+02  0.45594000000E+02  0.51100000000E-03 0. -1.
    9900012    2    1    2    0    0  0.14708176420E+02  0.81788914450E+01 -0.27083125791E+02  0.59301946285E+02  0.50000004118E+02 0.  0.
        -12    1    1    2    0    0 -0.14708176420E+02 -0.81788914450E+01  0.27083125791E+02  0.31886053715E+02  0.00000000000E+00 0.  1.
         11    1    3    3    0    0  0.71192869642E+01  0.99918089958E+01 -0.37021209714E+02  0.39001159763E+02  0.51100000000E-03 0. -1.
        -11    1    3    3    0    0  0.19195134351E+01  0.79449881796E+00 -0.42888326137E+01  0.47654848283E+01  0.51100000000E-03 0.  1.
        -12    1    3    3    0    0  0.56693760212E+01 -0.26074163687E+01  0.14226916537E+02  0.15535301694E+02  0.00000000000E+00 0.  1.
</event>
<event>
 7    1  0.1344618E-011  0.5930195E+02  0.7816164E-02  0.1266605E+00
        -11   -1    0    0    0    0  0.00000000000E+00  0.00000000000E+00  0.45593999997E+02  0.45594000000E+02  0.51100000000E-03 0.  1.
         11   -1    0    0    0    0 -0.00000000000E+00 -0.00000000000E+00 -0.45593999997E+02  0.45594000000E+02  0.51100000000E-03 0. -1.
    9900012    2    1    2    0    0 -0.23289229417E+02  0.82894927895E+01 -0.20139924347E+02  0.59301945835E+02  0.50000003296E+02 0.  0.
        -12    1    1    2    0    0  0.23289229417E+02 -0.82894927895E+01  0.20139924347E+02  0.31886054165E+02  0.00000000000E+00 0.  1.
         11    1    3    3    0    0 -0.44737699358E+01  0.13534065088E+02  0.59889288395E+01  0.15461332548E+02  0.51100000000E-03 0. -1.
        -11    1    3    3    0    0  0.50708214479E+01 -0.34083284750E+01  0.24201634326E+01  0.65716911409E+01  0.51100000000E-03 0.  1.
        -12    1    3    3    0    0 -0.23886280929E+02 -0.18362438239E+01 -0.28549016619E+02  0.37268922146E+02  0.00000000000E+00 0.  1.
</event>
<event>
 7    1  0.1344618E-011  0.5930201E+02  0.7816164E-02  0.1266605E+00
        -11   -1    0    0    0    0  0.00000000000E+00  0.00000000000E+00  0.45593999997E+02  0.45594000000E+02  0.51100000000E-03 0.  1.
         11   -1    0    0    0    0 -0.00000000000E+00 -0.00000000000E+00 -0.45593999997E+02  0.45594000000E+02  0.51100000000E-03 0. -1.
    9900012    2    1    2    0    0 -0.26582724345E+01 -0.30544481522E+02 -0.87569797685E+01  0.59302008429E+02  0.50000117452E+02 0.  0.
        -12    1    1    2    0    0  0.26582724345E+01  0.30544481522E+02  0.87569797685E+01  0.31885991571E+02  0.00000000000E+00 0.  1.
         11    1    3    3    0    0  0.10124479111E+02 -0.23852392365E+02  0.99453545993E+00  0.25931270695E+02  0.51100000000E-03 0. -1.
        -11    1    3    3    0    0 -0.11493507065E+02  0.11905934127E+01  0.78991252406E+01  0.13996942422E+02  0.51100000000E-03 0.  1.
         12    1    3    3    0    0 -0.12892444805E+01 -0.78826825696E+01 -0.17650640469E+02  0.19373795312E+02  0.00000000000E+00 0. -1.
</event>
<event>
 7    1  0.1344618E-011  0.5930194E+02  0.7816164E-02  0.1266605E+00
        -11   -1    0    0    0    0  0.00000000000E+00  0.00000000000E+00  0.45593999997E+02  0.45594000000E+02  0.51100000000E-03 0.  1.
         11   -1    0    0    0    0 -0.00000000000E+00 -0.00000000000E+00 -0.45593999997E+02  0.45594000000E+02  0.51100000000E-03 0. -1.
    9900012    2    1    2    0    0 -0.14859241410E+02  0.13227212904E+02 -0.24919157631E+02  0.59301942960E+02  0.49999998054E+02 0.  0.
        -12    1    1    2    0    0  0.14859241410E+02 -0.13227212904E+02  0.24919157631E+02  0.31886057040E+02  0.00000000000E+00 0.  1.
         11    1    3    3    0    0 -0.24810782038E+01  0.16920705966E+02 -0.39198975858E+01  0.17545131427E+02  0.51100000000E-03 0. -1.
        -11    1    3    3    0    0 -0.18615726135E+02  0.29333047161E+01  0.27145103566E-01  0.18845431096E+02  0.51100000000E-03 0.  1.
        -12    1    3    3    0    0  0.62375629287E+01 -0.66267977777E+01 -0.21026405149E+02  0.22911380437E+02  0.00000000000E+00 0.  1.
</event>
<event>
 7    1  0.1344618E-011  0.5930194E+02  0.7816164E-02  0.1266605E+00
        -11   -1    0    0    0    0  0.00000000000E+00  0.00000000000E+00  0.45593999997E+02  0.45594000000E+02  0.51100000000E-03 0. -1.
         11   -1    0    0    0    0 -0.00000000000E+00 -0.00000000000E+00 -0.45593999997E+02  0.45594000000E+02  0.51100000000E-03 0.  1.
    9900012    2    1    2    0    0  0.23137333851E+01  0.13056594703E+01  0.31775190568E+02  0.59301939653E+02  0.49999992022E+02 0.  0.
        -12    1    1    2    0    0 -0.23137333851E+01 -0.13056594703E+01 -0.31775190568E+02  0.31886060347E+02  0.00000000000E+00 0.  1.
         11    1    3    3    0    0  0.21389448221E+02  0.32842526787E+01  0.19123965466E+02  0.28879419424E+02  0.51100000000E-03 0. -1.
        -11    1    3    3    0    0  0.24834771205E+01 -0.29385413801E+01  0.72009871900E+01  0.81643677539E+01  0.51100000000E-03 0.  1.
        -12    1    3    3    0    0 -0.21559191957E+02  0.95994817168E+00  0.54502379123E+01  0.22258152475E+02  0.00000000000E+00 0.  1.
</event>
<event>
 7    1  0.1344618E-011  0.5930194E+02  0.7816164E-02  0.1266605E+00
        -11   -1    0    0    0    0  0.00000000000E+00  0.00000000000E+00  0.45593999997E+02  0.45594000000E+02  0.51100000000E-03 0.  1.
         11   -1    0    0    0    0 -0.00000000000E+00 -0.00000000000E+00 -0.45593999997E+02  0.45594000000E+02  0.51100000000E-03 0. -1.
    9900012    2    1    2    0    0  0.21236365817E+02 -0.21890435018E+02  0.93030472636E+01  0.59301936167E+02  0.49999985663E+02 0.  0.
        -12    1    1    2    0    0 -0.21236365817E+02  0.21890435018E+02 -0.93030472636E+01  0.31886063833E+02  0.00000000000E+00 0.  1.
         11    1    3    3    0    0 -0.30546490753E+01 -0.62268871843E+01  0.58991694519E+00  0.69608194376E+01  0.51100000000E-03 0. -1.
        -11    1    3    3    0    0  0.27792214011E+01 -0.95017429468E+00 -0.16094160427E+02  0.16359978695E+02  0.51100000000E-03 0.  1.
         12    1    3    3    0    0  0.21511793492E+02 -0.14713373539E+02  0.24807290745E+02  0.35981138034E+02  0.00000000000E+00 0. -1.
</event>
<event>
 7    1  0.1344618E-011  0.5930193E+02  0.7816164E-02  0.1266605E+00
        -11   -1    0    0    0    0  0.00000000000E+00  0.00000000000E+00  0.45593999997E+02  0.45594000000E+02  0.51100000000E-03 0. -1.
         11   -1    0    0    0    0 -0.00000000000E+00 -0.00000000000E+00 -0.45593999997E+02  0.45594000000E+02  0.51100000000E-03 0.  1.
    9900012    2    1    2    0    0  0.13615770531E+02  0.18688367974E+02  0.21956249133E+02  0.59301934381E+02  0.49999982407E+02 0.  0.
        -12    1    1    2    0    0 -0.13615770531E+02 -0.18688367974E+02 -0.21956249133E+02  0.31886065619E+02  0.00000000000E+00 0.  1.
         11    1    3    3    0    0 -0.63294960841E+01  0.17753846719E+01  0.35657296863E+01  0.74785653617E+01  0.51100000000E-03 0. -1.
        -11    1    3    3    0    0  0.26304415792E+02  0.10758913862E+02  0.27198681183E+02  0.39337574608E+02  0.51100000000E-03 0.  1.
         12    1    3    3    0    0 -0.63591491772E+01  0.61540694393E+01 -0.88081617363E+01  0.12485794412E+02  0.00000000000E+00 0. -1.
</event>
<event>
 7    1  0.1344618E-011  0.5930193E+02  0.7816164E-02  0.1266605E+00
        -11   -1    0    0    0    0  0.00000000000E+00  0.00000000000E+00  0.45593999997E+02  0.45594000000E+02  0.51100000000E-03 0. -1.
         11   -1    0    0    0    0 -0.00000000000E+00 -0.00000000000E+00 -0.45593999997E+02  0.45594000000E+02  0.51100000000E-03 0.  1.
    9900012    2    1    2    0    0 -0.17293727136E+02 -0.22911247361E+02 -0.13882469201E+02  0.59301934000E+02  0.49999981712E+02 0.  0.
        -12    1    1    2    0    0  0.17293727136E+02  0.22911247361E+02  0.13882469201E+02  0.31886066000E+02  0.00000000000E+00 0.  1.
         11    1    3    3    0    0 -0.13854502565E+02 -0.99859904240E+01  0.36085898367E-01  0.17078306371E+02  0.51100000000E-03 0. -1.
        -11    1    3    3    0    0 -0.18711246205E+01  0.11661881484E+02  0.31834635507E+01  0.12232539701E+02  0.51100000000E-03 0.  1.
         12    1    3    3    0    0 -0.15680999505E+01 -0.24587138421E+02 -0.17102018650E+02  0.29991087927E+02  0.00000000000E+00 0. -1.
</event>
<event>
 7    1  0.1344618E-011  0.5930191E+02  0.7816164E-02  0.1266605E+00
        -11   -1    0    0    0    0  0.00000000000E+00  0.00000000000E+00  0.45593999997E+02  0.45594000000E+02  0.51100000000E-03 0. -1.
         11   -1    0    0    0    0 -0.00000000000E+00 -0.00000000000E+00 -0.45593999997E+02  0.45594000000E+02  0.51100000000E-03 0.  1.
    9900012    2    1    2    0    0  0.51580570885E+01  0.30588394678E+02 -0.73801952682E+01  0.59301910179E+02  0.49999938268E+02 0.  0.
        -12    1    1    2    0    0 -0.51580570885E+01 -0.30588394678E+02  0.73801952682E+01  0.31886089821E+02  0.00000000000E+00 0.  1.
         11    1    3    3    0    0  0.15710833357E+02  0.38841177525E+01 -0.29932050341E+01  0.16458308909E+02  0.51100000000E-03 0. -1.
        -11    1    3    3    0    0  0.71165110879E+01 -0.15860104154E+01  0.41824677256E+01  0.84055455290E+01  0.51100000000E-03 0.  1.
         12    1    3    3    0    0 -0.17669287357E+02  0.28290287341E+02 -0.85694579597E+01  0.34438055741E+02  0.00000000000E+00 0. -1.
</event>
<event>
 7    1  0.1344618E-011  0.5930194E+02  0.7816164E-02  0.1266605E+00
        -11   -1    0    0    0    0  0.00000000000E+00  0.00000000000E+00  0.45593999997E+02  0.45594000000E+02  0.51100000000E-03 0. -1.
         11   -1    0    0    0    0 -0.00000000000E+00 -0.00000000000E+00 -0.45593999997E+02  0.45594000000E+02  0.51100000000E-03 0.  1.
    9900012    2    1    2    0    0  0.77853641310E+01  0.24685423726E+02 -0.18620924939E+02  0.59301939021E+02  0.49999990868E+02 0.  0.
        -12    1    1    2    0    0 -0.77853641310E+01 -0.24685423726E+02  0.18620924939E+02  0.31886060979E+02  0.00000000000E+00 0.  1.
         11    1    3    3    0    0 -0.36983768043E+01 -0.53217324838E+01 -0.36603477248E+01  0.74429143044E+01  0.51100000000E-03 0. -1.
        -11    1    3    3    0    0  0.36376273775E+01 -0.83389195149E+01  0.18114010206E+01  0.92763724339E+01  0.51100000000E-03 0.  1.
         12    1    3    3    0    0  0.78461135578E+01  0.38346075725E+02 -0.16771978235E+02  0.42582652282E+02  0.00000000000E+00 0. -1.
</event>
<event>
 7    1  0.1344618E-011  0.5930194E+02  0.7816164E-02  0.1266605E+00
        -11   -1    0    0    0    0  0.00000000000E+00  0.00000000000E+00  0.45593999997E+02  0.45594000000E+02  0.51100000000E-03 0.  1.
         11   -1    0    0    0    0 -0.00000000000E+00 -0.00000000000E+00 -0.45593999997E+02  0.45594000000E+02  0.51100000000E-03 0. -1.
    9900012    2    1    2    0    0 -0.18878552710E+02 -0.10463765684E+02 -0.23469778942E+02  0.59301942416E+02  0.49999997060E+02 0.  0.
        -12    1    1    2    0    0  0.18878552710E+02  0.10463765684E+02  0.23469778942E+02  0.31886057584E+02  0.00000000000E+00 0.  1.
         11    1    3    3    0    0  0.63862707571E+01 -0.79529518990E+01  0.49222865006E+01  0.11325316894E+02  0.51100000000E-03 0. -1.
        -11    1    3    3    0    0 -0.18705140901E+01  0.79903916647E+01  0.17618950693E+01  0.83934174454E+01  0.51100000000E-03 0.  1.
         12    1    3    3    0    0 -0.23394309377E+02 -0.10501205449E+02 -0.30153960512E+02  0.39583208077E+02  0.00000000000E+00 0. -1.
</event>
<event>
 7    1  0.1344618E-011  0.5930175E+02  0.7816164E-02  0.1266605E+00
        -11   -1    0    0    0    0  0.00000000000E+00  0.00000000000E+00  0.45593999997E+02  0.45594000000E+02  0.51100000000E-03 0. -1.
         11   -1    0    0    0    0 -0.00000000000E+00 -0.00000000000E+00 -0.45593999997E+02  0.45594000000E+02  0.51100000000E-03 0.  1.
    9900012    2    1    2    0    0  0.28458468038E+02 -0.36480714478E+01  0.13911868775E+02  0.59301750281E+02  0.49999646650E+02 0.  0.
        -12    1    1    2    0    0 -0.28458468038E+02  0.36480714478E+01 -0.13911868775E+02  0.31886249719E+02  0.00000000000E+00 0.  1.
         11    1    3    3    0    0 -0.32144818633E+01 -0.95848469784E+01  0.62835241550E+01  0.11903145018E+02  0.51100000000E-03 0. -1.
        -11    1    3    3    0    0  0.64835407224E+01 -0.13348431887E+02  0.45693068533E+01  0.15527250224E+02  0.51100000000E-03 0.  1.
        -12    1    3    3    0    0  0.25189409179E+02  0.19285207418E+02  0.30590377669E+01  0.31871355038E+02  0.00000000000E+00 0.  1.
</event>
<event>
 7    1  0.1344618E-011  0.5930195E+02  0.7816164E-02  0.1266605E+00
        -11   -1    0    0    0    0  0.00000000000E+00  0.00000000000E+00  0.45593999997E+02  0.45594000000E+02  0.51100000000E-03 0. -1.
         11   -1    0    0    0    0 -0.00000000000E+00 -0.00000000000E+00 -0.45593999997E+02  0.45594000000E+02  0.51100000000E-03 0.  1.
    9900012    2    1    2    0    0 -0.86822536961E+01  0.27843431360E+02  0.12887285810E+02  0.59301947647E+02  0.50000006600E+02 0.  0.
        -12    1    1    2    0    0  0.86822536961E+01 -0.27843431360E+02 -0.12887285810E+02  0.31886052353E+02  0.00000000000E+00 0.  1.
         11    1    3    3    0    0 -0.18137497580E+02  0.30657076299E+02  0.18029295427E+02  0.39923434717E+02  0.51100000000E-03 0. -1.
        -11    1    3    3    0    0  0.44284328568E+01  0.39709413085E+01  0.38169654467E+01  0.70674336166E+01  0.51100000000E-03 0.  1.
         12    1    3    3    0    0  0.50268110275E+01 -0.67845862482E+01 -0.89589750639E+01  0.12311079313E+02  0.00000000000E+00 0. -1.
</event>
<event>
 7    1  0.1344618E-011  0.5930190E+02  0.7816164E-02  0.1266605E+00
        -11   -1    0    0    0    0  0.00000000000E+00  0.00000000000E+00  0.45593999997E+02  0.45594000000E+02  0.51100000000E-03 0.  1.
         11   -1    0    0    0    0 -0.00000000000E+00 -0.00000000000E+00 -0.45593999997E+02  0.45594000000E+02  0.51100000000E-03 0. -1.
    9900012    2    1    2    0    0 -0.20711271577E+02 -0.23171646559E+02 -0.71303017498E+01  0.59301903067E+02  0.49999925297E+02 0.  0.
        -12    1    1    2    0    0  0.20711271577E+02  0.23171646559E+02  0.71303017498E+01  0.31886096933E+02  0.00000000000E+00 0.  1.
         11    1    3    3    0    0 -0.81201990271E+01 -0.33044627677E+01  0.16790544213E+02  0.18941475171E+02  0.51100000000E-03 0. -1.
        -11    1    3    3    0    0 -0.29625748361E+01  0.24687991035E+01  0.23839864717E+01  0.45337854416E+01  0.51100000000E-03 0.  1.
         12    1    3    3    0    0 -0.96284977134E+01 -0.22335982895E+02 -0.26304832435E+02  0.35826642454E+02  0.00000000000E+00 0. -1.
</event>
<event>
 7    1  0.1344618E-011  0.5930208E+02  0.7816164E-02  0.1266604E+00
        -11   -1    0    0    0    0  0.00000000000E+00  0.00000000000E+00  0.45593999997E+02  0.45594000000E+02  0.51100000000E-03 0.  1.
         11   -1    0    0    0    0 -0.00000000000E+00 -0.00000000000E+00 -0.45593999997E+02  0.45594000000E+02  0.51100000000E-03 0. -1.
    9900012    2    1    2    0    0  0.44386334408E+01  0.28621329108E+02 -0.13335292265E+02  0.59302078867E+02  0.50000245913E+02 0.  0.
        -12    1    1    2    0    0 -0.44386334408E+01 -0.28621329108E+02  0.13335292265E+02  0.31885921133E+02  0.00000000000E+00 0.  1.
         11    1    3    3    0    0  0.53421920712E+01  0.20391149447E+01  0.96455316057E+00  0.57989110136E+01  0.51100000000E-03 0. -1.
        -11    1    3    3    0    0 -0.64650596812E+01  0.28990803622E+02  0.76991981940E+01  0.30684545693E+02  0.51100000000E-03 0.  1.
         12    1    3    3    0    0  0.55615010509E+01 -0.24085894583E+01 -0.21999043619E+02  0.22818622160E+02  0.00000000000E+00 0. -1.
</event>
<event>
 7    1  0.1344618E-011  0.5930196E+02  0.7816164E-02  0.1266605E+00
        -11   -1    0    0    0    0  0.00000000000E+00  0.00000000000E+00  0.45593999997E+02  0.45594000000E+02  0.51100000000E-03 0.  1.
         11   -1    0    0    0    0 -0.00000000000E+00 -0.00000000000E+00 -0.45593999997E+02  0.45594000000E+02  0.51100000000E-03 0. -1.
    9900012    2    1    2    0    0  0.13899535887E+02 -0.28025836185E+02 -0.61704964786E+01  0.59301958877E+02  0.50000027081E+02 0.  0.
        -12    1    1    2    0    0 -0.13899535887E+02  0.28025836185E+02  0.61704964786E+01  0.31886041123E+02  0.00000000000E+00 0.  1.
         11    1    3    3    0    0 -0.70026687437E+01 -0.43823651369E+01  0.10769824509E+02  0.13573194685E+02  0.51100000000E-03 0. -1.
        -11    1    3    3    0    0 -0.22663152419E+01 -0.17936753631E+00 -0.12205787009E+02  0.12415699507E+02  0.51100000000E-03 0.  1.
        -12    1    3    3    0    0  0.23168519872E+02 -0.23464103512E+02 -0.47345339791E+01  0.33313064685E+02  0.00000000000E+00 0.  1.
</event>
<event>
 7    1  0.1344618E-011  0.5930196E+02  0.7816164E-02  0.1266605E+00
        -11   -1    0    0    0    0  0.00000000000E+00  0.00000000000E+00  0.45593999997E+02  0.45594000000E+02  0.51100000000E-03 0.  1.
         11   -1    0    0    0    0 -0.00000000000E+00 -0.00000000000E+00 -0.45593999997E+02  0.45594000000E+02  0.51100000000E-03 0. -1.
    9900012    2    1    2    0    0 -0.76163078799E+01 -0.12380932396E+02 -0.28379988321E+02  0.59301962776E+02  0.50000034193E+02 0.  0.
        -12    1    1    2    0    0  0.76163078799E+01  0.12380932396E+02  0.28379988321E+02  0.31886037224E+02  0.00000000000E+00 0.  1.
         11    1    3    3    0    0  0.79019415218E+01  0.33776736089E+01 -0.14692825746E+02  0.17021412617E+02  0.51100000000E-03 0.  1.
        -11    1    3    3    0    0 -0.65307468825E+00  0.62111863839E+01 -0.14451435168E+02  0.15743230975E+02  0.51100000000E-03 0. -1.
         12    1    3    3    0    0 -0.14865174713E+02 -0.21969792389E+02  0.76427259297E+00  0.26537319184E+02  0.00000000000E+00 0. -1.
</event>
<event>
 7    1  0.1344618E-011  0.5930195E+02  0.7816164E-02  0.1266605E+00
        -11   -1    0    0    0    0  0.00000000000E+00  0.00000000000E+00  0.45593999997E+02  0.45594000000E+02  0.51100000000E-03 0. -1.
         11   -1    0    0    0    0 -0.00000000000E+00 -0.00000000000E+00 -0.45593999997E+02  0.45594000000E+02  0.51100000000E-03 0.  1.
    9900012    2    1    2    0    0 -0.14936330999E+02  0.10103512326E+02  0.26297253148E+02  0.59301945553E+02  0.50000002783E+02 0.  0.
        -12    1    1    2    0    0  0.14936330999E+02 -0.10103512326E+02 -0.26297253148E+02  0.31886054447E+02  0.00000000000E+00 0.  1.
         11    1    3    3    0    0 -0.93776534948E+00  0.14684515384E+02  0.89568146487E+01  0.17226111715E+02  0.51100000000E-03 0. -1.
        -11    1    3    3    0    0 -0.11684531371E+02  0.88401080042E+01 -0.53616019252E+01  0.15602004946E+02  0.51100000000E-03 0.  1.
        -12    1    3    3    0    0 -0.23140342791E+01 -0.13421111062E+02  0.22702040424E+02  0.26473828892E+02  0.00000000000E+00 0.  1.
</event>
<event>
 7    1  0.1344618E-011  0.5930194E+02  0.7816164E-02  0.1266605E+00
        -11   -1    0    0    0    0  0.00000000000E+00  0.00000000000E+00  0.45593999997E+02  0.45594000000E+02  0.51100000000E-03 0. -1.
         11   -1    0    0    0    0 -0.00000000000E+00 -0.00000000000E+00 -0.45593999997E+02  0.45594000000E+02  0.51100000000E-03 0.  1.
    9900012    2    1    2    0    0  0.29737040472E+02 -0.19841478878E+01  0.11335437104E+02  0.59301944220E+02  0.50000000351E+02 0.  0.
        -12    1    1    2    0    0 -0.29737040472E+02  0.19841478878E+01 -0.11335437104E+02  0.31886055780E+02  0.00000000000E+00 0.  1.
         11    1    3    3    0    0  0.55261893460E+01  0.13538516112E+02  0.76480525277E+01  0.16502208789E+02  0.51100000000E-03 0. -1.
        -11    1    3    3    0    0  0.27509644894E+02 -0.21520047089E+02 -0.20115322157E+00  0.34927545745E+02  0.51100000000E-03 0.  1.
         12    1    3    3    0    0 -0.32987937683E+01  0.59973830894E+01  0.38885377979E+01  0.78721896860E+01  0.00000000000E+00 0. -1.
</event>
<event>
 7    1  0.1344618E-011  0.5930203E+02  0.7816164E-02  0.1266604E+00
        -11   -1    0    0    0    0  0.00000000000E+00  0.00000000000E+00  0.45593999997E+02  0.45594000000E+02  0.51100000000E-03 0.  1.
         11   -1    0    0    0    0 -0.00000000000E+00 -0.00000000000E+00 -0.45593999997E+02  0.45594000000E+02  0.51100000000E-03 0. -1.
    9900012    2    1    2    0    0 -0.16734791646E+02  0.26381608163E+02 -0.63774946827E+01  0.59302032254E+02  0.50000160903E+02 0.  0.
        -12    1    1    2    0    0  0.16734791646E+02 -0.26381608163E+02  0.63774946827E+01  0.31885967746E+02  0.00000000000E+00 0.  1.
         11    1    3    3    0    0  0.12147913194E+02  0.19876020043E+01 -0.11044044543E+02  0.16537632141E+02  0.51100000000E-03 0. -1.
        -11    1    3    3    0    0 -0.10672163870E+02  0.21491640014E+02  0.13948788134E+01  0.24036042922E+02  0.51100000000E-03 0.  1.
        -12    1    3    3    0    0 -0.18210540970E+02  0.29023661443E+01  0.32716710470E+01  0.18728357191E+02  0.00000000000E+00 0.  1.
</event>
<event>
 7    1  0.1344618E-011  0.5930196E+02  0.7816164E-02  0.1266605E+00
        -11   -1    0    0    0    0  0.00000000000E+00  0.00000000000E+00  0.45593999997E+02  0.45594000000E+02  0.51100000000E-03 0. -1.
         11   -1    0    0    0    0 -0.00000000000E+00 -0.00000000000E+00 -0.45593999997E+02  0.45594000000E+02  0.51100000000E-03 0.  1.
    9900012    2    1    2    0    0 -0.15722928950E+02 -0.67891694397E+01  0.26896401452E+02  0.59301957167E+02  0.50000023963E+02 0.  0.
        -12    1    1    2    0    0  0.15722928950E+02  0.67891694397E+01 -0.26896401452E+02  0.31886042833E+02  0.00000000000E+00 0.  1.
         11    1    3    3    0    0  0.17406267087E+01  0.10348554672E+02 -0.25899803750E+01  0.10808809543E+02  0.51100000000E-03 0. -1.
        -11    1    3    3    0    0  0.26236595871E+01  0.10751428180E+01 -0.43131807267E+01  0.51616906097E+01  0.51100000000E-03 0.  1.
         12    1    3    3    0    0 -0.20087215246E+02 -0.18212866930E+02  0.33799562554E+02  0.43331457014E+02  0.00000000000E+00 0. -1.
</event>
<event>
 7    1  0.1344618E-011  0.5930196E+02  0.7816164E-02  0.1266605E+00
        -11   -1    0    0    0    0  0.00000000000E+00  0.00000000000E+00  0.45593999997E+02  0.45594000000E+02  0.51100000000E-03 0.  1.
         11   -1    0    0    0    0 -0.00000000000E+00 -0.00000000000E+00 -0.45593999997E+02  0.45594000000E+02  0.51100000000E-03 0. -1.
    9900012    2    1    2    0    0 -0.17996947452E+02 -0.16080948632E+02 -0.20838249275E+02  0.59301958237E+02  0.50000025914E+02 0.  0.
        -12    1    1    2    0    0  0.17996947452E+02  0.16080948632E+02  0.20838249275E+02  0.31886041763E+02  0.00000000000E+00 0.  1.
         11    1    3    3    0    0 -0.16177368480E+02 -0.50337436777E+01 -0.25203114145E+01  0.17128858579E+02  0.51100000000E-03 0. -1.
        -11    1    3    3    0    0 -0.96855484010E+01  0.80925292078E+01 -0.17353029333E+02  0.21457551214E+02  0.51100000000E-03 0.  1.
        -12    1    3    3    0    0  0.78659694291E+01 -0.19139734162E+02 -0.96490852751E+00  0.20715548443E+02  0.00000000000E+00 0.  1.
</event>
<event>
 7    1  0.1344618E-011  0.5930194E+02  0.7816164E-02  0.1266605E+00
        -11   -1    0    0    0    0  0.00000000000E+00  0.00000000000E+00  0.45593999997E+02  0.45594000000E+02  0.51100000000E-03 0. -1.
         11   -1    0    0    0    0 -0.00000000000E+00 -0.00000000000E+00 -0.45593999997E+02  0.45594000000E+02  0.51100000000E-03 0.  1.
    9900012    2    1    2    0    0  0.29157947017E+02  0.97494675777E+01  0.84547427194E+01  0.59301942439E+02  0.49999997103E+02 0.  0.
        -12    1    1    2    0    0 -0.29157947017E+02 -0.97494675777E+01 -0.84547427194E+01  0.31886057561E+02  0.00000000000E+00 0.  1.
         11    1    3    3    0    0  0.16560510210E+02 -0.62549551748E+01 -0.12793965788E+02  0.21841715214E+02  0.51100000000E-03 0. -1.
        -11    1    3    3    0    0  0.64019647885E+01  0.57846897102E+00 -0.37477441660E+01  0.74407906904E+01  0.51100000000E-03 0.  1.
         12    1    3    3    0    0  0.61954720189E+01  0.15425953781E+02  0.24996452674E+02  0.30019436535E+02  0.00000000000E+00 0. -1.
</event>
<event>
 7    1  0.1344618E-011  0.5930195E+02  0.7816164E-02  0.1266605E+00
        -11   -1    0    0    0    0  0.00000000000E+00  0.00000000000E+00  0.45593999997E+02  0.45594000000E+02  0.51100000000E-03 0.  1.
         11   -1    0    0    0    0 -0.00000000000E+00 -0.00000000000E+00 -0.45593999997E+02  0.45594000000E+02  0.51100000000E-03 0. -1.
    9900012    2    1    2    0    0  0.11006569728E+02  0.51486230408E+01 -0.29479944445E+02  0.59301952568E+02  0.50000015575E+02 0.  0.
        -12    1    1    2    0    0 -0.11006569728E+02 -0.51486230408E+01  0.29479944445E+02  0.31886047432E+02  0.00000000000E+00 0.  1.
         11    1    3    3    0    0  0.11448086868E+02 -0.88113779608E+01 -0.31530894624E+01  0.14786515746E+02  0.51100000000E-03 0. -1.
        -11    1    3    3    0    0  0.22060762404E+01  0.10782381617E+02  0.55814784107E+01  0.12340155073E+02  0.51100000000E-03 0.  1.
         12    1    3    3    0    0 -0.26475933803E+01  0.31776193849E+01 -0.31908333393E+02  0.32175281748E+02  0.00000000000E+00 0. -1.
</event>
<event>
 7    1  0.1344618E-011  0.5930193E+02  0.7816164E-02  0.1266605E+00
        -11   -1    0    0    0    0  0.00000000000E+00  0.00000000000E+00  0.45593999997E+02  0.45594000000E+02  0.51100000000E-03 0. -1.
         11   -1    0    0    0    0 -0.00000000000E+00 -0.00000000000E+00 -0.45593999997E+02  0.45594000000E+02  0.51100000000E-03 0.  1.
    9900012    2    1    2    0    0 -0.11817398985E+02  0.14727181262E+02 -0.25693981158E+02  0.59301930088E+02  0.49999974577E+02 0.  0.
        -12    1    1    2    0    0  0.11817398985E+02 -0.14727181262E+02  0.25693981158E+02  0.31886069912E+02  0.00000000000E+00 0.  1.
         11    1    3    3    0    0  0.12273210168E+02  0.13327912638E+02  0.35096286871E+01  0.18454875694E+02  0.51100000000E-03 0. -1.
        -11    1    3    3    0    0 -0.66913877374E-01  0.23912718777E+01  0.68424864620E+00  0.24881429081E+01  0.51100000000E-03 0.  1.
        -12    1    3    3    0    0 -0.24023695275E+02 -0.99200325392E+00 -0.29887858492E+02  0.38358911485E+02  0.00000000000E+00 0.  1.
</event>
<event>
 7    1  0.1344618E-011  0.5930198E+02  0.7816164E-02  0.1266605E+00
        -11   -1    0    0    0    0  0.00000000000E+00  0.00000000000E+00  0.45593999997E+02  0.45594000000E+02  0.51100000000E-03 0.  1.
         11   -1    0    0    0    0 -0.00000000000E+00 -0.00000000000E+00 -0.45593999997E+02  0.45594000000E+02  0.51100000000E-03 0. -1.
    9900012    2    1    2    0    0  0.47546800956E+01  0.10251819107E+01 -0.31512856754E+02  0.59301982350E+02  0.50000069891E+02 0.  0.
        -12    1    1    2    0    0 -0.47546800956E+01 -0.10251819107E+01  0.31512856754E+02  0.31886017650E+02  0.00000000000E+00 0.  1.
         11    1    3    3    0    0  0.46171275920E+01 -0.14651356289E+02 -0.12500763365E+02  0.19805281954E+02  0.51100000000E-03 0. -1.
        -11    1    3    3    0    0  0.79012670957E+01 -0.63976805088E+01 -0.15155375766E+01  0.10278968432E+02  0.51100000000E-03 0.  1.
        -12    1    3    3    0    0 -0.77637145922E+01  0.22074218709E+02 -0.17496555812E+02  0.29217731965E+02  0.00000000000E+00 0.  1.
</event>
<event>
 7    1  0.1344618E-011  0.5930195E+02  0.7816164E-02  0.1266605E+00
        -11   -1    0    0    0    0  0.00000000000E+00  0.00000000000E+00  0.45593999997E+02  0.45594000000E+02  0.51100000000E-03 0.  1.
         11   -1    0    0    0    0 -0.00000000000E+00 -0.00000000000E+00 -0.45593999997E+02  0.45594000000E+02  0.51100000000E-03 0. -1.
    9900012    2    1    2    0    0  0.26854275252E+02 -0.10038936038E+02  0.13956640958E+02  0.59301950340E+02  0.50000011513E+02 0.  0.
        -12    1    1    2    0    0 -0.26854275252E+02  0.10038936038E+02 -0.13956640958E+02  0.31886049660E+02  0.00000000000E+00 0.  1.
         11    1    3    3    0    0  0.23445077081E+02  0.11284095235E+02  0.16803466499E+02  0.30973519840E+02  0.51100000000E-03 0. -1.
        -11    1    3    3    0    0  0.42911679890E+01  0.86661559145E+00 -0.42176980952E+01  0.60789902761E+01  0.51100000000E-03 0.  1.
        -12    1    3    3    0    0 -0.88196981810E+00 -0.22189646865E+02  0.13708725535E+01  0.22249440225E+02  0.00000000000E+00 0.  1.
</event>
<event>
 7    1  0.1344618E-011  0.5930196E+02  0.7816164E-02  0.1266605E+00
        -11   -1    0    0    0    0  0.00000000000E+00  0.00000000000E+00  0.45593999997E+02  0.45594000000E+02  0.51100000000E-03 0.  1.
         11   -1    0    0    0    0 -0.00000000000E+00 -0.00000000000E+00 -0.45593999997E+02  0.45594000000E+02  0.51100000000E-03 0. -1.
    9900012    2    1    2    0    0 -0.20844224400E+01 -0.29400042095E+02 -0.12166035344E+02  0.59301957472E+02  0.50000024519E+02 0.  0.
        -12    1    1    2    0    0  0.20844224400E+01  0.29400042095E+02  0.12166035344E+02  0.31886042528E+02  0.00000000000E+00 0.  1.
         11    1    3    3    0    0 -0.12799029824E+01 -0.17262795754E+02 -0.57464874172E+01  0.18239089527E+02  0.51100000000E-03 0. -1.
        -11    1    3    3    0    0 -0.33384877667E+01 -0.26118918405E+02 -0.47377916769E+01  0.26754253296E+02  0.51100000000E-03 0.  1.
         12    1    3    3    0    0  0.25339683091E+01  0.13981672064E+02 -0.16817562498E+01  0.14308614649E+02  0.00000000000E+00 0. -1.
</event>
<event>
 7    1  0.1344618E-011  0.5930195E+02  0.7816164E-02  0.1266605E+00
        -11   -1    0    0    0    0  0.00000000000E+00  0.00000000000E+00  0.45593999997E+02  0.45594000000E+02  0.51100000000E-03 0. -1.
         11   -1    0    0    0    0 -0.00000000000E+00 -0.00000000000E+00 -0.45593999997E+02  0.45594000000E+02  0.51100000000E-03 0.  1.
    9900012    2    1    2    0    0  0.20840736515E+02 -0.11339770739E+02 -0.21302431447E+02  0.59301948434E+02  0.50000008037E+02 0.  0.
        -12    1    1    2    0    0 -0.20840736515E+02  0.11339770739E+02  0.21302431447E+02  0.31886051566E+02  0.00000000000E+00 0.  1.
         11    1    3    3    0    0  0.80062468448E+01  0.15091105355E+01 -0.44238901956E+01  0.92708256305E+01  0.51100000000E-03 0. -1.
        -11    1    3    3    0    0 -0.48276052796E+01 -0.16069106250E+02  0.86065883920E+01  0.18857235016E+02  0.51100000000E-03 0.  1.
         12    1    3    3    0    0  0.17662094949E+02  0.32202249760E+01 -0.25485129643E+02  0.31173887788E+02  0.00000000000E+00 0. -1.
</event>
<event>
 7    1  0.1344618E-011  0.5930195E+02  0.7816164E-02  0.1266605E+00
        -11   -1    0    0    0    0  0.00000000000E+00  0.00000000000E+00  0.45593999997E+02  0.45594000000E+02  0.51100000000E-03 0.  1.
         11   -1    0    0    0    0 -0.00000000000E+00 -0.00000000000E+00 -0.45593999997E+02  0.45594000000E+02  0.51100000000E-03 0. -1.
    9900012    2    1    2    0    0 -0.87854001725E+01  0.14594441880E+02 -0.26954386782E+02  0.59301953572E+02  0.50000017407E+02 0.  0.
        -12    1    1    2    0    0  0.87854001725E+01 -0.14594441880E+02  0.26954386782E+02  0.31886046428E+02  0.00000000000E+00 0.  1.
         11    1    3    3    0    0 -0.23017089589E+02 -0.83317124559E+00 -0.12889486710E+02  0.26393549503E+02  0.51100000000E-03 0. -1.
        -11    1    3    3    0    0 -0.33486606866E+01 -0.14912006849E+01 -0.63261691333E+01  0.73114720845E+01  0.51100000000E-03 0.  1.
        -12    1    3    3    0    0  0.17580350103E+02  0.16918813811E+02 -0.77387309392E+01  0.25596931985E+02  0.00000000000E+00 0.  1.
</event>
<event>
 7    1  0.1344618E-011  0.5930190E+02  0.7816164E-02  0.1266605E+00
        -11   -1    0    0    0    0  0.00000000000E+00  0.00000000000E+00  0.45593999997E+02  0.45594000000E+02  0.51100000000E-03 0. -1.
         11   -1    0    0    0    0 -0.00000000000E+00 -0.00000000000E+00 -0.45593999997E+02  0.45594000000E+02  0.51100000000E-03 0.  1.
    9900012    2    1    2    0    0  0.70636261540E+01 -0.23438768840E+02  0.20431659107E+02  0.59301899689E+02  0.49999919136E+02 0.  0.
        -12    1    1    2    0    0 -0.70636261540E+01  0.23438768840E+02 -0.20431659107E+02  0.31886100311E+02  0.00000000000E+00 0.  1.
         11    1    3    3    0    0 -0.28914110997E+01 -0.16177964822E+02  0.10924433223E+02  0.19733981996E+02  0.51100000000E-03 0. -1.
        -11    1    3    3    0    0  0.16689293295E+02 -0.13957669806E+02  0.16886380731E+02  0.27540858947E+02  0.51100000000E-03 0.  1.
        -12    1    3    3    0    0 -0.67342560413E+01  0.66968657878E+01 -0.73791548467E+01  0.12027058745E+02  0.00000000000E+00 0.  1.
</event>
<event>
 7    1  0.1344618E-011  0.5930196E+02  0.7816164E-02  0.1266605E+00
        -11   -1    0    0    0    0  0.00000000000E+00  0.00000000000E+00  0.45593999997E+02  0.45594000000E+02  0.51100000000E-03 0.  1.
         11   -1    0    0    0    0 -0.00000000000E+00 -0.00000000000E+00 -0.45593999997E+02  0.45594000000E+02  0.51100000000E-03 0. -1.
    9900012    2    1    2    0    0 -0.12293629801E+02 -0.14438221768E+02 -0.25634431053E+02  0.59301958588E+02  0.50000026555E+02 0.  0.
        -12    1    1    2    0    0  0.12293629801E+02  0.14438221768E+02  0.25634431053E+02  0.31886041412E+02  0.00000000000E+00 0.  1.
         11    1    3    3    0    0 -0.12280343524E+02 -0.51203504306E+01  0.13525593491E+00  0.13305755147E+02  0.51100000000E-03 0. -1.
        -11    1    3    3    0    0  0.77698798989E+01 -0.14244675131E+02  0.23600139828E+01  0.16396690809E+02  0.51100000000E-03 0.  1.
        -12    1    3    3    0    0 -0.77831661757E+01  0.49268037942E+01 -0.28129700970E+02  0.29599512632E+02  0.00000000000E+00 0.  1.
</event>
<event>
 7    1  0.1344618E-011  0.5930195E+02  0.7816164E-02  0.1266605E+00
        -11   -1    0    0    0    0  0.00000000000E+00  0.00000000000E+00  0.45593999997E+02  0.45594000000E+02  0.51100000000E-03 0.  1.
         11   -1    0    0    0    0 -0.00000000000E+00 -0.00000000000E+00 -0.45593999997E+02  0.45594000000E+02  0.51100000000E-03 0. -1.
    9900012    2    1    2    0    0  0.13573820579E+02  0.38077278706E+01 -0.28600225618E+02  0.59301948158E+02  0.50000007533E+02 0.  0.
        -12    1    1    2    0    0 -0.13573820579E+02 -0.38077278706E+01  0.28600225618E+02  0.31886051842E+02  0.00000000000E+00 0.  1.
         11    1    3    3    0    0  0.26639154963E+01  0.17062305244E+02 -0.11489413928E+02  0.20741874040E+02  0.51100000000E-03 0. -1.
        -11    1    3    3    0    0 -0.98520307440E+01  0.22096278632E-01 -0.38760296066E+01  0.10587096098E+02  0.51100000000E-03 0.  1.
         12    1    3    3    0    0  0.20761935826E+02 -0.13276673652E+02 -0.13234782084E+02  0.27972978020E+02  0.00000000000E+00 0. -1.
</event>
<event>
 7    1  0.1344618E-011  0.5930192E+02  0.7816164E-02  0.1266605E+00
        -11   -1    0    0    0    0  0.00000000000E+00  0.00000000000E+00  0.45593999997E+02  0.45594000000E+02  0.51100000000E-03 0.  1.
         11   -1    0    0    0    0 -0.00000000000E+00 -0.00000000000E+00 -0.45593999997E+02  0.45594000000E+02  0.51100000000E-03 0. -1.
    9900012    2    1    2    0    0  0.27018437713E+02 -0.13247647240E+02  0.10546360679E+02  0.59301923769E+02  0.49999963052E+02 0.  0.
        -12    1    1    2    0    0 -0.27018437713E+02  0.13247647240E+02 -0.10546360679E+02  0.31886076231E+02  0.00000000000E+00 0.  1.
         11    1    3    3    0    0  0.13601102729E+01 -0.82710097384E+01 -0.83836359403E+01  0.11855161487E+02  0.51100000000E-03 0. -1.
        -11    1    3    3    0    0 -0.69628206664E+01 -0.57971559596E+01  0.10250590245E+02  0.13680734245E+02  0.51100000000E-03 0.  1.
         12    1    3    3    0    0  0.32621148107E+02  0.82051845774E+00  0.86794063742E+01  0.33766028036E+02  0.00000000000E+00 0. -1.
</event>
<event>
 7    1  0.1344618E-011  0.5930195E+02  0.7816164E-02  0.1266605E+00
        -11   -1    0    0    0    0  0.00000000000E+00  0.00000000000E+00  0.45593999997E+02  0.45594000000E+02  0.51100000000E-03 0. -1.
         11   -1    0    0    0    0 -0.00000000000E+00 -0.00000000000E+00 -0.45593999997E+02  0.45594000000E+02  0.51100000000E-03 0.  1.
    9900012    2    1    2    0    0  0.35806103865E+01 -0.19579120142E+02  0.24910995380E+02  0.59301946511E+02  0.50000004528E+02 0.  0.
        -12    1    1    2    0    0 -0.35806103865E+01  0.19579120142E+02 -0.24910995380E+02  0.31886053489E+02  0.00000000000E+00 0.  1.
         11    1    3    3    0    0  0.40211173593E+01 -0.33293115298E+02  0.10332728732E+02  0.35090827781E+02  0.51100000000E-03 0. -1.
        -11    1    3    3    0    0  0.66955243696E+00 -0.26948965587E+01  0.30617884731E+01  0.41334388641E+01  0.51100000000E-03 0.  1.
        -12    1    3    3    0    0 -0.11100594097E+01  0.16408891715E+02  0.11516478176E+02  0.20077679865E+02  0.00000000000E+00 0.  1.
</event>
<event>
 7    1  0.1344618E-011  0.5930195E+02  0.7816164E-02  0.1266605E+00
        -11   -1    0    0    0    0  0.00000000000E+00  0.00000000000E+00  0.45593999997E+02  0.45594000000E+02  0.51100000000E-03 0.  1.
         11   -1    0    0    0    0 -0.00000000000E+00 -0.00000000000E+00 -0.45593999997E+02  0.45594000000E+02  0.51100000000E-03 0. -1.
    9900012    2    1    2    0    0 -0.11025857190E+02 -0.15935129895E+01 -0.29876600659E+02  0.59301951682E+02  0.50000013960E+02 0.  0.
        -12    1    1    2    0    0  0.11025857190E+02  0.15935129895E+01  0.29876600659E+02  0.31886048318E+02  0.00000000000E+00 0.  1.
         11    1    3    3    0    0 -0.94220439969E+01  0.12250519359E+02 -0.21417945058E+01  0.15602481265E+02  0.51100000000E-03 0. -1.
        -11    1    3    3    0    0 -0.48297312914E+01  0.78330167178E+01 -0.11934848231E+01  0.92793782945E+01  0.51100000000E-03 0.  1.
         12    1    3    3    0    0  0.32259180983E+01 -0.21677049067E+02 -0.26541321330E+02  0.34420092123E+02  0.00000000000E+00 0. -1.
</event>
<event>
 7    1  0.1344618E-011  0.5930194E+02  0.7816164E-02  0.1266605E+00
        -11   -1    0    0    0    0  0.00000000000E+00  0.00000000000E+00  0.45593999997E+02  0.45594000000E+02  0.51100000000E-03 0.  1.
         11   -1    0    0    0    0 -0.00000000000E+00 -0.00000000000E+00 -0.45593999997E+02  0.45594000000E+02  0.51100000000E-03 0. -1.
    9900012    2    1    2    0    0 -0.21056805400E+01 -0.30211279392E+02 -0.99782564105E+01  0.59301938876E+02  0.49999990604E+02 0.  0.
        -12    1    1    2    0    0  0.21056805400E+01  0.30211279392E+02  0.99782564105E+01  0.31886061124E+02  0.00000000000E+00 0.  1.
         11    1    3    3    0    0  0.14671093900E+02 -0.22076911997E+02 -0.15637374137E+02  0.30775940435E+02  0.51100000000E-03 0. -1.
        -11    1    3    3    0    0 -0.18520741690E+01  0.34863013820E+01 -0.53434123664E+01  0.66435330986E+01  0.51100000000E-03 0.  1.
        -12    1    3    3    0    0 -0.14924700271E+02 -0.11620668777E+02  0.11002530092E+02  0.21882465342E+02  0.00000000000E+00 0.  1.
</event>
<event>
 7    1  0.1344618E-011  0.5930194E+02  0.7816164E-02  0.1266605E+00
        -11   -1    0    0    0    0  0.00000000000E+00  0.00000000000E+00  0.45593999997E+02  0.45594000000E+02  0.51100000000E-03 0. -1.
         11   -1    0    0    0    0 -0.00000000000E+00 -0.00000000000E+00 -0.45593999997E+02  0.45594000000E+02  0.51100000000E-03 0.  1.
    9900012    2    1    2    0    0  0.30140725005E+02 -0.87690397166E+01 -0.56001040469E+01  0.59301944635E+02  0.50000001108E+02 0.  0.
        -12    1    1    2    0    0 -0.30140725005E+02  0.87690397166E+01  0.56001040469E+01  0.31886055365E+02  0.00000000000E+00 0.  1.
         11    1    3    3    0    0  0.33929593853E+02  0.60226431442E+01  0.29975741959E+01  0.34590100040E+02  0.51100000000E-03 0. -1.
        -11    1    3    3    0    0 -0.20466689689E+01  0.30500650935E+00  0.43048988049E+01  0.47764041727E+01  0.51100000000E-03 0.  1.
        -12    1    3    3    0    0 -0.17421998788E+01 -0.15096689370E+02 -0.12902577048E+02  0.19935440422E+02  0.00000000000E+00 0.  1.
</event>
<event>
 7    1  0.1344618E-011  0.5930196E+02  0.7816164E-02  0.1266605E+00
        -11   -1    0    0    0    0  0.00000000000E+00  0.00000000000E+00  0.45593999997E+02  0.45594000000E+02  0.51100000000E-03 0.  1.
         11   -1    0    0    0    0 -0.00000000000E+00 -0.00000000000E+00 -0.45593999997E+02  0.45594000000E+02  0.51100000000E-03 0. -1.
    9900012    2    1    2    0    0 -0.47577198693E+01 -0.67576270386E+01 -0.30796401762E+02  0.59301956297E+02  0.50000022377E+02 0.  0.
        -12    1    1    2    0    0  0.47577198693E+01  0.67576270386E+01  0.30796401762E+02  0.31886043703E+02  0.00000000000E+00 0.  1.
         11    1    3    3    0    0 -0.28578713093E+01  0.38736619035E+01 -0.39446379640E+01  0.62235724381E+01  0.51100000000E-03 0. -1.
        -11    1    3    3    0    0  0.28020418081E+01  0.97445455984E+01 -0.30239794406E+02  0.31894400342E+02  0.51100000000E-03 0.  1.
         12    1    3    3    0    0 -0.47018903682E+01 -0.20375834541E+02  0.33880306081E+01  0.21183983517E+02  0.00000000000E+00 0. -1.
</event>
<event>
 7    1  0.1344618E-011  0.5930195E+02  0.7816164E-02  0.1266605E+00
        -11   -1    0    0    0    0  0.00000000000E+00  0.00000000000E+00  0.45593999997E+02  0.45594000000E+02  0.51100000000E-03 0.  1.
         11   -1    0    0    0    0 -0.00000000000E+00 -0.00000000000E+00 -0.45593999997E+02  0.45594000000E+02  0.51100000000E-03 0. -1.
    9900012    2    1    2    0    0 -0.11082636799E+02  0.25492049165E+02 -0.15622129731E+02  0.59301947463E+02  0.50000006266E+02 0.  0.
        -12    1    1    2    0    0  0.11082636799E+02 -0.25492049165E+02  0.15622129731E+02  0.31886052537E+02  0.00000000000E+00 0.  1.
         11    1    3    3    0    0 -0.12450609253E+02  0.31401319220E+00 -0.77948308733E+01  0.14692707839E+02  0.51100000000E-03 0. -1.
        -11    1    3    3    0    0 -0.26613288873E+01  0.11078941001E+02  0.14163606085E+02  0.18177825578E+02  0.51100000000E-03 0.  1.
         12    1    3    3    0    0  0.40293013408E+01  0.14099094972E+02 -0.21990904942E+02  0.26431414046E+02  0.00000000000E+00 0. -1.
</event>
<event>
 7    1  0.1344618E-011  0.5930193E+02  0.7816164E-02  0.1266605E+00
        -11   -1    0    0    0    0  0.00000000000E+00  0.00000000000E+00  0.45593999997E+02  0.45594000000E+02  0.51100000000E-03 0.  1.
         11   -1    0    0    0    0 -0.00000000000E+00 -0.00000000000E+00 -0.45593999997E+02  0.45594000000E+02  0.51100000000E-03 0. -1.
    9900012    2    1    2    0    0 -0.15195591889E+02  0.65075644576E+01 -0.27266587627E+02  0.59301933939E+02  0.49999981601E+02 0.  0.
        -12    1    1    2    0    0  0.15195591889E+02 -0.65075644576E+01  0.27266587627E+02  0.31886066061E+02  0.00000000000E+00 0.  1.
         11    1    3    3    0    0  0.15035649470E+02  0.86582508172E+01 -0.46389344976E+01  0.17959837854E+02  0.51100000000E-03 0.  1.
        -11    1    3    3    0    0 -0.10044246745E+02 -0.87889504182E+01 -0.84689595479E+01  0.15806828215E+02  0.51100000000E-03 0. -1.
        -12    1    3    3    0    0 -0.20186994615E+02  0.66382640585E+01 -0.14158693581E+02  0.25535267870E+02  0.00000000000E+00 0.  1.
</event>
<event>
 7    1  0.1344618E-011  0.5930201E+02  0.7816164E-02  0.1266605E+00
        -11   -1    0    0    0    0  0.00000000000E+00  0.00000000000E+00  0.45593999997E+02  0.45594000000E+02  0.51100000000E-03 0.  1.
         11   -1    0    0    0    0 -0.00000000000E+00 -0.00000000000E+00 -0.45593999997E+02  0.45594000000E+02  0.51100000000E-03 0. -1.
    9900012    2    1    2    0    0 -0.24773209044E+00 -0.13618019282E+02 -0.28830614142E+02  0.59302013546E+02  0.50000126785E+02 0.  0.
        -12    1    1    2    0    0  0.24773209044E+00  0.13618019282E+02  0.28830614142E+02  0.31885986454E+02  0.00000000000E+00 0.  1.
         11    1    3    3    0    0  0.43513780254E+01 -0.13047794542E+01 -0.44397921669E+01  0.63520622550E+01  0.51100000000E-03 0. -1.
        -11    1    3    3    0    0 -0.13611903631E+02 -0.23330096127E+02 -0.27319605336E+02  0.38417940363E+02  0.51100000000E-03 0.  1.
        -12    1    3    3    0    0  0.90127935149E+01  0.11016856299E+02  0.29287833612E+01  0.14532010929E+02  0.00000000000E+00 0.  1.
</event>
<event>
 7    1  0.1344618E-011  0.5930190E+02  0.7816164E-02  0.1266605E+00
        -11   -1    0    0    0    0  0.00000000000E+00  0.00000000000E+00  0.45593999997E+02  0.45594000000E+02  0.51100000000E-03 0. -1.
         11   -1    0    0    0    0 -0.00000000000E+00 -0.00000000000E+00 -0.45593999997E+02  0.45594000000E+02  0.51100000000E-03 0.  1.
    9900012    2    1    2    0    0 -0.25745826374E+01  0.31059866718E+02  0.67364526497E+01  0.59301896591E+02  0.49999913487E+02 0.  0.
        -12    1    1    2    0    0  0.25745826374E+01 -0.31059866718E+02 -0.67364526497E+01  0.31886103409E+02  0.00000000000E+00 0.  1.
         11    1    3    3    0    0 -0.37104991665E+01  0.22102764655E+02  0.31782882854E+01  0.22636287817E+02  0.51100000000E-03 0. -1.
        -11    1    3    3    0    0 -0.11254301109E+02  0.27492836348E+01 -0.11414530537E+02  0.16263743776E+02  0.51100000000E-03 0.  1.
         12    1    3    3    0    0  0.12390217638E+02  0.62078184289E+01  0.14972694902E+02  0.20401864998E+02  0.00000000000E+00 0. -1.
</event>
<event>
 7    1  0.1344618E-011  0.5930192E+02  0.7816164E-02  0.1266605E+00
        -11   -1    0    0    0    0  0.00000000000E+00  0.00000000000E+00  0.45593999997E+02  0.45594000000E+02  0.51100000000E-03 0. -1.
         11   -1    0    0    0    0 -0.00000000000E+00 -0.00000000000E+00 -0.45593999997E+02  0.45594000000E+02  0.51100000000E-03 0.  1.
    9900012    2    1    2    0    0  0.22179313445E+02 -0.22411034379E+02  0.47482233711E+01  0.59301921031E+02  0.49999958060E+02 0.  0.
        -12    1    1    2    0    0 -0.22179313445E+02  0.22411034379E+02 -0.47482233711E+01  0.31886078969E+02  0.00000000000E+00 0.  1.
         11    1    3    3    0    0 -0.90899294603E+01 -0.17303860983E+02  0.10718819476E+02  0.22292229896E+02  0.51100000000E-03 0. -1.
        -11    1    3    3    0    0 -0.20785590543E+01  0.12536167406E+01  0.42287111200E+00  0.24638958811E+01  0.51100000000E-03 0.  1.
         12    1    3    3    0    0  0.33347801959E+02 -0.63607901371E+01 -0.63934672173E+01  0.34545795254E+02  0.00000000000E+00 0. -1.
</event>
<event>
 7    1  0.1344618E-011  0.5930194E+02  0.7816164E-02  0.1266605E+00
        -11   -1    0    0    0    0  0.00000000000E+00  0.00000000000E+00  0.45593999997E+02  0.45594000000E+02  0.51100000000E-03 0. -1.
         11   -1    0    0    0    0 -0.00000000000E+00 -0.00000000000E+00 -0.45593999997E+02  0.45594000000E+02  0.51100000000E-03 0.  1.
    9900012    2    1    2    0    0 -0.19559867535E+02 -0.12292662523E+02  0.21977782026E+02  0.59301939211E+02  0.49999991215E+02 0.  0.
        -12    1    1    2    0    0  0.19559867535E+02  0.12292662523E+02 -0.21977782026E+02  0.31886060789E+02  0.00000000000E+00 0.  1.
         11    1    3    3    0    0 -0.60968373796E+01  0.47303575910E+01  0.17599505213E+02  0.19216927251E+02  0.51100000000E-03 0. -1.
        -11    1    3    3    0    0 -0.58178415682E+01 -0.11900844409E+02  0.18787446547E+02  0.22987943061E+02  0.51100000000E-03 0.  1.
        -12    1    3    3    0    0 -0.76451885869E+01 -0.51221757042E+01 -0.14409169734E+02  0.17097068898E+02  0.00000000000E+00 0.  1.
</event>
<event>
 7    1  0.1344618E-011  0.5930194E+02  0.7816164E-02  0.1266605E+00
        -11   -1    0    0    0    0  0.00000000000E+00  0.00000000000E+00  0.45593999997E+02  0.45594000000E+02  0.51100000000E-03 0.  1.
         11   -1    0    0    0    0 -0.00000000000E+00 -0.00000000000E+00 -0.45593999997E+02  0.45594000000E+02  0.51100000000E-03 0. -1.
    9900012    2    1    2    0    0 -0.20031381384E+02  0.24728797665E+02  0.19877522149E+01  0.59301939833E+02  0.49999992350E+02 0.  0.
        -12    1    1    2    0    0  0.20031381384E+02 -0.24728797665E+02 -0.19877522149E+01  0.31886060167E+02  0.00000000000E+00 0.  1.
         11    1    3    3    0    0 -0.52026603937E+01  0.11032681574E+02 -0.94035125779E+01  0.15401746230E+02  0.51100000000E-03 0. -1.
        -11    1    3    3    0    0  0.11244242071E+01  0.54909849122E+01 -0.12689195267E+02  0.13871947300E+02  0.51100000000E-03 0.  1.
         12    1    3    3    0    0 -0.15953145198E+02  0.82051311787E+01  0.24080460060E+02  0.30028246303E+02  0.00000000000E+00 0. -1.
</event>
<event>
 7    1  0.1344618E-011  0.5930202E+02  0.7816164E-02  0.1266605E+00
        -11   -1    0    0    0    0  0.00000000000E+00  0.00000000000E+00  0.45593999997E+02  0.45594000000E+02  0.51100000000E-03 0.  1.
         11   -1    0    0    0    0 -0.00000000000E+00 -0.00000000000E+00 -0.45593999997E+02  0.45594000000E+02  0.51100000000E-03 0. -1.
    9900012    2    1    2    0    0 -0.64043016187E+01  0.30909892233E+02 -0.45032629248E+01  0.59302017279E+02  0.50000133593E+02 0.  0.
        -12    1    1    2    0    0  0.64043016187E+01 -0.30909892233E+02  0.45032629248E+01  0.31885982721E+02  0.00000000000E+00 0.  1.
         11    1    3    3    0    0  0.39501749253E+00  0.19986317980E+02  0.42468699856E+01  0.20436360981E+02  0.51100000000E-03 0. -1.
        -11    1    3    3    0    0  0.29029188151E+00 -0.12679216268E+02  0.92029917348E-01  0.12682872873E+02  0.51100000000E-03 0.  1.
         12    1    3    3    0    0 -0.70896109927E+01  0.23602790521E+02 -0.88421628277E+01  0.26182783425E+02  0.00000000000E+00 0. -1.
</event>
<event>
 7    1  0.1344618E-011  0.5930197E+02  0.7816164E-02  0.1266605E+00
        -11   -1    0    0    0    0  0.00000000000E+00  0.00000000000E+00  0.45593999997E+02  0.45594000000E+02  0.51100000000E-03 0.  1.
         11   -1    0    0    0    0 -0.00000000000E+00 -0.00000000000E+00 -0.45593999997E+02  0.45594000000E+02  0.51100000000E-03 0. -1.
    9900012    2    1    2    0    0  0.14264760683E+02 -0.61910270472E+01 -0.27837150728E+02  0.59301965849E+02  0.50000039797E+02 0.  0.
        -12    1    1    2    0    0 -0.14264760683E+02  0.61910270472E+01  0.27837150728E+02  0.31886034151E+02  0.00000000000E+00 0.  1.
         11    1    3    3    0    0 -0.10577419979E+02  0.58420800397E+01 -0.57343232504E+01  0.13375132747E+02  0.51100000000E-03 0. -1.
        -11    1    3    3    0    0  0.23621911736E+01 -0.14605293375E+02 -0.17358439019E+02  0.22808111433E+02  0.51100000000E-03 0.  1.
         12    1    3    3    0    0  0.22479989489E+02  0.25721862882E+01 -0.47443884581E+01  0.23118721668E+02  0.00000000000E+00 0. -1.
</event>
<event>
 7    1  0.1344618E-011  0.5930195E+02  0.7816164E-02  0.1266605E+00
        -11   -1    0    0    0    0  0.00000000000E+00  0.00000000000E+00  0.45593999997E+02  0.45594000000E+02  0.51100000000E-03 0.  1.
         11   -1    0    0    0    0 -0.00000000000E+00 -0.00000000000E+00 -0.45593999997E+02  0.45594000000E+02  0.51100000000E-03 0. -1.
    9900012    2    1    2    0    0  0.40008375176E+01  0.19379887151E+02 -0.25002672914E+02  0.59301946941E+02  0.50000005313E+02 0.  0.
        -12    1    1    2    0    0 -0.40008375176E+01 -0.19379887151E+02  0.25002672914E+02  0.31886053059E+02  0.00000000000E+00 0.  1.
         11    1    3    3    0    0 -0.29801779816E+01 -0.34586024626E+01 -0.79957339878E+01  0.92073423994E+01  0.51100000000E-03 0. -1.
        -11    1    3    3    0    0  0.16398517645E+02 -0.18754700620E+01 -0.16933782461E+02  0.23647024286E+02  0.51100000000E-03 0.  1.
        -12    1    3    3    0    0 -0.94175021454E+01  0.24713959676E+02 -0.73156465560E-01  0.26447580255E+02  0.00000000000E+00 0.  1.
</event>
<event>
 7    1  0.1472588E-011  0.5930195E+02  0.7816164E-02  0.1266605E+00
        -11   -1    0    0    0    0  0.00000000000E+00  0.00000000000E+00  0.45593999997E+02  0.45594000000E+02  0.51100000000E-03 0. -1.
         11   -1    0    0    0    0 -0.00000000000E+00 -0.00000000000E+00 -0.45593999997E+02  0.45594000000E+02  0.51100000000E-03 0.  1.
    9900012    2    1    2    0    0  0.18478108768E+02 -0.92281957459E+01  0.24292385276E+02  0.59301951597E+02  0.50000013804E+02 0.  0.
        -12    1    1    2    0    0 -0.18478108768E+02  0.92281957459E+01 -0.24292385276E+02  0.31886048403E+02  0.00000000000E+00 0.  1.
         11    1    3    3    0    0  0.88786785044E+01 -0.15824331076E+02  0.25367252475E+02  0.31188746118E+02  0.51100000000E-03 0. -1.
        -11    1    3    3    0    0  0.17543433912E+02  0.95526500901E+00  0.24765231945E+01  0.17743104916E+02  0.51100000000E-03 0.  1.
        -12    1    3    3    0    0 -0.79440036492E+01  0.56408703208E+01 -0.35513903938E+01  0.10370100563E+02  0.00000000000E+00 0.  1.
</event>
<event>
 7    1  0.1344618E-011  0.5930195E+02  0.7816164E-02  0.1266605E+00
        -11   -1    0    0    0    0  0.00000000000E+00  0.00000000000E+00  0.45593999997E+02  0.45594000000E+02  0.51100000000E-03 0.  1.
         11   -1    0    0    0    0 -0.00000000000E+00 -0.00000000000E+00 -0.45593999997E+02  0.45594000000E+02  0.51100000000E-03 0. -1.
    9900012    2    1    2    0    0  0.77389379753E+01 -0.12137285219E+02 -0.28451981803E+02  0.59301950982E+02  0.50000012683E+02 0.  0.
        -12    1    1    2    0    0 -0.77389379753E+01  0.12137285219E+02  0.28451981803E+02  0.31886049018E+02  0.00000000000E+00 0.  1.
         11    1    3    3    0    0  0.69854327184E+01  0.61162415332E+01 -0.24051718872E+02  0.25781579892E+02  0.51100000000E-03 0. -1.
        -11    1    3    3    0    0  0.13323434610E+02 -0.14944882844E+02 -0.45037570209E+01  0.20521872736E+02  0.51100000000E-03 0.  1.
        -12    1    3    3    0    0 -0.12569929353E+02 -0.33086439083E+01  0.10349409035E+00  0.12998498355E+02  0.00000000000E+00 0.  1.
</event>
<event>
 7    1  0.1344618E-011  0.5930196E+02  0.7816164E-02  0.1266605E+00
        -11   -1    0    0    0    0  0.00000000000E+00  0.00000000000E+00  0.45593999997E+02  0.45594000000E+02  0.51100000000E-03 0.  1.
         11   -1    0    0    0    0 -0.00000000000E+00 -0.00000000000E+00 -0.45593999997E+02  0.45594000000E+02  0.51100000000E-03 0. -1.
    9900012    2    1    2    0    0 -0.15785903659E+02 -0.13831279599E+02 -0.24004593131E+02  0.59301960091E+02  0.50000029295E+02 0.  0.
        -12    1    1    2    0    0  0.15785903659E+02  0.13831279599E+02  0.24004593131E+02  0.31886039909E+02  0.00000000000E+00 0.  1.
         11    1    3    3    0    0  0.11268591741E+02 -0.44139521748E+01 -0.21339622195E+02  0.24532501081E+02  0.51100000000E-03 0. -1.
        -11    1    3    3    0    0 -0.56514718108E+01 -0.72122174043E+01 -0.84763668107E+01  0.12482147575E+02  0.51100000000E-03 0.  1.
        -12    1    3    3    0    0 -0.21403023590E+02 -0.22051100198E+01  0.58113958738E+01  0.22287311435E+02  0.00000000000E+00 0.  1.
</event>
<event>
 7    1  0.1344618E-011  0.5930193E+02  0.7816164E-02  0.1266605E+00
        -11   -1    0    0    0    0  0.00000000000E+00  0.00000000000E+00  0.45593999997E+02  0.45594000000E+02  0.51100000000E-03 0.  1.
         11   -1    0    0    0    0 -0.00000000000E+00 -0.00000000000E+00 -0.45593999997E+02  0.45594000000E+02  0.51100000000E-03 0. -1.
    9900012    2    1    2    0    0  0.10517280638E+01 -0.84608541329E+01 -0.30725055986E+02  0.59301933295E+02  0.49999980425E+02 0.  0.
        -12    1    1    2    0    0 -0.10517280638E+01  0.84608541329E+01  0.30725055986E+02  0.31886066705E+02  0.00000000000E+00 0.  1.
         11    1    3    3    0    0  0.84580110100E+01 -0.17354740960E+01  0.90028097077E+00  0.86810325809E+01  0.51100000000E-03 0. -1.
        -11    1    3    3    0    0  0.69832740473E+01  0.10764085030E+02 -0.23094265668E+02  0.26419249610E+02  0.51100000000E-03 0.  1.
         12    1    3    3    0    0 -0.14389556993E+02 -0.17489465067E+02 -0.85310712896E+01  0.24201651104E+02  0.00000000000E+00 0. -1.
</event>
<event>
 7    1  0.1344618E-011  0.5930192E+02  0.7816164E-02  0.1266605E+00
        -11   -1    0    0    0    0  0.00000000000E+00  0.00000000000E+00  0.45593999997E+02  0.45594000000E+02  0.51100000000E-03 0.  1.
         11   -1    0    0    0    0 -0.00000000000E+00 -0.00000000000E+00 -0.45593999997E+02  0.45594000000E+02  0.51100000000E-03 0. -1.
    9900012    2    1    2    0    0 -0.11740315862E+02 -0.72585360434E-01 -0.29645936164E+02  0.59301924415E+02  0.49999964231E+02 0.  0.
        -12    1    1    2    0    0  0.11740315862E+02  0.72585360434E-01  0.29645936164E+02  0.31886075585E+02  0.00000000000E+00 0.  1.
         11    1    3    3    0    0 -0.62372552468E+01  0.28913226381E+01 -0.18668323194E+02  0.19893953623E+02  0.51100000000E-03 0. -1.
        -11    1    3    3    0    0 -0.16557483330E+01 -0.42177916047E+01 -0.24694454824E+02  0.25106719576E+02  0.51100000000E-03 0.  1.
        -12    1    3    3    0    0 -0.38473122825E+01  0.12538836062E+01  0.13716841854E+02  0.14301251216E+02  0.00000000000E+00 0.  1.
</event>
<event>
 7    1  0.1344618E-011  0.5930193E+02  0.7816164E-02  0.1266605E+00
        -11   -1    0    0    0    0  0.00000000000E+00  0.00000000000E+00  0.45593999997E+02  0.45594000000E+02  0.51100000000E-03 0.  1.
         11   -1    0    0    0    0 -0.00000000000E+00 -0.00000000000E+00 -0.45593999997E+02  0.45594000000E+02  0.51100000000E-03 0. -1.
    9900012    2    1    2    0    0  0.19168423662E+02 -0.16738626026E+02 -0.19212278649E+02  0.59301925958E+02  0.49999967045E+02 0.  0.
        -12    1    1    2    0    0 -0.19168423662E+02  0.16738626026E+02  0.19212278649E+02  0.31886074042E+02  0.00000000000E+00 0.  1.
         11    1    3    3    0    0  0.15900564595E+02 -0.22118955112E+02 -0.26122620499E+02  0.37742117477E+02  0.51100000000E-03 0. -1.
        -11    1    3    3    0    0  0.89373689379E+01  0.21765368045E+01 -0.30226183541E+01  0.96824634246E+01  0.51100000000E-03 0.  1.
        -12    1    3    3    0    0 -0.56695098705E+01  0.32037922811E+01  0.99329602043E+01  0.11877345056E+02  0.00000000000E+00 0.  1.
</event>
<event>
 7    1  0.1344618E-011  0.5930193E+02  0.7816164E-02  0.1266605E+00
        -11   -1    0    0    0    0  0.00000000000E+00  0.00000000000E+00  0.45593999997E+02  0.45594000000E+02  0.51100000000E-03 0. -1.
         11   -1    0    0    0    0 -0.00000000000E+00 -0.00000000000E+00 -0.45593999997E+02  0.45594000000E+02  0.51100000000E-03 0.  1.
    9900012    2    1    2    0    0 -0.28783067125E+02 -0.48911654441E+01  0.12819233106E+02  0.59301934236E+02  0.49999982142E+02 0.  0.
        -12    1    1    2    0    0  0.28783067125E+02  0.48911654441E+01 -0.12819233106E+02  0.31886065764E+02  0.00000000000E+00 0.  1.
         11    1    3    3    0    0 -0.15832341647E+02  0.97484339831E+01  0.11115349023E+02  0.21662086495E+02  0.51100000000E-03 0. -1.
        -11    1    3    3    0    0 -0.11713752036E+02  0.81766943364E+01  0.35368580747E+01  0.14716646436E+02  0.51100000000E-03 0.  1.
        -12    1    3    3    0    0 -0.12369734420E+01 -0.22816293764E+02 -0.18329739916E+01  0.22923201305E+02  0.00000000000E+00 0.  1.
</event>
<event>
 7    1  0.1344618E-011  0.5930194E+02  0.7816164E-02  0.1266605E+00
        -11   -1    0    0    0    0  0.00000000000E+00  0.00000000000E+00  0.45593999997E+02  0.45594000000E+02  0.51100000000E-03 0.  1.
         11   -1    0    0    0    0 -0.00000000000E+00 -0.00000000000E+00 -0.45593999997E+02  0.45594000000E+02  0.51100000000E-03 0. -1.
    9900012    2    1    2    0    0  0.14661292581E+02 -0.28157418499E+02 -0.29878776252E+01  0.59301935186E+02  0.49999983874E+02 0.  0.
        -12    1    1    2    0    0 -0.14661292581E+02  0.28157418499E+02  0.29878776252E+01  0.31886064814E+02  0.00000000000E+00 0.  1.
         11    1    3    3    0    0  0.12302515011E+01 -0.16688041866E+02 -0.51877183444E+01  0.17519037700E+02  0.51100000000E-03 0. -1.
        -11    1    3    3    0    0  0.11473288832E+02 -0.11839388360E+01 -0.16629687605E+02  0.20238196014E+02  0.51100000000E-03 0.  1.
        -12    1    3    3    0    0  0.19577522470E+01 -0.10285437797E+02  0.18829528325E+02  0.21544701471E+02  0.00000000000E+00 0.  1.
</event>
<event>
 7    1  0.1344618E-011  0.5930196E+02  0.7816164E-02  0.1266605E+00
        -11   -1    0    0    0    0  0.00000000000E+00  0.00000000000E+00  0.45593999997E+02  0.45594000000E+02  0.51100000000E-03 0.  1.
         11   -1    0    0    0    0 -0.00000000000E+00 -0.00000000000E+00 -0.45593999997E+02  0.45594000000E+02  0.51100000000E-03 0. -1.
    9900012    2    1    2    0    0  0.27887815621E+02  0.11792146561E+02 -0.99967377282E+01  0.59301956881E+02  0.50000023441E+02 0.  0.
        -12    1    1    2    0    0 -0.27887815621E+02 -0.11792146561E+02  0.99967377282E+01  0.31886043119E+02  0.00000000000E+00 0.  1.
         11    1    3    3    0    0 -0.51970930174E+01 -0.60796885391E+01 -0.11528326910E+02  0.14031204872E+02  0.51100000000E-03 0. -1.
        -11    1    3    3    0    0  0.16787265476E+02 -0.32569983752E+01  0.61839998209E+01  0.18184118748E+02  0.51100000000E-03 0.  1.
         12    1    3    3    0    0  0.16297643162E+02  0.21128833475E+02 -0.46524106393E+01  0.27086633261E+02  0.00000000000E+00 0. -1.
</event>
<event>
 7    1  0.1344618E-011  0.5930193E+02  0.7816164E-02  0.1266605E+00
        -11   -1    0    0    0    0  0.00000000000E+00  0.00000000000E+00  0.45593999997E+02  0.45594000000E+02  0.51100000000E-03 0.  1.
         11   -1    0    0    0    0 -0.00000000000E+00 -0.00000000000E+00 -0.45593999997E+02  0.45594000000E+02  0.51100000000E-03 0. -1.
    9900012    2    1    2    0    0 -0.10102313582E+02  0.14294362880E+02 -0.26652131502E+02  0.59301926810E+02  0.49999968599E+02 0.  0.
        -12    1    1    2    0    0  0.10102313582E+02 -0.14294362880E+02  0.26652131502E+02  0.31886073190E+02  0.00000000000E+00 0.  1.
         11    1    3    3    0    0 -0.19651055432E+01  0.19668799169E+02 -0.12038831411E+02  0.23144259819E+02  0.51100000000E-03 0. -1.
        -11    1    3    3    0    0 -0.62404567861E+01  0.12703758973E+02 -0.26581850605E+01  0.14401206235E+02  0.51100000000E-03 0.  1.
        -12    1    3    3    0    0 -0.18967512532E+01 -0.18078195262E+02 -0.11955115030E+02  0.21756460756E+02  0.00000000000E+00 0.  1.
</event>
<event>
 7    1  0.1344618E-011  0.5930205E+02  0.7816164E-02  0.1266604E+00
        -11   -1    0    0    0    0  0.00000000000E+00  0.00000000000E+00  0.45593999997E+02  0.45594000000E+02  0.51100000000E-03 0. -1.
         11   -1    0    0    0    0 -0.00000000000E+00 -0.00000000000E+00 -0.45593999997E+02  0.45594000000E+02  0.51100000000E-03 0.  1.
    9900012    2    1    2    0    0 -0.19143558353E+02 -0.24217827114E+02  0.79834078489E+01  0.59302050470E+02  0.50000194125E+02 0.  0.
        -12    1    1    2    0    0  0.19143558353E+02  0.24217827114E+02 -0.79834078489E+01  0.31885949530E+02  0.00000000000E+00 0.  1.
         11    1    3    3    0    0 -0.65131980797E+01 -0.14022400990E+02 -0.42983617549E+01  0.16047597726E+02  0.51100000000E-03 0. -1.
        -11    1    3    3    0    0 -0.21687234347E+01  0.39762455087E+01 -0.12246079230E+02  0.13056812262E+02  0.51100000000E-03 0.  1.
         12    1    3    3    0    0 -0.10461636839E+02 -0.14171671633E+02  0.24527848834E+02  0.30197640481E+02  0.00000000000E+00 0. -1.
</event>
<event>
 7    1  0.1344618E-011  0.5930195E+02  0.7816164E-02  0.1266605E+00
        -11   -1    0    0    0    0  0.00000000000E+00  0.00000000000E+00  0.45593999997E+02  0.45594000000E+02  0.51100000000E-03 0.  1.
         11   -1    0    0    0    0 -0.00000000000E+00 -0.00000000000E+00 -0.45593999997E+02  0.45594000000E+02  0.51100000000E-03 0. -1.
    9900012    2    1    2    0    0 -0.85295158628E+01 -0.20678879050E+02 -0.22723370950E+02  0.59301948709E+02  0.50000008538E+02 0.  0.
        -12    1    1    2    0    0  0.85295158628E+01  0.20678879050E+02  0.22723370950E+02  0.31886051291E+02  0.00000000000E+00 0.  1.
         11    1    3    3    0    0  0.57599779451E+01 -0.17930151863E+02 -0.58604115768E+01  0.19723390071E+02  0.51100000000E-03 0. -1.
        -11    1    3    3    0    0 -0.16865010905E+01 -0.11261332421E+02  0.54113913552E+01  0.12607341134E+02  0.51100000000E-03 0.  1.
        -12    1    3    3    0    0 -0.12602992717E+02  0.85126052339E+01 -0.22274350728E+02  0.26971217504E+02  0.00000000000E+00 0.  1.
</event>
<event>
 7    1  0.1344618E-011  0.5930197E+02  0.7816164E-02  0.1266605E+00
        -11   -1    0    0    0    0  0.00000000000E+00  0.00000000000E+00  0.45593999997E+02  0.45594000000E+02  0.51100000000E-03 0.  1.
         11   -1    0    0    0    0 -0.00000000000E+00 -0.00000000000E+00 -0.45593999997E+02  0.45594000000E+02  0.51100000000E-03 0. -1.
    9900012    2    1    2    0    0 -0.16230460310E+02  0.18242574815E+02 -0.20506092931E+02  0.59301965046E+02  0.50000038333E+02 0.  0.
        -12    1    1    2    0    0  0.16230460310E+02 -0.18242574815E+02  0.20506092931E+02  0.31886034954E+02  0.00000000000E+00 0.  1.
         11    1    3    3    0    0 -0.12793468337E+02  0.11843948822E+02  0.62338273478E+01  0.18515198067E+02  0.51100000000E-03 0. -1.
        -11    1    3    3    0    0  0.41447244085E+01  0.68088447993E+01  0.41434534962E+01  0.89837250103E+01  0.51100000000E-03 0.  1.
         12    1    3    3    0    0 -0.75817163814E+01 -0.41021880657E+00 -0.30883373775E+02  0.31803041969E+02  0.00000000000E+00 0. -1.
</event>
<event>
 7    1  0.1344618E-011  0.5930198E+02  0.7816164E-02  0.1266605E+00
        -11   -1    0    0    0    0  0.00000000000E+00  0.00000000000E+00  0.45593999997E+02  0.45594000000E+02  0.51100000000E-03 0.  1.
         11   -1    0    0    0    0 -0.00000000000E+00 -0.00000000000E+00 -0.45593999997E+02  0.45594000000E+02  0.51100000000E-03 0. -1.
    9900012    2    1    2    0    0 -0.27608121565E+02  0.90735002104E+01 -0.13121788827E+02  0.59301982305E+02  0.50000069809E+02 0.  0.
        -12    1    1    2    0    0  0.27608121565E+02 -0.90735002104E+01  0.13121788827E+02  0.31886017695E+02  0.00000000000E+00 0.  1.
         11    1    3    3    0    0 -0.20087795915E+02 -0.26447103373E-01 -0.16216144515E+02  0.25816343416E+02  0.51100000000E-03 0. -1.
        -11    1    3    3    0    0  0.82953603332E+00 -0.67459583023E+01 -0.94341648749E+01  0.11627534158E+02  0.51100000000E-03 0.  1.
         12    1    3    3    0    0 -0.83498616839E+01  0.15845905616E+02  0.12528520564E+02  0.21858104731E+02  0.00000000000E+00 0. -1.
</event>
<event>
 7    1  0.1344618E-011  0.5930194E+02  0.7816164E-02  0.1266605E+00
        -11   -1    0    0    0    0  0.00000000000E+00  0.00000000000E+00  0.45593999997E+02  0.45594000000E+02  0.51100000000E-03 0.  1.
         11   -1    0    0    0    0 -0.00000000000E+00 -0.00000000000E+00 -0.45593999997E+02  0.45594000000E+02  0.51100000000E-03 0. -1.
    9900012    2    1    2    0    0 -0.10771499558E+02 -0.17797329236E+02 -0.24165069007E+02  0.59301942063E+02  0.49999996416E+02 0.  0.
        -12    1    1    2    0    0  0.10771499558E+02  0.17797329236E+02  0.24165069007E+02  0.31886057937E+02  0.00000000000E+00 0.  1.
         11    1    3    3    0    0 -0.80389198062E+01  0.23834363192E-01 -0.17006979342E+02  0.18811223945E+02  0.51100000000E-03 0. -1.
        -11    1    3    3    0    0 -0.16064412697E+02 -0.20076825699E+02 -0.12730801934E+01  0.25744223020E+02  0.51100000000E-03 0.  1.
        -12    1    3    3    0    0  0.13331832945E+02  0.22556620992E+01 -0.58850094719E+01  0.14746495098E+02  0.00000000000E+00 0.  1.
</event>
<event>
 7    1  0.1344618E-011  0.5930195E+02  0.7816164E-02  0.1266605E+00
        -11   -1    0    0    0    0  0.00000000000E+00  0.00000000000E+00  0.45593999997E+02  0.45594000000E+02  0.51100000000E-03 0. -1.
         11   -1    0    0    0    0 -0.00000000000E+00 -0.00000000000E+00 -0.45593999997E+02  0.45594000000E+02  0.51100000000E-03 0.  1.
    9900012    2    1    2    0    0 -0.36913958148E+00 -0.62080631852E+01  0.31273691867E+02  0.59301951083E+02  0.50000012867E+02 0.  0.
        -12    1    1    2    0    0  0.36913958148E+00  0.62080631852E+01 -0.31273691867E+02  0.31886048917E+02  0.00000000000E+00 0.  1.
         11    1    3    3    0    0  0.55852086366E+01 -0.82143461550E+01  0.14617420333E+02  0.17673115620E+02  0.51100000000E-03 0. -1.
        -11    1    3    3    0    0 -0.86855172812E+01 -0.16496492199E+02  0.40625316690E+01  0.19080792151E+02  0.51100000000E-03 0.  1.
        -12    1    3    3    0    0  0.27311690632E+01  0.18502775169E+02  0.12593739865E+02  0.22548043312E+02  0.00000000000E+00 0.  1.
</event>
<event>
 7    1  0.1344618E-011  0.5930199E+02  0.7816164E-02  0.1266605E+00
        -11   -1    0    0    0    0  0.00000000000E+00  0.00000000000E+00  0.45593999997E+02  0.45594000000E+02  0.51100000000E-03 0. -1.
         11   -1    0    0    0    0 -0.00000000000E+00 -0.00000000000E+00 -0.45593999997E+02  0.45594000000E+02  0.51100000000E-03 0.  1.
    9900012    2    1    2    0    0  0.18345459753E+02  0.25224148445E+02 -0.66260275156E+01  0.59301987409E+02  0.50000079117E+02 0.  0.
        -12    1    1    2    0    0 -0.18345459753E+02 -0.25224148445E+02  0.66260275156E+01  0.31886012591E+02  0.00000000000E+00 0.  1.
         11    1    3    3    0    0  0.75224121198E+01  0.11139871985E+02  0.44566288781E+01  0.14161390227E+02  0.51100000000E-03 0. -1.
        -11    1    3    3    0    0  0.13721482046E+02  0.26667067160E+02 -0.35703224520E+01  0.30201965882E+02  0.51100000000E-03 0.  1.
        -12    1    3    3    0    0 -0.28984344133E+01 -0.12582790700E+02 -0.75123339416E+01  0.14938631300E+02  0.00000000000E+00 0.  1.
</event>
<event>
 7    1  0.1344618E-011  0.5930199E+02  0.7816164E-02  0.1266605E+00
        -11   -1    0    0    0    0  0.00000000000E+00  0.00000000000E+00  0.45593999997E+02  0.45594000000E+02  0.51100000000E-03 0.  1.
         11   -1    0    0    0    0 -0.00000000000E+00 -0.00000000000E+00 -0.45593999997E+02  0.45594000000E+02  0.51100000000E-03 0. -1.
    9900012    2    1    2    0    0 -0.24054673991E+01  0.85252544458E+01 -0.30630886517E+02  0.59301992950E+02  0.50000089222E+02 0.  0.
        -12    1    1    2    0    0  0.24054673991E+01 -0.85252544458E+01  0.30630886517E+02  0.31886007050E+02  0.00000000000E+00 0.  1.
         11    1    3    3    0    0 -0.51654014915E+01 -0.44503712817E+01 -0.95920673369E+01  0.11768387025E+02  0.51100000000E-03 0. -1.
        -11    1    3    3    0    0 -0.18542451925E+02  0.92701107043E+01 -0.12977002437E+02  0.24457311144E+02  0.51100000000E-03 0.  1.
        -12    1    3    3    0    0  0.21302386018E+02  0.37055150232E+01 -0.80618167430E+01  0.23076294781E+02  0.00000000000E+00 0.  1.
</event>
<event>
 7    1  0.1344618E-011  0.5930193E+02  0.7816164E-02  0.1266605E+00
        -11   -1    0    0    0    0  0.00000000000E+00  0.00000000000E+00  0.45593999997E+02  0.45594000000E+02  0.51100000000E-03 0. -1.
         11   -1    0    0    0    0 -0.00000000000E+00 -0.00000000000E+00 -0.45593999997E+02  0.45594000000E+02  0.51100000000E-03 0.  1.
    9900012    2    1    2    0    0  0.13488052177E+02 -0.12760410847E+02  0.25922305055E+02  0.59301928811E+02  0.49999972249E+02 0.  0.
        -12    1    1    2    0    0 -0.13488052177E+02  0.12760410847E+02 -0.25922305055E+02  0.31886071189E+02  0.00000000000E+00 0.  1.
         11    1    3    3    0    0  0.12125536412E+02 -0.16640457271E+02 -0.56427224860E+01  0.21348858723E+02  0.51100000000E-03 0. -1.
        -11    1    3    3    0    0  0.58481034087E+01 -0.68878571235E+01  0.10322204085E+02  0.13718264711E+02  0.51100000000E-03 0.  1.
         12    1    3    3    0    0 -0.44855876436E+01  0.10767903548E+02  0.21242823456E+02  0.24234805377E+02  0.00000000000E+00 0. -1.
</event>
<event>
 7    1  0.1344618E-011  0.5930197E+02  0.7816164E-02  0.1266605E+00
        -11   -1    0    0    0    0  0.00000000000E+00  0.00000000000E+00  0.45593999997E+02  0.45594000000E+02  0.51100000000E-03 0.  1.
         11   -1    0    0    0    0 -0.00000000000E+00 -0.00000000000E+00 -0.45593999997E+02  0.45594000000E+02  0.51100000000E-03 0. -1.
    9900012    2    1    2    0    0  0.69275664185E+01  0.29692474250E+02  0.93319153176E+01  0.59301970974E+02  0.50000049144E+02 0.  0.
        -12    1    1    2    0    0 -0.69275664185E+01 -0.29692474250E+02 -0.93319153176E+01  0.31886029026E+02  0.00000000000E+00 0.  1.
         11    1    3    3    0    0  0.21945745666E+02  0.17118283926E+02  0.25906951198E+00  0.27833765729E+02  0.51100000000E-03 0. -1.
        -11    1    3    3    0    0  0.12417957915E+01  0.13686098446E+02  0.29311242755E+01  0.14051435415E+02  0.51100000000E-03 0.  1.
        -12    1    3    3    0    0 -0.16259975039E+02 -0.11119081221E+01  0.61417215301E+01  0.17416769829E+02  0.00000000000E+00 0.  1.
</event>
<event>
 7    1  0.1344618E-011  0.5930208E+02  0.7816164E-02  0.1266604E+00
        -11   -1    0    0    0    0  0.00000000000E+00  0.00000000000E+00  0.45593999997E+02  0.45594000000E+02  0.51100000000E-03 0. -1.
         11   -1    0    0    0    0 -0.00000000000E+00 -0.00000000000E+00 -0.45593999997E+02  0.45594000000E+02  0.51100000000E-03 0.  1.
    9900012    2    1    2    0    0  0.71431604078E+01  0.30361935453E+02 -0.66211693815E+01  0.59302082277E+02  0.50000252132E+02 0.  0.
        -12    1    1    2    0    0 -0.71431604078E+01 -0.30361935453E+02  0.66211693815E+01  0.31885917723E+02  0.00000000000E+00 0.  1.
         11    1    3    3    0    0 -0.13356775155E+02  0.30747324627E+01 -0.61175488900E+01  0.15009391291E+02  0.51100000000E-03 0. -1.
        -11    1    3    3    0    0  0.65052653873E+01 -0.33777679031E+01  0.65787392297E+01  0.98492438227E+01  0.51100000000E-03 0.  1.
         12    1    3    3    0    0  0.13994670175E+02  0.30664970894E+02 -0.70823597212E+01  0.34443447163E+02  0.00000000000E+00 0. -1.
</event>
<event>
 7    1  0.1344618E-011  0.5930194E+02  0.7816164E-02  0.1266605E+00
        -11   -1    0    0    0    0  0.00000000000E+00  0.00000000000E+00  0.45593999997E+02  0.45594000000E+02  0.51100000000E-03 0. -1.
         11   -1    0    0    0    0 -0.00000000000E+00 -0.00000000000E+00 -0.45593999997E+02  0.45594000000E+02  0.51100000000E-03 0.  1.
    9900012    2    1    2    0    0  0.10478642238E+01 -0.28439977754E+02  0.14380206653E+02  0.59301941958E+02  0.49999996225E+02 0.  0.
        -12    1    1    2    0    0 -0.10478642238E+01  0.28439977754E+02 -0.14380206653E+02  0.31886058042E+02  0.00000000000E+00 0.  1.
         11    1    3    3    0    0  0.10412974879E+01 -0.37383604491E+00 -0.29290998786E+01  0.31310829127E+01  0.51100000000E-03 0. -1.
        -11    1    3    3    0    0  0.11148225525E+02 -0.60787045851E+01 -0.12276755375E+02  0.17662171571E+02  0.51100000000E-03 0.  1.
         12    1    3    3    0    0 -0.11141658790E+02 -0.21987437124E+02  0.29586061906E+02  0.38508687474E+02  0.00000000000E+00 0. -1.
</event>
<event>
 7    1  0.1344618E-011  0.5930194E+02  0.7816164E-02  0.1266605E+00
        -11   -1    0    0    0    0  0.00000000000E+00  0.00000000000E+00  0.45593999997E+02  0.45594000000E+02  0.51100000000E-03 0. -1.
         11   -1    0    0    0    0 -0.00000000000E+00 -0.00000000000E+00 -0.45593999997E+02  0.45594000000E+02  0.51100000000E-03 0.  1.
    9900012    2    1    2    0    0  0.10820611715E+02 -0.29982752716E+02 -0.81822011063E+00  0.59301943761E+02  0.49999999513E+02 0.  0.
        -12    1    1    2    0    0 -0.10820611715E+02  0.29982752716E+02  0.81822011063E+00  0.31886056239E+02  0.00000000000E+00 0.  1.
         11    1    3    3    0    0  0.12384799919E+02 -0.89779507286E+01  0.42185246207E+01  0.15867665820E+02  0.51100000000E-03 0. -1.
        -11    1    3    3    0    0  0.15117613492E+02 -0.47704241065E+01  0.68832836945E+01  0.17282325611E+02  0.51100000000E-03 0.  1.
         12    1    3    3    0    0 -0.16681801696E+02 -0.16234377881E+02 -0.11920028426E+02  0.26151952330E+02  0.00000000000E+00 0. -1.
</event>
<event>
 7    1  0.1344618E-011  0.5930196E+02  0.7816164E-02  0.1266605E+00
        -11   -1    0    0    0    0  0.00000000000E+00  0.00000000000E+00  0.45593999997E+02  0.45594000000E+02  0.51100000000E-03 0.  1.
         11   -1    0    0    0    0 -0.00000000000E+00 -0.00000000000E+00 -0.45593999997E+02  0.45594000000E+02  0.51100000000E-03 0. -1.
    9900012    2    1    2    0    0  0.29848994301E+02 -0.10172046942E+02 -0.47208833865E+01  0.59301956976E+02  0.50000023615E+02 0.  0.
        -12    1    1    2    0    0 -0.29848994301E+02  0.10172046942E+02  0.47208833865E+01  0.31886043024E+02  0.00000000000E+00 0.  1.
         11    1    3    3    0    0  0.19340156311E+02 -0.24154845679E+01  0.85927170494E+01  0.21300492914E+02  0.51100000000E-03 0. -1.
        -11    1    3    3    0    0  0.10932238223E+02 -0.93222228752E+01  0.81223455510E+01  0.16504247011E+02  0.51100000000E-03 0.  1.
         12    1    3    3    0    0 -0.42340023373E+00  0.15656605011E+01 -0.21435945987E+02  0.21497217051E+02  0.00000000000E+00 0. -1.
</event>
<event>
 7    1  0.1777560E-011  0.5930194E+02  0.7816164E-02  0.1266605E+00
        -11   -1    0    0    0    0  0.00000000000E+00  0.00000000000E+00  0.45593999997E+02  0.45594000000E+02  0.51100000000E-03 0.  1.
         11   -1    0    0    0    0 -0.00000000000E+00 -0.00000000000E+00 -0.45593999997E+02  0.45594000000E+02  0.51100000000E-03 0. -1.
    9900012    2    1    2    0    0  0.24135667409E+02 -0.16368752485E+02 -0.12893966683E+02  0.59301939158E+02  0.49999991119E+02 0.  0.
        -12    1    1    2    0    0 -0.24135667409E+02  0.16368752485E+02  0.12893966683E+02  0.31886060842E+02  0.00000000000E+00 0.  1.
         11    1    3    3    0    0 -0.73747209874E+01 -0.91491780067E+01 -0.95566958372E+01  0.15146762143E+02  0.51100000000E-03 0.  1.
        -11    1    3    3    0    0  0.64674948317E+01  0.55153971833E+01  0.99418583995E+01  0.13080085787E+02  0.51100000000E-03 0. -1.
         12    1    3    3    0    0  0.25042893565E+02 -0.12734971661E+02 -0.13279129245E+02  0.31075091228E+02  0.00000000000E+00 0. -1.
</event>
<event>
 7    1  0.1344618E-011  0.5930195E+02  0.7816164E-02  0.1266605E+00
        -11   -1    0    0    0    0  0.00000000000E+00  0.00000000000E+00  0.45593999997E+02  0.45594000000E+02  0.51100000000E-03 0. -1.
         11   -1    0    0    0    0 -0.00000000000E+00 -0.00000000000E+00 -0.45593999997E+02  0.45594000000E+02  0.51100000000E-03 0.  1.
    9900012    2    1    2    0    0  0.10306911901E+02 -0.25977812922E+02  0.15350604362E+02  0.59301948952E+02  0.50000008981E+02 0.  0.
        -12    1    1    2    0    0 -0.10306911901E+02  0.25977812922E+02 -0.15350604362E+02  0.31886051048E+02  0.00000000000E+00 0.  1.
         11    1    3    3    0    0 -0.43274678602E+01 -0.16089400494E+02  0.42605435800E+01  0.17197325903E+02  0.51100000000E-03 0. -1.
        -11    1    3    3    0    0  0.74593888840E+01 -0.51756460118E+01 -0.13381673393E+02  0.16170930005E+02  0.51100000000E-03 0.  1.
        -12    1    3    3    0    0  0.71749908775E+01 -0.47127664157E+01  0.24471734175E+02  0.25933693045E+02  0.00000000000E+00 0.  1.
</event>
<event>
 7    1  0.1344618E-011  0.5930196E+02  0.7816164E-02  0.1266605E+00
        -11   -1    0    0    0    0  0.00000000000E+00  0.00000000000E+00  0.45593999997E+02  0.45594000000E+02  0.51100000000E-03 0. -1.
         11   -1    0    0    0    0 -0.00000000000E+00 -0.00000000000E+00 -0.45593999997E+02  0.45594000000E+02  0.51100000000E-03 0.  1.
    9900012    2    1    2    0    0  0.10248351316E+02 -0.30194210099E+02 -0.19715238978E-01  0.59301962038E+02  0.50000032846E+02 0.  0.
        -12    1    1    2    0    0 -0.10248351316E+02  0.30194210099E+02  0.19715238978E-01  0.31886037962E+02  0.00000000000E+00 0.  1.
         11    1    3    3    0    0  0.18751764463E+02 -0.67667554359E+01 -0.34743566747E+01  0.20235829713E+02  0.51100000000E-03 0.  1.
        -11    1    3    3    0    0  0.10976070732E+02 -0.10296364585E+02  0.39846011292E+01  0.15568118024E+02  0.51100000000E-03 0. -1.
        -12    1    3    3    0    0 -0.19479483879E+02 -0.13131090078E+02 -0.52995969346E+00  0.23498014301E+02  0.00000000000E+00 0.  1.
</event>
<event>
 7    1  0.1344618E-011  0.5930196E+02  0.7816164E-02  0.1266605E+00
        -11   -1    0    0    0    0  0.00000000000E+00  0.00000000000E+00  0.45593999997E+02  0.45594000000E+02  0.51100000000E-03 0.  1.
         11   -1    0    0    0    0 -0.00000000000E+00 -0.00000000000E+00 -0.45593999997E+02  0.45594000000E+02  0.51100000000E-03 0. -1.
    9900012    2    1    2    0    0 -0.26637923658E+01 -0.24865903152E+02 -0.19781565032E+02  0.59301964743E+02  0.50000037779E+02 0.  0.
        -12    1    1    2    0    0  0.26637923658E+01  0.24865903152E+02  0.19781565032E+02  0.31886035257E+02  0.00000000000E+00 0.  1.
         11    1    3    3    0    0 -0.22016624702E+01  0.10040222910E+02 -0.10639300524E+02  0.14793515796E+02  0.51100000000E-03 0. -1.
        -11    1    3    3    0    0  0.30258932695E+01 -0.27309792138E+02 -0.17589399709E+02  0.32624649563E+02  0.51100000000E-03 0.  1.
        -12    1    3    3    0    0 -0.34880231650E+01 -0.75963339240E+01  0.84471352010E+01  0.11883799384E+02  0.00000000000E+00 0.  1.
</event>
<event>
 7    1  0.1344618E-011  0.5930196E+02  0.7816164E-02  0.1266605E+00
        -11   -1    0    0    0    0  0.00000000000E+00  0.00000000000E+00  0.45593999997E+02  0.45594000000E+02  0.51100000000E-03 0. -1.
         11   -1    0    0    0    0 -0.00000000000E+00 -0.00000000000E+00 -0.45593999997E+02  0.45594000000E+02  0.51100000000E-03 0.  1.
    9900012    2    1    2    0    0 -0.28560012080E+02 -0.12870096993E+02  0.59502783381E+01  0.59301960752E+02  0.50000030501E+02 0.  0.
        -12    1    1    2    0    0  0.28560012080E+02  0.12870096993E+02 -0.59502783381E+01  0.31886039248E+02  0.00000000000E+00 0.  1.
         11    1    3    3    0    0 -0.14307837884E+02  0.10235411111E+02  0.81699332306E+01  0.19396537701E+02  0.51100000000E-03 0. -1.
        -11    1    3    3    0    0  0.77761196469E+01 -0.10372060451E+02  0.42674780141E+01  0.13647675393E+02  0.51100000000E-03 0.  1.
         12    1    3    3    0    0 -0.22028293843E+02 -0.12733447653E+02 -0.64871329066E+01  0.26257747658E+02  0.00000000000E+00 0. -1.
</event>
<event>
 7    1  0.1344618E-011  0.5930233E+02  0.7816164E-02  0.1266603E+00
        -11   -1    0    0    0    0  0.00000000000E+00  0.00000000000E+00  0.45593999997E+02  0.45594000000E+02  0.51100000000E-03 0. -1.
         11   -1    0    0    0    0 -0.00000000000E+00 -0.00000000000E+00 -0.45593999997E+02  0.45594000000E+02  0.51100000000E-03 0.  1.
    9900012    2    1    2    0    0  0.32947589446E+01  0.28611107124E+02 -0.13683745336E+02  0.59302332784E+02  0.50000708993E+02 0.  0.
        -12    1    1    2    0    0 -0.32947589446E+01 -0.28611107124E+02  0.13683745336E+02  0.31885667216E+02  0.00000000000E+00 0.  1.
         11    1    3    3    0    0 -0.76530722940E+01  0.54599040025E+01  0.18943497640E+01  0.95900275569E+01  0.51100000000E-03 0. -1.
        -11    1    3    3    0    0 -0.14341723490E+02  0.24994650674E+01 -0.47796456354E+01  0.15322446637E+02  0.51100000000E-03 0.  1.
         12    1    3    3    0    0  0.25289554728E+02  0.20651738055E+02 -0.10798449464E+02  0.34389858590E+02  0.00000000000E+00 0. -1.
</event>
<event>
 7    1  0.1344618E-011  0.5930196E+02  0.7816164E-02  0.1266605E+00
        -11   -1    0    0    0    0  0.00000000000E+00  0.00000000000E+00  0.45593999997E+02  0.45594000000E+02  0.51100000000E-03 0. -1.
         11   -1    0    0    0    0 -0.00000000000E+00 -0.00000000000E+00 -0.45593999997E+02  0.45594000000E+02  0.51100000000E-03 0.  1.
    9900012    2    1    2    0    0  0.22581535801E+02 -0.33279838815E+01 -0.22264738700E+02  0.59301955635E+02  0.50000021170E+02 0.  0.
        -12    1    1    2    0    0 -0.22581535801E+02  0.33279838815E+01  0.22264738700E+02  0.31886044365E+02  0.00000000000E+00 0.  1.
         11    1    3    3    0    0  0.21034601760E+02  0.72733932203E+01  0.50605138181E+01  0.22824669121E+02  0.51100000000E-03 0. -1.
        -11    1    3    3    0    0  0.17032659911E+01  0.61306096753E+01 -0.32132701984E+01  0.71281551370E+01  0.51100000000E-03 0.  1.
         12    1    3    3    0    0 -0.15633195054E+00 -0.16731986777E+02 -0.24111982320E+02  0.29349131377E+02  0.00000000000E+00 0. -1.
</event>
<event>
 7    1  0.1344618E-011  0.5930192E+02  0.7816164E-02  0.1266605E+00
        -11   -1    0    0    0    0  0.00000000000E+00  0.00000000000E+00  0.45593999997E+02  0.45594000000E+02  0.51100000000E-03 0.  1.
         11   -1    0    0    0    0 -0.00000000000E+00 -0.00000000000E+00 -0.45593999997E+02  0.45594000000E+02  0.51100000000E-03 0. -1.
    9900012    2    1    2    0    0 -0.22800289310E+02  0.79483749889E+01 -0.20825276607E+02  0.59301921481E+02  0.49999958880E+02 0.  0.
        -12    1    1    2    0    0  0.22800289310E+02 -0.79483749889E+01  0.20825276607E+02  0.31886078519E+02  0.00000000000E+00 0.  1.
         11    1    3    3    0    0 -0.80830425069E+01 -0.20227664606E+01 -0.62956416610E+01  0.10443288012E+02  0.51100000000E-03 0. -1.
        -11    1    3    3    0    0 -0.20290640649E+02  0.23932188771E+02 -0.12113584586E+02  0.33633297327E+02  0.51100000000E-03 0.  1.
         12    1    3    3    0    0  0.55733938458E+01 -0.13961047322E+02 -0.24160503600E+01  0.15225336142E+02  0.00000000000E+00 0. -1.
</event>
<event>
 7    1  0.1344618E-011  0.5930195E+02  0.7816164E-02  0.1266605E+00
        -11   -1    0    0    0    0  0.00000000000E+00  0.00000000000E+00  0.45593999997E+02  0.45594000000E+02  0.51100000000E-03 0.  1.
         11   -1    0    0    0    0 -0.00000000000E+00 -0.00000000000E+00 -0.45593999997E+02  0.45594000000E+02  0.51100000000E-03 0. -1.
    9900012    2    1    2    0    0 -0.11207396024E+02  0.27889747543E+02 -0.10643147541E+02  0.59301947669E+02  0.50000006641E+02 0.  0.
        -12    1    1    2    0    0  0.11207396024E+02 -0.27889747543E+02  0.10643147541E+02  0.31886052331E+02  0.00000000000E+00 0.  1.
         11    1    3    3    0    0  0.14622921900E+01  0.34701660824E+02 -0.21426918683E+01  0.34798486908E+02  0.51100000000E-03 0. -1.
        -11    1    3    3    0    0 -0.10582377184E+02  0.95938670327E-01 -0.12399105849E+02  0.16301341577E+02  0.51100000000E-03 0.  1.
        -12    1    3    3    0    0 -0.20873110302E+01 -0.69078519508E+01  0.38986501761E+01  0.82021191839E+01  0.00000000000E+00 0.  1.
</event>
<event>
 7    1  0.1344618E-011  0.5930195E+02  0.7816164E-02  0.1266605E+00
        -11   -1    0    0    0    0  0.00000000000E+00  0.00000000000E+00  0.45593999997E+02  0.45594000000E+02  0.51100000000E-03 0.  1.
         11   -1    0    0    0    0 -0.00000000000E+00 -0.00000000000E+00 -0.45593999997E+02  0.45594000000E+02  0.51100000000E-03 0. -1.
    9900012    2    1    2    0    0 -0.36693252513E+01  0.17174157119E+02 -0.26613990255E+02  0.59301951361E+02  0.50000013374E+02 0.  0.
        -12    1    1    2    0    0  0.36693252513E+01 -0.17174157119E+02  0.26613990255E+02  0.31886048639E+02  0.00000000000E+00 0.  1.
         11    1    3    3    0    0 -0.21661034125E+01  0.45960313896E+00 -0.29224815049E+02  0.29308583282E+02  0.51100000000E-03 0. -1.
        -11    1    3    3    0    0  0.23957063069E+01 -0.22700913018E+01 -0.74561136264E+01  0.81539164761E+01  0.51100000000E-03 0.  1.
        -12    1    3    3    0    0 -0.38989281457E+01  0.18984645282E+02  0.10066938421E+02  0.21839451603E+02  0.00000000000E+00 0.  1.
</event>
<event>
 7    1  0.1344618E-011  0.5930197E+02  0.7816164E-02  0.1266605E+00
        -11   -1    0    0    0    0  0.00000000000E+00  0.00000000000E+00  0.45593999997E+02  0.45594000000E+02  0.51100000000E-03 0. -1.
         11   -1    0    0    0    0 -0.00000000000E+00 -0.00000000000E+00 -0.45593999997E+02  0.45594000000E+02  0.51100000000E-03 0.  1.
    9900012    2    1    2    0    0 -0.17947678697E+02 -0.37076080426E+01  0.26093172374E+02  0.59301965870E+02  0.50000039834E+02 0.  0.
        -12    1    1    2    0    0  0.17947678697E+02  0.37076080426E+01 -0.26093172374E+02  0.31886034130E+02  0.00000000000E+00 0.  1.
         11    1    3    3    0    0  0.18360778313E+01  0.14014753554E+02  0.20037794344E+02  0.24521372340E+02  0.51100000000E-03 0. -1.
        -11    1    3    3    0    0 -0.19491420076E+01  0.31182704441E+01  0.63626273675E+01  0.73488633412E+01  0.51100000000E-03 0.  1.
        -12    1    3    3    0    0 -0.17834614521E+02 -0.20840632041E+02 -0.30724933783E+00  0.27431730188E+02  0.00000000000E+00 0.  1.
</event>
<event>
 7    1  0.1344618E-011  0.5930202E+02  0.7816164E-02  0.1266604E+00
        -11   -1    0    0    0    0  0.00000000000E+00  0.00000000000E+00  0.45593999997E+02  0.45594000000E+02  0.51100000000E-03 0.  1.
         11   -1    0    0    0    0 -0.00000000000E+00 -0.00000000000E+00 -0.45593999997E+02  0.45594000000E+02  0.51100000000E-03 0. -1.
    9900012    2    1    2    0    0  0.40749113786E+01 -0.28988931490E+02 -0.12639323626E+02  0.59302022621E+02  0.50000143336E+02 0.  0.
        -12    1    1    2    0    0 -0.40749113786E+01  0.28988931490E+02  0.12639323626E+02  0.31885977379E+02  0.00000000000E+00 0.  1.
         11    1    3    3    0    0  0.72350328138E+01 -0.24559222081E+01 -0.14577875409E+02  0.16458788090E+02  0.51100000000E-03 0. -1.
        -11    1    3    3    0    0  0.61564103098E+01  0.11972820006E+01 -0.95411678465E+01  0.11417913830E+02  0.51100000000E-03 0.  1.
        -12    1    3    3    0    0 -0.93165317451E+01 -0.27730291283E+02  0.11479719630E+02  0.31425320701E+02  0.00000000000E+00 0.  1.
</event>
<event>
 7    1  0.1344618E-011  0.5930193E+02  0.7816164E-02  0.1266605E+00
        -11   -1    0    0    0    0  0.00000000000E+00  0.00000000000E+00  0.45593999997E+02  0.45594000000E+02  0.51100000000E-03 0. -1.
         11   -1    0    0    0    0 -0.00000000000E+00 -0.00000000000E+00 -0.45593999997E+02  0.45594000000E+02  0.51100000000E-03 0.  1.
    9900012    2    1    2    0    0 -0.24238353521E+01  0.31278216380E+02 -0.57025889550E+01  0.59301932220E+02  0.49999978465E+02 0.  0.
        -12    1    1    2    0    0  0.24238353521E+01 -0.31278216380E+02  0.57025889550E+01  0.31886067780E+02  0.00000000000E+00 0.  1.
         11    1    3    3    0    0 -0.52260043515E+01  0.51657079255E+01 -0.84049354906E+01  0.11164165921E+02  0.51100000000E-03 0.  1.
        -11    1    3    3    0    0 -0.77987276145E+01  0.33599172750E+02  0.53146849212E+01  0.34899433204E+02  0.51100000000E-03 0. -1.
        -12    1    3    3    0    0  0.10600896614E+02 -0.74866642954E+01 -0.26123383855E+01  0.13238333095E+02  0.00000000000E+00 0.  1.
</event>
<event>
 7    1  0.1344618E-011  0.5930195E+02  0.7816164E-02  0.1266605E+00
        -11   -1    0    0    0    0  0.00000000000E+00  0.00000000000E+00  0.45593999997E+02  0.45594000000E+02  0.51100000000E-03 0.  1.
         11   -1    0    0    0    0 -0.00000000000E+00 -0.00000000000E+00 -0.45593999997E+02  0.45594000000E+02  0.51100000000E-03 0. -1.
    9900012    2    1    2    0    0  0.30868540046E+02 -0.56100554959E+01 -0.56903908551E+01  0.59301952341E+02  0.50000015161E+02 0.  0.
        -12    1    1    2    0    0 -0.30868540046E+02  0.56100554959E+01  0.56903908551E+01  0.31886047659E+02  0.00000000000E+00 0.  1.
         11    1    3    3    0    0 -0.53029226706E+01  0.80933076116E+01 -0.38095776715E+01  0.10398822012E+02  0.51100000000E-03 0. -1.
        -11    1    3    3    0    0  0.91449471100E+01 -0.47132046667E+01  0.13151216229E+02  0.16697270568E+02  0.51100000000E-03 0.  1.
         12    1    3    3    0    0  0.27026515607E+02 -0.89901584408E+01 -0.15032029412E+02  0.32205859760E+02  0.00000000000E+00 0. -1.
</event>
<event>
 7    1  0.1344618E-011  0.5930193E+02  0.7816164E-02  0.1266605E+00
        -11   -1    0    0    0    0  0.00000000000E+00  0.00000000000E+00  0.45593999997E+02  0.45594000000E+02  0.51100000000E-03 0. -1.
         11   -1    0    0    0    0 -0.00000000000E+00 -0.00000000000E+00 -0.45593999997E+02  0.45594000000E+02  0.51100000000E-03 0.  1.
    9900012    2    1    2    0    0  0.62080503197E+01 -0.29026196916E+02  0.11647368687E+02  0.59301934180E+02  0.49999982040E+02 0.  0.
        -12    1    1    2    0    0 -0.62080503197E+01  0.29026196916E+02 -0.11647368687E+02  0.31886065820E+02  0.00000000000E+00 0.  1.
         11    1    3    3    0    0  0.32972172048E+01 -0.25659110231E+01  0.72210050557E+01  0.83425688460E+01  0.51100000000E-03 0. -1.
        -11    1    3    3    0    0 -0.85456876970E+01 -0.35272411674E+02  0.38159383214E+01  0.36492919711E+02  0.51100000000E-03 0.  1.
        -12    1    3    3    0    0  0.11456520812E+02  0.88121257812E+01  0.61042530944E+00  0.14466445623E+02  0.00000000000E+00 0.  1.
</event>
<event>
 7    1  0.1344618E-011  0.5930195E+02  0.7816164E-02  0.1266605E+00
        -11   -1    0    0    0    0  0.00000000000E+00  0.00000000000E+00  0.45593999997E+02  0.45594000000E+02  0.51100000000E-03 0.  1.
         11   -1    0    0    0    0 -0.00000000000E+00 -0.00000000000E+00 -0.45593999997E+02  0.45594000000E+02  0.51100000000E-03 0. -1.
    9900012    2    1    2    0    0  0.31384380804E+02  0.41374341884E+01 -0.38239016176E+01  0.59301953778E+02  0.50000017782E+02 0.  0.
        -12    1    1    2    0    0 -0.31384380804E+02 -0.41374341884E+01  0.38239016176E+01  0.31886046222E+02  0.00000000000E+00 0.  1.
         11    1    3    3    0    0 -0.64428838404E+01 -0.62933825687E+01 -0.11229168977E+01  0.90762524732E+01  0.51100000000E-03 0. -1.
        -11    1    3    3    0    0 -0.39342105243E+01 -0.38502264233E+01 -0.26044835465E+01  0.60897939838E+01  0.51100000000E-03 0.  1.
         12    1    3    3    0    0  0.41761475168E+02  0.14281043180E+02 -0.96501173346E-01  0.44135907321E+02  0.00000000000E+00 0. -1.
</event>
<event>
 7    1  0.1344618E-011  0.5930214E+02  0.7816164E-02  0.1266604E+00
        -11   -1    0    0    0    0  0.00000000000E+00  0.00000000000E+00  0.45593999997E+02  0.45594000000E+02  0.51100000000E-03 0. -1.
         11   -1    0    0    0    0 -0.00000000000E+00 -0.00000000000E+00 -0.45593999997E+02  0.45594000000E+02  0.51100000000E-03 0.  1.
    9900012    2    1    2    0    0 -0.16984229792E+02 -0.17417104819E+02 -0.20612820882E+02  0.59302141275E+02  0.50000359731E+02 0.  0.
        -12    1    1    2    0    0  0.16984229792E+02  0.17417104819E+02  0.20612820882E+02  0.31885858725E+02  0.00000000000E+00 0.  1.
         11    1    3    3    0    0 -0.24931112409E+01 -0.11080484358E+01  0.70803285324E+01  0.75877814534E+01  0.51100000000E-03 0. -1.
        -11    1    3    3    0    0 -0.42259477153E+01  0.12243203086E+02 -0.11507854605E+02  0.17325858529E+02  0.51100000000E-03 0.  1.
         12    1    3    3    0    0 -0.10265170835E+02 -0.28552259469E+02 -0.16185294810E+02  0.34388501293E+02  0.00000000000E+00 0. -1.
</event>
<event>
 7    1  0.1344618E-011  0.5930193E+02  0.7816164E-02  0.1266605E+00
        -11   -1    0    0    0    0  0.00000000000E+00  0.00000000000E+00  0.45593999997E+02  0.45594000000E+02  0.51100000000E-03 0. -1.
         11   -1    0    0    0    0 -0.00000000000E+00 -0.00000000000E+00 -0.45593999997E+02  0.45594000000E+02  0.51100000000E-03 0.  1.
    9900012    2    1    2    0    0  0.91351796935E+01  0.30458420234E+02  0.23568447868E+01  0.59301927985E+02  0.49999970742E+02 0.  0.
        -12    1    1    2    0    0 -0.91351796935E+01 -0.30458420234E+02 -0.23568447868E+01  0.31886072015E+02  0.00000000000E+00 0.  1.
         11    1    3    3    0    0 -0.30025558460E+01  0.15946213383E+02  0.15231859691E+02  0.22255485004E+02  0.51100000000E-03 0. -1.
        -11    1    3    3    0    0 -0.62834799236E+01 -0.20449860718E+01  0.33781625275E+01  0.74213253740E+01  0.51100000000E-03 0.  1.
        -12    1    3    3    0    0  0.18421215463E+02  0.16557192923E+02 -0.16253177431E+02  0.29625117607E+02  0.00000000000E+00 0.  1.
</event>
<event>
 7    1  0.1466162E-011  0.5930215E+02  0.7816164E-02  0.1266604E+00
        -11   -1    0    0    0    0  0.00000000000E+00  0.00000000000E+00  0.45593999997E+02  0.45594000000E+02  0.51100000000E-03 0. -1.
         11   -1    0    0    0    0 -0.00000000000E+00 -0.00000000000E+00 -0.45593999997E+02  0.45594000000E+02  0.51100000000E-03 0.  1.
    9900012    2    1    2    0    0  0.21705981418E+02 -0.92525064602E+01  0.21446426731E+02  0.59302145383E+02  0.50000367222E+02 0.  0.
        -12    1    1    2    0    0 -0.21705981418E+02  0.92525064602E+01 -0.21446426731E+02  0.31885854617E+02  0.00000000000E+00 0.  1.
         11    1    3    3    0    0  0.19705306108E+02  0.32351985652E+01  0.18198986552E+02  0.27017933125E+02  0.51100000000E-03 0. -1.
        -11    1    3    3    0    0  0.44578452597E+01 -0.29556552692E+01 -0.12566180068E+02  0.13657128695E+02  0.51100000000E-03 0.  1.
         12    1    3    3    0    0 -0.24571699492E+01 -0.95320497561E+01  0.15813620247E+02  0.18627083562E+02  0.00000000000E+00 0. -1.
</event>
<event>
 7    1  0.1344618E-011  0.5930195E+02  0.7816164E-02  0.1266605E+00
        -11   -1    0    0    0    0  0.00000000000E+00  0.00000000000E+00  0.45593999997E+02  0.45594000000E+02  0.51100000000E-03 0.  1.
         11   -1    0    0    0    0 -0.00000000000E+00 -0.00000000000E+00 -0.45593999997E+02  0.45594000000E+02  0.51100000000E-03 0. -1.
    9900012    2    1    2    0    0  0.13609376542E+02 -0.11205434227E+02 -0.26569591273E+02  0.59301951852E+02  0.50000014270E+02 0.  0.
        -12    1    1    2    0    0 -0.13609376542E+02  0.11205434227E+02  0.26569591273E+02  0.31886048148E+02  0.00000000000E+00 0.  1.
         11    1    3    3    0    0  0.13223252962E+02 -0.19155248513E+01 -0.19861241375E+02  0.23937263076E+02  0.51100000000E-03 0. -1.
        -11    1    3    3    0    0  0.96502722810E+01 -0.18221182908E+02  0.48059312095E+00  0.20624505610E+02  0.51100000000E-03 0.  1.
        -12    1    3    3    0    0 -0.92641487005E+01  0.89312735317E+01 -0.71889430183E+01  0.14740183166E+02  0.00000000000E+00 0.  1.
</event>
<event>
 7    1  0.1344618E-011  0.5930196E+02  0.7816164E-02  0.1266605E+00
        -11   -1    0    0    0    0  0.00000000000E+00  0.00000000000E+00  0.45593999997E+02  0.45594000000E+02  0.51100000000E-03 0.  1.
         11   -1    0    0    0    0 -0.00000000000E+00 -0.00000000000E+00 -0.45593999997E+02  0.45594000000E+02  0.51100000000E-03 0. -1.
    9900012    2    1    2    0    0 -0.90741542485E+01  0.28048861689E+02 -0.12150745945E+02  0.59301960039E+02  0.50000029201E+02 0.  0.
        -12    1    1    2    0    0  0.90741542485E+01 -0.28048861689E+02  0.12150745945E+02  0.31886039961E+02  0.00000000000E+00 0.  1.
         11    1    3    3    0    0 -0.66142822762E+01  0.28650219422E+02 -0.16288138037E+02  0.33613795441E+02  0.51100000000E-03 0. -1.
        -11    1    3    3    0    0 -0.10284228143E+02 -0.31009233082E+00 -0.67295881233E+01  0.12294261358E+02  0.51100000000E-03 0.  1.
         12    1    3    3    0    0  0.78243561709E+01 -0.29126540284E+00  0.10866980215E+02  0.13393903241E+02  0.00000000000E+00 0. -1.
</event>
<event>
 7    1  0.1344618E-011  0.5930193E+02  0.7816164E-02  0.1266605E+00
        -11   -1    0    0    0    0  0.00000000000E+00  0.00000000000E+00  0.45593999997E+02  0.45594000000E+02  0.51100000000E-03 0.  1.
         11   -1    0    0    0    0 -0.00000000000E+00 -0.00000000000E+00 -0.45593999997E+02  0.45594000000E+02  0.51100000000E-03 0. -1.
    9900012    2    1    2    0    0  0.16488325599E+02 -0.26481588667E+02 -0.66016906708E+01  0.59301925624E+02  0.49999966437E+02 0.  0.
        -12    1    1    2    0    0 -0.16488325599E+02  0.26481588667E+02  0.66016906708E+01  0.31886074376E+02  0.00000000000E+00 0.  1.
         11    1    3    3    0    0 -0.88519048567E+00 -0.25710935345E+02  0.56784001047E+00  0.25732434806E+02  0.51100000000E-03 0. -1.
        -11    1    3    3    0    0 -0.27521913566E+01  0.45854400106E+01  0.66812063943E+01  0.85579983932E+01  0.51100000000E-03 0.  1.
        -12    1    3    3    0    0  0.20125707441E+02 -0.53560933321E+01 -0.13850737076E+02  0.25011492425E+02  0.00000000000E+00 0.  1.
</event>
<event>
 7    1  0.1344618E-011  0.5930188E+02  0.7816164E-02  0.1266605E+00
        -11   -1    0    0    0    0  0.00000000000E+00  0.00000000000E+00  0.45593999997E+02  0.45594000000E+02  0.51100000000E-03 0.  1.
         11   -1    0    0    0    0 -0.00000000000E+00 -0.00000000000E+00 -0.45593999997E+02  0.45594000000E+02  0.51100000000E-03 0. -1.
    9900012    2    1    2    0    0  0.13827289890E+02  0.25809767783E+02 -0.12624842241E+02  0.59301879189E+02  0.49999881750E+02 0.  0.
        -12    1    1    2    0    0 -0.13827289890E+02 -0.25809767783E+02  0.12624842241E+02  0.31886120811E+02  0.00000000000E+00 0.  1.
         11    1    3    3    0    0 -0.47826718055E+01  0.38555297851E+01 -0.20831101491E+00  0.61467433055E+01  0.51100000000E-03 0. -1.
        -11    1    3    3    0    0 -0.77430843088E+01  0.18236570414E+02 -0.17052606180E+02  0.26140375531E+02  0.51100000000E-03 0.  1.
        -12    1    3    3    0    0  0.26353046004E+02  0.37176675839E+01  0.46360749538E+01  0.27014760353E+02  0.00000000000E+00 0.  1.
</event>
<event>
 7    1  0.1344618E-011  0.5930195E+02  0.7816164E-02  0.1266605E+00
        -11   -1    0    0    0    0  0.00000000000E+00  0.00000000000E+00  0.45593999997E+02  0.45594000000E+02  0.51100000000E-03 0.  1.
         11   -1    0    0    0    0 -0.00000000000E+00 -0.00000000000E+00 -0.45593999997E+02  0.45594000000E+02  0.51100000000E-03 0. -1.
    9900012    2    1    2    0    0  0.22095912297E+02  0.14206681727E+02 -0.18073766839E+02  0.59301949858E+02  0.50000010632E+02 0.  0.
        -12    1    1    2    0    0 -0.22095912297E+02 -0.14206681727E+02  0.18073766839E+02  0.31886050142E+02  0.00000000000E+00 0.  1.
         11    1    3    3    0    0  0.35983816621E+01  0.19526828006E+01 -0.24611058976E+02  0.24949259406E+02  0.51100000000E-03 0. -1.
        -11    1    3    3    0    0  0.82700548201E+01  0.16874237481E+01 -0.94230329116E+01  0.12650484384E+02  0.51100000000E-03 0.  1.
        -12    1    3    3    0    0  0.10227475815E+02  0.10566575179E+02  0.15960325049E+02  0.21702206068E+02  0.00000000000E+00 0.  1.
</event>
<event>
 7    1  0.1344618E-011  0.5930194E+02  0.7816164E-02  0.1266605E+00
        -11   -1    0    0    0    0  0.00000000000E+00  0.00000000000E+00  0.45593999997E+02  0.45594000000E+02  0.51100000000E-03 0. -1.
         11   -1    0    0    0    0 -0.00000000000E+00 -0.00000000000E+00 -0.45593999997E+02  0.45594000000E+02  0.51100000000E-03 0.  1.
    9900012    2    1    2    0    0 -0.13456570047E+02  0.21091895831E+02  0.19767989558E+02  0.59301941003E+02  0.49999994484E+02 0.  0.
        -12    1    1    2    0    0  0.13456570047E+02 -0.21091895831E+02 -0.19767989558E+02  0.31886058997E+02  0.00000000000E+00 0.  1.
         11    1    3    3    0    0 -0.18607731874E+02  0.15340778244E+02  0.42796775905E+01  0.24492913325E+02  0.51100000000E-03 0.  1.
        -11    1    3    3    0    0  0.10007677755E+02  0.13556817654E+02  0.61441888993E-01  0.16850658573E+02  0.51100000000E-03 0. -1.
        -12    1    3    3    0    0 -0.48565159291E+01 -0.78057000672E+01  0.15426870079E+02  0.17958369106E+02  0.00000000000E+00 0.  1.
</event>
<event>
 7    1  0.1344618E-011  0.5930193E+02  0.7816164E-02  0.1266605E+00
        -11   -1    0    0    0    0  0.00000000000E+00  0.00000000000E+00  0.45593999997E+02  0.45594000000E+02  0.51100000000E-03 0. -1.
         11   -1    0    0    0    0 -0.00000000000E+00 -0.00000000000E+00 -0.45593999997E+02  0.45594000000E+02  0.51100000000E-03 0.  1.
    9900012    2    1    2    0    0 -0.61050793659E+01 -0.74826649377E+00  0.31287212442E+02  0.59301928445E+02  0.49999971581E+02 0.  0.
        -12    1    1    2    0    0  0.61050793659E+01  0.74826649377E+00 -0.31287212442E+02  0.31886071555E+02  0.00000000000E+00 0.  1.
         11    1    3    3    0    0  0.24685858875E+01  0.47464273062E+01  0.45013451268E+01  0.69917520457E+01  0.51100000000E-03 0. -1.
        -11    1    3    3    0    0  0.16543838997E+02  0.25123983356E+01  0.17867177152E+02  0.24479517434E+02  0.51100000000E-03 0.  1.
         12    1    3    3    0    0 -0.25117504250E+02 -0.80070921356E+01  0.89186901633E+01  0.27830658965E+02  0.00000000000E+00 0. -1.
</event>
<event>
 7    1  0.1344618E-011  0.5930196E+02  0.7816164E-02  0.1266605E+00
        -11   -1    0    0    0    0  0.00000000000E+00  0.00000000000E+00  0.45593999997E+02  0.45594000000E+02  0.51100000000E-03 0. -1.
         11   -1    0    0    0    0 -0.00000000000E+00 -0.00000000000E+00 -0.45593999997E+02  0.45594000000E+02  0.51100000000E-03 0.  1.
    9900012    2    1    2    0    0  0.61872523612E+01  0.69902357941E+01  0.30488920923E+02  0.59301956230E+02  0.50000022254E+02 0.  0.
        -12    1    1    2    0    0 -0.61872523612E+01 -0.69902357941E+01 -0.30488920923E+02  0.31886043770E+02  0.00000000000E+00 0.  1.
         11    1    3    3    0    0  0.94700359624E+01 -0.25816983082E+01  0.15198649764E+02  0.18092697483E+02  0.51100000000E-03 0. -1.
        -11    1    3    3    0    0  0.98507037072E+01  0.17853574936E+01 -0.83707556816E+01  0.13049651944E+02  0.51100000000E-03 0.  1.
         12    1    3    3    0    0 -0.13133487308E+02  0.77865766087E+01  0.23661026841E+02  0.28159606803E+02  0.00000000000E+00 0. -1.
</event>
<event>
 7    1  0.1344618E-011  0.5930205E+02  0.7816164E-02  0.1266604E+00
        -11   -1    0    0    0    0  0.00000000000E+00  0.00000000000E+00  0.45593999997E+02  0.45594000000E+02  0.51100000000E-03 0.  1.
         11   -1    0    0    0    0 -0.00000000000E+00 -0.00000000000E+00 -0.45593999997E+02  0.45594000000E+02  0.51100000000E-03 0. -1.
    9900012    2    1    2    0    0 -0.17942138455E+02 -0.22607655856E+02  0.13553128640E+02  0.59302051189E+02  0.50000195436E+02 0.  0.
        -12    1    1    2    0    0  0.17942138455E+02  0.22607655856E+02 -0.13553128640E+02  0.31885948811E+02  0.00000000000E+00 0.  1.
         11    1    3    3    0    0 -0.86721610544E+01 -0.12216437594E+02  0.94741748791E+01  0.17725905188E+02  0.51100000000E-03 0. -1.
        -11    1    3    3    0    0 -0.24557985732E+02 -0.45095171225E+01  0.31913427214E+01  0.25171711831E+02  0.51100000000E-03 0.  1.
        -12    1    3    3    0    0  0.15288008332E+02 -0.58817011397E+01  0.88761103949E+00  0.16404434169E+02  0.00000000000E+00 0.  1.
</event>
<event>
 7    1  0.1391357E-011  0.5930196E+02  0.7816164E-02  0.1266605E+00
        -11   -1    0    0    0    0  0.00000000000E+00  0.00000000000E+00  0.45593999997E+02  0.45594000000E+02  0.51100000000E-03 0.  1.
         11   -1    0    0    0    0 -0.00000000000E+00 -0.00000000000E+00 -0.45593999997E+02  0.45594000000E+02  0.51100000000E-03 0. -1.
    9900012    2    1    2    0    0 -0.15994790941E+01  0.26556897679E+02  0.17575341222E+02  0.59301956552E+02  0.50000022841E+02 0.  0.
        -12    1    1    2    0    0  0.15994790941E+01 -0.26556897679E+02 -0.17575341222E+02  0.31886043448E+02  0.00000000000E+00 0.  1.
         11    1    3    3    0    0 -0.10477392330E+02  0.17207745043E+02  0.14511525847E+02  0.24828745884E+02  0.51100000000E-03 0. -1.
        -11    1    3    3    0    0 -0.86951437220E+01  0.13691155633E+02  0.19789633157E+01  0.16339203254E+02  0.51100000000E-03 0.  1.
        -12    1    3    3    0    0  0.17573056958E+02 -0.43420029969E+01  0.10848520602E+01  0.18134007414E+02  0.00000000000E+00 0.  1.
</event>
<event>
 7    1  0.1344618E-011  0.5930191E+02  0.7816164E-02  0.1266605E+00
        -11   -1    0    0    0    0  0.00000000000E+00  0.00000000000E+00  0.45593999997E+02  0.45594000000E+02  0.51100000000E-03 0. -1.
         11   -1    0    0    0    0 -0.00000000000E+00 -0.00000000000E+00 -0.45593999997E+02  0.45594000000E+02  0.51100000000E-03 0.  1.
    9900012    2    1    2    0    0 -0.69266873880E+01  0.25056558000E+02  0.18463818530E+02  0.59301910687E+02  0.49999939194E+02 0.  0.
        -12    1    1    2    0    0  0.69266873880E+01 -0.25056558000E+02 -0.18463818530E+02  0.31886089313E+02  0.00000000000E+00 0.  1.
         11    1    3    3    0    0  0.41086143614E+01  0.25812728833E+02  0.17977127891E+02  0.31723095833E+02  0.51100000000E-03 0. -1.
        -11    1    3    3    0    0 -0.95526753513E+01  0.61388329034E+01  0.10409890149E+02  0.15404696977E+02  0.51100000000E-03 0.  1.
        -12    1    3    3    0    0 -0.14826263981E+01 -0.68950037371E+01 -0.99231995093E+01  0.12174117877E+02  0.00000000000E+00 0.  1.
</event>
<event>
 7    1  0.1344618E-011  0.5930195E+02  0.7816164E-02  0.1266605E+00
        -11   -1    0    0    0    0  0.00000000000E+00  0.00000000000E+00  0.45593999997E+02  0.45594000000E+02  0.51100000000E-03 0. -1.
         11   -1    0    0    0    0 -0.00000000000E+00 -0.00000000000E+00 -0.45593999997E+02  0.45594000000E+02  0.51100000000E-03 0.  1.
    9900012    2    1    2    0    0  0.25478373946E+02 -0.16477105573E+02  0.98019178758E+01  0.59301950683E+02  0.50000012138E+02 0.  0.
        -12    1    1    2    0    0 -0.25478373946E+02  0.16477105573E+02 -0.98019178758E+01  0.31886049317E+02  0.00000000000E+00 0.  1.
         11    1    3    3    0    0  0.20614872200E+02 -0.78962709202E+01  0.16546064680E+02  0.27587973955E+02  0.51100000000E-03 0. -1.
        -11    1    3    3    0    0  0.10575462037E+02 -0.10791086017E+01  0.86208426024E+01  0.13686628515E+02  0.51100000000E-03 0.  1.
        -12    1    3    3    0    0 -0.57119602914E+01 -0.75017260506E+01 -0.15364989407E+02  0.18027348213E+02  0.00000000000E+00 0.  1.
</event>
<event>
 7    1  0.1344618E-011  0.5930194E+02  0.7816164E-02  0.1266605E+00
        -11   -1    0    0    0    0  0.00000000000E+00  0.00000000000E+00  0.45593999997E+02  0.45594000000E+02  0.51100000000E-03 0.  1.
         11   -1    0    0    0    0 -0.00000000000E+00 -0.00000000000E+00 -0.45593999997E+02  0.45594000000E+02  0.51100000000E-03 0. -1.
    9900012    2    1    2    0    0  0.17711246972E+02  0.19668856309E+02 -0.17781137752E+02  0.59301936625E+02  0.49999986498E+02 0.  0.
        -12    1    1    2    0    0 -0.17711246972E+02 -0.19668856309E+02  0.17781137752E+02  0.31886063375E+02  0.00000000000E+00 0.  1.
         11    1    3    3    0    0  0.23842004971E+01  0.22441842193E+02 -0.42224136730E+01  0.22959735854E+02  0.51100000000E-03 0. -1.
        -11    1    3    3    0    0  0.12226746583E+02  0.12810124819E+02 -0.86805500430E+01  0.19721677900E+02  0.51100000000E-03 0.  1.
        -12    1    3    3    0    0  0.31002998921E+01 -0.15583110702E+02 -0.48781740360E+01  0.16620522871E+02  0.00000000000E+00 0.  1.
</event>
<event>
 7    1  0.1344618E-011  0.5930195E+02  0.7816164E-02  0.1266605E+00
        -11   -1    0    0    0    0  0.00000000000E+00  0.00000000000E+00  0.45593999997E+02  0.45594000000E+02  0.51100000000E-03 0.  1.
         11   -1    0    0    0    0 -0.00000000000E+00 -0.00000000000E+00 -0.45593999997E+02  0.45594000000E+02  0.51100000000E-03 0. -1.
    9900012    2    1    2    0    0  0.69268146120E+01 -0.89840082081E+01 -0.29799781391E+02  0.59301950776E+02  0.50000012307E+02 0.  0.
        -12    1    1    2    0    0 -0.69268146120E+01  0.89840082081E+01  0.29799781391E+02  0.31886049224E+02  0.00000000000E+00 0.  1.
         11    1    3    3    0    0 -0.26671259319E+01 -0.22954856367E+02 -0.15786360822E+02  0.27986571419E+02  0.51100000000E-03 0. -1.
        -11    1    3    3    0    0 -0.69140505279E+01  0.16582535660E+01 -0.56753003005E+01  0.90974135530E+01  0.51100000000E-03 0.  1.
         12    1    3    3    0    0  0.16507991072E+02  0.12312594593E+02 -0.83381202689E+01  0.22217965804E+02  0.00000000000E+00 0. -1.
</event>
<event>
 7    1  0.1344618E-011  0.5930194E+02  0.7816164E-02  0.1266605E+00
        -11   -1    0    0    0    0  0.00000000000E+00  0.00000000000E+00  0.45593999997E+02  0.45594000000E+02  0.51100000000E-03 0. -1.
         11   -1    0    0    0    0 -0.00000000000E+00 -0.00000000000E+00 -0.45593999997E+02  0.45594000000E+02  0.51100000000E-03 0.  1.
    9900012    2    1    2    0    0 -0.22184834640E+02 -0.85098937445E+01  0.21263484581E+02  0.59301937903E+02  0.49999988830E+02 0.  0.
        -12    1    1    2    0    0  0.22184834640E+02  0.85098937445E+01 -0.21263484581E+02  0.31886062097E+02  0.00000000000E+00 0.  1.
         11    1    3    3    0    0 -0.20467616578E+02 -0.40009704112E+01  0.46604447812E+01  0.21369390221E+02  0.51100000000E-03 0. -1.
        -11    1    3    3    0    0  0.44434698410E+01 -0.16604356528E+02  0.95168400759E+00  0.17214958108E+02  0.51100000000E-03 0.  1.
         12    1    3    3    0    0 -0.61606879035E+01  0.12095433195E+02  0.15651355792E+02  0.20717589574E+02  0.00000000000E+00 0. -1.
</event>
<event>
 7    1  0.1344618E-011  0.5930184E+02  0.7816164E-02  0.1266605E+00
        -11   -1    0    0    0    0  0.00000000000E+00  0.00000000000E+00  0.45593999997E+02  0.45594000000E+02  0.51100000000E-03 0.  1.
         11   -1    0    0    0    0 -0.00000000000E+00 -0.00000000000E+00 -0.45593999997E+02  0.45594000000E+02  0.51100000000E-03 0. -1.
    9900012    2    1    2    0    0  0.24914972094E+02  0.11230096827E+02 -0.16427309222E+02  0.59301836896E+02  0.49999804617E+02 0.  0.
        -12    1    1    2    0    0 -0.24914972094E+02 -0.11230096827E+02  0.16427309222E+02  0.31886163104E+02  0.00000000000E+00 0.  1.
         11    1    3    3    0    0  0.23156768137E+02 -0.61715504095E+01 -0.57746589544E+01  0.24650976275E+02  0.51100000000E-03 0. -1.
        -11    1    3    3    0    0  0.88672335807E+01 -0.43132982933E+01 -0.12372299795E+01  0.99379631628E+01  0.51100000000E-03 0.  1.
         12    1    3    3    0    0 -0.71090296240E+01  0.21714945530E+02 -0.94154202886E+01  0.24712897458E+02  0.00000000000E+00 0. -1.
</event>
<event>
 7    1  0.1344618E-011  0.5930194E+02  0.7816164E-02  0.1266605E+00
        -11   -1    0    0    0    0  0.00000000000E+00  0.00000000000E+00  0.45593999997E+02  0.45594000000E+02  0.51100000000E-03 0.  1.
         11   -1    0    0    0    0 -0.00000000000E+00 -0.00000000000E+00 -0.45593999997E+02  0.45594000000E+02  0.51100000000E-03 0. -1.
    9900012    2    1    2    0    0  0.55036131434E+00 -0.30110323429E+02 -0.10477896617E+02  0.59301940474E+02  0.49999993519E+02 0.  0.
        -12    1    1    2    0    0 -0.55036131434E+00  0.30110323429E+02  0.10477896617E+02  0.31886059526E+02  0.00000000000E+00 0.  1.
         11    1    3    3    0    0  0.13319861141E+02 -0.16740657113E+02 -0.72789480776E+01  0.22597596925E+02  0.51100000000E-03 0. -1.
        -11    1    3    3    0    0 -0.39847348520E+01 -0.37151155307E+01 -0.16914538806E+02  0.17770250942E+02  0.51100000000E-03 0.  1.
        -12    1    3    3    0    0 -0.87847649750E+01 -0.96545507850E+01  0.13715590266E+02  0.18934092608E+02  0.00000000000E+00 0.  1.
</event>
<event>
 7    1  0.1344618E-011  0.5930208E+02  0.7816164E-02  0.1266604E+00
        -11   -1    0    0    0    0  0.00000000000E+00  0.00000000000E+00  0.45593999997E+02  0.45594000000E+02  0.51100000000E-03 0.  1.
         11   -1    0    0    0    0 -0.00000000000E+00 -0.00000000000E+00 -0.45593999997E+02  0.45594000000E+02  0.51100000000E-03 0. -1.
    9900012    2    1    2    0    0 -0.29223150619E+02  0.12086579552E+02  0.40784787096E+01  0.59302079503E+02  0.50000247074E+02 0.  0.
        -12    1    1    2    0    0  0.29223150619E+02 -0.12086579552E+02 -0.40784787096E+01  0.31885920497E+02  0.00000000000E+00 0.  1.
         11    1    3    3    0    0 -0.20952413425E+02  0.15693862150E+02  0.26997961485E+01  0.26317101608E+02  0.51100000000E-03 0. -1.
        -11    1    3    3    0    0 -0.69197142893E+01 -0.76923377874E+01 -0.13777418970E+02  0.17229967505E+02  0.51100000000E-03 0.  1.
        -12    1    3    3    0    0 -0.13510229042E+01  0.40850551893E+01  0.15156101531E+02  0.15755010391E+02  0.00000000000E+00 0.  1.
</event>
<event>
 7    1  0.1344618E-011  0.5930194E+02  0.7816164E-02  0.1266605E+00
        -11   -1    0    0    0    0  0.00000000000E+00  0.00000000000E+00  0.45593999997E+02  0.45594000000E+02  0.51100000000E-03 0.  1.
         11   -1    0    0    0    0 -0.00000000000E+00 -0.00000000000E+00 -0.45593999997E+02  0.45594000000E+02  0.51100000000E-03 0. -1.
    9900012    2    1    2    0    0  0.14109757421E+02  0.15609285399E+02 -0.23957998822E+02  0.59301941092E+02  0.49999994646E+02 0.  0.
        -12    1    1    2    0    0 -0.14109757421E+02 -0.15609285399E+02  0.23957998822E+02  0.31886058908E+02  0.00000000000E+00 0.  1.
         11    1    3    3    0    0  0.16445516184E+02  0.45459775838E+01 -0.21622418454E+01  0.17198726837E+02  0.51100000000E-03 0. -1.
        -11    1    3    3    0    0 -0.10434888231E+02  0.19975083638E+02 -0.83009162442E+01  0.24016579055E+02  0.51100000000E-03 0.  1.
         12    1    3    3    0    0  0.80991294680E+01 -0.89117758232E+01 -0.13494840732E+02  0.18086635200E+02  0.00000000000E+00 0. -1.
</event>
<event>
 7    1  0.1344618E-011  0.5930194E+02  0.7816164E-02  0.1266605E+00
        -11   -1    0    0    0    0  0.00000000000E+00  0.00000000000E+00  0.45593999997E+02  0.45594000000E+02  0.51100000000E-03 0.  1.
         11   -1    0    0    0    0 -0.00000000000E+00 -0.00000000000E+00 -0.45593999997E+02  0.45594000000E+02  0.51100000000E-03 0. -1.
    9900012    2    1    2    0    0  0.18599008212E+02  0.25604267401E+02  0.39011644271E+01  0.59301941926E+02  0.49999996168E+02 0.  0.
        -12    1    1    2    0    0 -0.18599008212E+02 -0.25604267401E+02 -0.39011644271E+01  0.31886058074E+02  0.00000000000E+00 0.  1.
         11    1    3    3    0    0  0.30269487124E+02  0.17663900128E+02  0.13212906237E+02  0.37454453807E+02  0.51100000000E-03 0. -1.
        -11    1    3    3    0    0  0.67840228331E+00  0.16677062441E+01 -0.76949534442E+01  0.79027705613E+01  0.51100000000E-03 0.  1.
        -12    1    3    3    0    0 -0.12348881195E+02  0.62726610283E+01 -0.16167883657E+01  0.13944717558E+02  0.00000000000E+00 0.  1.
</event>
<event>
 7    1  0.1344618E-011  0.5930192E+02  0.7816164E-02  0.1266605E+00
        -11   -1    0    0    0    0  0.00000000000E+00  0.00000000000E+00  0.45593999997E+02  0.45594000000E+02  0.51100000000E-03 0.  1.
         11   -1    0    0    0    0 -0.00000000000E+00 -0.00000000000E+00 -0.45593999997E+02  0.45594000000E+02  0.51100000000E-03 0. -1.
    9900012    2    1    2    0    0  0.30439701995E+02  0.45025145779E+01 -0.83590580423E+01  0.59301922374E+02  0.49999960508E+02 0.  0.
        -12    1    1    2    0    0 -0.30439701995E+02 -0.45025145779E+01  0.83590580423E+01  0.31886077626E+02  0.00000000000E+00 0.  1.
         11    1    3    3    0    0 -0.16672905460E+01 -0.43415930391E+01  0.98730975599E+01  0.10913631090E+02  0.51100000000E-03 0. -1.
        -11    1    3    3    0    0 -0.22582103189E+01  0.99994822732E+01 -0.23721085439E+01  0.10522169870E+02  0.51100000000E-03 0.  1.
         12    1    3    3    0    0  0.34365202860E+02 -0.11553746562E+01 -0.15860047058E+02  0.37866121413E+02  0.00000000000E+00 0. -1.
</event>
<event>
 7    1  0.1344618E-011  0.5930194E+02  0.7816164E-02  0.1266605E+00
        -11   -1    0    0    0    0  0.00000000000E+00  0.00000000000E+00  0.45593999997E+02  0.45594000000E+02  0.51100000000E-03 0.  1.
         11   -1    0    0    0    0 -0.00000000000E+00 -0.00000000000E+00 -0.45593999997E+02  0.45594000000E+02  0.51100000000E-03 0. -1.
    9900012    2    1    2    0    0  0.61958700829E+01 -0.14626017587E+02 -0.27647990297E+02  0.59301944051E+02  0.50000000042E+02 0.  0.
        -12    1    1    2    0    0 -0.61958700829E+01  0.14626017587E+02  0.27647990297E+02  0.31886055949E+02  0.00000000000E+00 0.  1.
         11    1    3    3    0    0 -0.78802762364E+01 -0.31969939013E+01 -0.24630307009E+02  0.26057082477E+02  0.51100000000E-03 0. -1.
        -11    1    3    3    0    0  0.17403066007E+01  0.66555749608E+01  0.64165210758E+01  0.94072890941E+01  0.51100000000E-03 0.  1.
        -12    1    3    3    0    0  0.12335839719E+02 -0.18084598646E+02 -0.94342043636E+01  0.23837572480E+02  0.00000000000E+00 0.  1.
</event>
<event>
 7    1  0.1344618E-011  0.5930195E+02  0.7816164E-02  0.1266605E+00
        -11   -1    0    0    0    0  0.00000000000E+00  0.00000000000E+00  0.45593999997E+02  0.45594000000E+02  0.51100000000E-03 0.  1.
         11   -1    0    0    0    0 -0.00000000000E+00 -0.00000000000E+00 -0.45593999997E+02  0.45594000000E+02  0.51100000000E-03 0. -1.
    9900012    2    1    2    0    0 -0.25196310350E+02 -0.17594062003E+02 -0.85038426618E+01  0.59301946417E+02  0.50000004358E+02 0.  0.
        -12    1    1    2    0    0  0.25196310350E+02  0.17594062003E+02  0.85038426618E+01  0.31886053583E+02  0.00000000000E+00 0.  1.
         11    1    3    3    0    0 -0.73626531574E+01 -0.97252754843E+01 -0.20606975690E+01  0.12370776835E+02  0.51100000000E-03 0. -1.
        -11    1    3    3    0    0  0.13081306051E+02 -0.66405380368E+01  0.21345841579E+01  0.14824768572E+02  0.51100000000E-03 0.  1.
         12    1    3    3    0    0 -0.30914963245E+02 -0.12282484821E+01 -0.85777292508E+01  0.32106401010E+02  0.00000000000E+00 0. -1.
</event>
<event>
 7    1  0.1344618E-011  0.5930194E+02  0.7816164E-02  0.1266605E+00
        -11   -1    0    0    0    0  0.00000000000E+00  0.00000000000E+00  0.45593999997E+02  0.45594000000E+02  0.51100000000E-03 0.  1.
         11   -1    0    0    0    0 -0.00000000000E+00 -0.00000000000E+00 -0.45593999997E+02  0.45594000000E+02  0.51100000000E-03 0. -1.
    9900012    2    1    2    0    0 -0.11664302725E+02  0.88889595936E+01 -0.28313446584E+02  0.59301940065E+02  0.49999992773E+02 0.  0.
        -12    1    1    2    0    0  0.11664302725E+02 -0.88889595936E+01  0.28313446584E+02  0.31886059935E+02  0.00000000000E+00 0.  1.
         11    1    3    3    0    0 -0.73378865084E+01  0.48282145531E+00  0.21768245596E+01  0.76691759917E+01  0.51100000000E-03 0. -1.
        -11    1    3    3    0    0 -0.86114605256E+01  0.22075677981E+02 -0.80809712419E+01  0.25035872407E+02  0.51100000000E-03 0.  1.
         12    1    3    3    0    0  0.42850443086E+01 -0.13669539843E+02 -0.22409299901E+02  0.26596891666E+02  0.00000000000E+00 0. -1.
</event>
<event>
 7    1  0.1344618E-011  0.5930195E+02  0.7816164E-02  0.1266605E+00
        -11   -1    0    0    0    0  0.00000000000E+00  0.00000000000E+00  0.45593999997E+02  0.45594000000E+02  0.51100000000E-03 0. -1.
         11   -1    0    0    0    0 -0.00000000000E+00 -0.00000000000E+00 -0.45593999997E+02  0.45594000000E+02  0.51100000000E-03 0.  1.
    9900012    2    1    2    0    0 -0.61683909730E+01 -0.30089406151E+02 -0.85614634174E+01  0.59301951867E+02  0.50000014297E+02 0.  0.
        -12    1    1    2    0    0  0.61683909730E+01  0.30089406151E+02  0.85614634174E+01  0.31886048133E+02  0.00000000000E+00 0.  1.
         11    1    3    3    0    0 -0.12841556943E+02  0.55348076051E+01  0.25388261148E+01  0.14212153892E+02  0.51100000000E-03 0. -1.
        -11    1    3    3    0    0  0.13613243502E+02 -0.94097071223E+01 -0.33252421803E+01  0.16879580048E+02  0.51100000000E-03 0.  1.
        -12    1    3    3    0    0 -0.69400775314E+01 -0.26214506633E+02 -0.77750473519E+01  0.28210217927E+02  0.00000000000E+00 0.  1.
</event>
<event>
 7    1  0.1344618E-011  0.5930188E+02  0.7816164E-02  0.1266605E+00
        -11   -1    0    0    0    0  0.00000000000E+00  0.00000000000E+00  0.45593999997E+02  0.45594000000E+02  0.51100000000E-03 0.  1.
         11   -1    0    0    0    0 -0.00000000000E+00 -0.00000000000E+00 -0.45593999997E+02  0.45594000000E+02  0.51100000000E-03 0. -1.
    9900012    2    1    2    0    0  0.31860843096E+02  0.21994231786E+00 -0.12501552215E+01  0.59301880990E+02  0.49999885034E+02 0.  0.
        -12    1    1    2    0    0 -0.31860843096E+02 -0.21994231786E+00  0.12501552215E+01  0.31886119010E+02  0.00000000000E+00 0.  1.
         11    1    3    3    0    0 -0.62394766532E+01  0.89997475667E+01 -0.28503342907E+01  0.11315959129E+02  0.51100000000E-03 0. -1.
        -11    1    3    3    0    0 -0.75367975006E+00  0.27558672420E+01  0.65581786192E+01  0.71534987582E+01  0.51100000000E-03 0.  1.
         12    1    3    3    0    0  0.38853999500E+02 -0.11535672491E+02 -0.49579995500E+01  0.40832423103E+02  0.00000000000E+00 0. -1.
</event>
<event>
 7    1  0.1344618E-011  0.5930196E+02  0.7816164E-02  0.1266605E+00
        -11   -1    0    0    0    0  0.00000000000E+00  0.00000000000E+00  0.45593999997E+02  0.45594000000E+02  0.51100000000E-03 0.  1.
         11   -1    0    0    0    0 -0.00000000000E+00 -0.00000000000E+00 -0.45593999997E+02  0.45594000000E+02  0.51100000000E-03 0. -1.
    9900012    2    1    2    0    0 -0.32795636371E+01  0.12279555193E+02 -0.29243398477E+02  0.59301962807E+02  0.50000034249E+02 0.  0.
        -12    1    1    2    0    0  0.32795636371E+01 -0.12279555193E+02  0.29243398477E+02  0.31886037193E+02  0.00000000000E+00 0.  1.
         11    1    3    3    0    0 -0.13618964522E+02  0.67633232326E+01 -0.78627251402E+01  0.17118445686E+02  0.51100000000E-03 0. -1.
        -11    1    3    3    0    0 -0.10111930693E+02 -0.60002676299E+01 -0.12303205030E+02  0.17018319784E+02  0.51100000000E-03 0.  1.
        -12    1    3    3    0    0  0.20451331579E+02  0.11516499591E+02 -0.90774683064E+01  0.25165197337E+02  0.00000000000E+00 0.  1.
</event>
<event>
 7    1  0.1344618E-011  0.5930195E+02  0.7816164E-02  0.1266605E+00
        -11   -1    0    0    0    0  0.00000000000E+00  0.00000000000E+00  0.45593999997E+02  0.45594000000E+02  0.51100000000E-03 0.  1.
         11   -1    0    0    0    0 -0.00000000000E+00 -0.00000000000E+00 -0.45593999997E+02  0.45594000000E+02  0.51100000000E-03 0. -1.
    9900012    2    1    2    0    0  0.11965532145E+02 -0.18671344673E+02  0.22911283915E+02  0.59301952863E+02  0.50000016113E+02 0.  0.
        -12    1    1    2    0    0 -0.11965532145E+02  0.18671344673E+02 -0.22911283915E+02  0.31886047137E+02  0.00000000000E+00 0.  1.
         11    1    3    3    0    0  0.69848078425E+01  0.13139992183E+00 -0.11846284848E+01  0.70857710551E+01  0.51100000000E-03 0. -1.
        -11    1    3    3    0    0  0.14654466479E+02  0.18434504271E+01 -0.46880540563E+01  0.15496113976E+02  0.51100000000E-03 0.  1.
        -12    1    3    3    0    0 -0.96737421768E+01 -0.20646195022E+02  0.28783966456E+02  0.36720067831E+02  0.00000000000E+00 0.  1.
</event>
<event>
 7    1  0.1344618E-011  0.5930215E+02  0.7816164E-02  0.1266604E+00
        -11   -1    0    0    0    0  0.00000000000E+00  0.00000000000E+00  0.45593999997E+02  0.45594000000E+02  0.51100000000E-03 0.  1.
         11   -1    0    0    0    0 -0.00000000000E+00 -0.00000000000E+00 -0.45593999997E+02  0.45594000000E+02  0.51100000000E-03 0. -1.
    9900012    2    1    2    0    0 -0.22280224189E+02  0.16268714135E+02 -0.15988367194E+02  0.59302151492E+02  0.50000378364E+02 0.  0.
        -12    1    1    2    0    0  0.22280224189E+02 -0.16268714135E+02  0.15988367194E+02  0.31885848508E+02  0.00000000000E+00 0.  1.
         11    1    3    3    0    0 -0.40459607968E+01  0.21319748197E+02  0.60202911026E+01  0.22519888258E+02  0.51100000000E-03 0.  1.
        -11    1    3    3    0    0 -0.11038785142E+02  0.18651664894E+01 -0.24110536021E+02  0.26582918781E+02  0.51100000000E-03 0. -1.
        -12    1    3    3    0    0 -0.71954782505E+01 -0.69162005506E+01  0.21018777246E+01  0.10199344453E+02  0.00000000000E+00 0.  1.
</event>
<event>
 7    1  0.1344618E-011  0.5930195E+02  0.7816164E-02  0.1266605E+00
        -11   -1    0    0    0    0  0.00000000000E+00  0.00000000000E+00  0.45593999997E+02  0.45594000000E+02  0.51100000000E-03 0.  1.
         11   -1    0    0    0    0 -0.00000000000E+00 -0.00000000000E+00 -0.45593999997E+02  0.45594000000E+02  0.51100000000E-03 0. -1.
    9900012    2    1    2    0    0 -0.22923868478E+02 -0.20075228910E+02 -0.93915854132E+01  0.59301946021E+02  0.50000003636E+02 0.  0.
        -12    1    1    2    0    0  0.22923868478E+02  0.20075228910E+02  0.93915854132E+01  0.31886053979E+02  0.00000000000E+00 0.  1.
         11    1    3    3    0    0  0.17803486022E+01  0.25614782189E+00  0.57970225304E+00  0.18897904157E+01  0.51100000000E-03 0. -1.
        -11    1    3    3    0    0  0.12790741497E+02 -0.94581427135E+01  0.31688256771E+01  0.16220388037E+02  0.51100000000E-03 0.  1.
         12    1    3    3    0    0 -0.37494958577E+02 -0.10873234018E+02 -0.13140113343E+02  0.41191767568E+02  0.00000000000E+00 0. -1.
</event>
<event>
 7    1  0.1344618E-011  0.5930193E+02  0.7816164E-02  0.1266605E+00
        -11   -1    0    0    0    0  0.00000000000E+00  0.00000000000E+00  0.45593999997E+02  0.45594000000E+02  0.51100000000E-03 0. -1.
         11   -1    0    0    0    0 -0.00000000000E+00 -0.00000000000E+00 -0.45593999997E+02  0.45594000000E+02  0.51100000000E-03 0.  1.
    9900012    2    1    2    0    0  0.33731128344E+01  0.31053740670E+02  0.64037842759E+01  0.59301934817E+02  0.49999983202E+02 0.  0.
        -12    1    1    2    0    0 -0.33731128344E+01 -0.31053740670E+02 -0.64037842759E+01  0.31886065183E+02  0.00000000000E+00 0.  1.
         11    1    3    3    0    0 -0.85183681489E+01  0.56789446635E+01  0.12021694911E+02  0.15790318465E+02  0.51100000000E-03 0. -1.
        -11    1    3    3    0    0  0.81747472084E+01  0.29155286624E+02  0.58845909629E+01  0.30846160881E+02  0.51100000000E-03 0.  1.
        -12    1    3    3    0    0  0.37167337749E+01 -0.37804906172E+01 -0.11502501598E+02  0.12665455471E+02  0.00000000000E+00 0.  1.
</event>
<event>
 7    1  0.1344618E-011  0.5930191E+02  0.7816164E-02  0.1266605E+00
        -11   -1    0    0    0    0  0.00000000000E+00  0.00000000000E+00  0.45593999997E+02  0.45594000000E+02  0.51100000000E-03 0.  1.
         11   -1    0    0    0    0 -0.00000000000E+00 -0.00000000000E+00 -0.45593999997E+02  0.45594000000E+02  0.51100000000E-03 0. -1.
    9900012    2    1    2    0    0  0.47620645637E+01  0.17731420919E+02 -0.26069942536E+02  0.59301914468E+02  0.49999946090E+02 0.  0.
        -12    1    1    2    0    0 -0.47620645637E+01 -0.17731420919E+02  0.26069942536E+02  0.31886085532E+02  0.00000000000E+00 0.  1.
         11    1    3    3    0    0  0.99403347383E+00  0.27871644211E+01 -0.94504852655E+01  0.99029318927E+01  0.51100000000E-03 0. -1.
        -11    1    3    3    0    0  0.20870741463E+02 -0.36113629553E+01 -0.92262379726E+01  0.23103100636E+02  0.51100000000E-03 0.  1.
        -12    1    3    3    0    0 -0.17102710373E+02  0.18555619453E+02 -0.73932192983E+01  0.26295881939E+02  0.00000000000E+00 0.  1.
</event>
<event>
 7    1  0.1475156E-011  0.5930195E+02  0.7816164E-02  0.1266605E+00
        -11   -1    0    0    0    0  0.00000000000E+00  0.00000000000E+00  0.45593999997E+02  0.45594000000E+02  0.51100000000E-03 0.  1.
         11   -1    0    0    0    0 -0.00000000000E+00 -0.00000000000E+00 -0.45593999997E+02  0.45594000000E+02  0.51100000000E-03 0. -1.
    9900012    2    1    2    0    0  0.33616171237E+01 -0.24792289603E+02  0.19767705572E+02  0.59301948551E+02  0.50000008249E+02 0.  0.
        -12    1    1    2    0    0 -0.33616171237E+01  0.24792289603E+02 -0.19767705572E+02  0.31886051449E+02  0.00000000000E+00 0.  1.
         11    1    3    3    0    0  0.39412217103E+01 -0.12345696781E+02  0.17865826424E+02  0.22071185099E+02  0.51100000000E-03 0. -1.
        -11    1    3    3    0    0 -0.58035426436E+01 -0.12942294866E+02  0.16476242449E+02  0.21740530562E+02  0.51100000000E-03 0.  1.
        -12    1    3    3    0    0  0.52239380570E+01  0.49570204348E+00 -0.14574363302E+02  0.15490232890E+02  0.00000000000E+00 0.  1.
</event>
<event>
 7    1  0.1344618E-011  0.5930193E+02  0.7816164E-02  0.1266605E+00
        -11   -1    0    0    0    0  0.00000000000E+00  0.00000000000E+00  0.45593999997E+02  0.45594000000E+02  0.51100000000E-03 0. -1.
         11   -1    0    0    0    0 -0.00000000000E+00 -0.00000000000E+00 -0.45593999997E+02  0.45594000000E+02  0.51100000000E-03 0.  1.
    9900012    2    1    2    0    0  0.24103236372E+02 -0.97743882854E+01  0.18444957884E+02  0.59301934999E+02  0.49999983533E+02 0.  0.
        -12    1    1    2    0    0 -0.24103236372E+02  0.97743882854E+01 -0.18444957884E+02  0.31886065001E+02  0.00000000000E+00 0.  1.
         11    1    3    3    0    0  0.27793014791E+02 -0.35437816009E+01  0.14899193203E+02  0.31733200556E+02  0.51100000000E-03 0. -1.
        -11    1    3    3    0    0  0.69979415811E+01 -0.12446391267E+02  0.49793789531E+01  0.15122104912E+02  0.51100000000E-03 0.  1.
        -12    1    3    3    0    0 -0.10687720000E+02  0.62157845829E+01 -0.14336142724E+01  0.12446629530E+02  0.00000000000E+00 0.  1.
</event>
<event>
 7    1  0.1344618E-011  0.5930191E+02  0.7816164E-02  0.1266605E+00
        -11   -1    0    0    0    0  0.00000000000E+00  0.00000000000E+00  0.45593999997E+02  0.45594000000E+02  0.51100000000E-03 0.  1.
         11   -1    0    0    0    0 -0.00000000000E+00 -0.00000000000E+00 -0.45593999997E+02  0.45594000000E+02  0.51100000000E-03 0. -1.
    9900012    2    1    2    0    0 -0.16268262434E+02 -0.25971250586E+02 -0.88068440749E+01  0.59301910209E+02  0.49999938323E+02 0.  0.
        -12    1    1    2    0    0  0.16268262434E+02  0.25971250586E+02  0.88068440749E+01  0.31886089791E+02  0.00000000000E+00 0.  1.
         11    1    3    3    0    0  0.43798459512E+01 -0.13245180982E+02 -0.16645766518E+02  0.21718642062E+02  0.51100000000E-03 0. -1.
        -11    1    3    3    0    0  0.82304850381E+00 -0.97534816447E+01  0.12026758860E+02  0.15506474195E+02  0.51100000000E-03 0.  1.
         12    1    3    3    0    0 -0.21471156889E+02 -0.29725879592E+01 -0.41878364171E+01  0.22076793951E+02  0.00000000000E+00 0. -1.
</event>
<event>
 7    1  0.1344618E-011  0.5930194E+02  0.7816164E-02  0.1266605E+00
        -11   -1    0    0    0    0  0.00000000000E+00  0.00000000000E+00  0.45593999997E+02  0.45594000000E+02  0.51100000000E-03 0. -1.
         11   -1    0    0    0    0 -0.00000000000E+00 -0.00000000000E+00 -0.45593999997E+02  0.45594000000E+02  0.51100000000E-03 0.  1.
    9900012    2    1    2    0    0  0.63489306550E+01  0.34562255442E+01  0.31055863163E+02  0.59301936394E+02  0.49999986079E+02 0.  0.
        -12    1    1    2    0    0 -0.63489306550E+01 -0.34562255442E+01 -0.31055863163E+02  0.31886063606E+02  0.00000000000E+00 0.  1.
         11    1    3    3    0    0  0.81989258702E+00 -0.10303155703E+01 -0.81869241637E+01  0.82921349212E+01  0.51100000000E-03 0. -1.
        -11    1    3    3    0    0  0.13480075364E+02 -0.42261177503E+01  0.53211693749E+01  0.15095938091E+02  0.51100000000E-03 0.  1.
         12    1    3    3    0    0 -0.79510372965E+01  0.87126588648E+01  0.33921617952E+02  0.35913863382E+02  0.00000000000E+00 0. -1.
</event>
<event>
 7    1  0.1344618E-011  0.5930194E+02  0.7816164E-02  0.1266605E+00
        -11   -1    0    0    0    0  0.00000000000E+00  0.00000000000E+00  0.45593999997E+02  0.45594000000E+02  0.51100000000E-03 0.  1.
         11   -1    0    0    0    0 -0.00000000000E+00 -0.00000000000E+00 -0.45593999997E+02  0.45594000000E+02  0.51100000000E-03 0. -1.
    9900012    2    1    2    0    0  0.91668629208E+01 -0.18823277391E+02 -0.24049403660E+02  0.59301937779E+02  0.49999988604E+02 0.  0.
        -12    1    1    2    0    0 -0.91668629208E+01  0.18823277391E+02  0.24049403660E+02  0.31886062221E+02  0.00000000000E+00 0.  1.
         11    1    3    3    0    0 -0.65447664259E+01 -0.11266754020E+00 -0.88382084005E+00  0.66051344485E+01  0.51100000000E-03 0. -1.
        -11    1    3    3    0    0 -0.11176907533E+02 -0.14421044370E+01  0.26953570568E+01  0.11587401656E+02  0.51100000000E-03 0.  1.
         12    1    3    3    0    0  0.26888536880E+02 -0.17268505413E+02 -0.25860939877E+02  0.41109401675E+02  0.00000000000E+00 0. -1.
</event>
<event>
 7    1  0.1344618E-011  0.5930190E+02  0.7816164E-02  0.1266605E+00
        -11   -1    0    0    0    0  0.00000000000E+00  0.00000000000E+00  0.45593999997E+02  0.45594000000E+02  0.51100000000E-03 0. -1.
         11   -1    0    0    0    0 -0.00000000000E+00 -0.00000000000E+00 -0.45593999997E+02  0.45594000000E+02  0.51100000000E-03 0.  1.
    9900012    2    1    2    0    0  0.98217504786E+01 -0.23042760523E+02  0.19730377246E+02  0.59301899873E+02  0.49999919473E+02 0.  0.
        -12    1    1    2    0    0 -0.98217504786E+01  0.23042760523E+02 -0.19730377246E+02  0.31886100127E+02  0.00000000000E+00 0.  1.
         11    1    3    3    0    0  0.50052919586E+01  0.17668454208E+01  0.19773002372E+02  0.20473063118E+02  0.51100000000E-03 0. -1.
        -11    1    3    3    0    0  0.19925173776E+01  0.15501496264E+01  0.10125257124E+02  0.10435225031E+02  0.51100000000E-03 0.  1.
        -12    1    3    3    0    0  0.28239411424E+01 -0.26359755571E+02 -0.10167882250E+02  0.28393611725E+02  0.00000000000E+00 0.  1.
</event>
<event>
 7    1  0.1344618E-011  0.5930194E+02  0.7816164E-02  0.1266605E+00
        -11   -1    0    0    0    0  0.00000000000E+00  0.00000000000E+00  0.45593999997E+02  0.45594000000E+02  0.51100000000E-03 0. -1.
         11   -1    0    0    0    0 -0.00000000000E+00 -0.00000000000E+00 -0.45593999997E+02  0.45594000000E+02  0.51100000000E-03 0.  1.
    9900012    2    1    2    0    0 -0.58029797833E+01  0.51470656223E+01  0.30928205876E+02  0.59301940701E+02  0.49999993933E+02 0.  0.
        -12    1    1    2    0    0  0.58029797833E+01 -0.51470656223E+01 -0.30928205876E+02  0.31886059299E+02  0.00000000000E+00 0.  1.
         11    1    3    3    0    0 -0.13059276780E+02  0.95810855581E+01  0.27959126269E+02  0.32311834557E+02  0.51100000000E-03 0. -1.
        -11    1    3    3    0    0 -0.17371652399E+01 -0.67867454665E+01  0.12085957992E+02  0.13969539647E+02  0.51100000000E-03 0.  1.
         12    1    3    3    0    0  0.89934622362E+01  0.23527255308E+01 -0.91168783850E+01  0.13020566497E+02  0.00000000000E+00 0. -1.
</event>
<event>
 7    1  0.1344618E-011  0.5930194E+02  0.7816164E-02  0.1266605E+00
        -11   -1    0    0    0    0  0.00000000000E+00  0.00000000000E+00  0.45593999997E+02  0.45594000000E+02  0.51100000000E-03 0.  1.
         11   -1    0    0    0    0 -0.00000000000E+00 -0.00000000000E+00 -0.45593999997E+02  0.45594000000E+02  0.51100000000E-03 0. -1.
    9900012    2    1    2    0    0 -0.38516650411E+01  0.17270155112E+02 -0.26525975612E+02  0.59301937789E+02  0.49999988622E+02 0.  0.
        -12    1    1    2    0    0  0.38516650411E+01 -0.17270155112E+02  0.26525975612E+02  0.31886062211E+02  0.00000000000E+00 0.  1.
         11    1    3    3    0    0  0.95252741574E+01  0.13726183802E+02 -0.26807772460E+02  0.31587903286E+02  0.51100000000E-03 0. -1.
        -11    1    3    3    0    0  0.29091871124E+00 -0.79571714884E+01  0.47883148986E+01  0.92913492896E+01  0.51100000000E-03 0.  1.
        -12    1    3    3    0    0 -0.13667857910E+02  0.11501142799E+02 -0.45065180506E+01  0.18422685213E+02  0.00000000000E+00 0.  1.
</event>
<event>
 7    1  0.1344618E-011  0.5930193E+02  0.7816164E-02  0.1266605E+00
        -11   -1    0    0    0    0  0.00000000000E+00  0.00000000000E+00  0.45593999997E+02  0.45594000000E+02  0.51100000000E-03 0. -1.
         11   -1    0    0    0    0 -0.00000000000E+00 -0.00000000000E+00 -0.45593999997E+02  0.45594000000E+02  0.51100000000E-03 0.  1.
    9900012    2    1    2    0    0 -0.21851261694E+02  0.21931583187E+02  0.76321212242E+01  0.59301933245E+02  0.49999980335E+02 0.  0.
        -12    1    1    2    0    0  0.21851261694E+02 -0.21931583187E+02 -0.76321212242E+01  0.31886066755E+02  0.00000000000E+00 0.  1.
         11    1    3    3    0    0  0.63619139592E+01  0.60079633036E+01  0.29897513788E+01  0.92470636339E+01  0.51100000000E-03 0. -1.
        -11    1    3    3    0    0 -0.14202189784E+01  0.22417555952E+01 -0.14273460686E+02  0.14518063586E+02  0.51100000000E-03 0.  1.
        -12    1    3    3    0    0 -0.26792956675E+02  0.13681864288E+02  0.18915830531E+02  0.35536806025E+02  0.00000000000E+00 0.  1.
</event>
<event>
 7    1  0.1344618E-011  0.5930194E+02  0.7816164E-02  0.1266605E+00
        -11   -1    0    0    0    0  0.00000000000E+00  0.00000000000E+00  0.45593999997E+02  0.45594000000E+02  0.51100000000E-03 0.  1.
         11   -1    0    0    0    0 -0.00000000000E+00 -0.00000000000E+00 -0.45593999997E+02  0.45594000000E+02  0.51100000000E-03 0. -1.
    9900012    2    1    2    0    0 -0.24061560542E+02 -0.10788200100E+01 -0.20894940584E+02  0.59301935797E+02  0.49999984990E+02 0.  0.
        -12    1    1    2    0    0  0.24061560542E+02  0.10788200100E+01  0.20894940584E+02  0.31886064203E+02  0.00000000000E+00 0.  1.
         11    1    3    3    0    0 -0.17045046014E+02  0.77067022502E+00 -0.87572097869E+01  0.19178536173E+02  0.51100000000E-03 0. -1.
        -11    1    3    3    0    0 -0.18921811857E+01  0.13795297177E+02  0.64052451627E+01  0.15327026446E+02  0.51100000000E-03 0.  1.
         12    1    3    3    0    0 -0.51243333417E+01 -0.15644787412E+02 -0.18542975960E+02  0.24796373178E+02  0.00000000000E+00 0. -1.
</event>
<event>
 7    1  0.1344618E-011  0.5930195E+02  0.7816164E-02  0.1266605E+00
        -11   -1    0    0    0    0  0.00000000000E+00  0.00000000000E+00  0.45593999997E+02  0.45594000000E+02  0.51100000000E-03 0.  1.
         11   -1    0    0    0    0 -0.00000000000E+00 -0.00000000000E+00 -0.45593999997E+02  0.45594000000E+02  0.51100000000E-03 0. -1.
    9900012    2    1    2    0    0 -0.68357404825E+01 -0.77253014735E+01 -0.30171382272E+02  0.59301953851E+02  0.50000017916E+02 0.  0.
        -12    1    1    2    0    0  0.68357404825E+01  0.77253014735E+01  0.30171382272E+02  0.31886046149E+02  0.00000000000E+00 0.  1.
         11    1    3    3    0    0 -0.14023624764E+02  0.83419721076E+01 -0.86955183132E+01  0.18489526472E+02  0.51100000000E-03 0. -1.
        -11    1    3    3    0    0  0.59885420954E+01  0.83307374650E+01 -0.57604632950E+01  0.11766340161E+02  0.51100000000E-03 0.  1.
        -12    1    3    3    0    0  0.11993421863E+01 -0.24398011046E+02 -0.15715400664E+02  0.29046087219E+02  0.00000000000E+00 0.  1.
</event>
<event>
 7    1  0.1344618E-011  0.5930191E+02  0.7816164E-02  0.1266605E+00
        -11   -1    0    0    0    0  0.00000000000E+00  0.00000000000E+00  0.45593999997E+02  0.45594000000E+02  0.51100000000E-03 0.  1.
         11   -1    0    0    0    0 -0.00000000000E+00 -0.00000000000E+00 -0.45593999997E+02  0.45594000000E+02  0.51100000000E-03 0. -1.
    9900012    2    1    2    0    0  0.13185255781E+02 -0.54489418624E+01 -0.28516328433E+02  0.59301907032E+02  0.49999932529E+02 0.  0.
        -12    1    1    2    0    0 -0.13185255781E+02  0.54489418624E+01  0.28516328433E+02  0.31886092968E+02  0.00000000000E+00 0.  1.
         11    1    3    3    0    0 -0.65649221658E+01  0.10609402543E+02 -0.14241082849E+02  0.18933200108E+02  0.51100000000E-03 0. -1.
        -11    1    3    3    0    0 -0.66362478204E+00  0.39337657627E+01 -0.10887931271E+02  0.11595773305E+02  0.51100000000E-03 0.  1.
         12    1    3    3    0    0  0.20413802729E+02 -0.19992110168E+02 -0.33873143134E+01  0.28772933619E+02  0.00000000000E+00 0. -1.
</event>
<event>
 7    1  0.1344618E-011  0.5930198E+02  0.7816164E-02  0.1266605E+00
        -11   -1    0    0    0    0  0.00000000000E+00  0.00000000000E+00  0.45593999997E+02  0.45594000000E+02  0.51100000000E-03 0.  1.
         11   -1    0    0    0    0 -0.00000000000E+00 -0.00000000000E+00 -0.45593999997E+02  0.45594000000E+02  0.51100000000E-03 0. -1.
    9900012    2    1    2    0    0  0.21590508855E+02  0.54581574549E+00 -0.23457834480E+02  0.59301984477E+02  0.50000073770E+02 0.  0.
        -12    1    1    2    0    0 -0.21590508855E+02 -0.54581574549E+00  0.23457834480E+02  0.31886015523E+02  0.00000000000E+00 0.  1.
         11    1    3    3    0    0 -0.81886281530E+01 -0.42896972714E+01 -0.20193991698E+02  0.22209287127E+02  0.51100000000E-03 0. -1.
        -11    1    3    3    0    0  0.19879926536E+01  0.61634139604E+01  0.48727190715E+01  0.81045158923E+01  0.51100000000E-03 0.  1.
        -12    1    3    3    0    0  0.27791144355E+02 -0.13279009435E+01 -0.81365618525E+01  0.28988181458E+02  0.00000000000E+00 0.  1.
</event>
<event>
 7    1  0.1344618E-011  0.5930192E+02  0.7816164E-02  0.1266605E+00
        -11   -1    0    0    0    0  0.00000000000E+00  0.00000000000E+00  0.45593999997E+02  0.45594000000E+02  0.51100000000E-03 0.  1.
         11   -1    0    0    0    0 -0.00000000000E+00 -0.00000000000E+00 -0.45593999997E+02  0.45594000000E+02  0.51100000000E-03 0. -1.
    9900012    2    1    2    0    0  0.10606829772E+01 -0.24154075084E+02 -0.20788881520E+02  0.59301921746E+02  0.49999959364E+02 0.  0.
        -12    1    1    2    0    0 -0.10606829772E+01  0.24154075084E+02  0.20788881520E+02  0.31886078254E+02  0.00000000000E+00 0.  1.
         11    1    3    3    0    0 -0.36659505949E+01  0.16405004865E+01 -0.51541392321E+01  0.65341860316E+01  0.51100000000E-03 0. -1.
        -11    1    3    3    0    0 -0.69184277930E+01  0.29864625754E+00 -0.22364531677E+02  0.23412093245E+02  0.51100000000E-03 0.  1.
        -12    1    3    3    0    0  0.11645061365E+02 -0.26093221828E+02  0.67297893893E+01  0.29355642469E+02  0.00000000000E+00 0.  1.
</event>
<event>
 7    1  0.1344618E-011  0.5930197E+02  0.7816164E-02  0.1266605E+00
        -11   -1    0    0    0    0  0.00000000000E+00  0.00000000000E+00  0.45593999997E+02  0.45594000000E+02  0.51100000000E-03 0.  1.
         11   -1    0    0    0    0 -0.00000000000E+00 -0.00000000000E+00 -0.45593999997E+02  0.45594000000E+02  0.51100000000E-03 0. -1.
    9900012    2    1    2    0    0 -0.16782254763E+02 -0.28714741137E+01 -0.26959773429E+02  0.59301971369E+02  0.50000049864E+02 0.  0.
        -12    1    1    2    0    0  0.16782254763E+02  0.28714741137E+01  0.26959773429E+02  0.31886028631E+02  0.00000000000E+00 0.  1.
         11    1    3    3    0    0 -0.54421965543E+01 -0.69988527606E+01  0.73737335502E+01  0.11531408848E+02  0.51100000000E-03 0. -1.
        -11    1    3    3    0    0 -0.10725095108E+02 -0.70683377652E+01 -0.13289378418E+01  0.12913370586E+02  0.51100000000E-03 0.  1.
        -12    1    3    3    0    0 -0.61496310002E+00  0.11195716412E+02 -0.33004569138E+02  0.34857191934E+02  0.00000000000E+00 0.  1.
</event>
<event>
 7    1  0.1344618E-011  0.5930194E+02  0.7816164E-02  0.1266605E+00
        -11   -1    0    0    0    0  0.00000000000E+00  0.00000000000E+00  0.45593999997E+02  0.45594000000E+02  0.51100000000E-03 0. -1.
         11   -1    0    0    0    0 -0.00000000000E+00 -0.00000000000E+00 -0.45593999997E+02  0.45594000000E+02  0.51100000000E-03 0.  1.
    9900012    2    1    2    0    0  0.84122313531E+00 -0.30577116729E+02  0.90029569704E+01  0.59301937872E+02  0.49999988773E+02 0.  0.
        -12    1    1    2    0    0 -0.84122313531E+00  0.30577116729E+02 -0.90029569704E+01  0.31886062128E+02  0.00000000000E+00 0.  1.
         11    1    3    3    0    0 -0.62696969130E+01 -0.13353686947E+02  0.36567428565E+01  0.15198744127E+02  0.51100000000E-03 0. -1.
        -11    1    3    3    0    0 -0.12134686715E+02 -0.20038097781E+02  0.73449093615E+01  0.24550431323E+02  0.51100000000E-03 0.  1.
        -12    1    3    3    0    0  0.19245606764E+02  0.28146679984E+01 -0.19986952476E+01  0.19552762422E+02  0.00000000000E+00 0.  1.
</event>
<event>
 7    1  0.1344618E-011  0.5930197E+02  0.7816164E-02  0.1266605E+00
        -11   -1    0    0    0    0  0.00000000000E+00  0.00000000000E+00  0.45593999997E+02  0.45594000000E+02  0.51100000000E-03 0.  1.
         11   -1    0    0    0    0 -0.00000000000E+00 -0.00000000000E+00 -0.45593999997E+02  0.45594000000E+02  0.51100000000E-03 0. -1.
    9900012    2    1    2    0    0  0.27297627764E+02 -0.13689528036E+02 -0.91736034425E+01  0.59301973915E+02  0.50000054507E+02 0.  0.
        -12    1    1    2    0    0 -0.27297627764E+02  0.13689528036E+02  0.91736034425E+01  0.31886026085E+02  0.00000000000E+00 0.  1.
         11    1    3    3    0    0  0.89460544743E+01 -0.29372775287E+02 -0.92730972784E+01  0.32074634091E+02  0.51100000000E-03 0. -1.
        -11    1    3    3    0    0  0.10218760464E+02  0.78995571089E+00 -0.29673416382E+00  0.10253543137E+02  0.51100000000E-03 0.  1.
        -12    1    3    3    0    0  0.81328128258E+01  0.14893291539E+02  0.39622799977E+00  0.16973796687E+02  0.00000000000E+00 0.  1.
</event>
<event>
 7    1  0.1344618E-011  0.5930188E+02  0.7816164E-02  0.1266605E+00
        -11   -1    0    0    0    0  0.00000000000E+00  0.00000000000E+00  0.45593999997E+02  0.45594000000E+02  0.51100000000E-03 0.  1.
         11   -1    0    0    0    0 -0.00000000000E+00 -0.00000000000E+00 -0.45593999997E+02  0.45594000000E+02  0.51100000000E-03 0. -1.
    9900012    2    1    2    0    0 -0.12656675915E+02 -0.26470406120E+02  0.12484021736E+02  0.59301880072E+02  0.49999883359E+02 0.  0.
        -12    1    1    2    0    0  0.12656675915E+02  0.26470406120E+02 -0.12484021736E+02  0.31886119928E+02  0.00000000000E+00 0.  1.
         11    1    3    3    0    0  0.38329853754E+01 -0.51614547035E+01 -0.55576370870E+01  0.84982187426E+01  0.51100000000E-03 0. -1.
        -11    1    3    3    0    0  0.71742318749E+01 -0.77345110155E+00  0.18085389313E+02  0.19471752270E+02  0.51100000000E-03 0.  1.
         12    1    3    3    0    0 -0.23663893165E+02 -0.20535500315E+02 -0.43730490399E-01  0.31331909059E+02  0.00000000000E+00 0. -1.
</event>
<event>
 7    1  0.1344618E-011  0.5930195E+02  0.7816164E-02  0.1266605E+00
        -11   -1    0    0    0    0  0.00000000000E+00  0.00000000000E+00  0.45593999997E+02  0.45594000000E+02  0.51100000000E-03 0. -1.
         11   -1    0    0    0    0 -0.00000000000E+00 -0.00000000000E+00 -0.45593999997E+02  0.45594000000E+02  0.51100000000E-03 0.  1.
    9900012    2    1    2    0    0  0.13138029497E+02  0.80728269184E+01  0.27909532771E+02  0.59301947046E+02  0.50000005505E+02 0.  0.
        -12    1    1    2    0    0 -0.13138029497E+02 -0.80728269184E+01 -0.27909532771E+02  0.31886052954E+02  0.00000000000E+00 0.  1.
         11    1    3    3    0    0 -0.69803922498E+01  0.16373300341E+01  0.36265173339E+01  0.80348213319E+01  0.51100000000E-03 0. -1.
        -11    1    3    3    0    0  0.21136779791E+02  0.22966374366E+01 -0.48637057893E+01  0.21810402053E+02  0.51100000000E-03 0.  1.
         12    1    3    3    0    0 -0.10183580442E+01  0.41388594476E+01  0.29146721226E+02  0.29456723661E+02  0.00000000000E+00 0. -1.
</event>
<event>
 7    1  0.1344618E-011  0.5930193E+02  0.7816164E-02  0.1266605E+00
        -11   -1    0    0    0    0  0.00000000000E+00  0.00000000000E+00  0.45593999997E+02  0.45594000000E+02  0.51100000000E-03 0.  1.
         11   -1    0    0    0    0 -0.00000000000E+00 -0.00000000000E+00 -0.45593999997E+02  0.45594000000E+02  0.51100000000E-03 0. -1.
    9900012    2    1    2    0    0 -0.24437286020E+02  0.19373381975E+02 -0.66492484742E+01  0.59301931217E+02  0.49999976636E+02 0.  0.
        -12    1    1    2    0    0  0.24437286020E+02 -0.19373381975E+02  0.66492484742E+01  0.31886068783E+02  0.00000000000E+00 0.  1.
         11    1    3    3    0    0 -0.19726613322E+02  0.13610730506E+02 -0.10465201743E+02  0.26151705601E+02  0.51100000000E-03 0. -1.
        -11    1    3    3    0    0 -0.69116765599E+01  0.18394708921E+02  0.49905159554E+01  0.20274166787E+02  0.51100000000E-03 0.  1.
        -12    1    3    3    0    0  0.22010038612E+01 -0.12632057452E+02 -0.11745626867E+01  0.12876058829E+02  0.00000000000E+00 0.  1.
</event>
<event>
 7    1  0.1344618E-011  0.5930197E+02  0.7816164E-02  0.1266605E+00
        -11   -1    0    0    0    0  0.00000000000E+00  0.00000000000E+00  0.45593999997E+02  0.45594000000E+02  0.51100000000E-03 0.  1.
         11   -1    0    0    0    0 -0.00000000000E+00 -0.00000000000E+00 -0.45593999997E+02  0.45594000000E+02  0.51100000000E-03 0. -1.
    9900012    2    1    2    0    0  0.17547514335E+02 -0.26622431029E+02 -0.22258348363E+00  0.59301974273E+02  0.50000055161E+02 0.  0.
        -12    1    1    2    0    0 -0.17547514335E+02  0.26622431029E+02  0.22258348363E+00  0.31886025727E+02  0.00000000000E+00 0.  1.
         11    1    3    3    0    0  0.20320350707E+02 -0.11105109174E+02 -0.10393395756E+02  0.25382332009E+02  0.51100000000E-03 0. -1.
        -11    1    3    3    0    0  0.93251338874E+01 -0.41516138602E+01 -0.50587588409E+01  0.11392324650E+02  0.51100000000E-03 0.  1.
        -12    1    3    3    0    0 -0.12097970259E+02 -0.11365707995E+02  0.15229571113E+02  0.22527317614E+02  0.00000000000E+00 0.  1.
</event>
<event>
 7    1  0.1344618E-011  0.5930196E+02  0.7816164E-02  0.1266605E+00
        -11   -1    0    0    0    0  0.00000000000E+00  0.00000000000E+00  0.45593999997E+02  0.45594000000E+02  0.51100000000E-03 0.  1.
         11   -1    0    0    0    0 -0.00000000000E+00 -0.00000000000E+00 -0.45593999997E+02  0.45594000000E+02  0.51100000000E-03 0. -1.
    9900012    2    1    2    0    0  0.17992396979E+01  0.17365151916E+02 -0.26682089554E+02  0.59301958108E+02  0.50000025680E+02 0.  0.
        -12    1    1    2    0    0 -0.17992396979E+01 -0.17365151916E+02  0.26682089554E+02  0.31886041892E+02  0.00000000000E+00 0.  1.
         11    1    3    3    0    0  0.46236399820E+01  0.31498493725E+01 -0.21668338561E+02  0.22378929688E+02  0.51100000000E-03 0. -1.
        -11    1    3    3    0    0  0.90170825567E+01  0.12685939743E+02 -0.14805764549E+02  0.21481422419E+02  0.51100000000E-03 0.  1.
        -12    1    3    3    0    0 -0.11841482841E+02  0.15293628002E+01  0.97920135550E+01  0.15441606002E+02  0.00000000000E+00 0.  1.
</event>
<event>
 7    1  0.1344618E-011  0.5930194E+02  0.7816164E-02  0.1266605E+00
        -11   -1    0    0    0    0  0.00000000000E+00  0.00000000000E+00  0.45593999997E+02  0.45594000000E+02  0.51100000000E-03 0.  1.
         11   -1    0    0    0    0 -0.00000000000E+00 -0.00000000000E+00 -0.45593999997E+02  0.45594000000E+02  0.51100000000E-03 0. -1.
    9900012    2    1    2    0    0 -0.63740330272E+01  0.45386601950E+01 -0.30911054024E+02  0.59301937304E+02  0.49999987737E+02 0.  0.
        -12    1    1    2    0    0  0.63740330272E+01 -0.45386601950E+01  0.30911054024E+02  0.31886062696E+02  0.00000000000E+00 0.  1.
         11    1    3    3    0    0 -0.16932822048E+02 -0.62519429965E+01 -0.13408543820E+02  0.22485468671E+02  0.51100000000E-03 0. -1.
        -11    1    3    3    0    0  0.39468898186E+01 -0.61654029544E+01 -0.17112696835E+02  0.18612751706E+02  0.51100000000E-03 0.  1.
        -12    1    3    3    0    0  0.66118992019E+01  0.16956006146E+02 -0.38981336802E+00  0.18203716926E+02  0.00000000000E+00 0.  1.
</event>
<event>
 7    1  0.1344618E-011  0.5930194E+02  0.7816164E-02  0.1266605E+00
        -11   -1    0    0    0    0  0.00000000000E+00  0.00000000000E+00  0.45593999997E+02  0.45594000000E+02  0.51100000000E-03 0.  1.
         11   -1    0    0    0    0 -0.00000000000E+00 -0.00000000000E+00 -0.45593999997E+02  0.45594000000E+02  0.51100000000E-03 0. -1.
    9900012    2    1    2    0    0  0.99024814117E+01 -0.16736556352E+02 -0.25269539633E+02  0.59301935804E+02  0.49999985003E+02 0.  0.
        -12    1    1    2    0    0 -0.99024814117E+01  0.16736556352E+02  0.25269539633E+02  0.31886064196E+02  0.00000000000E+00 0.  1.
         11    1    3    3    0    0  0.73079245821E+01 -0.58370104916E+01 -0.13575736419E+02  0.16485662642E+02  0.51100000000E-03 0. -1.
        -11    1    3    3    0    0 -0.22688308115E+01  0.11539436170E+02 -0.15589758831E+02  0.19528101829E+02  0.51100000000E-03 0.  1.
        -12    1    3    3    0    0  0.48633876412E+01 -0.22438982030E+02  0.38959556168E+01  0.23288171333E+02  0.00000000000E+00 0.  1.
</event>
<event>
 7    1  0.1344618E-011  0.5930191E+02  0.7816164E-02  0.1266605E+00
        -11   -1    0    0    0    0  0.00000000000E+00  0.00000000000E+00  0.45593999997E+02  0.45594000000E+02  0.51100000000E-03 0.  1.
         11   -1    0    0    0    0 -0.00000000000E+00 -0.00000000000E+00 -0.45593999997E+02  0.45594000000E+02  0.51100000000E-03 0. -1.
    9900012    2    1    2    0    0  0.26330545805E+01 -0.31651860721E+02  0.28195307387E+01  0.59301905584E+02  0.49999929887E+02 0.  0.
        -12    1    1    2    0    0 -0.26330545805E+01  0.31651860721E+02 -0.28195307387E+01  0.31886094416E+02  0.00000000000E+00 0.  1.
         11    1    3    3    0    0 -0.15517975024E+01 -0.66325307494E+01 -0.16886214994E+02  0.18208316691E+02  0.51100000000E-03 0. -1.
        -11    1    3    3    0    0  0.39558300863E+01 -0.21480521188E+02  0.79815050120E+00  0.21856313199E+02  0.51100000000E-03 0.  1.
        -12    1    3    3    0    0  0.22902199656E+00 -0.35388087836E+01  0.18907595231E+02  0.19237275694E+02  0.00000000000E+00 0.  1.
</event>
<event>
 7    1  0.1344618E-011  0.5930195E+02  0.7816164E-02  0.1266605E+00
        -11   -1    0    0    0    0  0.00000000000E+00  0.00000000000E+00  0.45593999997E+02  0.45594000000E+02  0.51100000000E-03 0.  1.
         11   -1    0    0    0    0 -0.00000000000E+00 -0.00000000000E+00 -0.45593999997E+02  0.45594000000E+02  0.51100000000E-03 0. -1.
    9900012    2    1    2    0    0 -0.11637563132E+02 -0.90770560405E-01 -0.29686347949E+02  0.59301947100E+02  0.50000005604E+02 0.  0.
        -12    1    1    2    0    0  0.11637563132E+02  0.90770560405E-01  0.29686347949E+02  0.31886052900E+02  0.00000000000E+00 0.  1.
         11    1    3    3    0    0 -0.49367017087E+01  0.16266703694E+02 -0.37253800424E+01  0.17402733393E+02  0.51100000000E-03 0. -1.
        -11    1    3    3    0    0 -0.38097401796E+01  0.77050678066E+01 -0.57411358315E+01  0.10336480592E+02  0.51100000000E-03 0.  1.
         12    1    3    3    0    0 -0.28911212439E+01 -0.24062542061E+02 -0.20219832075E+02  0.31562733115E+02  0.00000000000E+00 0. -1.
</event>
<event>
 7    1  0.1344618E-011  0.5930195E+02  0.7816164E-02  0.1266605E+00
        -11   -1    0    0    0    0  0.00000000000E+00  0.00000000000E+00  0.45593999997E+02  0.45594000000E+02  0.51100000000E-03 0. -1.
         11   -1    0    0    0    0 -0.00000000000E+00 -0.00000000000E+00 -0.45593999997E+02  0.45594000000E+02  0.51100000000E-03 0.  1.
    9900012    2    1    2    0    0 -0.31192393968E+00 -0.26943073146E+02  0.17049744935E+02  0.59301948356E+02  0.50000007895E+02 0.  0.
        -12    1    1    2    0    0  0.31192393968E+00  0.26943073146E+02 -0.17049744935E+02  0.31886051644E+02  0.00000000000E+00 0.  1.
         11    1    3    3    0    0 -0.70108102079E+00 -0.14818534341E+02  0.13506404235E+02  0.20062488137E+02  0.51100000000E-03 0. -1.
        -11    1    3    3    0    0 -0.56703778510E+01 -0.21156476231E+02 -0.80567908616E+01  0.23337985147E+02  0.51100000000E-03 0.  1.
         12    1    3    3    0    0  0.60595349321E+01  0.90319374258E+01  0.11600131561E+02  0.15901475073E+02  0.00000000000E+00 0. -1.
</event>
<event>
 7    1  0.1344618E-011  0.5930193E+02  0.7816164E-02  0.1266605E+00
        -11   -1    0    0    0    0  0.00000000000E+00  0.00000000000E+00  0.45593999997E+02  0.45594000000E+02  0.51100000000E-03 0.  1.
         11   -1    0    0    0    0 -0.00000000000E+00 -0.00000000000E+00 -0.45593999997E+02  0.45594000000E+02  0.51100000000E-03 0. -1.
    9900012    2    1    2    0    0  0.31444047454E+02  0.17956669143E+00  0.52878466644E+01  0.59301926444E+02  0.49999967931E+02 0.  0.
        -12    1    1    2    0    0 -0.31444047454E+02 -0.17956669143E+00 -0.52878466644E+01  0.31886073556E+02  0.00000000000E+00 0.  1.
         11    1    3    3    0    0  0.24931613950E+02 -0.78586040993E+00  0.11989532315E+02  0.27675834877E+02  0.51100000000E-03 0. -1.
        -11    1    3    3    0    0  0.94314991362E+01  0.27214264929E+01  0.10334029192E+02  0.14253122385E+02  0.51100000000E-03 0.  1.
         12    1    3    3    0    0 -0.29190656317E+01 -0.17559993915E+01 -0.17035714843E+02  0.17372969183E+02  0.00000000000E+00 0. -1.
</event>
<event>
 7    1  0.1344618E-011  0.5930195E+02  0.7816164E-02  0.1266605E+00
        -11   -1    0    0    0    0  0.00000000000E+00  0.00000000000E+00  0.45593999997E+02  0.45594000000E+02  0.51100000000E-03 0.  1.
         11   -1    0    0    0    0 -0.00000000000E+00 -0.00000000000E+00 -0.45593999997E+02  0.45594000000E+02  0.51100000000E-03 0. -1.
    9900012    2    1    2    0    0 -0.25492458683E+02  0.68287582419E+01 -0.17894777527E+02  0.59301945814E+02  0.50000003258E+02 0.  0.
        -12    1    1    2    0    0  0.25492458683E+02 -0.68287582419E+01  0.17894777527E+02  0.31886054186E+02  0.00000000000E+00 0.  1.
         11    1    3    3    0    0  0.74868256803E+01 -0.55451407636E+01 -0.31820408754E+01  0.98451271830E+01  0.51100000000E-03 0. -1.
        -11    1    3    3    0    0  0.43097833591E+01  0.61070684872E+01  0.25404407781E+01  0.78945777416E+01  0.51100000000E-03 0.  1.
         12    1    3    3    0    0 -0.37289067722E+02  0.62668305184E+01 -0.17253177429E+02  0.41562240889E+02  0.00000000000E+00 0. -1.
</event>
<event>
 7    1  0.1344618E-011  0.5930195E+02  0.7816164E-02  0.1266605E+00
        -11   -1    0    0    0    0  0.00000000000E+00  0.00000000000E+00  0.45593999997E+02  0.45594000000E+02  0.51100000000E-03 0. -1.
         11   -1    0    0    0    0 -0.00000000000E+00 -0.00000000000E+00 -0.45593999997E+02  0.45594000000E+02  0.51100000000E-03 0.  1.
    9900012    2    1    2    0    0  0.20027273640E+02 -0.13041166893E+02  0.21108208032E+02  0.59301950233E+02  0.50000011317E+02 0.  0.
        -12    1    1    2    0    0 -0.20027273640E+02  0.13041166893E+02 -0.21108208032E+02  0.31886049767E+02  0.00000000000E+00 0.  1.
         11    1    3    3    0    0  0.79680111256E+01  0.85000753752E+01 -0.39722496274E+01  0.12309315580E+02  0.51100000000E-03 0. -1.
        -11    1    3    3    0    0  0.10624932533E+02 -0.11866621561E+01 -0.40449688749E+01  0.11430622550E+02  0.51100000000E-03 0.  1.
        -12    1    3    3    0    0  0.14343299813E+01 -0.20354580112E+02  0.29125426535E+02  0.35562012104E+02  0.00000000000E+00 0.  1.
</event>
<event>
 7    1  0.1344618E-011  0.5930194E+02  0.7816164E-02  0.1266605E+00
        -11   -1    0    0    0    0  0.00000000000E+00  0.00000000000E+00  0.45593999997E+02  0.45594000000E+02  0.51100000000E-03 0.  1.
         11   -1    0    0    0    0 -0.00000000000E+00 -0.00000000000E+00 -0.45593999997E+02  0.45594000000E+02  0.51100000000E-03 0. -1.
    9900012    2    1    2    0    0 -0.68467595427E+01 -0.59162246507E+01 -0.30575166330E+02  0.59301943071E+02  0.49999998255E+02 0.  0.
        -12    1    1    2    0    0  0.68467595427E+01  0.59162246507E+01  0.30575166330E+02  0.31886056929E+02  0.00000000000E+00 0.  1.
         11    1    3    3    0    0 -0.27452560521E+01 -0.18666908755E+02 -0.14999520074E+02  0.24103433697E+02  0.51100000000E-03 0. -1.
        -11    1    3    3    0    0 -0.64871759380E+01  0.57510273971E+01 -0.23085014779E+02  0.24659190485E+02  0.51100000000E-03 0.  1.
        -12    1    3    3    0    0  0.23856724475E+01  0.69996567072E+01  0.75093685223E+01  0.10539318889E+02  0.00000000000E+00 0.  1.
</event>
<event>
 7    1  0.1344618E-011  0.5930195E+02  0.7816164E-02  0.1266605E+00
        -11   -1    0    0    0    0  0.00000000000E+00  0.00000000000E+00  0.45593999997E+02  0.45594000000E+02  0.51100000000E-03 0.  1.
         11   -1    0    0    0    0 -0.00000000000E+00 -0.00000000000E+00 -0.45593999997E+02  0.45594000000E+02  0.51100000000E-03 0. -1.
    9900012    2    1    2    0    0  0.19882045229E+02  0.23341285388E+02 -0.87526506700E+01  0.59301949448E+02  0.50000009886E+02 0.  0.
        -12    1    1    2    0    0 -0.19882045229E+02 -0.23341285388E+02  0.87526506700E+01  0.31886050552E+02  0.00000000000E+00 0.  1.
         11    1    3    3    0    0  0.32463270170E+01  0.24431107874E+02 -0.12970045017E+02  0.27850309496E+02  0.51100000000E-03 0.  1.
        -11    1    3    3    0    0  0.10768699018E+00  0.76612206328E+01 -0.63672440326E+01  0.99623137325E+01  0.51100000000E-03 0. -1.
         12    1    3    3    0    0  0.16528031222E+02 -0.87510431188E+01  0.10584638379E+02  0.21489326219E+02  0.00000000000E+00 0. -1.
</event>
<event>
 7    1  0.1344618E-011  0.5930193E+02  0.7816164E-02  0.1266605E+00
        -11   -1    0    0    0    0  0.00000000000E+00  0.00000000000E+00  0.45593999997E+02  0.45594000000E+02  0.51100000000E-03 0.  1.
         11   -1    0    0    0    0 -0.00000000000E+00 -0.00000000000E+00 -0.45593999997E+02  0.45594000000E+02  0.51100000000E-03 0. -1.
    9900012    2    1    2    0    0  0.27836857617E+02 -0.10701884229E+02 -0.11282752996E+02  0.59301929636E+02  0.49999973754E+02 0.  0.
        -12    1    1    2    0    0 -0.27836857617E+02  0.10701884229E+02  0.11282752996E+02  0.31886070364E+02  0.00000000000E+00 0.  1.
         11    1    3    3    0    0  0.64735298496E+01 -0.15724001342E+01  0.58979411385E+01  0.88974569867E+01  0.51100000000E-03 0. -1.
        -11    1    3    3    0    0 -0.10013419256E+02  0.47946122589E+01 -0.10800664345E+02  0.15489067837E+02  0.51100000000E-03 0.  1.
         12    1    3    3    0    0  0.31376747024E+02 -0.13924096354E+02 -0.63800297896E+01  0.34915404812E+02  0.00000000000E+00 0. -1.
</event>
<event>
 7    1  0.1344618E-011  0.5930195E+02  0.7816164E-02  0.1266605E+00
        -11   -1    0    0    0    0  0.00000000000E+00  0.00000000000E+00  0.45593999997E+02  0.45594000000E+02  0.51100000000E-03 0. -1.
         11   -1    0    0    0    0 -0.00000000000E+00 -0.00000000000E+00 -0.45593999997E+02  0.45594000000E+02  0.51100000000E-03 0.  1.
    9900012    2    1    2    0    0 -0.19018250790E+02 -0.22558287269E+02 -0.12089244019E+02  0.59301952760E+02  0.50000015926E+02 0.  0.
        -12    1    1    2    0    0  0.19018250790E+02  0.22558287269E+02  0.12089244019E+02  0.31886047240E+02  0.00000000000E+00 0.  1.
         11    1    3    3    0    0  0.67125602825E+00 -0.13959497289E+02  0.13387895475E+02  0.19353394915E+02  0.51100000000E-03 0. -1.
        -11    1    3    3    0    0  0.27910223533E+01 -0.39734243102E+01  0.94839170865E+00  0.49474593095E+01  0.51100000000E-03 0.  1.
        -12    1    3    3    0    0 -0.22480529171E+02 -0.46253656701E+01 -0.26425531202E+02  0.35001098536E+02  0.00000000000E+00 0.  1.
</event>
<event>
 7    1  0.1344618E-011  0.5930195E+02  0.7816164E-02  0.1266605E+00
        -11   -1    0    0    0    0  0.00000000000E+00  0.00000000000E+00  0.45593999997E+02  0.45594000000E+02  0.51100000000E-03 0. -1.
         11   -1    0    0    0    0 -0.00000000000E+00 -0.00000000000E+00 -0.45593999997E+02  0.45594000000E+02  0.51100000000E-03 0.  1.
    9900012    2    1    2    0    0 -0.42254115014E+01  0.23907708120E+02  0.20670936549E+02  0.59301949324E+02  0.50000009659E+02 0.  0.
        -12    1    1    2    0    0  0.42254115014E+01 -0.23907708120E+02 -0.20670936549E+02  0.31886050676E+02  0.00000000000E+00 0.  1.
         11    1    3    3    0    0 -0.61917254912E+01  0.73279846823E+00  0.59289128329E+01  0.86038634226E+01  0.51100000000E-03 0. -1.
        -11    1    3    3    0    0 -0.19688626919E+02  0.54829436190E+01  0.45726036654E+01  0.20943099227E+02  0.51100000000E-03 0.  1.
         12    1    3    3    0    0  0.21654940909E+02  0.17691966032E+02  0.10169420051E+02  0.29754986675E+02  0.00000000000E+00 0. -1.
</event>
<event>
 7    1  0.1344618E-011  0.5930202E+02  0.7816164E-02  0.1266604E+00
        -11   -1    0    0    0    0  0.00000000000E+00  0.00000000000E+00  0.45593999997E+02  0.45594000000E+02  0.51100000000E-03 0.  1.
         11   -1    0    0    0    0 -0.00000000000E+00 -0.00000000000E+00 -0.45593999997E+02  0.45594000000E+02  0.51100000000E-03 0. -1.
    9900012    2    1    2    0    0  0.20529250938E+02  0.72114287900E+01 -0.23307953029E+02  0.59302023088E+02  0.50000144186E+02 0.  0.
        -12    1    1    2    0    0 -0.20529250938E+02 -0.72114287900E+01  0.23307953029E+02  0.31885976912E+02  0.00000000000E+00 0.  1.
         11    1    3    3    0    0  0.14633361014E+02 -0.34150226092E+01 -0.11315746270E+02  0.18810734911E+02  0.51100000000E-03 0. -1.
        -11    1    3    3    0    0  0.92729768758E+01  0.17860582841E+02 -0.20567332702E+02  0.28775053332E+02  0.51100000000E-03 0.  1.
        -12    1    3    3    0    0 -0.33770869520E+01 -0.72341314415E+01  0.85751259431E+01  0.11716234845E+02  0.00000000000E+00 0.  1.
</event>
<event>
 7    1  0.1344618E-011  0.5930192E+02  0.7816164E-02  0.1266605E+00
        -11   -1    0    0    0    0  0.00000000000E+00  0.00000000000E+00  0.45593999997E+02  0.45594000000E+02  0.51100000000E-03 0.  1.
         11   -1    0    0    0    0 -0.00000000000E+00 -0.00000000000E+00 -0.45593999997E+02  0.45594000000E+02  0.51100000000E-03 0. -1.
    9900012    2    1    2    0    0 -0.20479478020E+02 -0.14133322318E+02 -0.19938962919E+02  0.59301920561E+02  0.49999957203E+02 0.  0.
        -12    1    1    2    0    0  0.20479478020E+02  0.14133322318E+02  0.19938962919E+02  0.31886079439E+02  0.00000000000E+00 0.  1.
         11    1    3    3    0    0 -0.58795621568E+01  0.94988597988E+01 -0.81567551949E+01  0.13832217617E+02  0.51100000000E-03 0. -1.
        -11    1    3    3    0    0  0.49021121936E+00  0.28930083549E+01  0.83898473365E+01  0.88881574566E+01  0.51100000000E-03 0.  1.
         12    1    3    3    0    0 -0.15090127082E+02 -0.26525190471E+02 -0.20172055061E+02  0.36581545488E+02  0.00000000000E+00 0. -1.
</event>
<event>
 7    1  0.1344618E-011  0.5930193E+02  0.7816164E-02  0.1266605E+00
        -11   -1    0    0    0    0  0.00000000000E+00  0.00000000000E+00  0.45593999997E+02  0.45594000000E+02  0.51100000000E-03 0. -1.
         11   -1    0    0    0    0 -0.00000000000E+00 -0.00000000000E+00 -0.45593999997E+02  0.45594000000E+02  0.51100000000E-03 0.  1.
    9900012    2    1    2    0    0  0.25908618391E+01 -0.24409724950E+02 -0.20351270368E+02  0.59301930270E+02  0.49999974910E+02 0.  0.
        -12    1    1    2    0    0 -0.25908618391E+01  0.24409724950E+02  0.20351270368E+02  0.31886069730E+02  0.00000000000E+00 0.  1.
         11    1    3    3    0    0 -0.29414071599E+01  0.51809595003E+01 -0.14918594100E+02  0.16064204543E+02  0.51100000000E-03 0. -1.
        -11    1    3    3    0    0  0.63031339866E+01 -0.14967260442E+02 -0.17781870645E+02  0.24082012106E+02  0.51100000000E-03 0.  1.
         12    1    3    3    0    0 -0.77086498764E+00 -0.14623424009E+02  0.12349194377E+02  0.19155713621E+02  0.00000000000E+00 0. -1.
</event>
<event>
 7    1  0.1344618E-011  0.5930194E+02  0.7816164E-02  0.1266605E+00
        -11   -1    0    0    0    0  0.00000000000E+00  0.00000000000E+00  0.45593999997E+02  0.45594000000E+02  0.51100000000E-03 0.  1.
         11   -1    0    0    0    0 -0.00000000000E+00 -0.00000000000E+00 -0.45593999997E+02  0.45594000000E+02  0.51100000000E-03 0. -1.
    9900012    2    1    2    0    0 -0.17243002125E+02  0.26743866675E+02  0.20409004197E+01  0.59301940326E+02  0.49999993249E+02 0.  0.
        -12    1    1    2    0    0  0.17243002125E+02 -0.26743866675E+02 -0.20409004197E+01  0.31886059674E+02  0.00000000000E+00 0.  1.
         11    1    3    3    0    0 -0.18713188762E+02  0.21389588548E+02  0.18751462742E+02  0.34048719317E+02  0.51100000000E-03 0. -1.
        -11    1    3    3    0    0  0.40107429817E+01  0.66245319743E+01  0.54710703979E+00  0.77633632865E+01  0.51100000000E-03 0.  1.
         12    1    3    3    0    0 -0.25405563438E+01 -0.12702538468E+01 -0.17257669362E+02  0.17489857723E+02  0.00000000000E+00 0. -1.
</event>
<event>
 7    1  0.1344618E-011  0.5930196E+02  0.7816164E-02  0.1266605E+00
        -11   -1    0    0    0    0  0.00000000000E+00  0.00000000000E+00  0.45593999997E+02  0.45594000000E+02  0.51100000000E-03 0. -1.
         11   -1    0    0    0    0 -0.00000000000E+00 -0.00000000000E+00 -0.45593999997E+02  0.45594000000E+02  0.51100000000E-03 0.  1.
    9900012    2    1    2    0    0 -0.15073044263E+01  0.22400687821E+02  0.22641927557E+02  0.59301958148E+02  0.50000025752E+02 0.  0.
        -12    1    1    2    0    0  0.15073044263E+01 -0.22400687821E+02 -0.22641927557E+02  0.31886041852E+02  0.00000000000E+00 0.  1.
         11    1    3    3    0    0  0.14580677075E+02  0.18135681992E+02  0.27345880963E+02  0.35906772497E+02  0.51100000000E-03 0. -1.
        -11    1    3    3    0    0 -0.28352468491E+01  0.71353315017E+01  0.24556345051E+01  0.80611240791E+01  0.51100000000E-03 0.  1.
        -12    1    3    3    0    0 -0.13252734652E+02 -0.28703256724E+01 -0.71595879116E+01  0.15334061572E+02  0.00000000000E+00 0.  1.
</event>
<event>
 7    1  0.1344618E-011  0.5930195E+02  0.7816164E-02  0.1266605E+00
        -11   -1    0    0    0    0  0.00000000000E+00  0.00000000000E+00  0.45593999997E+02  0.45594000000E+02  0.51100000000E-03 0.  1.
         11   -1    0    0    0    0 -0.00000000000E+00 -0.00000000000E+00 -0.45593999997E+02  0.45594000000E+02  0.51100000000E-03 0. -1.
    9900012    2    1    2    0    0 -0.31445336981E+02 -0.50593237199E+01  0.15211729363E+01  0.59301953813E+02  0.50000017845E+02 0.  0.
        -12    1    1    2    0    0  0.31445336981E+02  0.50593237199E+01 -0.15211729363E+01  0.31886046187E+02  0.00000000000E+00 0.  1.
         11    1    3    3    0    0 -0.14623033559E+02  0.68946596885E+01 -0.84101026973E+01  0.18223591039E+02  0.51100000000E-03 0. -1.
        -11    1    3    3    0    0 -0.23749308546E+02 -0.19947114987E+01  0.14746590473E+02  0.28026245935E+02  0.51100000000E-03 0.  1.
         12    1    3    3    0    0  0.69270051248E+01 -0.99592719097E+01 -0.48153148393E+01  0.13052116839E+02  0.00000000000E+00 0. -1.
</event>
<event>
 7    1  0.1344618E-011  0.5930195E+02  0.7816164E-02  0.1266605E+00
        -11   -1    0    0    0    0  0.00000000000E+00  0.00000000000E+00  0.45593999997E+02  0.45594000000E+02  0.51100000000E-03 0. -1.
         11   -1    0    0    0    0 -0.00000000000E+00 -0.00000000000E+00 -0.45593999997E+02  0.45594000000E+02  0.51100000000E-03 0.  1.
    9900012    2    1    2    0    0 -0.15251785889E+02  0.24575548422E+02 -0.13421828982E+02  0.59301952169E+02  0.50000014848E+02 0.  0.
        -12    1    1    2    0    0  0.15251785889E+02 -0.24575548422E+02  0.13421828982E+02  0.31886047831E+02  0.00000000000E+00 0.  1.
         11    1    3    3    0    0 -0.37738801511E+00 -0.75262077574E-01  0.13898920617E+02  0.13904246857E+02  0.51100000000E-03 0. -1.
        -11    1    3    3    0    0  0.55982120611E+01  0.74036281523E+01 -0.49960844191E+01  0.10541088553E+02  0.51100000000E-03 0.  1.
        -12    1    3    3    0    0 -0.20472609935E+02  0.17247182348E+02 -0.22324665179E+02  0.34856616759E+02  0.00000000000E+00 0.  1.
</event>
<event>
 7    1  0.1344618E-011  0.5930197E+02  0.7816164E-02  0.1266605E+00
        -11   -1    0    0    0    0  0.00000000000E+00  0.00000000000E+00  0.45593999997E+02  0.45594000000E+02  0.51100000000E-03 0.  1.
         11   -1    0    0    0    0 -0.00000000000E+00 -0.00000000000E+00 -0.45593999997E+02  0.45594000000E+02  0.51100000000E-03 0. -1.
    9900012    2    1    2    0    0 -0.16435805998E+02  0.27239436533E+01 -0.27187553026E+02  0.59301974419E+02  0.50000055426E+02 0.  0.
        -12    1    1    2    0    0  0.16435805998E+02 -0.27239436533E+01  0.27187553026E+02  0.31886025581E+02  0.00000000000E+00 0.  1.
         11    1    3    3    0    0 -0.98552377841E+01  0.13235064873E+02 -0.19017107472E+02  0.25178225331E+02  0.51100000000E-03 0. -1.
        -11    1    3    3    0    0  0.53522178967E+01  0.88338444781E+01 -0.15086945551E+01  0.10438352562E+02  0.51100000000E-03 0.  1.
        -12    1    3    3    0    0 -0.11932786111E+02 -0.19344965698E+02 -0.66617509992E+01  0.23685396526E+02  0.00000000000E+00 0.  1.
</event>
<event>
 7    1  0.1344618E-011  0.5930194E+02  0.7816164E-02  0.1266605E+00
        -11   -1    0    0    0    0  0.00000000000E+00  0.00000000000E+00  0.45593999997E+02  0.45594000000E+02  0.51100000000E-03 0.  1.
         11   -1    0    0    0    0 -0.00000000000E+00 -0.00000000000E+00 -0.45593999997E+02  0.45594000000E+02  0.51100000000E-03 0. -1.
    9900012    2    1    2    0    0 -0.47440921809E+00 -0.94116120262E+01 -0.30461734796E+02  0.59301940479E+02  0.49999993527E+02 0.  0.
        -12    1    1    2    0    0  0.47440921809E+00  0.94116120262E+01  0.30461734796E+02  0.31886059521E+02  0.00000000000E+00 0.  1.
         11    1    3    3    0    0 -0.11446035146E+02  0.78242146855E+01  0.39331682270E+01  0.14411796161E+02  0.51100000000E-03 0. -1.
        -11    1    3    3    0    0 -0.40824726421E-01 -0.88526058707E+01 -0.12103274141E+01  0.89350540049E+01  0.51100000000E-03 0.  1.
         12    1    3    3    0    0  0.11012450655E+02 -0.83832208409E+01 -0.33184575609E+02  0.35955090313E+02  0.00000000000E+00 0. -1.
</event>
<event>
 7    1  0.1344618E-011  0.5930193E+02  0.7816164E-02  0.1266605E+00
        -11   -1    0    0    0    0  0.00000000000E+00  0.00000000000E+00  0.45593999997E+02  0.45594000000E+02  0.51100000000E-03 0.  1.
         11   -1    0    0    0    0 -0.00000000000E+00 -0.00000000000E+00 -0.45593999997E+02  0.45594000000E+02  0.51100000000E-03 0. -1.
    9900012    2    1    2    0    0 -0.11422266313E+02  0.71444427556E+01 -0.28900003746E+02  0.59301930212E+02  0.49999974803E+02 0.  0.
        -12    1    1    2    0    0  0.11422266313E+02 -0.71444427556E+01  0.28900003746E+02  0.31886069788E+02  0.00000000000E+00 0.  1.
         11    1    3    3    0    0 -0.10497951832E+02  0.61525170039E+00 -0.13622896542E+02  0.17209556583E+02  0.51100000000E-03 0. -1.
        -11    1    3    3    0    0  0.40973747834E+01  0.85450218555E+01 -0.27305307369E+02  0.28903039449E+02  0.51100000000E-03 0.  1.
        -12    1    3    3    0    0 -0.50216892652E+01 -0.20158308003E+01  0.12028200165E+02  0.13189334180E+02  0.00000000000E+00 0.  1.
</event>
<event>
 7    1  0.1344618E-011  0.5930193E+02  0.7816164E-02  0.1266605E+00
        -11   -1    0    0    0    0  0.00000000000E+00  0.00000000000E+00  0.45593999997E+02  0.45594000000E+02  0.51100000000E-03 0. -1.
         11   -1    0    0    0    0 -0.00000000000E+00 -0.00000000000E+00 -0.45593999997E+02  0.45594000000E+02  0.51100000000E-03 0.  1.
    9900012    2    1    2    0    0 -0.14421509739E+02  0.10323734735E+01  0.28419631535E+02  0.59301934161E+02  0.49999982005E+02 0.  0.
        -12    1    1    2    0    0  0.14421509739E+02 -0.10323734735E+01 -0.28419631535E+02  0.31886065839E+02  0.00000000000E+00 0.  1.
         11    1    3    3    0    0 -0.19682469478E+02  0.82026723894E+01  0.15806865144E+02  0.26543180386E+02  0.51100000000E-03 0.  1.
        -11    1    3    3    0    0 -0.56652633797E+01 -0.11756169652E+02  0.15795644124E+02  0.20489146092E+02  0.51100000000E-03 0. -1.
        -12    1    3    3    0    0  0.10926223118E+02  0.45858707356E+01 -0.31828777328E+01  0.12269607683E+02  0.00000000000E+00 0.  1.
</event>
<event>
 7    1  0.1344618E-011  0.5930194E+02  0.7816164E-02  0.1266605E+00
        -11   -1    0    0    0    0  0.00000000000E+00  0.00000000000E+00  0.45593999997E+02  0.45594000000E+02  0.51100000000E-03 0. -1.
         11   -1    0    0    0    0 -0.00000000000E+00 -0.00000000000E+00 -0.45593999997E+02  0.45594000000E+02  0.51100000000E-03 0.  1.
    9900012    2    1    2    0    0  0.18842167053E+02 -0.25087191701E+02  0.56856168929E+01  0.59301942136E+02  0.49999996549E+02 0.  0.
        -12    1    1    2    0    0 -0.18842167053E+02  0.25087191701E+02 -0.56856168929E+01  0.31886057864E+02  0.00000000000E+00 0.  1.
         11    1    3    3    0    0 -0.42905937369E+01 -0.91362466057E+00 -0.65630441775E+01  0.78941404708E+01  0.51100000000E-03 0. -1.
        -11    1    3    3    0    0  0.15854904967E+01 -0.90571815284E+01 -0.12339630226E+02  0.15388722875E+02  0.51100000000E-03 0.  1.
         12    1    3    3    0    0  0.21547270293E+02 -0.15116385512E+02  0.24588291296E+02  0.36019078790E+02  0.00000000000E+00 0. -1.
</event>
<event>
 7    1  0.1344618E-011  0.5930195E+02  0.7816164E-02  0.1266605E+00
        -11   -1    0    0    0    0  0.00000000000E+00  0.00000000000E+00  0.45593999997E+02  0.45594000000E+02  0.51100000000E-03 0.  1.
         11   -1    0    0    0    0 -0.00000000000E+00 -0.00000000000E+00 -0.45593999997E+02  0.45594000000E+02  0.51100000000E-03 0. -1.
    9900012    2    1    2    0    0  0.28459113621E+02 -0.12454193104E+01 -0.14326488608E+02  0.59301945161E+02  0.50000002067E+02 0.  0.
        -12    1    1    2    0    0 -0.28459113621E+02  0.12454193104E+01  0.14326488608E+02  0.31886054839E+02  0.00000000000E+00 0.  1.
         11    1    3    3    0    0  0.29141735635E+01  0.24585347644E+01 -0.16973085057E+01  0.41734466776E+01  0.51100000000E-03 0. -1.
        -11    1    3    3    0    0 -0.92065111863E+01  0.22246501025E+01  0.95726072970E+01  0.13466392502E+02  0.51100000000E-03 0.  1.
         12    1    3    3    0    0  0.34751451244E+02 -0.59286041773E+01 -0.22201787399E+02  0.41662105981E+02  0.00000000000E+00 0. -1.
</event>
<event>
 7    1  0.1344618E-011  0.5930195E+02  0.7816164E-02  0.1266605E+00
        -11   -1    0    0    0    0  0.00000000000E+00  0.00000000000E+00  0.45593999997E+02  0.45594000000E+02  0.51100000000E-03 0.  1.
         11   -1    0    0    0    0 -0.00000000000E+00 -0.00000000000E+00 -0.45593999997E+02  0.45594000000E+02  0.51100000000E-03 0. -1.
    9900012    2    1    2    0    0 -0.80005003833E+01  0.29181109015E+02 -0.10058569339E+02  0.59301953728E+02  0.50000017690E+02 0.  0.
        -12    1    1    2    0    0  0.80005003833E+01 -0.29181109015E+02  0.10058569339E+02  0.31886046272E+02  0.00000000000E+00 0.  1.
         11    1    3    3    0    0 -0.54830502742E+01  0.15072168169E+02 -0.12492327268E+02  0.20329592580E+02  0.51100000000E-03 0. -1.
        -11    1    3    3    0    0  0.10310586447E+02  0.21665817368E+02  0.99703679093E+00  0.24014785399E+02  0.51100000000E-03 0.  1.
         12    1    3    3    0    0 -0.12828036556E+02 -0.75568765222E+01  0.14367211380E+01  0.14957575749E+02  0.00000000000E+00 0. -1.
</event>
<event>
 7    1  0.1344618E-011  0.5930194E+02  0.7816164E-02  0.1266605E+00
        -11   -1    0    0    0    0  0.00000000000E+00  0.00000000000E+00  0.45593999997E+02  0.45594000000E+02  0.51100000000E-03 0. -1.
         11   -1    0    0    0    0 -0.00000000000E+00 -0.00000000000E+00 -0.45593999997E+02  0.45594000000E+02  0.51100000000E-03 0.  1.
    9900012    2    1    2    0    0 -0.77749507043E+01  0.28679436370E+02 -0.11565515221E+02  0.59301936096E+02  0.49999985535E+02 0.  0.
        -12    1    1    2    0    0  0.77749507043E+01 -0.28679436370E+02  0.11565515221E+02  0.31886063904E+02  0.00000000000E+00 0.  1.
         11    1    3    3    0    0 -0.50580016229E+01  0.94574862622E+01 -0.70326939096E+00  0.10748116808E+02  0.51100000000E-03 0. -1.
        -11    1    3    3    0    0  0.38502494631E+01  0.18089196376E+02  0.13756130728E+02  0.23049394337E+02  0.51100000000E-03 0.  1.
        -12    1    3    3    0    0 -0.65671985445E+01  0.11327537321E+01 -0.24618376558E+02  0.25504424951E+02  0.00000000000E+00 0.  1.
</event>
<event>
 7    1  0.1344618E-011  0.5930196E+02  0.7816164E-02  0.1266605E+00
        -11   -1    0    0    0    0  0.00000000000E+00  0.00000000000E+00  0.45593999997E+02  0.45594000000E+02  0.51100000000E-03 0. -1.
         11   -1    0    0    0    0 -0.00000000000E+00 -0.00000000000E+00 -0.45593999997E+02  0.45594000000E+02  0.51100000000E-03 0.  1.
    9900012    2    1    2    0    0 -0.27568359282E+02 -0.12829704179E+02  0.95970573765E+01  0.59301964607E+02  0.50000037531E+02 0.  0.
        -12    1    1    2    0    0  0.27568359282E+02  0.12829704179E+02 -0.95970573765E+01  0.31886035393E+02  0.00000000000E+00 0.  1.
         11    1    3    3    0    0 -0.98822049498E+01 -0.19744677549E+02  0.62432408839E+01  0.22945333364E+02  0.51100000000E-03 0. -1.
        -11    1    3    3    0    0 -0.96967272311E+01 -0.38054024385E+01 -0.12070774776E+02  0.15944002341E+02  0.51100000000E-03 0.  1.
        -12    1    3    3    0    0 -0.79894271013E+01  0.10720375809E+02  0.15424591268E+02  0.20412628902E+02  0.00000000000E+00 0.  1.
</event>
<event>
 7    1  0.1344618E-011  0.5930200E+02  0.7816164E-02  0.1266605E+00
        -11   -1    0    0    0    0  0.00000000000E+00  0.00000000000E+00  0.45593999997E+02  0.45594000000E+02  0.51100000000E-03 0.  1.
         11   -1    0    0    0    0 -0.00000000000E+00 -0.00000000000E+00 -0.45593999997E+02  0.45594000000E+02  0.51100000000E-03 0. -1.
    9900012    2    1    2    0    0 -0.21678944409E+02 -0.23196902856E+02  0.29400969175E+01  0.59301998327E+02  0.50000099029E+02 0.  0.
        -12    1    1    2    0    0  0.21678944409E+02  0.23196902856E+02 -0.29400969175E+01  0.31886001673E+02  0.00000000000E+00 0.  1.
         11    1    3    3    0    0 -0.20094368621E+02 -0.10223106822E+02 -0.18730825690E+02  0.29311079725E+02  0.51100000000E-03 0. -1.
        -11    1    3    3    0    0 -0.39634570858E+01 -0.10244842708E+02  0.35981067520E+01  0.11559072915E+02  0.51100000000E-03 0.  1.
        -12    1    3    3    0    0  0.23788812973E+01 -0.27289533264E+01  0.18072815856E+02  0.18431845687E+02  0.00000000000E+00 0.  1.
</event>
<event>
 7    1  0.1344618E-011  0.5930192E+02  0.7816164E-02  0.1266605E+00
        -11   -1    0    0    0    0  0.00000000000E+00  0.00000000000E+00  0.45593999997E+02  0.45594000000E+02  0.51100000000E-03 0. -1.
         11   -1    0    0    0    0 -0.00000000000E+00 -0.00000000000E+00 -0.45593999997E+02  0.45594000000E+02  0.51100000000E-03 0.  1.
    9900012    2    1    2    0    0  0.26816887264E+02 -0.70902692793E+01  0.15725932301E+02  0.59301916708E+02  0.49999950176E+02 0.  0.
        -12    1    1    2    0    0 -0.26816887264E+02  0.70902692793E+01 -0.15725932301E+02  0.31886083292E+02  0.00000000000E+00 0.  1.
         11    1    3    3    0    0  0.12664258988E+01 -0.58818926016E+01  0.81656200738E+01  0.10142871713E+02  0.51100000000E-03 0. -1.
        -11    1    3    3    0    0 -0.62656646949E+01  0.12239863829E+02  0.45627742293E+01  0.14487640579E+02  0.51100000000E-03 0.  1.
         12    1    3    3    0    0  0.31816126060E+02 -0.13448240506E+02  0.29975379979E+01  0.34671404416E+02  0.00000000000E+00 0. -1.
</event>
<event>
 7    1  0.1344618E-011  0.5930195E+02  0.7816164E-02  0.1266605E+00
        -11   -1    0    0    0    0  0.00000000000E+00  0.00000000000E+00  0.45593999997E+02  0.45594000000E+02  0.51100000000E-03 0. -1.
         11   -1    0    0    0    0 -0.00000000000E+00 -0.00000000000E+00 -0.45593999997E+02  0.45594000000E+02  0.51100000000E-03 0.  1.
    9900012    2    1    2    0    0 -0.10378010869E+02 -0.27475891088E+02  0.12413395637E+02  0.59301951453E+02  0.50000013543E+02 0.  0.
        -12    1    1    2    0    0  0.10378010869E+02  0.27475891088E+02 -0.12413395637E+02  0.31886048547E+02  0.00000000000E+00 0.  1.
         11    1    3    3    0    0  0.24576646578E+01 -0.72155435605E+01 -0.77908140657E+01  0.10899585704E+02  0.51100000000E-03 0. -1.
        -11    1    3    3    0    0 -0.77598322930E+01 -0.62183908266E+01 -0.10375987563E+02  0.14371656128E+02  0.51100000000E-03 0.  1.
         12    1    3    3    0    0 -0.50758432339E+01 -0.14041956701E+02  0.30580197266E+02  0.34030709622E+02  0.00000000000E+00 0. -1.
</event>
<event>
 7    1  0.1344618E-011  0.5930194E+02  0.7816164E-02  0.1266605E+00
        -11   -1    0    0    0    0  0.00000000000E+00  0.00000000000E+00  0.45593999997E+02  0.45594000000E+02  0.51100000000E-03 0. -1.
         11   -1    0    0    0    0 -0.00000000000E+00 -0.00000000000E+00 -0.45593999997E+02  0.45594000000E+02  0.51100000000E-03 0.  1.
    9900012    2    1    2    0    0 -0.17288455562E+02  0.41135914166E+01  0.26474681671E+02  0.59301935651E+02  0.49999984724E+02 0.  0.
        -12    1    1    2    0    0  0.17288455562E+02 -0.41135914166E+01 -0.26474681671E+02  0.31886064349E+02  0.00000000000E+00 0.  1.
         11    1    3    3    0    0 -0.14772675211E+02  0.10600669654E+01 -0.44578853135E+01  0.15467010590E+02  0.51100000000E-03 0. -1.
        -11    1    3    3    0    0 -0.41093932566E+01  0.64908793040E+01 -0.40248173751E+01  0.86728185869E+01  0.51100000000E-03 0.  1.
         12    1    3    3    0    0  0.15936129055E+01 -0.34373548529E+01  0.34957384359E+02  0.35162106475E+02  0.00000000000E+00 0. -1.
</event>
<event>
 7    1  0.1344618E-011  0.5930197E+02  0.7816164E-02  0.1266605E+00
        -11   -1    0    0    0    0  0.00000000000E+00  0.00000000000E+00  0.45593999997E+02  0.45594000000E+02  0.51100000000E-03 0. -1.
         11   -1    0    0    0    0 -0.00000000000E+00 -0.00000000000E+00 -0.45593999997E+02  0.45594000000E+02  0.51100000000E-03 0.  1.
    9900012    2    1    2    0    0 -0.20841265536E+02 -0.23149266092E+02  0.68170221164E+01  0.59301973903E+02  0.50000054486E+02 0.  0.
        -12    1    1    2    0    0  0.20841265536E+02  0.23149266092E+02 -0.68170221164E+01  0.31886026097E+02  0.00000000000E+00 0.  1.
         11    1    3    3    0    0  0.73264359443E+01 -0.10492007483E+02  0.37639089187E+00  0.12802365212E+02  0.51100000000E-03 0.  1.
        -11    1    3    3    0    0 -0.80625289376E+01 -0.65400916960E+01  0.19262349180E+02  0.21881847921E+02  0.51100000000E-03 0. -1.
         12    1    3    3    0    0 -0.20105172542E+02 -0.61171669130E+01 -0.12821717955E+02  0.24617760770E+02  0.00000000000E+00 0. -1.
</event>
<event>
 7    1  0.1344618E-011  0.5930194E+02  0.7816164E-02  0.1266605E+00
        -11   -1    0    0    0    0  0.00000000000E+00  0.00000000000E+00  0.45593999997E+02  0.45594000000E+02  0.51100000000E-03 0.  1.
         11   -1    0    0    0    0 -0.00000000000E+00 -0.00000000000E+00 -0.45593999997E+02  0.45594000000E+02  0.51100000000E-03 0. -1.
    9900012    2    1    2    0    0 -0.12320354424E+01 -0.33391051720E+01 -0.31686801393E+02  0.59301938512E+02  0.49999989940E+02 0.  0.
        -12    1    1    2    0    0  0.12320354424E+01  0.33391051720E+01  0.31686801393E+02  0.31886061488E+02  0.00000000000E+00 0.  1.
         11    1    3    3    0    0 -0.13257244609E+02  0.15293731207E+02 -0.24306307229E+01  0.20385306346E+02  0.51100000000E-03 0. -1.
        -11    1    3    3    0    0  0.22386632243E+01 -0.30684650631E+00  0.78444564868E+00  0.23918869219E+01  0.51100000000E-03 0.  1.
        -12    1    3    3    0    0  0.97865459418E+01 -0.18325989873E+02 -0.30040616319E+02  0.36524745244E+02  0.00000000000E+00 0.  1.
</event>
<event>
 7    1  0.1344618E-011  0.5930202E+02  0.7816164E-02  0.1266605E+00
        -11   -1    0    0    0    0  0.00000000000E+00  0.00000000000E+00  0.45593999997E+02  0.45594000000E+02  0.51100000000E-03 0. -1.
         11   -1    0    0    0    0 -0.00000000000E+00 -0.00000000000E+00 -0.45593999997E+02  0.45594000000E+02  0.51100000000E-03 0.  1.
    9900012    2    1    2    0    0  0.17375455093E+02 -0.26531833581E+02 -0.32971785655E+01  0.59302015315E+02  0.50000130010E+02 0.  0.
        -12    1    1    2    0    0 -0.17375455093E+02  0.26531833581E+02  0.32971785655E+01  0.31885984685E+02  0.00000000000E+00 0.  1.
         11    1    3    3    0    0  0.20909731480E+02 -0.57173076758E+01  0.15794004041E+02  0.26820794946E+02  0.51100000000E-03 0. -1.
        -11    1    3    3    0    0  0.59437939447E+01 -0.46966687722E+01 -0.52222418620E+01  0.92010431115E+01  0.51100000000E-03 0.  1.
        -12    1    3    3    0    0 -0.94780703310E+01 -0.16117857133E+02 -0.13868940745E+02  0.23280177257E+02  0.00000000000E+00 0.  1.
</event>
<event>
 7    1  0.1344618E-011  0.5930195E+02  0.7816164E-02  0.1266605E+00
        -11   -1    0    0    0    0  0.00000000000E+00  0.00000000000E+00  0.45593999997E+02  0.45594000000E+02  0.51100000000E-03 0.  1.
         11   -1    0    0    0    0 -0.00000000000E+00 -0.00000000000E+00 -0.45593999997E+02  0.45594000000E+02  0.51100000000E-03 0. -1.
    9900012    2    1    2    0    0  0.17725215573E+02  0.21798203111E+02 -0.15078968420E+02  0.59301949530E+02  0.50000010034E+02 0.  0.
        -12    1    1    2    0    0 -0.17725215573E+02 -0.21798203111E+02  0.15078968420E+02  0.31886050470E+02  0.00000000000E+00 0.  1.
         11    1    3    3    0    0 -0.98021607757E+01 -0.32338230638E+01 -0.19535532114E+01  0.10505062489E+02  0.51100000000E-03 0. -1.
        -11    1    3    3    0    0 -0.49947923368E+01  0.40952465885E+01 -0.71905094294E+01  0.96655274674E+01  0.51100000000E-03 0.  1.
        -12    1    3    3    0    0  0.32522168686E+02  0.20936779586E+02 -0.59349057789E+01  0.39131359574E+02  0.00000000000E+00 0.  1.
</event>
<event>
 7    1  0.1344618E-011  0.5930196E+02  0.7816164E-02  0.1266605E+00
        -11   -1    0    0    0    0  0.00000000000E+00  0.00000000000E+00  0.45593999997E+02  0.45594000000E+02  0.51100000000E-03 0.  1.
         11   -1    0    0    0    0 -0.00000000000E+00 -0.00000000000E+00 -0.45593999997E+02  0.45594000000E+02  0.51100000000E-03 0. -1.
    9900012    2    1    2    0    0 -0.23729044413E+02  0.21161948760E+02  0.24133226258E+01  0.59301956813E+02  0.50000023317E+02 0.  0.
        -12    1    1    2    0    0  0.23729044413E+02 -0.21161948760E+02 -0.24133226258E+01  0.31886043187E+02  0.00000000000E+00 0.  1.
         11    1    3    3    0    0  0.61732916354E-01  0.97992688125E+00 -0.77241163675E+01  0.77862726362E+01  0.51100000000E-03 0. -1.
        -11    1    3    3    0    0 -0.34278800397E+02  0.10494907484E+02  0.43589824318E+01  0.36113431959E+02  0.51100000000E-03 0.  1.
         12    1    3    3    0    0  0.10488023068E+02  0.96871143942E+01  0.57784565615E+01  0.15402252218E+02  0.00000000000E+00 0. -1.
</event>
<event>
 7    1  0.1344618E-011  0.5930194E+02  0.7816164E-02  0.1266605E+00
        -11   -1    0    0    0    0  0.00000000000E+00  0.00000000000E+00  0.45593999997E+02  0.45594000000E+02  0.51100000000E-03 0. -1.
         11   -1    0    0    0    0 -0.00000000000E+00 -0.00000000000E+00 -0.45593999997E+02  0.45594000000E+02  0.51100000000E-03 0.  1.
    9900012    2    1    2    0    0  0.22896617638E+02 -0.19784612782E+02  0.10051597769E+02  0.59301943174E+02  0.49999998443E+02 0.  0.
        -12    1    1    2    0    0 -0.22896617638E+02  0.19784612782E+02 -0.10051597769E+02  0.31886056826E+02  0.00000000000E+00 0.  1.
         11    1    3    3    0    0  0.14648743860E+02 -0.70511123621E+01  0.62938227407E+01  0.17433189243E+02  0.51100000000E-03 0. -1.
        -11    1    3    3    0    0  0.12613599488E+02 -0.16985209144E+02 -0.12453622245E+02  0.24549805071E+02  0.51100000000E-03 0.  1.
         12    1    3    3    0    0 -0.43657257107E+01  0.42517087239E+01  0.16211397274E+02  0.17318948860E+02  0.00000000000E+00 0. -1.
</event>
<event>
 7    1  0.1344618E-011  0.5930194E+02  0.7816164E-02  0.1266605E+00
        -11   -1    0    0    0    0  0.00000000000E+00  0.00000000000E+00  0.45593999997E+02  0.45594000000E+02  0.51100000000E-03 0.  1.
         11   -1    0    0    0    0 -0.00000000000E+00 -0.00000000000E+00 -0.45593999997E+02  0.45594000000E+02  0.51100000000E-03 0. -1.
    9900012    2    1    2    0    0  0.28949424650E+02  0.10100796164E+02 -0.87536122130E+01  0.59301937254E+02  0.49999987645E+02 0.  0.
        -12    1    1    2    0    0 -0.28949424650E+02 -0.10100796164E+02  0.87536122130E+01  0.31886062746E+02  0.00000000000E+00 0.  1.
         11    1    3    3    0    0 -0.42072258819E+01  0.31780882069E+00  0.73197307611E+00  0.42822350371E+01  0.51100000000E-03 0. -1.
        -11    1    3    3    0    0 -0.65100240753E+01  0.70622835762E+01  0.70948021171E+01  0.11941209324E+02  0.51100000000E-03 0.  1.
         12    1    3    3    0    0  0.39666674607E+02  0.27207037672E+01 -0.16580387406E+02  0.43078492893E+02  0.00000000000E+00 0. -1.
</event>
<event>
 7    1  0.1344618E-011  0.5930199E+02  0.7816164E-02  0.1266605E+00
        -11   -1    0    0    0    0  0.00000000000E+00  0.00000000000E+00  0.45593999997E+02  0.45594000000E+02  0.51100000000E-03 0.  1.
         11   -1    0    0    0    0 -0.00000000000E+00 -0.00000000000E+00 -0.45593999997E+02  0.45594000000E+02  0.51100000000E-03 0. -1.
    9900012    2    1    2    0    0  0.25560410451E+02  0.14266943166E+02 -0.12642683289E+02  0.59301989110E+02  0.50000082219E+02 0.  0.
        -12    1    1    2    0    0 -0.25560410451E+02 -0.14266943166E+02  0.12642683289E+02  0.31886010890E+02  0.00000000000E+00 0.  1.
         11    1    3    3    0    0 -0.17617807897E+01  0.18349418770E+01 -0.15723005269E+00  0.25486476402E+01  0.51100000000E-03 0. -1.
        -11    1    3    3    0    0 -0.57189626607E+01  0.47038169313E+01 -0.20577170045E+02  0.21868981571E+02  0.51100000000E-03 0.  1.
         12    1    3    3    0    0  0.33041153902E+02  0.77281843577E+01  0.80917168088E+01  0.34884359898E+02  0.00000000000E+00 0. -1.
</event>
<event>
 7    1  0.1344618E-011  0.5930202E+02  0.7816164E-02  0.1266604E+00
        -11   -1    0    0    0    0  0.00000000000E+00  0.00000000000E+00  0.45593999997E+02  0.45594000000E+02  0.51100000000E-03 0. -1.
         11   -1    0    0    0    0 -0.00000000000E+00 -0.00000000000E+00 -0.45593999997E+02  0.45594000000E+02  0.51100000000E-03 0.  1.
    9900012    2    1    2    0    0  0.13554525621E+02  0.74607781313E+01  0.27880587595E+02  0.59302022835E+02  0.50000143725E+02 0.  0.
        -12    1    1    2    0    0 -0.13554525621E+02 -0.74607781313E+01 -0.27880587595E+02  0.31885977165E+02  0.00000000000E+00 0.  1.
         11    1    3    3    0    0 -0.95800056474E+01  0.75284811768E+01  0.44693186182E+01  0.12978033218E+02  0.51100000000E-03 0. -1.
        -11    1    3    3    0    0  0.64570347332E+01 -0.55196209080E+01 -0.71372948979E+01  0.11095066076E+02  0.51100000000E-03 0.  1.
         12    1    3    3    0    0  0.16677496535E+02  0.54519178625E+01  0.30548563875E+02  0.35228923541E+02  0.00000000000E+00 0. -1.
</event>
<event>
 7    1  0.1344618E-011  0.5930197E+02  0.7816164E-02  0.1266605E+00
        -11   -1    0    0    0    0  0.00000000000E+00  0.00000000000E+00  0.45593999997E+02  0.45594000000E+02  0.51100000000E-03 0.  1.
         11   -1    0    0    0    0 -0.00000000000E+00 -0.00000000000E+00 -0.45593999997E+02  0.45594000000E+02  0.51100000000E-03 0. -1.
    9900012    2    1    2    0    0 -0.98197506726E+01  0.30232498748E+02  0.25075354559E+01  0.59301965159E+02  0.50000038538E+02 0.  0.
        -12    1    1    2    0    0  0.98197506726E+01 -0.30232498748E+02 -0.25075354559E+01  0.31886034841E+02  0.00000000000E+00 0.  1.
         11    1    3    3    0    0 -0.24466607172E+01  0.23989222291E+02  0.81190118572E+01  0.25443806488E+02  0.51100000000E-03 0.  1.
        -11    1    3    3    0    0 -0.89264358323E+01  0.18732715782E+02 -0.44191166471E+01  0.21216137477E+02  0.51100000000E-03 0. -1.
        -12    1    3    3    0    0  0.15533458769E+01 -0.12489439326E+02 -0.11923597541E+01  0.12642021194E+02  0.00000000000E+00 0.  1.
</event>
<event>
 7    1  0.1344618E-011  0.5930194E+02  0.7816164E-02  0.1266605E+00
        -11   -1    0    0    0    0  0.00000000000E+00  0.00000000000E+00  0.45593999997E+02  0.45594000000E+02  0.51100000000E-03 0.  1.
         11   -1    0    0    0    0 -0.00000000000E+00 -0.00000000000E+00 -0.45593999997E+02  0.45594000000E+02  0.51100000000E-03 0. -1.
    9900012    2    1    2    0    0  0.12823047719E+02  0.19252112602E+02 -0.21946443627E+02  0.59301940659E+02  0.49999993856E+02 0.  0.
        -12    1    1    2    0    0 -0.12823047719E+02 -0.19252112602E+02  0.21946443627E+02  0.31886059341E+02  0.00000000000E+00 0.  1.
         11    1    3    3    0    0 -0.52715642176E+00  0.11273205530E+02 -0.33271973191E+02  0.35133847741E+02  0.51100000000E-03 0. -1.
        -11    1    3    3    0    0 -0.13872767410E+01  0.62658258036E+01  0.23885114356E+01  0.68476344015E+01  0.51100000000E-03 0.  1.
        -12    1    3    3    0    0  0.14737480882E+02  0.17130812682E+01  0.89370181283E+01  0.17320458516E+02  0.00000000000E+00 0.  1.
</event>
<event>
 7    1  0.1344618E-011  0.5930207E+02  0.7816164E-02  0.1266604E+00
        -11   -1    0    0    0    0  0.00000000000E+00  0.00000000000E+00  0.45593999997E+02  0.45594000000E+02  0.51100000000E-03 0.  1.
         11   -1    0    0    0    0 -0.00000000000E+00 -0.00000000000E+00 -0.45593999997E+02  0.45594000000E+02  0.51100000000E-03 0. -1.
    9900012    2    1    2    0    0 -0.44635437128E+01 -0.55259149600E+01 -0.31084619873E+02  0.59302069698E+02  0.50000229191E+02 0.  0.
        -12    1    1    2    0    0  0.44635437128E+01  0.55259149600E+01  0.31084619873E+02  0.31885930302E+02  0.00000000000E+00 0.  1.
         11    1    3    3    0    0  0.32315588855E+01 -0.18926745336E+02 -0.15594335525E+02  0.24735560689E+02  0.51100000000E-03 0. -1.
        -11    1    3    3    0    0 -0.14749165633E+01 -0.82459091113E+01 -0.43698336493E+01  0.94480602414E+01  0.51100000000E-03 0.  1.
        -12    1    3    3    0    0 -0.62201860349E+01  0.21646739488E+02 -0.11120450698E+02  0.25118448768E+02  0.00000000000E+00 0.  1.
</event>
<event>
 7    1  0.1344618E-011  0.5930202E+02  0.7816164E-02  0.1266605E+00
        -11   -1    0    0    0    0  0.00000000000E+00  0.00000000000E+00  0.45593999997E+02  0.45594000000E+02  0.51100000000E-03 0.  1.
         11   -1    0    0    0    0 -0.00000000000E+00 -0.00000000000E+00 -0.45593999997E+02  0.45594000000E+02  0.51100000000E-03 0. -1.
    9900012    2    1    2    0    0  0.27542548432E+02  0.89830690126E+01 -0.13320225876E+02  0.59302016867E+02  0.50000132841E+02 0.  0.
        -12    1    1    2    0    0 -0.27542548432E+02 -0.89830690126E+01  0.13320225876E+02  0.31885983133E+02  0.00000000000E+00 0.  1.
         11    1    3    3    0    0  0.28594794728E+02 -0.70283701379E+01 -0.10549389118E+01  0.29464778443E+02  0.51100000000E-03 0. -1.
        -11    1    3    3    0    0 -0.68083407412E+01 -0.61295420358E-01  0.25125110933E+01  0.72574081484E+01  0.51100000000E-03 0.  1.
         12    1    3    3    0    0  0.57560944451E+01  0.16072734571E+02 -0.14777798058E+02  0.22579830276E+02  0.00000000000E+00 0. -1.
</event>
<event>
 7    1  0.1344618E-011  0.5930196E+02  0.7816164E-02  0.1266605E+00
        -11   -1    0    0    0    0  0.00000000000E+00  0.00000000000E+00  0.45593999997E+02  0.45594000000E+02  0.51100000000E-03 0. -1.
         11   -1    0    0    0    0 -0.00000000000E+00 -0.00000000000E+00 -0.45593999997E+02  0.45594000000E+02  0.51100000000E-03 0.  1.
    9900012    2    1    2    0    0 -0.71872453425E+01 -0.29509642020E+02 -0.97079408615E+01  0.59301959425E+02  0.50000028081E+02 0.  0.
        -12    1    1    2    0    0  0.71872453425E+01  0.29509642020E+02  0.97079408615E+01  0.31886040575E+02  0.00000000000E+00 0.  1.
         11    1    3    3    0    0 -0.11922735578E+02  0.60894074335E-02  0.62540721659E+01  0.13463472051E+02  0.51100000000E-03 0. -1.
        -11    1    3    3    0    0 -0.12500815828E+02 -0.62628134795E+01 -0.42429444109E+01  0.14611495700E+02  0.51100000000E-03 0.  1.
         12    1    3    3    0    0  0.17236306064E+02 -0.23252917948E+02 -0.11719068616E+02  0.31226991675E+02  0.00000000000E+00 0. -1.
</event>
<event>
 7    1  0.1344618E-011  0.5930193E+02  0.7816164E-02  0.1266605E+00
        -11   -1    0    0    0    0  0.00000000000E+00  0.00000000000E+00  0.45593999997E+02  0.45594000000E+02  0.51100000000E-03 0. -1.
         11   -1    0    0    0    0 -0.00000000000E+00 -0.00000000000E+00 -0.45593999997E+02  0.45594000000E+02  0.51100000000E-03 0.  1.
    9900012    2    1    2    0    0 -0.29498631817E+02  0.12101366383E+02 -0.32987193787E+00  0.59301934659E+02  0.49999982914E+02 0.  0.
        -12    1    1    2    0    0  0.29498631817E+02 -0.12101366383E+02  0.32987193787E+00  0.31886065341E+02  0.00000000000E+00 0.  1.
         11    1    3    3    0    0 -0.16566740084E+02 -0.69416824056E+01  0.18169517235E+02  0.25549465522E+02  0.51100000000E-03 0. -1.
        -11    1    3    3    0    0 -0.31772081174E+01 -0.28093118549E+01 -0.35962956263E+01  0.55605959224E+01  0.51100000000E-03 0.  1.
        -12    1    3    3    0    0 -0.97546836156E+01  0.21852360643E+02 -0.14903093547E+02  0.28191873215E+02  0.00000000000E+00 0.  1.
</event>
<event>
 7    1  0.1344618E-011  0.5930193E+02  0.7816164E-02  0.1266605E+00
        -11   -1    0    0    0    0  0.00000000000E+00  0.00000000000E+00  0.45593999997E+02  0.45594000000E+02  0.51100000000E-03 0.  1.
         11   -1    0    0    0    0 -0.00000000000E+00 -0.00000000000E+00 -0.45593999997E+02  0.45594000000E+02  0.51100000000E-03 0. -1.
    9900012    2    1    2    0    0  0.31674747049E+01  0.23630531606E+02 -0.21172777640E+02  0.59301930425E+02  0.49999975191E+02 0.  0.
        -12    1    1    2    0    0 -0.31674747049E+01 -0.23630531606E+02  0.21172777640E+02  0.31886069575E+02  0.00000000000E+00 0.  1.
         11    1    3    3    0    0 -0.31487518632E+01  0.15946036705E+02 -0.25271022617E+02  0.30046885184E+02  0.51100000000E-03 0. -1.
        -11    1    3    3    0    0  0.12337542533E+02  0.14850568921E+02  0.47167901404E+01  0.19874668866E+02  0.51100000000E-03 0.  1.
         12    1    3    3    0    0 -0.60213159651E+01 -0.71660740205E+01 -0.61854516356E+00  0.93803763751E+01  0.00000000000E+00 0. -1.
</event>
<event>
 7    1  0.1344618E-011  0.5930195E+02  0.7816164E-02  0.1266605E+00
        -11   -1    0    0    0    0  0.00000000000E+00  0.00000000000E+00  0.45593999997E+02  0.45594000000E+02  0.51100000000E-03 0. -1.
         11   -1    0    0    0    0 -0.00000000000E+00 -0.00000000000E+00 -0.45593999997E+02  0.45594000000E+02  0.51100000000E-03 0.  1.
    9900012    2    1    2    0    0  0.97290189808E+01 -0.27062470016E+02  0.13772770000E+02  0.59301948391E+02  0.50000007958E+02 0.  0.
        -12    1    1    2    0    0 -0.97290189808E+01  0.27062470016E+02 -0.13772770000E+02  0.31886051609E+02  0.00000000000E+00 0.  1.
         11    1    3    3    0    0 -0.12160595803E+02 -0.95504503179E+01  0.10399495983E+01  0.15497505831E+02  0.51100000000E-03 0. -1.
        -11    1    3    3    0    0  0.97700644154E+01  0.49144782169E+01 -0.57131595208E+01  0.12338818695E+02  0.51100000000E-03 0.  1.
         12    1    3    3    0    0  0.12119550368E+02 -0.22426497915E+02  0.18445979923E+02  0.31465623865E+02  0.00000000000E+00 0. -1.
</event>
<event>
 7    1  0.1344618E-011  0.5930198E+02  0.7816164E-02  0.1266605E+00
        -11   -1    0    0    0    0  0.00000000000E+00  0.00000000000E+00  0.45593999997E+02  0.45594000000E+02  0.51100000000E-03 0.  1.
         11   -1    0    0    0    0 -0.00000000000E+00 -0.00000000000E+00 -0.45593999997E+02  0.45594000000E+02  0.51100000000E-03 0. -1.
    9900012    2    1    2    0    0 -0.23879406006E+02 -0.20636345117E+02  0.45423931800E+01  0.59301982582E+02  0.50000070314E+02 0.  0.
        -12    1    1    2    0    0  0.23879406006E+02  0.20636345117E+02 -0.45423931800E+01  0.31886017418E+02  0.00000000000E+00 0.  1.
         11    1    3    3    0    0 -0.37058166666E+02 -0.18100825960E+02  0.98930887388E+01  0.42412507850E+02  0.51100000000E-03 0. -1.
        -11    1    3    3    0    0 -0.87606620863E+00 -0.14841375869E+01  0.21391282017E+00  0.17366390916E+01  0.51100000000E-03 0.  1.
        -12    1    3    3    0    0  0.14054826869E+02 -0.10513815694E+01 -0.55646083790E+01  0.15152835640E+02  0.00000000000E+00 0.  1.
</event>
<event>
 7    1  0.1344618E-011  0.5930194E+02  0.7816164E-02  0.1266605E+00
        -11   -1    0    0    0    0  0.00000000000E+00  0.00000000000E+00  0.45593999997E+02  0.45594000000E+02  0.51100000000E-03 0.  1.
         11   -1    0    0    0    0 -0.00000000000E+00 -0.00000000000E+00 -0.45593999997E+02  0.45594000000E+02  0.51100000000E-03 0. -1.
    9900012    2    1    2    0    0 -0.25586341285E+02  0.15570674189E+02  0.10936827129E+02  0.59301938112E+02  0.49999989212E+02 0.  0.
        -12    1    1    2    0    0  0.25586341285E+02 -0.15570674189E+02 -0.10936827129E+02  0.31886061888E+02  0.00000000000E+00 0.  1.
         11    1    3    3    0    0 -0.18393281984E+02 -0.79511345915E+01 -0.51984160929E+01  0.20701615724E+02  0.51100000000E-03 0. -1.
        -11    1    3    3    0    0 -0.88129194496E+01 -0.20425143265E+01  0.17246467164E+01  0.92094419243E+01  0.51100000000E-03 0.  1.
        -12    1    3    3    0    0  0.16198601488E+01  0.25564323107E+02  0.14410596506E+02  0.29390880465E+02  0.00000000000E+00 0.  1.
</event>
<event>
 7    1  0.1344618E-011  0.5930190E+02  0.7816164E-02  0.1266605E+00
        -11   -1    0    0    0    0  0.00000000000E+00  0.00000000000E+00  0.45593999997E+02  0.45594000000E+02  0.51100000000E-03 0.  1.
         11   -1    0    0    0    0 -0.00000000000E+00 -0.00000000000E+00 -0.45593999997E+02  0.45594000000E+02  0.51100000000E-03 0. -1.
    9900012    2    1    2    0    0 -0.17915097935E+02  0.24750742453E+02  0.91199284038E+01  0.59301904596E+02  0.49999928086E+02 0.  0.
        -12    1    1    2    0    0  0.17915097935E+02 -0.24750742453E+02 -0.91199284038E+01  0.31886095404E+02  0.00000000000E+00 0.  1.
         11    1    3    3    0    0  0.58588381771E+01  0.13208336091E+02 -0.34152286574E+01  0.14847555830E+02  0.51100000000E-03 0. -1.
        -11    1    3    3    0    0 -0.56604945250E+01  0.20358697787E+02  0.12003428291E+02  0.24302264603E+02  0.51100000000E-03 0.  1.
         12    1    3    3    0    0 -0.18113441587E+02 -0.88162914247E+01  0.53172877023E+00  0.20152084163E+02  0.00000000000E+00 0. -1.
</event>
<event>
 7    1  0.1344618E-011  0.5930196E+02  0.7816164E-02  0.1266605E+00
        -11   -1    0    0    0    0  0.00000000000E+00  0.00000000000E+00  0.45593999997E+02  0.45594000000E+02  0.51100000000E-03 0. -1.
         11   -1    0    0    0    0 -0.00000000000E+00 -0.00000000000E+00 -0.45593999997E+02  0.45594000000E+02  0.51100000000E-03 0.  1.
    9900012    2    1    2    0    0  0.20628324788E+02 -0.14666594127E+02  0.19392849783E+02  0.59301962467E+02  0.50000033629E+02 0.  0.
        -12    1    1    2    0    0 -0.20628324788E+02  0.14666594127E+02 -0.19392849783E+02  0.31886037533E+02  0.00000000000E+00 0.  1.
         11    1    3    3    0    0  0.10784320503E+02  0.65013835363E+00  0.21583153111E+02  0.24136212359E+02  0.51100000000E-03 0. -1.
        -11    1    3    3    0    0 -0.23126190893E+01 -0.26456908137E+01 -0.13717634053E+02  0.14160556882E+02  0.51100000000E-03 0.  1.
         12    1    3    3    0    0  0.12156623374E+02 -0.12671041667E+02  0.11527330725E+02  0.21005193225E+02  0.00000000000E+00 0. -1.
</event>
<event>
 7    1  0.1344618E-011  0.5930196E+02  0.7816164E-02  0.1266605E+00
        -11   -1    0    0    0    0  0.00000000000E+00  0.00000000000E+00  0.45593999997E+02  0.45594000000E+02  0.51100000000E-03 0.  1.
         11   -1    0    0    0    0 -0.00000000000E+00 -0.00000000000E+00 -0.45593999997E+02  0.45594000000E+02  0.51100000000E-03 0. -1.
    9900012    2    1    2    0    0  0.16947032784E+02  0.90839711999E+01 -0.25436175413E+02  0.59301961165E+02  0.50000031255E+02 0.  0.
        -12    1    1    2    0    0 -0.16947032784E+02 -0.90839711999E+01  0.25436175413E+02  0.31886038835E+02  0.00000000000E+00 0.  1.
         11    1    3    3    0    0 -0.27572168248E+01 -0.85730894538E+01 -0.66579260980E+01  0.11199468183E+02  0.51100000000E-03 0. -1.
        -11    1    3    3    0    0  0.19839380943E+02 -0.58459891149E+01 -0.71840165068E+01  0.21894901652E+02  0.51100000000E-03 0.  1.
         12    1    3    3    0    0 -0.13513133469E+00  0.23503049769E+02 -0.11594232808E+02  0.26207591330E+02  0.00000000000E+00 0. -1.
</event>
<event>
 7    1  0.1344618E-011  0.5930192E+02  0.7816164E-02  0.1266605E+00
        -11   -1    0    0    0    0  0.00000000000E+00  0.00000000000E+00  0.45593999997E+02  0.45594000000E+02  0.51100000000E-03 0.  1.
         11   -1    0    0    0    0 -0.00000000000E+00 -0.00000000000E+00 -0.45593999997E+02  0.45594000000E+02  0.51100000000E-03 0. -1.
    9900012    2    1    2    0    0 -0.28117542495E+02  0.85886186104E+01 -0.12343490376E+02  0.59301916511E+02  0.49999949817E+02 0.  0.
        -12    1    1    2    0    0  0.28117542495E+02 -0.85886186104E+01  0.12343490376E+02  0.31886083489E+02  0.00000000000E+00 0.  1.
         11    1    3    3    0    0 -0.15234202174E+01 -0.10749071644E+02 -0.58531886855E+01  0.12333822133E+02  0.51100000000E-03 0. -1.
        -11    1    3    3    0    0  0.57309377909E+01 -0.26606310050E+01 -0.46121337628E+01  0.78226839010E+01  0.51100000000E-03 0.  1.
         12    1    3    3    0    0 -0.32325060068E+02  0.21998321259E+02 -0.18781679278E+01  0.39145410477E+02  0.00000000000E+00 0. -1.
</event>
<event>
 7    1  0.1344618E-011  0.5930195E+02  0.7816164E-02  0.1266605E+00
        -11   -1    0    0    0    0  0.00000000000E+00  0.00000000000E+00  0.45593999997E+02  0.45594000000E+02  0.51100000000E-03 0. -1.
         11   -1    0    0    0    0 -0.00000000000E+00 -0.00000000000E+00 -0.45593999997E+02  0.45594000000E+02  0.51100000000E-03 0.  1.
    9900012    2    1    2    0    0  0.82634523747E+00 -0.23993537036E+02  0.20984464951E+02  0.59301946070E+02  0.50000003725E+02 0.  0.
        -12    1    1    2    0    0 -0.82634523747E+00  0.23993537036E+02 -0.20984464951E+02  0.31886053930E+02  0.00000000000E+00 0.  1.
         11    1    3    3    0    0 -0.35109581431E+00  0.46614167665E+01 -0.69767993405E+00  0.47263973694E+01  0.51100000000E-03 0. -1.
        -11    1    3    3    0    0 -0.10084001559E+00 -0.20060448691E+02 -0.95064517352E+01  0.22199198076E+02  0.51100000000E-03 0.  1.
        -12    1    3    3    0    0  0.12782810674E+01 -0.85945051121E+01  0.31188596620E+02  0.32376350624E+02  0.00000000000E+00 0.  1.
</event>
<event>
 7    1  0.1344618E-011  0.5930198E+02  0.7816164E-02  0.1266605E+00
        -11   -1    0    0    0    0  0.00000000000E+00  0.00000000000E+00  0.45593999997E+02  0.45594000000E+02  0.51100000000E-03 0. -1.
         11   -1    0    0    0    0 -0.00000000000E+00 -0.00000000000E+00 -0.45593999997E+02  0.45594000000E+02  0.51100000000E-03 0.  1.
    9900012    2    1    2    0    0 -0.20682681432E+02 -0.21804279619E+02  0.10654511169E+02  0.59301975959E+02  0.50000058234E+02 0.  0.
        -12    1    1    2    0    0  0.20682681432E+02  0.21804279619E+02 -0.10654511169E+02  0.31886024041E+02  0.00000000000E+00 0.  1.
         11    1    3    3    0    0 -0.16999487309E+02 -0.10024307246E+02  0.68397133717E+01  0.20886622125E+02  0.51100000000E-03 0. -1.
        -11    1    3    3    0    0 -0.11607689650E+02  0.96644823333E+01  0.37100737727E+01  0.15553305933E+02  0.51100000000E-03 0.  1.
         12    1    3    3    0    0  0.79244955285E+01 -0.21444454707E+02  0.10472402435E+00  0.22862047900E+02  0.00000000000E+00 0. -1.
</event>
<event>
 7    1  0.1344618E-011  0.5930189E+02  0.7816164E-02  0.1266605E+00
        -11   -1    0    0    0    0  0.00000000000E+00  0.00000000000E+00  0.45593999997E+02  0.45594000000E+02  0.51100000000E-03 0. -1.
         11   -1    0    0    0    0 -0.00000000000E+00 -0.00000000000E+00 -0.45593999997E+02  0.45594000000E+02  0.51100000000E-03 0.  1.
    9900012    2    1    2    0    0 -0.12747576927E+02  0.27937209255E+02 -0.85869614960E+01  0.59301885684E+02  0.49999893595E+02 0.  0.
        -12    1    1    2    0    0  0.12747576927E+02 -0.27937209255E+02  0.85869614960E+01  0.31886114316E+02  0.00000000000E+00 0.  1.
         11    1    3    3    0    0  0.11565443363E+02  0.20661349123E+02  0.80119831029E+01  0.24996853828E+02  0.51100000000E-03 0. -1.
        -11    1    3    3    0    0 -0.20373482302E+01  0.72766712292E+01 -0.59338095867E+01  0.96078524375E+01  0.51100000000E-03 0.  1.
        -12    1    3    3    0    0 -0.22275672061E+02 -0.81109788622E-03 -0.10665135012E+02  0.24697179419E+02  0.00000000000E+00 0.  1.
</event>
<event>
 7    1  0.1344618E-011  0.5930198E+02  0.7816164E-02  0.1266605E+00
        -11   -1    0    0    0    0  0.00000000000E+00  0.00000000000E+00  0.45593999997E+02  0.45594000000E+02  0.51100000000E-03 0. -1.
         11   -1    0    0    0    0 -0.00000000000E+00 -0.00000000000E+00 -0.45593999997E+02  0.45594000000E+02  0.51100000000E-03 0.  1.
    9900012    2    1    2    0    0 -0.23581594086E+02  0.17572907769E+02  0.12321512089E+02  0.59301979125E+02  0.50000064009E+02 0.  0.
        -12    1    1    2    0    0  0.23581594086E+02 -0.17572907769E+02 -0.12321512089E+02  0.31886020875E+02  0.00000000000E+00 0.  1.
         11    1    3    3    0    0 -0.16497021990E+02  0.14496822714E+02 -0.52077171092E+01  0.22570554293E+02  0.51100000000E-03 0. -1.
        -11    1    3    3    0    0 -0.76352813654E+01  0.13890134611E+02 -0.32117081222E+00  0.15853596184E+02  0.51100000000E-03 0.  1.
        -12    1    3    3    0    0  0.55070927001E+00 -0.10814049555E+02  0.17850400010E+02  0.20877828647E+02  0.00000000000E+00 0.  1.
</event>
<event>
 7    1  0.1344618E-011  0.5930195E+02  0.7816164E-02  0.1266605E+00
        -11   -1    0    0    0    0  0.00000000000E+00  0.00000000000E+00  0.45593999997E+02  0.45594000000E+02  0.51100000000E-03 0.  1.
         11   -1    0    0    0    0 -0.00000000000E+00 -0.00000000000E+00 -0.45593999997E+02  0.45594000000E+02  0.51100000000E-03 0. -1.
    9900012    2    1    2    0    0  0.24668125309E+02 -0.17972936625E+02 -0.92291400592E+01  0.59301954722E+02  0.50000019504E+02 0.  0.
        -12    1    1    2    0    0 -0.24668125309E+02  0.17972936625E+02  0.92291400592E+01  0.31886045278E+02  0.00000000000E+00 0.  1.
         11    1    3    3    0    0 -0.10899330309E+02 -0.60226507941E+00 -0.70197442214E+01  0.12978248480E+02  0.51100000000E-03 0. -1.
        -11    1    3    3    0    0  0.22544670304E+01  0.12714265907E+01  0.66489979130E+01  0.71350067046E+01  0.51100000000E-03 0.  1.
         12    1    3    3    0    0  0.33312988588E+02 -0.18642098136E+02 -0.88583937508E+01  0.39188699538E+02  0.00000000000E+00 0. -1.
</event>
<event>
 7    1  0.1344618E-011  0.5930196E+02  0.7816164E-02  0.1266605E+00
        -11   -1    0    0    0    0  0.00000000000E+00  0.00000000000E+00  0.45593999997E+02  0.45594000000E+02  0.51100000000E-03 0.  1.
         11   -1    0    0    0    0 -0.00000000000E+00 -0.00000000000E+00 -0.45593999997E+02  0.45594000000E+02  0.51100000000E-03 0. -1.
    9900012    2    1    2    0    0 -0.61107856718E+01 -0.30539965009E+02 -0.68329057394E+01  0.59301956578E+02  0.50000022889E+02 0.  0.
        -12    1    1    2    0    0  0.61107856718E+01  0.30539965009E+02  0.68329057394E+01  0.31886043422E+02  0.00000000000E+00 0.  1.
         11    1    3    3    0    0 -0.59373064787E+01 -0.73939660064E+01  0.23484347963E+01  0.97692112158E+01  0.51100000000E-03 0. -1.
        -11    1    3    3    0    0  0.15365767078E+02  0.31859826163E+00  0.71966751890E+01  0.16970575617E+02  0.51100000000E-03 0.  1.
         12    1    3    3    0    0 -0.15539246271E+02 -0.23464597264E+02 -0.16378015725E+02  0.32562169745E+02  0.00000000000E+00 0. -1.
</event>
<event>
 7    1  0.1379508E-011  0.5930195E+02  0.7816164E-02  0.1266605E+00
        -11   -1    0    0    0    0  0.00000000000E+00  0.00000000000E+00  0.45593999997E+02  0.45594000000E+02  0.51100000000E-03 0.  1.
         11   -1    0    0    0    0 -0.00000000000E+00 -0.00000000000E+00 -0.45593999997E+02  0.45594000000E+02  0.51100000000E-03 0. -1.
    9900012    2    1    2    0    0 -0.24462743864E+02 -0.13680557773E+02 -0.15203188420E+02  0.59301946050E+02  0.50000003688E+02 0.  0.
        -12    1    1    2    0    0  0.24462743864E+02  0.13680557773E+02  0.15203188420E+02  0.31886053950E+02  0.00000000000E+00 0.  1.
         11    1    3    3    0    0 -0.16282691936E+02 -0.22658458254E+02 -0.21389158226E+02  0.35157188127E+02  0.51100000000E-03 0. -1.
        -11    1    3    3    0    0 -0.12676970580E+02 -0.49463464450E+00  0.19495416616E+01  0.12835535028E+02  0.51100000000E-03 0.  1.
        -12    1    3    3    0    0  0.44969186519E+01  0.94725351251E+01  0.42364281441E+01  0.11309222895E+02  0.00000000000E+00 0.  1.
</event>
<event>
 7    1  0.1344618E-011  0.5930193E+02  0.7816164E-02  0.1266605E+00
        -11   -1    0    0    0    0  0.00000000000E+00  0.00000000000E+00  0.45593999997E+02  0.45594000000E+02  0.51100000000E-03 0.  1.
         11   -1    0    0    0    0 -0.00000000000E+00 -0.00000000000E+00 -0.45593999997E+02  0.45594000000E+02  0.51100000000E-03 0. -1.
    9900012    2    1    2    0    0  0.23507603713E+02  0.19772330179E+02  0.85538807996E+01  0.59301931730E+02  0.49999977571E+02 0.  0.
        -12    1    1    2    0    0 -0.23507603713E+02 -0.19772330179E+02 -0.85538807996E+01  0.31886068270E+02  0.00000000000E+00 0.  1.
         11    1    3    3    0    0  0.10792343864E+02 -0.17164674677E+01 -0.41928746312E+01  0.11704748805E+02  0.51100000000E-03 0. -1.
        -11    1    3    3    0    0 -0.19462096238E+01 -0.21643826796E+01  0.18878061635E+02  0.19101138596E+02  0.51100000000E-03 0.  1.
        -12    1    3    3    0    0  0.14661469472E+02  0.23653180326E+02 -0.61313062045E+01  0.28496044329E+02  0.00000000000E+00 0.  1.
</event>
<event>
 7    1  0.1344618E-011  0.5930199E+02  0.7816164E-02  0.1266605E+00
        -11   -1    0    0    0    0  0.00000000000E+00  0.00000000000E+00  0.45593999997E+02  0.45594000000E+02  0.51100000000E-03 0.  1.
         11   -1    0    0    0    0 -0.00000000000E+00 -0.00000000000E+00 -0.45593999997E+02  0.45594000000E+02  0.51100000000E-03 0. -1.
    9900012    2    1    2    0    0 -0.11347354944E+02  0.27914700188E+02 -0.10427111551E+02  0.59301990432E+02  0.50000084631E+02 0.  0.
        -12    1    1    2    0    0  0.11347354944E+02 -0.27914700188E+02  0.10427111551E+02  0.31886009568E+02  0.00000000000E+00 0.  1.
         11    1    3    3    0    0 -0.24763106049E+01  0.17628786147E+02 -0.22546469170E+02  0.28727155924E+02  0.51100000000E-03 0. -1.
        -11    1    3    3    0    0 -0.11534455756E+02  0.54585447411E+00 -0.34197188993E+01  0.12043093635E+02  0.51100000000E-03 0.  1.
        -12    1    3    3    0    0  0.26634114168E+01  0.97400595674E+01  0.15539076518E+02  0.18531740873E+02  0.00000000000E+00 0.  1.
</event>
<event>
 7    1  0.1344618E-011  0.5930192E+02  0.7816164E-02  0.1266605E+00
        -11   -1    0    0    0    0  0.00000000000E+00  0.00000000000E+00  0.45593999997E+02  0.45594000000E+02  0.51100000000E-03 0.  1.
         11   -1    0    0    0    0 -0.00000000000E+00 -0.00000000000E+00 -0.45593999997E+02  0.45594000000E+02  0.51100000000E-03 0. -1.
    9900012    2    1    2    0    0  0.20845168837E+02  0.16045986639E+00 -0.24128307147E+02  0.59301921267E+02  0.49999958490E+02 0.  0.
        -12    1    1    2    0    0 -0.20845168837E+02 -0.16045986639E+00  0.24128307147E+02  0.31886078733E+02  0.00000000000E+00 0.  1.
         11    1    3    3    0    0  0.15933309413E+02 -0.18773782119E+01 -0.88315745993E+01  0.18313700007E+02  0.51100000000E-03 0. -1.
        -11    1    3    3    0    0  0.16767685494E+02  0.74139305198E+01  0.29544806474E+01  0.18570153439E+02  0.51100000000E-03 0.  1.
         12    1    3    3    0    0 -0.11855826070E+02 -0.53760924414E+01 -0.18251213195E+02  0.22418067821E+02  0.00000000000E+00 0. -1.
</event>
<event>
 7    1  0.1344618E-011  0.5930192E+02  0.7816164E-02  0.1266605E+00
        -11   -1    0    0    0    0  0.00000000000E+00  0.00000000000E+00  0.45593999997E+02  0.45594000000E+02  0.51100000000E-03 0.  1.
         11   -1    0    0    0    0 -0.00000000000E+00 -0.00000000000E+00 -0.45593999997E+02  0.45594000000E+02  0.51100000000E-03 0. -1.
    9900012    2    1    2    0    0 -0.58512334633E+01 -0.90713794914E+01 -0.30003256658E+02  0.59301917315E+02  0.49999951283E+02 0.  0.
        -12    1    1    2    0    0  0.58512334633E+01  0.90713794914E+01  0.30003256658E+02  0.31886082685E+02  0.00000000000E+00 0.  1.
         11    1    3    3    0    0 -0.39858411681E+01  0.38099332521E+01 -0.27121571277E+01  0.61447797152E+01  0.51100000000E-03 0. -1.
        -11    1    3    3    0    0 -0.14399588015E+02 -0.10356690386E+02  0.49986120450E+01  0.18428111498E+02  0.51100000000E-03 0.  1.
         12    1    3    3    0    0  0.12534195720E+02 -0.25246223573E+01 -0.32289711575E+02  0.34729026102E+02  0.00000000000E+00 0. -1.
</event>
<event>
 7    1  0.1344618E-011  0.5930194E+02  0.7816164E-02  0.1266605E+00
        -11   -1    0    0    0    0  0.00000000000E+00  0.00000000000E+00  0.45593999997E+02  0.45594000000E+02  0.51100000000E-03 0.  1.
         11   -1    0    0    0    0 -0.00000000000E+00 -0.00000000000E+00 -0.45593999997E+02  0.45594000000E+02  0.51100000000E-03 0. -1.
    9900012    2    1    2    0    0 -0.78368510827E+01  0.29525058962E+02  0.91419709706E+01  0.59301937609E+02  0.49999988293E+02 0.  0.
        -12    1    1    2    0    0  0.78368510827E+01 -0.29525058962E+02 -0.91419709706E+01  0.31886062391E+02  0.00000000000E+00 0.  1.
         11    1    3    3    0    0  0.15334673578E+02  0.10948344798E+02  0.14817512983E+02  0.23970339147E+02  0.51100000000E-03 0.  1.
        -11    1    3    3    0    0  0.30622289765E+01  0.31276755452E+01 -0.86114882364E-01  0.43780151501E+01  0.51100000000E-03 0. -1.
        -12    1    3    3    0    0 -0.26233753638E+02  0.15449038618E+02 -0.55894271301E+01  0.30953583311E+02  0.00000000000E+00 0.  1.
</event>
<event>
 7    1  0.1344618E-011  0.5930193E+02  0.7816164E-02  0.1266605E+00
        -11   -1    0    0    0    0  0.00000000000E+00  0.00000000000E+00  0.45593999997E+02  0.45594000000E+02  0.51100000000E-03 0.  1.
         11   -1    0    0    0    0 -0.00000000000E+00 -0.00000000000E+00 -0.45593999997E+02  0.45594000000E+02  0.51100000000E-03 0. -1.
    9900012    2    1    2    0    0  0.26291370828E+01  0.30965852947E+02 -0.71361594635E+01  0.59301934353E+02  0.49999982356E+02 0.  0.
        -12    1    1    2    0    0 -0.26291370828E+01 -0.30965852947E+02  0.71361594635E+01  0.31886065647E+02  0.00000000000E+00 0.  1.
         11    1    3    3    0    0 -0.58409645912E+00  0.27921638533E+02 -0.14472856864E+02  0.31455089463E+02  0.51100000000E-03 0. -1.
        -11    1    3    3    0    0  0.30550031343E+01  0.13686425636E+02 -0.13780786316E+01  0.14090791028E+02  0.51100000000E-03 0.  1.
        -12    1    3    3    0    0  0.15823040762E+00 -0.10642211222E+02  0.87147760324E+01  0.13756053862E+02  0.00000000000E+00 0.  1.
</event>
<event>
 7    1  0.1344618E-011  0.5930194E+02  0.7816164E-02  0.1266605E+00
        -11   -1    0    0    0    0  0.00000000000E+00  0.00000000000E+00  0.45593999997E+02  0.45594000000E+02  0.51100000000E-03 0.  1.
         11   -1    0    0    0    0 -0.00000000000E+00 -0.00000000000E+00 -0.45593999997E+02  0.45594000000E+02  0.51100000000E-03 0. -1.
    9900012    2    1    2    0    0 -0.81689114993E+01  0.15283326078E+01 -0.30783983950E+02  0.59301943745E+02  0.49999999484E+02 0.  0.
        -12    1    1    2    0    0  0.81689114993E+01 -0.15283326078E+01  0.30783983950E+02  0.31886056255E+02  0.00000000000E+00 0.  1.
         11    1    3    3    0    0  0.10606346115E+01  0.61032362615E+01  0.42450354747E+01  0.75096448042E+01  0.51100000000E-03 0. -1.
        -11    1    3    3    0    0  0.75531371119E+01  0.42127166823E+01  0.31236029349E+01  0.91953117202E+01  0.51100000000E-03 0.  1.
         12    1    3    3    0    0 -0.16782683223E+02 -0.87876203360E+01 -0.38152622360E+02  0.42596987221E+02  0.00000000000E+00 0. -1.
</event>
<event>
 7    1  0.1344618E-011  0.5930194E+02  0.7816164E-02  0.1266605E+00
        -11   -1    0    0    0    0  0.00000000000E+00  0.00000000000E+00  0.45593999997E+02  0.45594000000E+02  0.51100000000E-03 0. -1.
         11   -1    0    0    0    0 -0.00000000000E+00 -0.00000000000E+00 -0.45593999997E+02  0.45594000000E+02  0.51100000000E-03 0.  1.
    9900012    2    1    2    0    0 -0.98272454572E+01  0.94083409361E+01  0.28837984212E+02  0.59301937749E+02  0.49999988550E+02 0.  0.
        -12    1    1    2    0    0  0.98272454572E+01 -0.94083409361E+01 -0.28837984212E+02  0.31886062251E+02  0.00000000000E+00 0.  1.
         11    1    3    3    0    0  0.61405164916E+01 -0.39577353555E+00 -0.18911204169E+01  0.64373065926E+01  0.51100000000E-03 0. -1.
        -11    1    3    3    0    0  0.88981896218E+01 -0.70813645378E+01  0.25296197300E+01  0.11649999077E+02  0.51100000000E-03 0.  1.
         12    1    3    3    0    0 -0.24865951571E+02  0.16885479010E+02  0.28199484899E+02  0.41214632079E+02  0.00000000000E+00 0. -1.
</event>
<event>
 7    1  0.1344618E-011  0.5930194E+02  0.7816164E-02  0.1266605E+00
        -11   -1    0    0    0    0  0.00000000000E+00  0.00000000000E+00  0.45593999997E+02  0.45594000000E+02  0.51100000000E-03 0.  1.
         11   -1    0    0    0    0 -0.00000000000E+00 -0.00000000000E+00 -0.45593999997E+02  0.45594000000E+02  0.51100000000E-03 0. -1.
    9900012    2    1    2    0    0  0.41160312711E+01  0.31251869442E+02 -0.48062482900E+01  0.59301935965E+02  0.49999985295E+02 0.  0.
        -12    1    1    2    0    0 -0.41160312711E+01 -0.31251869442E+02  0.48062482900E+01  0.31886064035E+02  0.00000000000E+00 0.  1.
         11    1    3    3    0    0  0.78663329015E+00  0.19817695172E+01 -0.49063806199E+01  0.53496517084E+01  0.51100000000E-03 0. -1.
        -11    1    3    3    0    0  0.49822764399E+01  0.17675230809E+02 -0.22171346838E+02  0.28788981982E+02  0.51100000000E-03 0.  1.
        -12    1    3    3    0    0 -0.16528784590E+01  0.11594869115E+02  0.22271479168E+02  0.25163302274E+02  0.00000000000E+00 0.  1.
</event>
<event>
 7    1  0.1344618E-011  0.5930197E+02  0.7816164E-02  0.1266605E+00
        -11   -1    0    0    0    0  0.00000000000E+00  0.00000000000E+00  0.45593999997E+02  0.45594000000E+02  0.51100000000E-03 0.  1.
         11   -1    0    0    0    0 -0.00000000000E+00 -0.00000000000E+00 -0.45593999997E+02  0.45594000000E+02  0.51100000000E-03 0. -1.
    9900012    2    1    2    0    0 -0.21475519201E+02  0.22071538706E+02 -0.82684987517E+01  0.59301971439E+02  0.50000049991E+02 0.  0.
        -12    1    1    2    0    0  0.21475519201E+02 -0.22071538706E+02  0.82684987517E+01  0.31886028561E+02  0.00000000000E+00 0.  1.
         11    1    3    3    0    0 -0.22175857613E+02  0.97509060383E+01  0.11749878180E+02  0.26924124256E+02  0.51100000000E-03 0. -1.
        -11    1    3    3    0    0 -0.25275662000E+01 -0.23711563106E+01  0.31970963303E+01  0.47151244258E+01  0.51100000000E-03 0.  1.
        -12    1    3    3    0    0  0.32279046112E+01  0.14691788978E+02 -0.23215473262E+02  0.27662722757E+02  0.00000000000E+00 0.  1.
</event>
<event>
 7    1  0.1344618E-011  0.5930193E+02  0.7816164E-02  0.1266605E+00
        -11   -1    0    0    0    0  0.00000000000E+00  0.00000000000E+00  0.45593999997E+02  0.45594000000E+02  0.51100000000E-03 0. -1.
         11   -1    0    0    0    0 -0.00000000000E+00 -0.00000000000E+00 -0.45593999997E+02  0.45594000000E+02  0.51100000000E-03 0.  1.
    9900012    2    1    2    0    0  0.13992441917E+02  0.27749822148E+02  0.71330434545E+01  0.59301931429E+02  0.49999977022E+02 0.  0.
        -12    1    1    2    0    0 -0.13992441917E+02 -0.27749822148E+02 -0.71330434545E+01  0.31886068571E+02  0.00000000000E+00 0.  1.
         11    1    3    3    0    0  0.21194260301E+02  0.91290381938E+01  0.14132723473E+02  0.27060485603E+02  0.51100000000E-03 0. -1.
        -11    1    3    3    0    0  0.53509102073E+01  0.13434365415E+02  0.37282820312E+01  0.14933670055E+02  0.51100000000E-03 0.  1.
        -12    1    3    3    0    0 -0.12552728592E+02  0.51864185386E+01 -0.10727962050E+02  0.17307775770E+02  0.00000000000E+00 0.  1.
</event>
<event>
 7    1  0.1344618E-011  0.5930198E+02  0.7816164E-02  0.1266605E+00
        -11   -1    0    0    0    0  0.00000000000E+00  0.00000000000E+00  0.45593999997E+02  0.45594000000E+02  0.51100000000E-03 0. -1.
         11   -1    0    0    0    0 -0.00000000000E+00 -0.00000000000E+00 -0.45593999997E+02  0.45594000000E+02  0.51100000000E-03 0.  1.
    9900012    2    1    2    0    0  0.48794647043E+01 -0.24213805632E+02  0.20164343804E+02  0.59301979238E+02  0.50000064215E+02 0.  0.
        -12    1    1    2    0    0 -0.48794647043E+01  0.24213805632E+02 -0.20164343804E+02  0.31886020762E+02  0.00000000000E+00 0.  1.
         11    1    3    3    0    0  0.12609778140E+02 -0.71993973529E+01  0.28353244024E+02  0.31855050995E+02  0.51100000000E-03 0. -1.
        -11    1    3    3    0    0  0.22439138161E+01 -0.99305081192E+01 -0.10901257911E+02  0.14916017063E+02  0.51100000000E-03 0.  1.
        -12    1    3    3    0    0 -0.99742272516E+01 -0.70839001603E+01  0.27123576914E+01  0.12530911180E+02  0.00000000000E+00 0.  1.
</event>
<event>
 7    1  0.1344618E-011  0.5930191E+02  0.7816164E-02  0.1266605E+00
        -11   -1    0    0    0    0  0.00000000000E+00  0.00000000000E+00  0.45593999997E+02  0.45594000000E+02  0.51100000000E-03 0. -1.
         11   -1    0    0    0    0 -0.00000000000E+00 -0.00000000000E+00 -0.45593999997E+02  0.45594000000E+02  0.51100000000E-03 0.  1.
    9900012    2    1    2    0    0 -0.87697956139E+01 -0.19670492304E+02  0.23513506606E+02  0.59301912509E+02  0.49999942518E+02 0.  0.
        -12    1    1    2    0    0  0.87697956139E+01  0.19670492304E+02 -0.23513506606E+02  0.31886087491E+02  0.00000000000E+00 0.  1.
         11    1    3    3    0    0 -0.56499347880E+01  0.46825771466E+01  0.10203811837E+02  0.12568455279E+02  0.51100000000E-03 0. -1.
        -11    1    3    3    0    0 -0.88069497267E+00 -0.12647914864E+02  0.26243925679E+02  0.29145994739E+02  0.51100000000E-03 0.  1.
        -12    1    3    3    0    0 -0.22391658532E+01 -0.11705154586E+02 -0.12934230910E+02  0.17587462490E+02  0.00000000000E+00 0.  1.
</event>
<event>
 7    1  0.1344618E-011  0.5930192E+02  0.7816164E-02  0.1266605E+00
        -11   -1    0    0    0    0  0.00000000000E+00  0.00000000000E+00  0.45593999997E+02  0.45594000000E+02  0.51100000000E-03 0.  1.
         11   -1    0    0    0    0 -0.00000000000E+00 -0.00000000000E+00 -0.45593999997E+02  0.45594000000E+02  0.51100000000E-03 0. -1.
    9900012    2    1    2    0    0  0.15973734590E+02 -0.21264576797E+02 -0.17589193274E+02  0.59301919289E+02  0.49999954882E+02 0.  0.
        -12    1    1    2    0    0 -0.15973734590E+02  0.21264576797E+02  0.17589193274E+02  0.31886080711E+02  0.00000000000E+00 0.  1.
         11    1    3    3    0    0  0.11675852397E+02 -0.42131742301E+01 -0.16816848131E+02  0.20901740301E+02  0.51100000000E-03 0. -1.
        -11    1    3    3    0    0  0.10842995513E+02 -0.16233792668E+02  0.12776397217E+02  0.23331157326E+02  0.51100000000E-03 0.  1.
         12    1    3    3    0    0 -0.65451133193E+01 -0.81760989899E+00 -0.13548742360E+02  0.15069021662E+02  0.00000000000E+00 0. -1.
</event>
<event>
 7    1  0.1344618E-011  0.5930194E+02  0.7816164E-02  0.1266605E+00
        -11   -1    0    0    0    0  0.00000000000E+00  0.00000000000E+00  0.45593999997E+02  0.45594000000E+02  0.51100000000E-03 0. -1.
         11   -1    0    0    0    0 -0.00000000000E+00 -0.00000000000E+00 -0.45593999997E+02  0.45594000000E+02  0.51100000000E-03 0.  1.
    9900012    2    1    2    0    0 -0.29784404214E+02  0.31051132326E+01  0.10953004963E+02  0.59301940659E+02  0.49999993856E+02 0.  0.
        -12    1    1    2    0    0  0.29784404214E+02 -0.31051132326E+01 -0.10953004963E+02  0.31886059341E+02  0.00000000000E+00 0.  1.
         11    1    3    3    0    0 -0.15084195393E+02  0.49993232611E+01 -0.17742977966E+00  0.15892062966E+02  0.51100000000E-03 0.  1.
        -11    1    3    3    0    0 -0.26340916211E+01  0.82487980425E+01  0.22411401573E+02  0.24026069769E+02  0.51100000000E-03 0. -1.
         12    1    3    3    0    0 -0.12066117200E+02 -0.10143008071E+02 -0.11280966830E+02  0.19383807924E+02  0.00000000000E+00 0. -1.
</event>
<event>
 7    1  0.1344618E-011  0.5930195E+02  0.7816164E-02  0.1266605E+00
        -11   -1    0    0    0    0  0.00000000000E+00  0.00000000000E+00  0.45593999997E+02  0.45594000000E+02  0.51100000000E-03 0.  1.
         11   -1    0    0    0    0 -0.00000000000E+00 -0.00000000000E+00 -0.45593999997E+02  0.45594000000E+02  0.51100000000E-03 0. -1.
    9900012    2    1    2    0    0 -0.43925783366E+01 -0.73427521681E+01 -0.30716599217E+02  0.59301949424E+02  0.50000009842E+02 0.  0.
        -12    1    1    2    0    0  0.43925783366E+01  0.73427521681E+01  0.30716599217E+02  0.31886050576E+02  0.00000000000E+00 0.  1.
         11    1    3    3    0    0  0.30179891315E+01 -0.10059047064E+02 -0.16737473518E+02  0.19759446001E+02  0.51100000000E-03 0. -1.
        -11    1    3    3    0    0  0.14516722949E+02  0.14632846533E+01 -0.85779437972E+01  0.16925057377E+02  0.51100000000E-03 0.  1.
         12    1    3    3    0    0 -0.21927290417E+02  0.12530102427E+01 -0.54011819027E+01  0.22617446046E+02  0.00000000000E+00 0. -1.
</event>
<event>
 7    1  0.1344618E-011  0.5930166E+02  0.7816164E-02  0.1266606E+00
        -11   -1    0    0    0    0  0.00000000000E+00  0.00000000000E+00  0.45593999997E+02  0.45594000000E+02  0.51100000000E-03 0. -1.
         11   -1    0    0    0    0 -0.00000000000E+00 -0.00000000000E+00 -0.45593999997E+02  0.45594000000E+02  0.51100000000E-03 0.  1.
    9900012    2    1    2    0    0  0.98700455508E+01 -0.29995172089E+02  0.44283866444E+01  0.59301658784E+02  0.49999479782E+02 0.  0.
        -12    1    1    2    0    0 -0.98700455508E+01  0.29995172089E+02 -0.44283866444E+01  0.31886341216E+02  0.00000000000E+00 0.  1.
         11    1    3    3    0    0 -0.32925267721E+01 -0.20311101137E+01 -0.91990872454E+01  0.99794462396E+01  0.51100000000E-03 0. -1.
        -11    1    3    3    0    0  0.16449125456E+02  0.11875376864E+01  0.11095283814E+02  0.19876853302E+02  0.51100000000E-03 0.  1.
         12    1    3    3    0    0 -0.32865531332E+01 -0.29151599662E+02  0.25321900761E+01  0.29445359243E+02  0.00000000000E+00 0. -1.
</event>
<event>
 7    1  0.1344618E-011  0.5930197E+02  0.7816164E-02  0.1266605E+00
        -11   -1    0    0    0    0  0.00000000000E+00  0.00000000000E+00  0.45593999997E+02  0.45594000000E+02  0.51100000000E-03 0.  1.
         11   -1    0    0    0    0 -0.00000000000E+00 -0.00000000000E+00 -0.45593999997E+02  0.45594000000E+02  0.51100000000E-03 0. -1.
    9900012    2    1    2    0    0  0.22931614744E+02 -0.75132992667E+01 -0.20842507227E+02  0.59301972838E+02  0.50000052543E+02 0.  0.
        -12    1    1    2    0    0 -0.22931614744E+02  0.75132992667E+01  0.20842507227E+02  0.31886027162E+02  0.00000000000E+00 0.  1.
         11    1    3    3    0    0  0.26289672360E+02 -0.10218973734E+01 -0.21632486726E+02  0.34061057371E+02  0.51100000000E-03 0. -1.
        -11    1    3    3    0    0  0.81609984329E+01  0.18859836640E+01 -0.51235993404E+01  0.98188645099E+01  0.51100000000E-03 0.  1.
        -12    1    3    3    0    0 -0.11519056048E+02 -0.83773855574E+01  0.59135788392E+01  0.15422050957E+02  0.00000000000E+00 0.  1.
</event>
<event>
 7    1  0.1344618E-011  0.5930194E+02  0.7816164E-02  0.1266605E+00
        -11   -1    0    0    0    0  0.00000000000E+00  0.00000000000E+00  0.45593999997E+02  0.45594000000E+02  0.51100000000E-03 0.  1.
         11   -1    0    0    0    0 -0.00000000000E+00 -0.00000000000E+00 -0.45593999997E+02  0.45594000000E+02  0.51100000000E-03 0. -1.
    9900012    2    1    2    0    0 -0.35143700426E+01  0.30710819084E+02 -0.78240379623E+01  0.59301940732E+02  0.49999993989E+02 0.  0.
        -12    1    1    2    0    0  0.35143700426E+01 -0.30710819084E+02  0.78240379623E+01  0.31886059268E+02  0.00000000000E+00 0.  1.
         11    1    3    3    0    0  0.91545706334E+01  0.69373541255E+01 -0.20600324814E+02  0.23586149081E+02  0.51100000000E-03 0. -1.
        -11    1    3    3    0    0 -0.34444654766E+01 -0.66334232460E+00 -0.34874378253E+01  0.49463712260E+01  0.51100000000E-03 0.  1.
        -12    1    3    3    0    0 -0.92244751994E+01  0.24436807284E+02  0.16263724677E+02  0.30769420425E+02  0.00000000000E+00 0.  1.
</event>
<event>
 7    1  0.1344618E-011  0.5930195E+02  0.7816164E-02  0.1266605E+00
        -11   -1    0    0    0    0  0.00000000000E+00  0.00000000000E+00  0.45593999997E+02  0.45594000000E+02  0.51100000000E-03 0.  1.
         11   -1    0    0    0    0 -0.00000000000E+00 -0.00000000000E+00 -0.45593999997E+02  0.45594000000E+02  0.51100000000E-03 0. -1.
    9900012    2    1    2    0    0  0.13649937988E+02  0.16116674157E+02 -0.23888333619E+02  0.59301945430E+02  0.50000002557E+02 0.  0.
        -12    1    1    2    0    0 -0.13649937988E+02 -0.16116674157E+02  0.23888333619E+02  0.31886054570E+02  0.00000000000E+00 0.  1.
         11    1    3    3    0    0  0.15887787076E+02  0.15800350459E+02 -0.25501884641E+02  0.33947296995E+02  0.51100000000E-03 0. -1.
        -11    1    3    3    0    0 -0.33989890880E+01  0.17813603281E+01 -0.11492336127E+02  0.12116111643E+02  0.51100000000E-03 0.  1.
        -12    1    3    3    0    0  0.11611400003E+01 -0.14650366305E+01  0.13105887148E+02  0.13238536791E+02  0.00000000000E+00 0.  1.
</event>
<event>
 7    1  0.1344618E-011  0.5930192E+02  0.7816164E-02  0.1266605E+00
        -11   -1    0    0    0    0  0.00000000000E+00  0.00000000000E+00  0.45593999997E+02  0.45594000000E+02  0.51100000000E-03 0.  1.
         11   -1    0    0    0    0 -0.00000000000E+00 -0.00000000000E+00 -0.45593999997E+02  0.45594000000E+02  0.51100000000E-03 0. -1.
    9900012    2    1    2    0    0  0.74929804537E+01 -0.13099509870E+02 -0.28088787540E+02  0.59301923095E+02  0.49999961824E+02 0.  0.
        -12    1    1    2    0    0 -0.74929804537E+01  0.13099509870E+02  0.28088787540E+02  0.31886076905E+02  0.00000000000E+00 0.  1.
         11    1    3    3    0    0 -0.15812293833E+01 -0.77869647088E+01 -0.33445926144E+02  0.34376839320E+02  0.51100000000E-03 0. -1.
        -11    1    3    3    0    0  0.13356983467E+02 -0.91208972063E+01 -0.11974179888E+01  0.16218310125E+02  0.51100000000E-03 0.  1.
        -12    1    3    3    0    0 -0.42827736303E+01  0.38083520453E+01  0.65545565930E+01  0.87067736504E+01  0.00000000000E+00 0.  1.
</event>
<event>
 7    1  0.1344618E-011  0.5930195E+02  0.7816164E-02  0.1266605E+00
        -11   -1    0    0    0    0  0.00000000000E+00  0.00000000000E+00  0.45593999997E+02  0.45594000000E+02  0.51100000000E-03 0. -1.
         11   -1    0    0    0    0 -0.00000000000E+00 -0.00000000000E+00 -0.45593999997E+02  0.45594000000E+02  0.51100000000E-03 0.  1.
    9900012    2    1    2    0    0  0.25040200910E+02 -0.67582387063E+01  0.18548166173E+02  0.59301954143E+02  0.50000018447E+02 0.  0.
        -12    1    1    2    0    0 -0.25040200910E+02  0.67582387063E+01 -0.18548166173E+02  0.31886045857E+02  0.00000000000E+00 0.  1.
         11    1    3    3    0    0 -0.31115533381E+01 -0.35518724072E+00  0.54426677801E+01  0.62793753652E+01  0.51100000000E-03 0. -1.
        -11    1    3    3    0    0 -0.76685320483E+01 -0.91207780725E+01  0.12249231515E+02  0.17089138346E+02  0.51100000000E-03 0.  1.
        -12    1    3    3    0    0  0.35820286297E+02  0.27177266069E+01  0.85626687728E+00  0.35933440432E+02  0.00000000000E+00 0.  1.
</event>
<event>
 7    1  0.1344618E-011  0.5930193E+02  0.7816164E-02  0.1266605E+00
        -11   -1    0    0    0    0  0.00000000000E+00  0.00000000000E+00  0.45593999997E+02  0.45594000000E+02  0.51100000000E-03 0.  1.
         11   -1    0    0    0    0 -0.00000000000E+00 -0.00000000000E+00 -0.45593999997E+02  0.45594000000E+02  0.51100000000E-03 0. -1.
    9900012    2    1    2    0    0  0.21336944484E+02  0.10471021993E+01 -0.23671918394E+02  0.59301931829E+02  0.49999977753E+02 0.  0.
        -12    1    1    2    0    0 -0.21336944484E+02 -0.10471021993E+01  0.23671918394E+02  0.31886068171E+02  0.00000000000E+00 0.  1.
         11    1    3    3    0    0 -0.33219843612E+01 -0.64723937138E+01 -0.18135558094E+02  0.19540366632E+02  0.51100000000E-03 0. -1.
        -11    1    3    3    0    0 -0.54889664951E+01  0.26644392654E+01 -0.68798889247E+01  0.91956979975E+01  0.51100000000E-03 0.  1.
        -12    1    3    3    0    0  0.30147895340E+02  0.48550566477E+01  0.13435286248E+01  0.30565867200E+02  0.00000000000E+00 0.  1.
</event>
<event>
 7    1  0.1359989E-011  0.5930200E+02  0.7816164E-02  0.1266605E+00
        -11   -1    0    0    0    0  0.00000000000E+00  0.00000000000E+00  0.45593999997E+02  0.45594000000E+02  0.51100000000E-03 0. -1.
         11   -1    0    0    0    0 -0.00000000000E+00 -0.00000000000E+00 -0.45593999997E+02  0.45594000000E+02  0.51100000000E-03 0.  1.
    9900012    2    1    2    0    0  0.79985399144E+01 -0.21552263757E+02  0.22096165976E+02  0.59301995787E+02  0.50000094396E+02 0.  0.
        -12    1    1    2    0    0 -0.79985399144E+01  0.21552263757E+02 -0.22096165976E+02  0.31886004213E+02  0.00000000000E+00 0.  1.
         11    1    3    3    0    0  0.12256251127E+02 -0.12325915751E+02  0.27913832733E+02  0.32883520932E+02  0.51100000000E-03 0. -1.
        -11    1    3    3    0    0  0.42869960341E+01 -0.13413319706E+02  0.18439575910E+01  0.14201959738E+02  0.51100000000E-03 0.  1.
        -12    1    3    3    0    0 -0.85447072472E+01  0.41869716994E+01 -0.76616243479E+01  0.12216515117E+02  0.00000000000E+00 0.  1.
</event>
<event>
 7    1  0.1344618E-011  0.5930202E+02  0.7816164E-02  0.1266604E+00
        -11   -1    0    0    0    0  0.00000000000E+00  0.00000000000E+00  0.45593999997E+02  0.45594000000E+02  0.51100000000E-03 0. -1.
         11   -1    0    0    0    0 -0.00000000000E+00 -0.00000000000E+00 -0.45593999997E+02  0.45594000000E+02  0.51100000000E-03 0.  1.
    9900012    2    1    2    0    0 -0.89786873299E+01  0.30545592930E+02 -0.17508706675E+01  0.59302021550E+02  0.50000141381E+02 0.  0.
        -12    1    1    2    0    0  0.89786873299E+01 -0.30545592930E+02  0.17508706675E+01  0.31885978450E+02  0.00000000000E+00 0.  1.
         11    1    3    3    0    0  0.14593641322E+01  0.40684675826E+01 -0.18933045523E+01  0.47187683277E+01  0.51100000000E-03 0.  1.
        -11    1    3    3    0    0 -0.12133540434E+02 -0.86811001921E+01  0.10083553502E+02  0.18007286178E+02  0.51100000000E-03 0. -1.
         12    1    3    3    0    0  0.16954889718E+01  0.35158225540E+02 -0.99411196172E+01  0.36575967044E+02  0.00000000000E+00 0. -1.
</event>
<event>
 7    1  0.1344618E-011  0.5930194E+02  0.7816164E-02  0.1266605E+00
        -11   -1    0    0    0    0  0.00000000000E+00  0.00000000000E+00  0.45593999997E+02  0.45594000000E+02  0.51100000000E-03 0. -1.
         11   -1    0    0    0    0 -0.00000000000E+00 -0.00000000000E+00 -0.45593999997E+02  0.45594000000E+02  0.51100000000E-03 0.  1.
    9900012    2    1    2    0    0  0.74881981864E+01  0.30805444051E+02  0.34164829310E+01  0.59301939552E+02  0.49999991838E+02 0.  0.
        -12    1    1    2    0    0 -0.74881981864E+01 -0.30805444051E+02 -0.34164829310E+01  0.31886060448E+02  0.00000000000E+00 0.  1.
         11    1    3    3    0    0  0.55096228692E+01  0.12124112196E+01  0.79528389015E+01  0.97505657262E+01  0.51100000000E-03 0. -1.
        -11    1    3    3    0    0 -0.18222526750E+02  0.13563282199E+02  0.24107451939E+01  0.22843703679E+02  0.51100000000E-03 0.  1.
         12    1    3    3    0    0  0.20201102067E+02  0.16029750633E+02 -0.69471011644E+01  0.26707670147E+02  0.00000000000E+00 0. -1.
</event>
<event>
 7    1  0.1344618E-011  0.5930215E+02  0.7816164E-02  0.1266604E+00
        -11   -1    0    0    0    0  0.00000000000E+00  0.00000000000E+00  0.45593999997E+02  0.45594000000E+02  0.51100000000E-03 0.  1.
         11   -1    0    0    0    0 -0.00000000000E+00 -0.00000000000E+00 -0.45593999997E+02  0.45594000000E+02  0.51100000000E-03 0. -1.
    9900012    2    1    2    0    0  0.21606229617E+02 -0.65664391816E+01 -0.22511335312E+02  0.59302148917E+02  0.50000373667E+02 0.  0.
        -12    1    1    2    0    0 -0.21606229617E+02  0.65664391816E+01  0.22511335312E+02  0.31885851083E+02  0.00000000000E+00 0.  1.
         11    1    3    3    0    0 -0.52095896672E+01  0.65005705562E+01 -0.25332165454E+01  0.87071481200E+01  0.51100000000E-03 0. -1.
        -11    1    3    3    0    0 -0.44813190048E+01 -0.14269878129E+02 -0.42594119846E+01  0.15551663337E+02  0.51100000000E-03 0.  1.
         12    1    3    3    0    0  0.31297138289E+02  0.12028683911E+01 -0.15718706782E+02  0.35043337460E+02  0.00000000000E+00 0. -1.
</event>
<event>
 7    1  0.1344618E-011  0.5930193E+02  0.7816164E-02  0.1266605E+00
        -11   -1    0    0    0    0  0.00000000000E+00  0.00000000000E+00  0.45593999997E+02  0.45594000000E+02  0.51100000000E-03 0.  1.
         11   -1    0    0    0    0 -0.00000000000E+00 -0.00000000000E+00 -0.45593999997E+02  0.45594000000E+02  0.51100000000E-03 0. -1.
    9900012    2    1    2    0    0 -0.10718146623E+02 -0.29073576072E+02 -0.75212863658E+01  0.59301933431E+02  0.49999980674E+02 0.  0.
        -12    1    1    2    0    0  0.10718146623E+02  0.29073576072E+02  0.75212863658E+01  0.31886066569E+02  0.00000000000E+00 0.  1.
         11    1    3    3    0    0  0.11522973867E+02 -0.59046431123E+01 -0.75026393462E+01  0.14964402241E+02  0.51100000000E-03 0. -1.
        -11    1    3    3    0    0 -0.27836418057E-01  0.59836163756E+01  0.43912691187E+01  0.74221078226E+01  0.51100000000E-03 0.  1.
        -12    1    3    3    0    0 -0.22213284072E+02 -0.29152549335E+02 -0.44099161383E+01  0.36915423367E+02  0.00000000000E+00 0.  1.
</event>
<event>
 7    1  0.1344618E-011  0.5930193E+02  0.7816164E-02  0.1266605E+00
        -11   -1    0    0    0    0  0.00000000000E+00  0.00000000000E+00  0.45593999997E+02  0.45594000000E+02  0.51100000000E-03 0.  1.
         11   -1    0    0    0    0 -0.00000000000E+00 -0.00000000000E+00 -0.45593999997E+02  0.45594000000E+02  0.51100000000E-03 0. -1.
    9900012    2    1    2    0    0 -0.18978462252E+02  0.15250255219E+02 -0.20590507109E+02  0.59301932562E+02  0.49999979089E+02 0.  0.
        -12    1    1    2    0    0  0.18978462252E+02 -0.15250255219E+02  0.20590507109E+02  0.31886067438E+02  0.00000000000E+00 0.  1.
         11    1    3    3    0    0  0.62844806892E+01 -0.14129483524E+01 -0.34632153881E+01  0.73133427148E+01  0.51100000000E-03 0. -1.
        -11    1    3    3    0    0  0.67460519839E+01 -0.65320741053E+01 -0.50111828017E+01  0.10643738198E+02  0.51100000000E-03 0.  1.
         12    1    3    3    0    0 -0.32008994925E+02  0.23195277676E+02 -0.12116108919E+02  0.41344851649E+02  0.00000000000E+00 0. -1.
</event>
<event>
 7    1  0.1344618E-011  0.5930194E+02  0.7816164E-02  0.1266605E+00
        -11   -1    0    0    0    0  0.00000000000E+00  0.00000000000E+00  0.45593999997E+02  0.45594000000E+02  0.51100000000E-03 0.  1.
         11   -1    0    0    0    0 -0.00000000000E+00 -0.00000000000E+00 -0.45593999997E+02  0.45594000000E+02  0.51100000000E-03 0. -1.
    9900012    2    1    2    0    0 -0.59250001364E+01  0.93574008723E+01 -0.29900744491E+02  0.59301935665E+02  0.49999984748E+02 0.  0.
        -12    1    1    2    0    0  0.59250001364E+01 -0.93574008723E+01  0.29900744491E+02  0.31886064335E+02  0.00000000000E+00 0.  1.
         11    1    3    3    0    0  0.27951585772E+01  0.86245049762E+01  0.41277727410E+01  0.99616015589E+01  0.51100000000E-03 0.  1.
        -11    1    3    3    0    0  0.41054018256E+01 -0.55273738041E+01 -0.34381472728E+02  0.35064110605E+02  0.51100000000E-03 0. -1.
         12    1    3    3    0    0 -0.12825560539E+02  0.62602697002E+01  0.35295549585E+00  0.14276223501E+02  0.00000000000E+00 0. -1.
</event>
<event>
 7    1  0.1344618E-011  0.5930197E+02  0.7816164E-02  0.1266605E+00
        -11   -1    0    0    0    0  0.00000000000E+00  0.00000000000E+00  0.45593999997E+02  0.45594000000E+02  0.51100000000E-03 0.  1.
         11   -1    0    0    0    0 -0.00000000000E+00 -0.00000000000E+00 -0.45593999997E+02  0.45594000000E+02  0.51100000000E-03 0. -1.
    9900012    2    1    2    0    0 -0.10231800668E+02  0.29747075598E+02 -0.52096590691E+01  0.59301971725E+02  0.50000050513E+02 0.  0.
        -12    1    1    2    0    0  0.10231800668E+02 -0.29747075598E+02  0.52096590691E+01  0.31886028275E+02  0.00000000000E+00 0.  1.
         11    1    3    3    0    0 -0.17747043847E+02  0.57323690460E+01 -0.13228148278E+02  0.22864853538E+02  0.51100000000E-03 0. -1.
        -11    1    3    3    0    0 -0.91216822625E+01  0.55541320993E+01  0.28655772844E+01  0.11057350682E+02  0.51100000000E-03 0.  1.
         12    1    3    3    0    0  0.16636925442E+02  0.18460574453E+02  0.51529119249E+01  0.25379767505E+02  0.00000000000E+00 0. -1.
</event>
<event>
 7    1  0.1344618E-011  0.5930193E+02  0.7816164E-02  0.1266605E+00
        -11   -1    0    0    0    0  0.00000000000E+00  0.00000000000E+00  0.45593999997E+02  0.45594000000E+02  0.51100000000E-03 0.  1.
         11   -1    0    0    0    0 -0.00000000000E+00 -0.00000000000E+00 -0.45593999997E+02  0.45594000000E+02  0.51100000000E-03 0. -1.
    9900012    2    1    2    0    0 -0.66707247509E+01 -0.31163524225E+02 -0.10282686954E+01  0.59301934904E+02  0.49999983360E+02 0.  0.
        -12    1    1    2    0    0  0.66707247509E+01  0.31163524225E+02  0.10282686954E+01  0.31886065096E+02  0.00000000000E+00 0.  1.
         11    1    3    3    0    0  0.17453560141E+02 -0.13212867623E+02 -0.29029010997E+01  0.22082424402E+02  0.51100000000E-03 0. -1.
        -11    1    3    3    0    0 -0.97841189466E+00 -0.10702144474E+02  0.64551736356E+01  0.12536444995E+02  0.51100000000E-03 0.  1.
        -12    1    3    3    0    0 -0.23145872997E+02 -0.72485121279E+01 -0.45805412313E+01  0.24683065507E+02  0.00000000000E+00 0.  1.
</event>
<event>
 7    1  0.1344618E-011  0.5930195E+02  0.7816164E-02  0.1266605E+00
        -11   -1    0    0    0    0  0.00000000000E+00  0.00000000000E+00  0.45593999997E+02  0.45594000000E+02  0.51100000000E-03 0.  1.
         11   -1    0    0    0    0 -0.00000000000E+00 -0.00000000000E+00 -0.45593999997E+02  0.45594000000E+02  0.51100000000E-03 0. -1.
    9900012    2    1    2    0    0  0.28879351855E+02 -0.12402110853E+02 -0.53749994677E+01  0.59301953891E+02  0.50000017988E+02 0.  0.
        -12    1    1    2    0    0 -0.28879351855E+02  0.12402110853E+02  0.53749994677E+01  0.31886046109E+02  0.00000000000E+00 0.  1.
         11    1    3    3    0    0 -0.53155103749E+01  0.50599474656E+00 -0.35283369012E+01  0.63999877171E+01  0.51100000000E-03 0.  1.
        -11    1    3    3    0    0  0.22365591322E+02 -0.25838374610E+02 -0.64624194502E+01  0.34779363753E+02  0.51100000000E-03 0. -1.
         12    1    3    3    0    0  0.11829270908E+02  0.12930269010E+02  0.46157568837E+01  0.18122602421E+02  0.00000000000E+00 0. -1.
</event>
<event>
 7    1  0.1344618E-011  0.5930198E+02  0.7816164E-02  0.1266605E+00
        -11   -1    0    0    0    0  0.00000000000E+00  0.00000000000E+00  0.45593999997E+02  0.45594000000E+02  0.51100000000E-03 0. -1.
         11   -1    0    0    0    0 -0.00000000000E+00 -0.00000000000E+00 -0.45593999997E+02  0.45594000000E+02  0.51100000000E-03 0.  1.
    9900012    2    1    2    0    0  0.14623207090E+02 -0.26470166970E+02  0.10109912410E+02  0.59301980274E+02  0.50000066105E+02 0.  0.
        -12    1    1    2    0    0 -0.14623207090E+02  0.26470166970E+02 -0.10109912410E+02  0.31886019726E+02  0.00000000000E+00 0.  1.
         11    1    3    3    0    0  0.37995528894E+01  0.38704212348E+01  0.44249286730E+01  0.69997683331E+01  0.51100000000E-03 0. -1.
        -11    1    3    3    0    0  0.24745784980E+02 -0.15992275238E+02 -0.45979369737E+01  0.29820257649E+02  0.51100000000E-03 0.  1.
        -12    1    3    3    0    0 -0.13922130780E+02 -0.14348312967E+02  0.10282920711E+02  0.22481954292E+02  0.00000000000E+00 0.  1.
</event>
<event>
 7    1  0.1344618E-011  0.5930186E+02  0.7816164E-02  0.1266605E+00
        -11   -1    0    0    0    0  0.00000000000E+00  0.00000000000E+00  0.45593999997E+02  0.45594000000E+02  0.51100000000E-03 0. -1.
         11   -1    0    0    0    0 -0.00000000000E+00 -0.00000000000E+00 -0.45593999997E+02  0.45594000000E+02  0.51100000000E-03 0.  1.
    9900012    2    1    2    0    0 -0.21063656175E+02  0.57228524630E+01  0.23244292254E+02  0.59301862351E+02  0.49999851041E+02 0.  0.
        -12    1    1    2    0    0  0.21063656175E+02 -0.57228524630E+01 -0.23244292254E+02  0.31886137649E+02  0.00000000000E+00 0.  1.
         11    1    3    3    0    0 -0.52782338567E+01  0.16025923462E+02  0.24305795375E+01  0.17046926192E+02  0.51100000000E-03 0. -1.
        -11    1    3    3    0    0  0.76394333362E+01 -0.35091265333E+01 -0.22331945807E+01  0.86983946232E+01  0.51100000000E-03 0.  1.
         12    1    3    3    0    0 -0.23424855655E+02 -0.67939444654E+01  0.23046907297E+02  0.33556541536E+02  0.00000000000E+00 0. -1.
</event>
<event>
 7    1  0.1344618E-011  0.5930204E+02  0.7816164E-02  0.1266604E+00
        -11   -1    0    0    0    0  0.00000000000E+00  0.00000000000E+00  0.45593999997E+02  0.45594000000E+02  0.51100000000E-03 0.  1.
         11   -1    0    0    0    0 -0.00000000000E+00 -0.00000000000E+00 -0.45593999997E+02  0.45594000000E+02  0.51100000000E-03 0. -1.
    9900012    2    1    2    0    0  0.14842861962E+02  0.17500240167E+02 -0.22139231901E+02  0.59302038413E+02  0.50000172137E+02 0.  0.
        -12    1    1    2    0    0 -0.14842861962E+02 -0.17500240167E+02  0.22139231901E+02  0.31885961587E+02  0.00000000000E+00 0.  1.
         11    1    3    3    0    0  0.54840890482E+00  0.15887402363E+02  0.89514947540E+00  0.15922047576E+02  0.51100000000E-03 0.  1.
        -11    1    3    3    0    0  0.13231202054E+02 -0.10707215340E+02  0.24220578388E+00  0.17022568315E+02  0.51100000000E-03 0. -1.
         12    1    3    3    0    0  0.10632510034E+01  0.12320053144E+02 -0.23276587161E+02  0.26357422522E+02  0.00000000000E+00 0. -1.
</event>
<event>
 7    1  0.1344618E-011  0.5930195E+02  0.7816164E-02  0.1266605E+00
        -11   -1    0    0    0    0  0.00000000000E+00  0.00000000000E+00  0.45593999997E+02  0.45594000000E+02  0.51100000000E-03 0. -1.
         11   -1    0    0    0    0 -0.00000000000E+00 -0.00000000000E+00 -0.45593999997E+02  0.45594000000E+02  0.51100000000E-03 0.  1.
    9900012    2    1    2    0    0  0.28736581766E+02 -0.11399804376E+02  0.78085523050E+01  0.59301950378E+02  0.50000011581E+02 0.  0.
        -12    1    1    2    0    0 -0.28736581766E+02  0.11399804376E+02 -0.78085523050E+01  0.31886049622E+02  0.00000000000E+00 0.  1.
         11    1    3    3    0    0 -0.20427016985E+01 -0.88651410449E+01 -0.73452167554E+01  0.11692543155E+02  0.51100000000E-03 0. -1.
        -11    1    3    3    0    0 -0.24046302478E+01  0.52767306141E+01 -0.52977762099E+01  0.78544615113E+01  0.51100000000E-03 0.  1.
         12    1    3    3    0    0  0.33183913712E+02 -0.78113939453E+01  0.20451545270E+02  0.39754945712E+02  0.00000000000E+00 0. -1.
</event>
<event>
 7    1  0.1344618E-011  0.5930196E+02  0.7816164E-02  0.1266605E+00
        -11   -1    0    0    0    0  0.00000000000E+00  0.00000000000E+00  0.45593999997E+02  0.45594000000E+02  0.51100000000E-03 0.  1.
         11   -1    0    0    0    0 -0.00000000000E+00 -0.00000000000E+00 -0.45593999997E+02  0.45594000000E+02  0.51100000000E-03 0. -1.
    9900012    2    1    2    0    0 -0.90588978878E+00 -0.12179611962E+02 -0.29454307868E+02  0.59301955469E+02  0.50000020866E+02 0.  0.
        -12    1    1    2    0    0  0.90588978878E+00  0.12179611962E+02  0.29454307868E+02  0.31886044531E+02  0.00000000000E+00 0.  1.
         11    1    3    3    0    0  0.15108009077E+01 -0.19352253565E+02 -0.15479367231E+02  0.24827465589E+02  0.51100000000E-03 0. -1.
        -11    1    3    3    0    0  0.13732814585E+02  0.44089812593E+01 -0.29376747763E+01  0.14719349358E+02  0.51100000000E-03 0.  1.
         12    1    3    3    0    0 -0.16149505282E+02  0.27636603440E+01 -0.11037265861E+02  0.19755140522E+02  0.00000000000E+00 0. -1.
</event>
<event>
 7    1  0.1344618E-011  0.5930193E+02  0.7816164E-02  0.1266605E+00
        -11   -1    0    0    0    0  0.00000000000E+00  0.00000000000E+00  0.45593999997E+02  0.45594000000E+02  0.51100000000E-03 0.  1.
         11   -1    0    0    0    0 -0.00000000000E+00 -0.00000000000E+00 -0.45593999997E+02  0.45594000000E+02  0.51100000000E-03 0. -1.
    9900012    2    1    2    0    0 -0.98603821727E-01 -0.20513672626E+02 -0.24411082747E+02  0.59301930186E+02  0.49999974755E+02 0.  0.
        -12    1    1    2    0    0  0.98603821727E-01  0.20513672626E+02  0.24411082747E+02  0.31886069814E+02  0.00000000000E+00 0.  1.
         11    1    3    3    0    0 -0.35025272284E+01 -0.36931034153E+01 -0.11484018832E+02  0.12561425024E+02  0.51100000000E-03 0. -1.
        -11    1    3    3    0    0 -0.13772723548E+02  0.24613902249E+01 -0.15391486853E+02  0.20800101528E+02  0.51100000000E-03 0.  1.
        -12    1    3    3    0    0  0.17176646954E+02 -0.19281959435E+02  0.24644229385E+01  0.25940403634E+02  0.00000000000E+00 0.  1.
</event>
<event>
 7    1  0.1344618E-011  0.5930197E+02  0.7816164E-02  0.1266605E+00
        -11   -1    0    0    0    0  0.00000000000E+00  0.00000000000E+00  0.45593999997E+02  0.45594000000E+02  0.51100000000E-03 0. -1.
         11   -1    0    0    0    0 -0.00000000000E+00 -0.00000000000E+00 -0.45593999997E+02  0.45594000000E+02  0.51100000000E-03 0.  1.
    9900012    2    1    2    0    0 -0.15801237861E+02  0.25331306413E+02  0.11196626154E+02  0.59301974224E+02  0.50000055071E+02 0.  0.
        -12    1    1    2    0    0  0.15801237861E+02 -0.25331306413E+02 -0.11196626154E+02  0.31886025776E+02  0.00000000000E+00 0.  1.
         11    1    3    3    0    0 -0.16504218062E+02  0.10609409625E+02  0.11726096915E+02  0.22857168144E+02  0.51100000000E-03 0. -1.
        -11    1    3    3    0    0 -0.67652239042E+00  0.22733887073E+02  0.85130363982E+01  0.24284956104E+02  0.51100000000E-03 0.  1.
        -12    1    3    3    0    0  0.13795025913E+01 -0.80119902856E+01 -0.90425071588E+01  0.12159849977E+02  0.00000000000E+00 0.  1.
</event>
<event>
 7    1  0.1344618E-011  0.5930192E+02  0.7816164E-02  0.1266605E+00
        -11   -1    0    0    0    0  0.00000000000E+00  0.00000000000E+00  0.45593999997E+02  0.45594000000E+02  0.51100000000E-03 0.  1.
         11   -1    0    0    0    0 -0.00000000000E+00 -0.00000000000E+00 -0.45593999997E+02  0.45594000000E+02  0.51100000000E-03 0. -1.
    9900012    2    1    2    0    0 -0.15303962077E+00 -0.17604435803E+01 -0.31837076135E+02  0.59301921540E+02  0.49999958988E+02 0.  0.
        -12    1    1    2    0    0  0.15303962077E+00  0.17604435803E+01  0.31837076135E+02  0.31886078460E+02  0.00000000000E+00 0.  1.
         11    1    3    3    0    0  0.17300532381E+02 -0.77743020687E+01 -0.14036639229E+02  0.23596089388E+02  0.51100000000E-03 0. -1.
        -11    1    3    3    0    0 -0.74871410776E+01 -0.95949155703E+01 -0.48185325590E+01  0.13089612011E+02  0.51100000000E-03 0.  1.
        -12    1    3    3    0    0 -0.99664309241E+01  0.15608774059E+02 -0.12981904347E+02  0.22616220141E+02  0.00000000000E+00 0.  1.
</event>
<event>
 7    1  0.1344618E-011  0.5930196E+02  0.7816164E-02  0.1266605E+00
        -11   -1    0    0    0    0  0.00000000000E+00  0.00000000000E+00  0.45593999997E+02  0.45594000000E+02  0.51100000000E-03 0.  1.
         11   -1    0    0    0    0 -0.00000000000E+00 -0.00000000000E+00 -0.45593999997E+02  0.45594000000E+02  0.51100000000E-03 0. -1.
    9900012    2    1    2    0    0  0.18242903234E+02 -0.14611648092E+02 -0.21689077067E+02  0.59301955366E+02  0.50000020679E+02 0.  0.
        -12    1    1    2    0    0 -0.18242903234E+02  0.14611648092E+02  0.21689077067E+02  0.31886044634E+02  0.00000000000E+00 0.  1.
         11    1    3    3    0    0  0.10723180609E+02 -0.29057868181E+02 -0.76391917542E+01  0.31901466369E+02  0.51100000000E-03 0. -1.
        -11    1    3    3    0    0 -0.31777699548E+01  0.66601595489E+01 -0.11890735409E+02  0.13994482339E+02  0.51100000000E-03 0.  1.
        -12    1    3    3    0    0  0.10697492579E+02  0.77860605400E+01 -0.21591499034E+01  0.13406006658E+02  0.00000000000E+00 0.  1.
</event>
<event>
 7    1  0.1344618E-011  0.5930196E+02  0.7816164E-02  0.1266605E+00
        -11   -1    0    0    0    0  0.00000000000E+00  0.00000000000E+00  0.45593999997E+02  0.45594000000E+02  0.51100000000E-03 0.  1.
         11   -1    0    0    0    0 -0.00000000000E+00 -0.00000000000E+00 -0.45593999997E+02  0.45594000000E+02  0.51100000000E-03 0. -1.
    9900012    2    1    2    0    0 -0.77784815543E+01  0.18829480719E+02 -0.24528875246E+02  0.59301955400E+02  0.50000020740E+02 0.  0.
        -12    1    1    2    0    0  0.77784815543E+01 -0.18829480719E+02  0.24528875246E+02  0.31886044600E+02  0.00000000000E+00 0.  1.
         11    1    3    3    0    0 -0.16042589209E+01  0.33549700528E+01 -0.26915174213E+02  0.27170868111E+02  0.51100000000E-03 0. -1.
        -11    1    3    3    0    0  0.87855781226E+01  0.45449394511E+01 -0.62388856425E+01  0.11694723250E+02  0.51100000000E-03 0.  1.
         12    1    3    3    0    0 -0.14959800756E+02  0.10929571215E+02  0.86251846094E+01  0.20436364039E+02  0.00000000000E+00 0. -1.
</event>
<event>
 7    1  0.1344618E-011  0.5930197E+02  0.7816164E-02  0.1266605E+00
        -11   -1    0    0    0    0  0.00000000000E+00  0.00000000000E+00  0.45593999997E+02  0.45594000000E+02  0.51100000000E-03 0. -1.
         11   -1    0    0    0    0 -0.00000000000E+00 -0.00000000000E+00 -0.45593999997E+02  0.45594000000E+02  0.51100000000E-03 0.  1.
    9900012    2    1    2    0    0  0.13027687129E+02  0.24143931957E+02  0.16250190312E+02  0.59301972222E+02  0.50000051420E+02 0.  0.
        -12    1    1    2    0    0 -0.13027687129E+02 -0.24143931957E+02 -0.16250190312E+02  0.31886027778E+02  0.00000000000E+00 0.  1.
         11    1    3    3    0    0  0.25133244622E+02  0.28591744563E+02  0.81182326354E+01  0.38923945635E+02  0.51100000000E-03 0. -1.
        -11    1    3    3    0    0  0.10868760136E+01 -0.37648985654E+00 -0.26314311992E+01  0.28718416562E+01  0.51100000000E-03 0.  1.
        -12    1    3    3    0    0 -0.13192433506E+02 -0.40713227501E+01  0.10763388876E+02  0.17506184931E+02  0.00000000000E+00 0.  1.
</event>
<event>
 7    1  0.1344618E-011  0.5930194E+02  0.7816164E-02  0.1266605E+00
        -11   -1    0    0    0    0  0.00000000000E+00  0.00000000000E+00  0.45593999997E+02  0.45594000000E+02  0.51100000000E-03 0.  1.
         11   -1    0    0    0    0 -0.00000000000E+00 -0.00000000000E+00 -0.45593999997E+02  0.45594000000E+02  0.51100000000E-03 0. -1.
    9900012    2    1    2    0    0  0.15247096161E+02  0.12854254246E+02 -0.24880013447E+02  0.59301939368E+02  0.49999991501E+02 0.  0.
        -12    1    1    2    0    0 -0.15247096161E+02 -0.12854254246E+02  0.24880013447E+02  0.31886060632E+02  0.00000000000E+00 0.  1.
         11    1    3    3    0    0  0.80997301950E+01 -0.15997715556E+02 -0.30508630976E+01  0.18189015865E+02  0.51100000000E-03 0. -1.
        -11    1    3    3    0    0  0.13558370913E+01  0.36253697706E+01 -0.13314188640E+02  0.13865396482E+02  0.51100000000E-03 0.  1.
        -12    1    3    3    0    0  0.57915288744E+01  0.25226600031E+02 -0.85149617093E+01  0.27247527021E+02  0.00000000000E+00 0.  1.
</event>
<event>
 7    1  0.1344618E-011  0.5930195E+02  0.7816164E-02  0.1266605E+00
        -11   -1    0    0    0    0  0.00000000000E+00  0.00000000000E+00  0.45593999997E+02  0.45594000000E+02  0.51100000000E-03 0. -1.
         11   -1    0    0    0    0 -0.00000000000E+00 -0.00000000000E+00 -0.45593999997E+02  0.45594000000E+02  0.51100000000E-03 0.  1.
    9900012    2    1    2    0    0  0.25255434816E+01  0.30758821661E+02  0.80147879101E+01  0.59301948110E+02  0.50000007446E+02 0.  0.
        -12    1    1    2    0    0 -0.25255434816E+01 -0.30758821661E+02 -0.80147879101E+01  0.31886051890E+02  0.00000000000E+00 0.  1.
         11    1    3    3    0    0  0.11599362979E+01  0.12187789187E+02 -0.20447724905E+01  0.12412443446E+02  0.51100000000E-03 0. -1.
        -11    1    3    3    0    0  0.22196094386E+01  0.12070365671E+02 -0.15916570760E+02  0.20098696935E+02  0.51100000000E-03 0.  1.
         12    1    3    3    0    0 -0.85400225485E+00  0.65006668029E+01  0.25976131160E+02  0.26790807729E+02  0.00000000000E+00 0. -1.
</event>
<event>
 7    1  0.1344618E-011  0.5930196E+02  0.7816164E-02  0.1266605E+00
        -11   -1    0    0    0    0  0.00000000000E+00  0.00000000000E+00  0.45593999997E+02  0.45594000000E+02  0.51100000000E-03 0.  1.
         11   -1    0    0    0    0 -0.00000000000E+00 -0.00000000000E+00 -0.45593999997E+02  0.45594000000E+02  0.51100000000E-03 0. -1.
    9900012    2    1    2    0    0  0.92841406675E+01 -0.14496914655E+02 -0.26839593956E+02  0.59301959070E+02  0.50000027434E+02 0.  0.
        -12    1    1    2    0    0 -0.92841406675E+01  0.14496914655E+02  0.26839593956E+02  0.31886040930E+02  0.00000000000E+00 0.  1.
         11    1    3    3    0    0  0.20589340413E+01 -0.54622255879E+01 -0.30637394857E+02  0.31188540871E+02  0.51100000000E-03 0. -1.
        -11    1    3    3    0    0 -0.27423331558E-01  0.33479831622E+01 -0.85498792905E+01  0.91820574729E+01  0.51100000000E-03 0.  1.
        -12    1    3    3    0    0  0.72526299578E+01 -0.12382672229E+02  0.12347680192E+02  0.18931360726E+02  0.00000000000E+00 0.  1.
</event>
<event>
 7    1  0.1344618E-011  0.5930195E+02  0.7816164E-02  0.1266605E+00
        -11   -1    0    0    0    0  0.00000000000E+00  0.00000000000E+00  0.45593999997E+02  0.45594000000E+02  0.51100000000E-03 0.  1.
         11   -1    0    0    0    0 -0.00000000000E+00 -0.00000000000E+00 -0.45593999997E+02  0.45594000000E+02  0.51100000000E-03 0. -1.
    9900012    2    1    2    0    0 -0.23957739033E+02 -0.17818985212E+02  0.11190656931E+02  0.59301948251E+02  0.50000007702E+02 0.  0.
        -12    1    1    2    0    0  0.23957739033E+02  0.17818985212E+02 -0.11190656931E+02  0.31886051749E+02  0.00000000000E+00 0.  1.
         11    1    3    3    0    0 -0.13636356671E+02 -0.91596760152E+01  0.96935302282E+01  0.19073919799E+02  0.51100000000E-03 0. -1.
        -11    1    3    3    0    0  0.10462245897E+01 -0.15209794407E+02 -0.13456369008E+02  0.20334854289E+02  0.51100000000E-03 0.  1.
         12    1    3    3    0    0 -0.11367606952E+02  0.65504852107E+01  0.14953495711E+02  0.19893174163E+02  0.00000000000E+00 0. -1.
</event>
<event>
 7    1  0.1344618E-011  0.5930196E+02  0.7816164E-02  0.1266605E+00
        -11   -1    0    0    0    0  0.00000000000E+00  0.00000000000E+00  0.45593999997E+02  0.45594000000E+02  0.51100000000E-03 0. -1.
         11   -1    0    0    0    0 -0.00000000000E+00 -0.00000000000E+00 -0.45593999997E+02  0.45594000000E+02  0.51100000000E-03 0.  1.
    9900012    2    1    2    0    0 -0.15184422435E+02 -0.25052616530E+02 -0.12590432817E+02  0.59301964213E+02  0.50000036812E+02 0.  0.
        -12    1    1    2    0    0  0.15184422435E+02  0.25052616530E+02  0.12590432817E+02  0.31886035787E+02  0.00000000000E+00 0.  1.
         11    1    3    3    0    0 -0.83641955765E+01 -0.27547021726E+01  0.12732896354E+02  0.15481434091E+02  0.51100000000E-03 0. -1.
        -11    1    3    3    0    0 -0.37428175551E+01  0.39879124554E+01  0.19602583115E+01  0.58098831237E+01  0.51100000000E-03 0.  1.
        -12    1    3    3    0    0 -0.30774093039E+01 -0.26285826813E+02 -0.27283587482E+02  0.38010646998E+02  0.00000000000E+00 0.  1.
</event>
<event>
 7    1  0.1344618E-011  0.5930197E+02  0.7816164E-02  0.1266605E+00
        -11   -1    0    0    0    0  0.00000000000E+00  0.00000000000E+00  0.45593999997E+02  0.45594000000E+02  0.51100000000E-03 0.  1.
         11   -1    0    0    0    0 -0.00000000000E+00 -0.00000000000E+00 -0.45593999997E+02  0.45594000000E+02  0.51100000000E-03 0. -1.
    9900012    2    1    2    0    0  0.23066864070E+01 -0.29381871728E+02 -0.12169791597E+02  0.59301968326E+02  0.50000044314E+02 0.  0.
        -12    1    1    2    0    0 -0.23066864070E+01  0.29381871728E+02  0.12169791597E+02  0.31886031674E+02  0.00000000000E+00 0.  1.
         11    1    3    3    0    0 -0.29362937384E+01 -0.11782182843E+01 -0.15888354698E+02  0.16200303531E+02  0.51100000000E-03 0. -1.
        -11    1    3    3    0    0 -0.13109490604E+02 -0.14531314600E+02  0.49363444719E+01  0.20183789161E+02  0.51100000000E-03 0.  1.
        -12    1    3    3    0    0  0.18352470749E+02 -0.13672338844E+02 -0.12177813706E+01  0.22917875633E+02  0.00000000000E+00 0.  1.
</event>
<event>
 7    1  0.1344618E-011  0.5930197E+02  0.7816164E-02  0.1266605E+00
        -11   -1    0    0    0    0  0.00000000000E+00  0.00000000000E+00  0.45593999997E+02  0.45594000000E+02  0.51100000000E-03 0.  1.
         11   -1    0    0    0    0 -0.00000000000E+00 -0.00000000000E+00 -0.45593999997E+02  0.45594000000E+02  0.51100000000E-03 0. -1.
    9900012    2    1    2    0    0 -0.26677298649E+02  0.15808460298E+02 -0.74251779097E+01  0.59301969404E+02  0.50000046280E+02 0.  0.
        -12    1    1    2    0    0  0.26677298649E+02 -0.15808460298E+02  0.74251779097E+01  0.31886030596E+02  0.00000000000E+00 0.  1.
         11    1    3    3    0    0  0.42825350914E+01 -0.11816288595E+02  0.30516477354E+01  0.12933574028E+02  0.51100000000E-03 0. -1.
        -11    1    3    3    0    0  0.10152479345E+01  0.10339117837E+01  0.24259575852E+01  0.28257693485E+01  0.51100000000E-03 0.  1.
         12    1    3    3    0    0 -0.31975081675E+02  0.26590837109E+02 -0.12902783230E+02  0.43542626028E+02  0.00000000000E+00 0. -1.
</event>
<event>
 7    1  0.1344618E-011  0.5930195E+02  0.7816164E-02  0.1266605E+00
        -11   -1    0    0    0    0  0.00000000000E+00  0.00000000000E+00  0.45593999997E+02  0.45594000000E+02  0.51100000000E-03 0.  1.
         11   -1    0    0    0    0 -0.00000000000E+00 -0.00000000000E+00 -0.45593999997E+02  0.45594000000E+02  0.51100000000E-03 0. -1.
    9900012    2    1    2    0    0 -0.24090750884E+02  0.33300290815E+01 -0.20621999315E+02  0.59301949326E+02  0.50000009663E+02 0.  0.
        -12    1    1    2    0    0  0.24090750884E+02 -0.33300290815E+01  0.20621999315E+02  0.31886050674E+02  0.00000000000E+00 0.  1.
         11    1    3    3    0    0 -0.27849068675E+01 -0.46517803569E+01  0.59612667611E+01  0.80580064785E+01  0.51100000000E-03 0. -1.
        -11    1    3    3    0    0 -0.14467460091E+02 -0.45513510907E+01  0.54954818779E+01  0.16131414060E+02  0.51100000000E-03 0.  1.
         12    1    3    3    0    0 -0.68383839255E+01  0.12533160529E+02 -0.32078747954E+02  0.35112528788E+02  0.00000000000E+00 0. -1.
</event>
<event>
 7    1  0.1344618E-011  0.5930187E+02  0.7816164E-02  0.1266605E+00
        -11   -1    0    0    0    0  0.00000000000E+00  0.00000000000E+00  0.45593999997E+02  0.45594000000E+02  0.51100000000E-03 0.  1.
         11   -1    0    0    0    0 -0.00000000000E+00 -0.00000000000E+00 -0.45593999997E+02  0.45594000000E+02  0.51100000000E-03 0. -1.
    9900012    2    1    2    0    0 -0.22658807655E+02  0.22106031464E+02 -0.38245656141E+01  0.59301866751E+02  0.49999859066E+02 0.  0.
        -12    1    1    2    0    0  0.22658807655E+02 -0.22106031464E+02  0.38245656141E+01  0.31886133249E+02  0.00000000000E+00 0.  1.
         11    1    3    3    0    0 -0.85410519385E+01  0.17843435630E+02 -0.14795545636E+02  0.24703156361E+02  0.51100000000E-03 0. -1.
        -11    1    3    3    0    0 -0.37913324285E+00 -0.87767940641E+01 -0.47466470170E+01  0.99853149286E+01  0.51100000000E-03 0.  1.
        -12    1    3    3    0    0 -0.13738622474E+02  0.13039389898E+02  0.15717627039E+02  0.24613395461E+02  0.00000000000E+00 0.  1.
</event>
<event>
 7    1  0.1344618E-011  0.5930196E+02  0.7816164E-02  0.1266605E+00
        -11   -1    0    0    0    0  0.00000000000E+00  0.00000000000E+00  0.45593999997E+02  0.45594000000E+02  0.51100000000E-03 0.  1.
         11   -1    0    0    0    0 -0.00000000000E+00 -0.00000000000E+00 -0.45593999997E+02  0.45594000000E+02  0.51100000000E-03 0. -1.
    9900012    2    1    2    0    0 -0.23246518657E+02 -0.21597642646E+02  0.31401344130E+01  0.59301964786E+02  0.50000037858E+02 0.  0.
        -12    1    1    2    0    0  0.23246518657E+02  0.21597642646E+02 -0.31401344130E+01  0.31886035214E+02  0.00000000000E+00 0.  1.
         11    1    3    3    0    0 -0.17153609774E+02 -0.82935874550E+01  0.12156963944E+02  0.22601364865E+02  0.51100000000E-03 0.  1.
        -11    1    3    3    0    0 -0.51975424381E-01  0.78751496410E+01  0.61223926587E+01  0.99751879903E+01  0.51100000000E-03 0. -1.
         12    1    3    3    0    0 -0.60409334588E+01 -0.21179204832E+02 -0.15139222190E+02  0.26725411931E+02  0.00000000000E+00 0. -1.
</event>
<event>
 7    1  0.1344618E-011  0.5930194E+02  0.7816164E-02  0.1266605E+00
        -11   -1    0    0    0    0  0.00000000000E+00  0.00000000000E+00  0.45593999997E+02  0.45594000000E+02  0.51100000000E-03 0. -1.
         11   -1    0    0    0    0 -0.00000000000E+00 -0.00000000000E+00 -0.45593999997E+02  0.45594000000E+02  0.51100000000E-03 0.  1.
    9900012    2    1    2    0    0  0.20881512490E+01  0.26362094418E+02  0.17815744220E+02  0.59301935021E+02  0.49999983574E+02 0.  0.
        -12    1    1    2    0    0 -0.20881512490E+01 -0.26362094418E+02 -0.17815744220E+02  0.31886064979E+02  0.00000000000E+00 0.  1.
         11    1    3    3    0    0  0.13494227376E+02 -0.93054081804E+00  0.81876744702E+01  0.15811327970E+02  0.51100000000E-03 0.  1.
        -11    1    3    3    0    0 -0.70725345522E+01  0.19931586712E+02  0.20641639105E+02  0.29552769058E+02  0.51100000000E-03 0. -1.
        -12    1    3    3    0    0 -0.43335415743E+01  0.73610485247E+01 -0.11013569355E+02  0.13937837992E+02  0.00000000000E+00 0.  1.
</event>
<event>
 7    1  0.1344618E-011  0.5930195E+02  0.7816164E-02  0.1266605E+00
        -11   -1    0    0    0    0  0.00000000000E+00  0.00000000000E+00  0.45593999997E+02  0.45594000000E+02  0.51100000000E-03 0. -1.
         11   -1    0    0    0    0 -0.00000000000E+00 -0.00000000000E+00 -0.45593999997E+02  0.45594000000E+02  0.51100000000E-03 0.  1.
    9900012    2    1    2    0    0  0.22894672065E+02  0.17539404497E+02 -0.13598656398E+02  0.59301950152E+02  0.50000011168E+02 0.  0.
        -12    1    1    2    0    0 -0.22894672065E+02 -0.17539404497E+02  0.13598656398E+02  0.31886049848E+02  0.00000000000E+00 0.  1.
         11    1    3    3    0    0 -0.25131384081E+01  0.80639068062E+01 -0.12778223754E+02  0.15317488704E+02  0.51100000000E-03 0. -1.
        -11    1    3    3    0    0 -0.20796563887E+01 -0.19444780907E+01 -0.11890954643E+02  0.12227050680E+02  0.51100000000E-03 0.  1.
         12    1    3    3    0    0  0.27487466862E+02  0.11419975782E+02  0.11070521999E+02  0.31757410768E+02  0.00000000000E+00 0. -1.
</event>
<event>
 7    1  0.1344618E-011  0.5930196E+02  0.7816164E-02  0.1266605E+00
        -11   -1    0    0    0    0  0.00000000000E+00  0.00000000000E+00  0.45593999997E+02  0.45594000000E+02  0.51100000000E-03 0.  1.
         11   -1    0    0    0    0 -0.00000000000E+00 -0.00000000000E+00 -0.45593999997E+02  0.45594000000E+02  0.51100000000E-03 0. -1.
    9900012    2    1    2    0    0  0.27328069037E+02  0.13018310661E+02 -0.10020965602E+02  0.59301960400E+02  0.50000029860E+02 0.  0.
        -12    1    1    2    0    0 -0.27328069037E+02 -0.13018310661E+02  0.10020965602E+02  0.31886039600E+02  0.00000000000E+00 0.  1.
         11    1    3    3    0    0  0.11658286643E+02  0.17727966261E+02 -0.88621346922E+01  0.22994213768E+02  0.51100000000E-03 0. -1.
        -11    1    3    3    0    0 -0.76684144598E+01 -0.55378287895E+00 -0.85292906895E+01  0.11483033385E+02  0.51100000000E-03 0.  1.
        -12    1    3    3    0    0  0.23338196853E+02 -0.41558727218E+01  0.73704597794E+01  0.24824713247E+02  0.00000000000E+00 0.  1.
</event>
<event>
 7    1  0.1344618E-011  0.5930195E+02  0.7816164E-02  0.1266605E+00
        -11   -1    0    0    0    0  0.00000000000E+00  0.00000000000E+00  0.45593999997E+02  0.45594000000E+02  0.51100000000E-03 0.  1.
         11   -1    0    0    0    0 -0.00000000000E+00 -0.00000000000E+00 -0.45593999997E+02  0.45594000000E+02  0.51100000000E-03 0. -1.
    9900012    2    1    2    0    0 -0.31677170753E+02  0.32833252264E+01 -0.15801241754E+01  0.59301950325E+02  0.50000011484E+02 0.  0.
        -12    1    1    2    0    0  0.31677170753E+02 -0.32833252264E+01  0.15801241754E+01  0.31886049675E+02  0.00000000000E+00 0.  1.
         11    1    3    3    0    0 -0.68706861613E+01 -0.64818919534E+01 -0.89745835123E+01  0.13029366873E+02  0.51100000000E-03 0. -1.
        -11    1    3    3    0    0 -0.17045596147E+02 -0.10838460928E+02 -0.52665136214E+01  0.20874883216E+02  0.51100000000E-03 0.  1.
        -12    1    3    3    0    0 -0.77608884455E+01  0.20603678108E+02  0.12660972958E+02  0.25397700236E+02  0.00000000000E+00 0.  1.
</event>
<event>
 7    1  0.1344618E-011  0.5930196E+02  0.7816164E-02  0.1266605E+00
        -11   -1    0    0    0    0  0.00000000000E+00  0.00000000000E+00  0.45593999997E+02  0.45594000000E+02  0.51100000000E-03 0. -1.
         11   -1    0    0    0    0 -0.00000000000E+00 -0.00000000000E+00 -0.45593999997E+02  0.45594000000E+02  0.51100000000E-03 0.  1.
    9900012    2    1    2    0    0  0.28333592626E+01  0.31402784473E+02  0.47493876150E+01  0.59301961047E+02  0.50000031040E+02 0.  0.
        -12    1    1    2    0    0 -0.28333592626E+01 -0.31402784473E+02 -0.47493876150E+01  0.31886038953E+02  0.00000000000E+00 0.  1.
         11    1    3    3    0    0  0.17271442552E+02  0.11007141061E+02  0.17587977629E+00  0.20481474950E+02  0.51100000000E-03 0. -1.
        -11    1    3    3    0    0  0.74508497858E+01  0.10061092659E+02  0.72494934860E+01  0.14467062732E+02  0.51100000000E-03 0.  1.
        -12    1    3    3    0    0 -0.21888933075E+02  0.10334550753E+02 -0.26759856472E+01  0.24353423365E+02  0.00000000000E+00 0.  1.
</event>
<event>
 7    1  0.1344618E-011  0.5930196E+02  0.7816164E-02  0.1266605E+00
        -11   -1    0    0    0    0  0.00000000000E+00  0.00000000000E+00  0.45593999997E+02  0.45594000000E+02  0.51100000000E-03 0. -1.
         11   -1    0    0    0    0 -0.00000000000E+00 -0.00000000000E+00 -0.45593999997E+02  0.45594000000E+02  0.51100000000E-03 0.  1.
    9900012    2    1    2    0    0 -0.14533000976E+02 -0.21953457695E+02  0.17987700076E+02  0.59301956405E+02  0.50000022573E+02 0.  0.
        -12    1    1    2    0    0  0.14533000976E+02  0.21953457695E+02 -0.17987700076E+02  0.31886043595E+02  0.00000000000E+00 0.  1.
         11    1    3    3    0    0  0.12154524801E+00 -0.19932693401E+02  0.11611530657E+00  0.19933402181E+02  0.51100000000E-03 0. -1.
        -11    1    3    3    0    0 -0.24595854755E+01 -0.74474203735E+01  0.23580830093E+02  0.24850939199E+02  0.51100000000E-03 0.  1.
         12    1    3    3    0    0 -0.12194960748E+02  0.54266560799E+01 -0.57092453235E+01  0.14517615025E+02  0.00000000000E+00 0. -1.
</event>
<event>
 7    1  0.1344618E-011  0.5930196E+02  0.7816164E-02  0.1266605E+00
        -11   -1    0    0    0    0  0.00000000000E+00  0.00000000000E+00  0.45593999997E+02  0.45594000000E+02  0.51100000000E-03 0. -1.
         11   -1    0    0    0    0 -0.00000000000E+00 -0.00000000000E+00 -0.45593999997E+02  0.45594000000E+02  0.51100000000E-03 0.  1.
    9900012    2    1    2    0    0  0.23552172913E+02 -0.16881539496E+02  0.13305195340E+02  0.59301961555E+02  0.50000031966E+02 0.  0.
        -12    1    1    2    0    0 -0.23552172913E+02  0.16881539496E+02 -0.13305195340E+02  0.31886038445E+02  0.00000000000E+00 0.  1.
         11    1    3    3    0    0  0.26744967750E+02 -0.17738561388E+02  0.23508179072E+02  0.39781708657E+02  0.51100000000E-03 0. -1.
        -11    1    3    3    0    0  0.28922928392E+01  0.50172055601E+01  0.12267962365E+01  0.59196907662E+01  0.51100000000E-03 0.  1.
         12    1    3    3    0    0 -0.60850876768E+01 -0.41601836676E+01 -0.11429779969E+02  0.13600562132E+02  0.00000000000E+00 0. -1.
</event>
<event>
 7    1  0.1344618E-011  0.5930189E+02  0.7816164E-02  0.1266605E+00
        -11   -1    0    0    0    0  0.00000000000E+00  0.00000000000E+00  0.45593999997E+02  0.45594000000E+02  0.51100000000E-03 0. -1.
         11   -1    0    0    0    0 -0.00000000000E+00 -0.00000000000E+00 -0.45593999997E+02  0.45594000000E+02  0.51100000000E-03 0.  1.
    9900012    2    1    2    0    0 -0.64696998981E+01  0.29604993343E+02  0.99202562904E+01  0.59301888094E+02  0.49999897991E+02 0.  0.
        -12    1    1    2    0    0  0.64696998981E+01 -0.29604993343E+02 -0.99202562904E+01  0.31886111906E+02  0.00000000000E+00 0.  1.
         11    1    3    3    0    0  0.10967048251E+02  0.23030850526E+02  0.12870406052E+02  0.28571726855E+02  0.51100000000E-03 0. -1.
        -11    1    3    3    0    0  0.36034750939E+01  0.55743568697E+01  0.49006112006E+01  0.82507258871E+01  0.51100000000E-03 0.  1.
        -12    1    3    3    0    0 -0.21040223243E+02  0.99978594739E+00 -0.78507609624E+01  0.22479435352E+02  0.00000000000E+00 0.  1.
</event>
<event>
 7    1  0.1344618E-011  0.5930209E+02  0.7816164E-02  0.1266604E+00
        -11   -1    0    0    0    0  0.00000000000E+00  0.00000000000E+00  0.45593999997E+02  0.45594000000E+02  0.51100000000E-03 0. -1.
         11   -1    0    0    0    0 -0.00000000000E+00 -0.00000000000E+00 -0.45593999997E+02  0.45594000000E+02  0.51100000000E-03 0.  1.
    9900012    2    1    2    0    0  0.11394127157E+02  0.42070972405E+01  0.29481952545E+02  0.59302088899E+02  0.50000264210E+02 0.  0.
        -12    1    1    2    0    0 -0.11394127157E+02 -0.42070972405E+01 -0.29481952545E+02  0.31885911101E+02  0.00000000000E+00 0.  1.
         11    1    3    3    0    0  0.28293619751E+02 -0.45007553153E+01  0.20520901147E+02  0.35240503702E+02  0.51100000000E-03 0. -1.
        -11    1    3    3    0    0  0.17639830951E+01  0.99124637770E+00  0.15487077925E+00  0.20293326392E+01  0.51100000000E-03 0.  1.
        -12    1    3    3    0    0 -0.18663475689E+02  0.77166061781E+01  0.88061806189E+01  0.22032252558E+02  0.00000000000E+00 0.  1.
</event>
<event>
 7    1  0.1344618E-011  0.5930194E+02  0.7816164E-02  0.1266605E+00
        -11   -1    0    0    0    0  0.00000000000E+00  0.00000000000E+00  0.45593999997E+02  0.45594000000E+02  0.51100000000E-03 0.  1.
         11   -1    0    0    0    0 -0.00000000000E+00 -0.00000000000E+00 -0.45593999997E+02  0.45594000000E+02  0.51100000000E-03 0. -1.
    9900012    2    1    2    0    0 -0.18488066029E+02  0.17945013270E+02 -0.18785330189E+02  0.59301941651E+02  0.49999995665E+02 0.  0.
        -12    1    1    2    0    0  0.18488066029E+02 -0.17945013270E+02  0.18785330189E+02  0.31886058349E+02  0.00000000000E+00 0.  1.
         11    1    3    3    0    0 -0.22025147110E+02 -0.15645424924E+01  0.83535358679E+01  0.23607974504E+02  0.51100000000E-03 0.  1.
        -11    1    3    3    0    0 -0.25366070187E+01  0.10890291051E+02 -0.20147529193E+02  0.23042477019E+02  0.51100000000E-03 0. -1.
        -12    1    3    3    0    0  0.60736880997E+01  0.86192647115E+01 -0.69913368639E+01  0.12651490127E+02  0.00000000000E+00 0.  1.
</event>
<event>
 7    1  0.1344618E-011  0.5930195E+02  0.7816164E-02  0.1266605E+00
        -11   -1    0    0    0    0  0.00000000000E+00  0.00000000000E+00  0.45593999997E+02  0.45594000000E+02  0.51100000000E-03 0. -1.
         11   -1    0    0    0    0 -0.00000000000E+00 -0.00000000000E+00 -0.45593999997E+02  0.45594000000E+02  0.51100000000E-03 0.  1.
    9900012    2    1    2    0    0  0.14786088401E+02 -0.13119407721E+02  0.25019453247E+02  0.59301948035E+02  0.50000007308E+02 0.  0.
        -12    1    1    2    0    0 -0.14786088401E+02  0.13119407721E+02 -0.25019453247E+02  0.31886051965E+02  0.00000000000E+00 0.  1.
         11    1    3    3    0    0 -0.92777979795E+00 -0.13961532976E+02  0.12443280464E+02  0.18724860677E+02  0.51100000000E-03 0. -1.
        -11    1    3    3    0    0 -0.45393318790E+01 -0.86516178302E+01 -0.60308901190E+01  0.11481622746E+02  0.51100000000E-03 0.  1.
        -12    1    3    3    0    0  0.20253200078E+02  0.94937430854E+01  0.18607062902E+02  0.29095464612E+02  0.00000000000E+00 0.  1.
</event>
<event>
 7    1  0.1344618E-011  0.5930190E+02  0.7816164E-02  0.1266605E+00
        -11   -1    0    0    0    0  0.00000000000E+00  0.00000000000E+00  0.45593999997E+02  0.45594000000E+02  0.51100000000E-03 0.  1.
         11   -1    0    0    0    0 -0.00000000000E+00 -0.00000000000E+00 -0.45593999997E+02  0.45594000000E+02  0.51100000000E-03 0. -1.
    9900012    2    1    2    0    0  0.22617311518E+02  0.13026977887E+02 -0.18316077380E+02  0.59301896071E+02  0.49999912539E+02 0.  0.
        -12    1    1    2    0    0 -0.22617311518E+02 -0.13026977887E+02  0.18316077380E+02  0.31886103929E+02  0.00000000000E+00 0.  1.
         11    1    3    3    0    0  0.19942429161E+02 -0.20466171009E+01 -0.21948839213E+02  0.29726094016E+02  0.51100000000E-03 0. -1.
        -11    1    3    3    0    0  0.33802102112E+01  0.27691458984E+00 -0.93075811268E+01  0.99062389157E+01  0.51100000000E-03 0.  1.
        -12    1    3    3    0    0 -0.70532785417E+00  0.14796680398E+02  0.12940342960E+02  0.19669563139E+02  0.00000000000E+00 0.  1.
</event>
<event>
 7    1  0.1344618E-011  0.5930195E+02  0.7816164E-02  0.1266605E+00
        -11   -1    0    0    0    0  0.00000000000E+00  0.00000000000E+00  0.45593999997E+02  0.45594000000E+02  0.51100000000E-03 0.  1.
         11   -1    0    0    0    0 -0.00000000000E+00 -0.00000000000E+00 -0.45593999997E+02  0.45594000000E+02  0.51100000000E-03 0. -1.
    9900012    2    1    2    0    0 -0.10502852556E+01 -0.30198083713E+02  0.10182970267E+02  0.59301949092E+02  0.50000009236E+02 0.  0.
        -12    1    1    2    0    0  0.10502852556E+01  0.30198083713E+02 -0.10182970267E+02  0.31886050908E+02  0.00000000000E+00 0.  1.
         11    1    3    3    0    0 -0.74538676335E+01 -0.62764290161E+01  0.15706175454E+01  0.98701845792E+01  0.51100000000E-03 0. -1.
        -11    1    3    3    0    0  0.13116857893E+02 -0.31536448666E+00  0.18744427155E+02  0.22880230885E+02  0.51100000000E-03 0.  1.
         12    1    3    3    0    0 -0.67132755147E+01 -0.23606290211E+02 -0.10132074434E+02  0.26551533627E+02  0.00000000000E+00 0. -1.
</event>
<event>
 7    1  0.1559856E-011  0.5930194E+02  0.7816164E-02  0.1266605E+00
        -11   -1    0    0    0    0  0.00000000000E+00  0.00000000000E+00  0.45593999997E+02  0.45594000000E+02  0.51100000000E-03 0.  1.
         11   -1    0    0    0    0 -0.00000000000E+00 -0.00000000000E+00 -0.45593999997E+02  0.45594000000E+02  0.51100000000E-03 0. -1.
    9900012    2    1    2    0    0 -0.23933964737E+02  0.17295051097E+02 -0.12031919434E+02  0.59301944337E+02  0.50000000564E+02 0.  0.
        -12    1    1    2    0    0  0.23933964737E+02 -0.17295051097E+02  0.12031919434E+02  0.31886055663E+02  0.00000000000E+00 0.  1.
         11    1    3    3    0    0 -0.20250009757E+02  0.23058786739E+02 -0.19198632490E+02  0.36198867811E+02  0.51100000000E-03 0. -1.
        -11    1    3    3    0    0  0.58458761197E+01  0.45346818405E+01  0.49403417212E+01  0.88963241614E+01  0.51100000000E-03 0.  1.
        -12    1    3    3    0    0 -0.95298310999E+01 -0.10298417483E+02  0.22263713349E+01  0.14206752365E+02  0.00000000000E+00 0.  1.
</event>
<event>
 7    1  0.1344618E-011  0.5930211E+02  0.7816164E-02  0.1266604E+00
        -11   -1    0    0    0    0  0.00000000000E+00  0.00000000000E+00  0.45593999997E+02  0.45594000000E+02  0.51100000000E-03 0. -1.
         11   -1    0    0    0    0 -0.00000000000E+00 -0.00000000000E+00 -0.45593999997E+02  0.45594000000E+02  0.51100000000E-03 0.  1.
    9900012    2    1    2    0    0 -0.24419584660E+02 -0.92162899047E+01  0.18315394609E+02  0.59302112930E+02  0.50000308036E+02 0.  0.
        -12    1    1    2    0    0  0.24419584660E+02  0.92162899047E+01 -0.18315394609E+02  0.31885887070E+02  0.00000000000E+00 0.  1.
         11    1    3    3    0    0  0.80307944398E+01 -0.78896778111E+00  0.11813563921E+02  0.14306516776E+02  0.51100000000E-03 0. -1.
        -11    1    3    3    0    0 -0.22474650860E+01  0.13307403541E+01 -0.92145093961E+01  0.95775337574E+01  0.51100000000E-03 0.  1.
         12    1    3    3    0    0 -0.30202914014E+02 -0.97580624777E+01  0.15716340084E+02  0.35418062396E+02  0.00000000000E+00 0. -1.
</event>
<event>
 7    1  0.1344618E-011  0.5930193E+02  0.7816164E-02  0.1266605E+00
        -11   -1    0    0    0    0  0.00000000000E+00  0.00000000000E+00  0.45593999997E+02  0.45594000000E+02  0.51100000000E-03 0. -1.
         11   -1    0    0    0    0 -0.00000000000E+00 -0.00000000000E+00 -0.45593999997E+02  0.45594000000E+02  0.51100000000E-03 0.  1.
    9900012    2    1    2    0    0 -0.69657707786E+00 -0.29876055625E+02 -0.11120149543E+02  0.59301927097E+02  0.49999969122E+02 0.  0.
        -12    1    1    2    0    0  0.69657707786E+00  0.29876055625E+02  0.11120149543E+02  0.31886072903E+02  0.00000000000E+00 0.  1.
         11    1    3    3    0    0 -0.64967496859E+01 -0.52982753937E+01 -0.17022618051E+02  0.18974957291E+02  0.51100000000E-03 0. -1.
        -11    1    3    3    0    0 -0.76802718667E+01 -0.96579576670E+01 -0.90218512324E+01  0.15285827494E+02  0.51100000000E-03 0.  1.
         12    1    3    3    0    0  0.13480444475E+02 -0.14919822564E+02  0.14924319740E+02  0.25041142312E+02  0.00000000000E+00 0. -1.
</event>
<event>
 7    1  0.1344618E-011  0.5930194E+02  0.7816164E-02  0.1266605E+00
        -11   -1    0    0    0    0  0.00000000000E+00  0.00000000000E+00  0.45593999997E+02  0.45594000000E+02  0.51100000000E-03 0. -1.
         11   -1    0    0    0    0 -0.00000000000E+00 -0.00000000000E+00 -0.45593999997E+02  0.45594000000E+02  0.51100000000E-03 0.  1.
    9900012    2    1    2    0    0 -0.97967375124E+01 -0.22932405538E+02  0.19870829046E+02  0.59301935071E+02  0.49999983666E+02 0.  0.
        -12    1    1    2    0    0  0.97967375124E+01  0.22932405538E+02 -0.19870829046E+02  0.31886064929E+02  0.00000000000E+00 0.  1.
         11    1    3    3    0    0  0.19715975504E+01 -0.59288990762E+01  0.60612391149E+01  0.87050365321E+01  0.51100000000E-03 0. -1.
        -11    1    3    3    0    0  0.12476731901E+02 -0.20626668752E+02  0.56449455497E+01  0.24758709846E+02  0.51100000000E-03 0.  1.
        -12    1    3    3    0    0 -0.24245066963E+02  0.36231622905E+01  0.81646443819E+01  0.25838188693E+02  0.00000000000E+00 0.  1.
</event>
<event>
 7    1  0.1344618E-011  0.5930196E+02  0.7816164E-02  0.1266605E+00
        -11   -1    0    0    0    0  0.00000000000E+00  0.00000000000E+00  0.45593999997E+02  0.45594000000E+02  0.51100000000E-03 0.  1.
         11   -1    0    0    0    0 -0.00000000000E+00 -0.00000000000E+00 -0.45593999997E+02  0.45594000000E+02  0.51100000000E-03 0. -1.
    9900012    2    1    2    0    0  0.24577271238E+02 -0.42929679213E+00 -0.20309922614E+02  0.59301960518E+02  0.50000030075E+02 0.  0.
        -12    1    1    2    0    0 -0.24577271238E+02  0.42929679213E+00  0.20309922614E+02  0.31886039482E+02  0.00000000000E+00 0.  1.
         11    1    3    3    0    0 -0.11239671996E+01 -0.15523859095E+01 -0.21989919868E+00  0.19291345719E+01  0.51100000000E-03 0. -1.
        -11    1    3    3    0    0 -0.13536921521E+02 -0.33286082920E+01 -0.80053524825E+01  0.16075246376E+02  0.51100000000E-03 0.  1.
        -12    1    3    3    0    0  0.39238159959E+02  0.44516974093E+01 -0.12084670933E+02  0.41297579570E+02  0.00000000000E+00 0.  1.
</event>
<event>
 7    1  0.1344618E-011  0.5930192E+02  0.7816164E-02  0.1266605E+00
        -11   -1    0    0    0    0  0.00000000000E+00  0.00000000000E+00  0.45593999997E+02  0.45594000000E+02  0.51100000000E-03 0.  1.
         11   -1    0    0    0    0 -0.00000000000E+00 -0.00000000000E+00 -0.45593999997E+02  0.45594000000E+02  0.51100000000E-03 0. -1.
    9900012    2    1    2    0    0 -0.19200899269E+02  0.11878703490E+02 -0.22515415507E+02  0.59301920517E+02  0.49999957122E+02 0.  0.
        -12    1    1    2    0    0  0.19200899269E+02 -0.11878703490E+02  0.22515415507E+02  0.31886079483E+02  0.00000000000E+00 0.  1.
         11    1    3    3    0    0 -0.13414501519E+02  0.25443338552E+02 -0.19336192923E+02  0.34658342209E+02  0.51100000000E-03 0. -1.
        -11    1    3    3    0    0 -0.29512021596E+01 -0.56769544291E+01 -0.11291955482E+02  0.12978661897E+02  0.51100000000E-03 0.  1.
        -12    1    3    3    0    0 -0.28351955906E+01 -0.78876806324E+01  0.81127328978E+01  0.11664916411E+02  0.00000000000E+00 0.  1.
</event>
<event>
 7    1  0.1344618E-011  0.5930193E+02  0.7816164E-02  0.1266605E+00
        -11   -1    0    0    0    0  0.00000000000E+00  0.00000000000E+00  0.45593999997E+02  0.45594000000E+02  0.51100000000E-03 0.  1.
         11   -1    0    0    0    0 -0.00000000000E+00 -0.00000000000E+00 -0.45593999997E+02  0.45594000000E+02  0.51100000000E-03 0. -1.
    9900012    2    1    2    0    0  0.13545975064E+02  0.22978475541E+02 -0.17470483839E+02  0.59301928053E+02  0.49999970866E+02 0.  0.
        -12    1    1    2    0    0 -0.13545975064E+02 -0.22978475541E+02  0.17470483839E+02  0.31886071947E+02  0.00000000000E+00 0.  1.
         11    1    3    3    0    0 -0.57482395584E+01 -0.90815103472E+01  0.30574705341E+01  0.11174265727E+02  0.51100000000E-03 0. -1.
        -11    1    3    3    0    0  0.72060505234E+01 -0.45951856065E+00  0.10120050910E+01  0.72912602490E+01  0.51100000000E-03 0.  1.
         12    1    3    3    0    0  0.12088164099E+02  0.32519504449E+02 -0.21539959464E+02  0.40836402077E+02  0.00000000000E+00 0. -1.
</event>
<event>
 7    1  0.1344618E-011  0.5930196E+02  0.7816164E-02  0.1266605E+00
        -11   -1    0    0    0    0  0.00000000000E+00  0.00000000000E+00  0.45593999997E+02  0.45594000000E+02  0.51100000000E-03 0.  1.
         11   -1    0    0    0    0 -0.00000000000E+00 -0.00000000000E+00 -0.45593999997E+02  0.45594000000E+02  0.51100000000E-03 0. -1.
    9900012    2    1    2    0    0 -0.26019063077E+02  0.18424300466E+02 -0.52274096753E+00  0.59301956828E+02  0.50000023344E+02 0.  0.
        -12    1    1    2    0    0  0.26019063077E+02 -0.18424300466E+02  0.52274096753E+00  0.31886043172E+02  0.00000000000E+00 0.  1.
         11    1    3    3    0    0  0.43881467060E+00 -0.49852166849E+00 -0.14526619858E+00  0.67984167176E+00  0.51100000000E-03 0. -1.
        -11    1    3    3    0    0 -0.89387918584E+01  0.36457360839E+01  0.23434942610E+02  0.25345412344E+02  0.51100000000E-03 0.  1.
         12    1    3    3    0    0 -0.17519085889E+02  0.15277086051E+02 -0.23812417379E+02  0.33276702812E+02  0.00000000000E+00 0. -1.
</event>
<event>
 7    1  0.1344618E-011  0.5930192E+02  0.7816164E-02  0.1266605E+00
        -11   -1    0    0    0    0  0.00000000000E+00  0.00000000000E+00  0.45593999997E+02  0.45594000000E+02  0.51100000000E-03 0. -1.
         11   -1    0    0    0    0 -0.00000000000E+00 -0.00000000000E+00 -0.45593999997E+02  0.45594000000E+02  0.51100000000E-03 0.  1.
    9900012    2    1    2    0    0 -0.12120448161E+02  0.14780354410E+02  0.25521709757E+02  0.59301924527E+02  0.49999964436E+02 0.  0.
        -12    1    1    2    0    0  0.12120448161E+02 -0.14780354410E+02 -0.25521709757E+02  0.31886075473E+02  0.00000000000E+00 0.  1.
         11    1    3    3    0    0  0.24542319928E+01  0.35550114113E+01  0.28179295039E+02  0.28508490489E+02  0.51100000000E-03 0. -1.
        -11    1    3    3    0    0 -0.12340877917E+02  0.14276980193E+02  0.72286925758E+01  0.20208498900E+02  0.51100000000E-03 0.  1.
         12    1    3    3    0    0 -0.22338022371E+01 -0.30516371940E+01 -0.98862778577E+01  0.10584935138E+02  0.00000000000E+00 0. -1.
</event>
<event>
 7    1  0.1344618E-011  0.5930196E+02  0.7816164E-02  0.1266605E+00
        -11   -1    0    0    0    0  0.00000000000E+00  0.00000000000E+00  0.45593999997E+02  0.45594000000E+02  0.51100000000E-03 0.  1.
         11   -1    0    0    0    0 -0.00000000000E+00 -0.00000000000E+00 -0.45593999997E+02  0.45594000000E+02  0.51100000000E-03 0. -1.
    9900012    2    1    2    0    0 -0.22258230828E+02  0.16250689468E+02 -0.16037629058E+02  0.59301963972E+02  0.50000036374E+02 0.  0.
        -12    1    1    2    0    0  0.22258230828E+02 -0.16250689468E+02  0.16037629058E+02  0.31886036028E+02  0.00000000000E+00 0.  1.
         11    1    3    3    0    0 -0.10280079745E+02  0.91294822014E+00  0.89689872600E+01  0.13673194460E+02  0.51100000000E-03 0. -1.
        -11    1    3    3    0    0 -0.18476708877E+02 -0.51351511264E+00 -0.47215472905E+01  0.19077355104E+02  0.51100000000E-03 0.  1.
        -12    1    3    3    0    0  0.64985577937E+01  0.15851256360E+02 -0.20285069027E+02  0.26551414408E+02  0.00000000000E+00 0.  1.
</event>
<event>
 7    1  0.1344618E-011  0.5930195E+02  0.7816164E-02  0.1266605E+00
        -11   -1    0    0    0    0  0.00000000000E+00  0.00000000000E+00  0.45593999997E+02  0.45594000000E+02  0.51100000000E-03 0. -1.
         11   -1    0    0    0    0 -0.00000000000E+00 -0.00000000000E+00 -0.45593999997E+02  0.45594000000E+02  0.51100000000E-03 0.  1.
    9900012    2    1    2    0    0 -0.13375870259E+02 -0.89685986904E+01  0.27520361866E+02  0.59301953132E+02  0.50000016603E+02 0.  0.
        -12    1    1    2    0    0  0.13375870259E+02  0.89685986904E+01 -0.27520361866E+02  0.31886046868E+02  0.00000000000E+00 0.  1.
         11    1    3    3    0    0  0.14176479481E+02 -0.60768425296E+01  0.41414276368E+01  0.15970347796E+02  0.51100000000E-03 0. -1.
        -11    1    3    3    0    0 -0.92565989790E+01 -0.99311363451E+01  0.10473365153E+01  0.13616497633E+02  0.51100000000E-03 0.  1.
        -12    1    3    3    0    0 -0.18295750761E+02  0.70393801843E+01  0.22331597714E+02  0.29715107702E+02  0.00000000000E+00 0.  1.
</event>
<event>
 7    1  0.1344618E-011  0.5930179E+02  0.7816164E-02  0.1266605E+00
        -11   -1    0    0    0    0  0.00000000000E+00  0.00000000000E+00  0.45593999997E+02  0.45594000000E+02  0.51100000000E-03 0.  1.
         11   -1    0    0    0    0 -0.00000000000E+00 -0.00000000000E+00 -0.45593999997E+02  0.45594000000E+02  0.51100000000E-03 0. -1.
    9900012    2    1    2    0    0 -0.67887366110E+01 -0.31050077378E+02  0.25566357822E+01  0.59301786106E+02  0.49999711988E+02 0.  0.
        -12    1    1    2    0    0  0.67887366110E+01  0.31050077378E+02 -0.25566357822E+01  0.31886213894E+02  0.00000000000E+00 0.  1.
         11    1    3    3    0    0 -0.30889681233E+01 -0.39597614743E+01  0.16747313204E+02  0.17484105205E+02  0.51100000000E-03 0. -1.
        -11    1    3    3    0    0 -0.59242840778E+01  0.18923184763E+01 -0.10919441365E+02  0.12566312547E+02  0.51100000000E-03 0.  1.
         12    1    3    3    0    0  0.22245155901E+01 -0.28982634380E+02 -0.32712360564E+01  0.29251368354E+02  0.00000000000E+00 0. -1.
</event>
<event>
 7    1  0.1344618E-011  0.5930197E+02  0.7816164E-02  0.1266605E+00
        -11   -1    0    0    0    0  0.00000000000E+00  0.00000000000E+00  0.45593999997E+02  0.45594000000E+02  0.51100000000E-03 0.  1.
         11   -1    0    0    0    0 -0.00000000000E+00 -0.00000000000E+00 -0.45593999997E+02  0.45594000000E+02  0.51100000000E-03 0. -1.
    9900012    2    1    2    0    0 -0.14096608442E+02 -0.80722214816E+01 -0.27437998365E+02  0.59301970402E+02  0.50000048101E+02 0.  0.
        -12    1    1    2    0    0  0.14096608442E+02  0.80722214816E+01  0.27437998365E+02  0.31886029598E+02  0.00000000000E+00 0.  1.
         11    1    3    3    0    0 -0.29956175637E+01 -0.21573901606E+01 -0.66698113718E+01  0.76232828158E+01  0.51100000000E-03 0. -1.
        -11    1    3    3    0    0  0.16605181568E+02  0.47870769263E+01 -0.10658766997E+02  0.20304124571E+02  0.51100000000E-03 0.  1.
         12    1    3    3    0    0 -0.27706172447E+02 -0.10701908247E+02 -0.10109419996E+02  0.31374563016E+02  0.00000000000E+00 0. -1.
</event>
<event>
 7    1  0.1889817E-011  0.5930196E+02  0.7816164E-02  0.1266605E+00
        -11   -1    0    0    0    0  0.00000000000E+00  0.00000000000E+00  0.45593999997E+02  0.45594000000E+02  0.51100000000E-03 0.  1.
         11   -1    0    0    0    0 -0.00000000000E+00 -0.00000000000E+00 -0.45593999997E+02  0.45594000000E+02  0.51100000000E-03 0. -1.
    9900012    2    1    2    0    0 -0.31046159349E+02 -0.45636280901E+01 -0.56594290529E+01  0.59301955265E+02  0.50000020494E+02 0.  0.
        -12    1    1    2    0    0  0.31046159349E+02  0.45636280901E+01  0.56594290529E+01  0.31886044735E+02  0.00000000000E+00 0.  1.
         11    1    3    3    0    0 -0.13414093074E+02 -0.12045067141E+02 -0.20840077394E+02  0.27555949656E+02  0.51100000000E-03 0. -1.
        -11    1    3    3    0    0  0.22650636341E-01  0.78699355914E+01 -0.82464939753E+00  0.79130554247E+01  0.51100000000E-03 0.  1.
        -12    1    3    3    0    0 -0.17654716911E+02 -0.38849654089E+00  0.16005297739E+02  0.23832950184E+02  0.00000000000E+00 0.  1.
</event>
<event>
 7    1  0.1344618E-011  0.5930193E+02  0.7816164E-02  0.1266605E+00
        -11   -1    0    0    0    0  0.00000000000E+00  0.00000000000E+00  0.45593999997E+02  0.45594000000E+02  0.51100000000E-03 0.  1.
         11   -1    0    0    0    0 -0.00000000000E+00 -0.00000000000E+00 -0.45593999997E+02  0.45594000000E+02  0.51100000000E-03 0. -1.
    9900012    2    1    2    0    0 -0.23326548351E+02  0.20181142906E+02 -0.80817768015E+01  0.59301929323E+02  0.49999973182E+02 0.  0.
        -12    1    1    2    0    0  0.23326548351E+02 -0.20181142906E+02  0.80817768015E+01  0.31886070677E+02  0.00000000000E+00 0.  1.
         11    1    3    3    0    0 -0.21570066272E+01  0.89326431414E+01  0.48767578524E+01  0.10403247497E+02  0.51100000000E-03 0. -1.
        -11    1    3    3    0    0 -0.73061048183E+01  0.20489268563E+02 -0.21143851337E+02  0.30335651361E+02  0.51100000000E-03 0.  1.
         12    1    3    3    0    0 -0.13863436906E+02 -0.92407687981E+01  0.81853166835E+01  0.18563030464E+02  0.00000000000E+00 0. -1.
</event>
<event>
 7    1  0.1344618E-011  0.5930190E+02  0.7816164E-02  0.1266605E+00
        -11   -1    0    0    0    0  0.00000000000E+00  0.00000000000E+00  0.45593999997E+02  0.45594000000E+02  0.51100000000E-03 0.  1.
         11   -1    0    0    0    0 -0.00000000000E+00 -0.00000000000E+00 -0.45593999997E+02  0.45594000000E+02  0.51100000000E-03 0. -1.
    9900012    2    1    2    0    0 -0.13743102138E+02  0.19954849483E+02 -0.20728106804E+02  0.59301901368E+02  0.49999922199E+02 0.  0.
        -12    1    1    2    0    0  0.13743102138E+02 -0.19954849483E+02  0.20728106804E+02  0.31886098632E+02  0.00000000000E+00 0.  1.
         11    1    3    3    0    0  0.10623592493E+02  0.19396378348E+02 -0.92224079883E+01  0.23961073011E+02  0.51100000000E-03 0. -1.
        -11    1    3    3    0    0  0.23487454011E+01 -0.50901464926E+01  0.25061693079E+00  0.56115065163E+01  0.51100000000E-03 0.  1.
        -12    1    3    3    0    0 -0.26715440031E+02  0.56486176281E+01 -0.11756315747E+02  0.29729321841E+02  0.00000000000E+00 0.  1.
</event>
<event>
 7    1  0.1344618E-011  0.5930195E+02  0.7816164E-02  0.1266605E+00
        -11   -1    0    0    0    0  0.00000000000E+00  0.00000000000E+00  0.45593999997E+02  0.45594000000E+02  0.51100000000E-03 0. -1.
         11   -1    0    0    0    0 -0.00000000000E+00 -0.00000000000E+00 -0.45593999997E+02  0.45594000000E+02  0.51100000000E-03 0.  1.
    9900012    2    1    2    0    0  0.88328068604E+01 -0.20829419113E+01  0.30567348279E+02  0.59301954387E+02  0.50000018892E+02 0.  0.
        -12    1    1    2    0    0 -0.88328068604E+01  0.20829419113E+01 -0.30567348279E+02  0.31886045613E+02  0.00000000000E+00 0.  1.
         11    1    3    3    0    0  0.17292634835E+02  0.10893216208E+02  0.83726172196E+01  0.22086151731E+02  0.51100000000E-03 0.  1.
        -11    1    3    3    0    0 -0.83146516117E+01  0.46748573956E+01  0.93674314437E+00  0.95846341127E+01  0.51100000000E-03 0. -1.
         12    1    3    3    0    0 -0.14517636307E+00 -0.17651015515E+02  0.21257987915E+02  0.27631168543E+02  0.00000000000E+00 0. -1.
</event>
<event>
 7    1  0.1344618E-011  0.5930195E+02  0.7816164E-02  0.1266605E+00
        -11   -1    0    0    0    0  0.00000000000E+00  0.00000000000E+00  0.45593999997E+02  0.45594000000E+02  0.51100000000E-03 0.  1.
         11   -1    0    0    0    0 -0.00000000000E+00 -0.00000000000E+00 -0.45593999997E+02  0.45594000000E+02  0.51100000000E-03 0. -1.
    9900012    2    1    2    0    0 -0.64969809497E+01 -0.24714711308E+01 -0.31119146211E+02  0.59301949886E+02  0.50000010683E+02 0.  0.
        -12    1    1    2    0    0  0.64969809497E+01  0.24714711308E+01  0.31119146211E+02  0.31886050114E+02  0.00000000000E+00 0.  1.
         11    1    3    3    0    0 -0.12649561011E+01 -0.24306673421E+01  0.17242285101E+01  0.32374715261E+01  0.51100000000E-03 0. -1.
        -11    1    3    3    0    0 -0.13453854108E+02 -0.16167267000E+02 -0.31201448061E+01  0.21263161019E+02  0.51100000000E-03 0.  1.
         12    1    3    3    0    0  0.82218292597E+01  0.16126463212E+02 -0.29723229915E+02  0.34801317341E+02  0.00000000000E+00 0. -1.
</event>
<event>
 7    1  0.1344618E-011  0.5930189E+02  0.7816164E-02  0.1266605E+00
        -11   -1    0    0    0    0  0.00000000000E+00  0.00000000000E+00  0.45593999997E+02  0.45594000000E+02  0.51100000000E-03 0.  1.
         11   -1    0    0    0    0 -0.00000000000E+00 -0.00000000000E+00 -0.45593999997E+02  0.45594000000E+02  0.51100000000E-03 0. -1.
    9900012    2    1    2    0    0 -0.26881490333E+02 -0.17126818743E+02 -0.88419879907E+00  0.59301886246E+02  0.49999894620E+02 0.  0.
        -12    1    1    2    0    0  0.26881490333E+02  0.17126818743E+02  0.88419879907E+00  0.31886113754E+02  0.00000000000E+00 0.  1.
         11    1    3    3    0    0 -0.16949726743E+02  0.10782029550E+01 -0.15406183263E+02  0.22930465352E+02  0.51100000000E-03 0. -1.
        -11    1    3    3    0    0 -0.18357761245E+02 -0.81156902948E+01  0.10331636310E+02  0.22574643651E+02  0.51100000000E-03 0.  1.
         12    1    3    3    0    0  0.84259976544E+01 -0.10089331404E+02  0.41903481533E+01  0.13796777243E+02  0.00000000000E+00 0. -1.
</event>
<event>
 7    1  0.1344618E-011  0.5930190E+02  0.7816164E-02  0.1266605E+00
        -11   -1    0    0    0    0  0.00000000000E+00  0.00000000000E+00  0.45593999997E+02  0.45594000000E+02  0.51100000000E-03 0.  1.
         11   -1    0    0    0    0 -0.00000000000E+00 -0.00000000000E+00 -0.45593999997E+02  0.45594000000E+02  0.51100000000E-03 0. -1.
    9900012    2    1    2    0    0 -0.17246038669E+01  0.28999926532E+02  0.13143556514E+02  0.59301904673E+02  0.49999928227E+02 0.  0.
        -12    1    1    2    0    0  0.17246038669E+01 -0.28999926532E+02 -0.13143556514E+02  0.31886095327E+02  0.00000000000E+00 0.  1.
         11    1    3    3    0    0 -0.69723832611E+01  0.20071462210E+02 -0.21024794211E+01  0.21351771439E+02  0.51100000000E-03 0. -1.
        -11    1    3    3    0    0 -0.30558680603E+01  0.53284169654E+01  0.24350092632E+02  0.25112892474E+02  0.51100000000E-03 0.  1.
         12    1    3    3    0    0  0.83036474545E+01  0.36000473562E+01 -0.91040566968E+01  0.12837240761E+02  0.00000000000E+00 0. -1.
</event>
<event>
 7    1  0.1344618E-011  0.5930198E+02  0.7816164E-02  0.1266605E+00
        -11   -1    0    0    0    0  0.00000000000E+00  0.00000000000E+00  0.45593999997E+02  0.45594000000E+02  0.51100000000E-03 0.  1.
         11   -1    0    0    0    0 -0.00000000000E+00 -0.00000000000E+00 -0.45593999997E+02  0.45594000000E+02  0.51100000000E-03 0. -1.
    9900012    2    1    2    0    0  0.27950548879E+02 -0.77557865164E+01  0.13241329773E+02  0.59301980786E+02  0.50000067039E+02 0.  0.
        -12    1    1    2    0    0 -0.27950548879E+02  0.77557865164E+01 -0.13241329773E+02  0.31886019214E+02  0.00000000000E+00 0.  1.
         11    1    3    3    0    0  0.25359379702E+01 -0.28036552737E+01  0.12198202336E+02  0.12770575742E+02  0.51100000000E-03 0. -1.
        -11    1    3    3    0    0  0.11071036726E+02  0.95361213369E+01  0.15680771243E+02  0.21433433028E+02  0.51100000000E-03 0.  1.
         12    1    3    3    0    0  0.14343574183E+02 -0.14488252580E+02 -0.14637643806E+02  0.25097972017E+02  0.00000000000E+00 0. -1.
</event>
<event>
 7    1  0.1344618E-011  0.5930194E+02  0.7816164E-02  0.1266605E+00
        -11   -1    0    0    0    0  0.00000000000E+00  0.00000000000E+00  0.45593999997E+02  0.45594000000E+02  0.51100000000E-03 0.  1.
         11   -1    0    0    0    0 -0.00000000000E+00 -0.00000000000E+00 -0.45593999997E+02  0.45594000000E+02  0.51100000000E-03 0. -1.
    9900012    2    1    2    0    0  0.30107225861E+01 -0.30368309650E+02 -0.92424015116E+01  0.59301942432E+02  0.49999997090E+02 0.  0.
        -12    1    1    2    0    0 -0.30107225861E+01  0.30368309650E+02  0.92424015116E+01  0.31886057568E+02  0.00000000000E+00 0.  1.
         11    1    3    3    0    0  0.22138086852E+02 -0.22108581121E+02 -0.56174697952E+01  0.31787422290E+02  0.51100000000E-03 0. -1.
        -11    1    3    3    0    0 -0.11882200185E+02 -0.88098927914E+01  0.55606277976E+01  0.15802578081E+02  0.51100000000E-03 0.  1.
        -12    1    3    3    0    0 -0.72451640814E+01  0.55016426173E+00 -0.91855595141E+01  0.11711942062E+02  0.00000000000E+00 0.  1.
</event>
<event>
 7    1  0.1344618E-011  0.5930190E+02  0.7816164E-02  0.1266605E+00
        -11   -1    0    0    0    0  0.00000000000E+00  0.00000000000E+00  0.45593999997E+02  0.45594000000E+02  0.51100000000E-03 0.  1.
         11   -1    0    0    0    0 -0.00000000000E+00 -0.00000000000E+00 -0.45593999997E+02  0.45594000000E+02  0.51100000000E-03 0. -1.
    9900012    2    1    2    0    0 -0.28857867350E+02  0.13558772661E+02  0.32596683434E+00  0.59301904623E+02  0.49999928135E+02 0.  0.
        -12    1    1    2    0    0  0.28857867350E+02 -0.13558772661E+02 -0.32596683434E+00  0.31886095377E+02  0.00000000000E+00 0.  1.
         11    1    3    3    0    0  0.93273955194E+01  0.25904695752E+01 -0.68436242434E+00  0.97045964359E+01  0.51100000000E-03 0. -1.
        -11    1    3    3    0    0 -0.10781515566E+02  0.16383986212E+02 -0.65162667733E+01  0.20667312718E+02  0.51100000000E-03 0.  1.
         12    1    3    3    0    0 -0.27403747303E+02 -0.54156831259E+01  0.75265960320E+01  0.28929995468E+02  0.00000000000E+00 0. -1.
</event>
<event>
 7    1  0.1344618E-011  0.5930194E+02  0.7816164E-02  0.1266605E+00
        -11   -1    0    0    0    0  0.00000000000E+00  0.00000000000E+00  0.45593999997E+02  0.45594000000E+02  0.51100000000E-03 0.  1.
         11   -1    0    0    0    0 -0.00000000000E+00 -0.00000000000E+00 -0.45593999997E+02  0.45594000000E+02  0.51100000000E-03 0. -1.
    9900012    2    1    2    0    0  0.26970590943E+02  0.15932762640E+02 -0.59544466403E+01  0.59301935082E+02  0.49999983685E+02 0.  0.
        -12    1    1    2    0    0 -0.26970590943E+02 -0.15932762640E+02  0.59544466403E+01  0.31886064918E+02  0.00000000000E+00 0.  1.
         11    1    3    3    0    0  0.38259349318E+01  0.99066517123E+01 -0.24947800660E+01  0.10908870431E+02  0.51100000000E-03 0. -1.
        -11    1    3    3    0    0 -0.11555946491E+02  0.70657823728E+01 -0.57208620317E+00  0.13557007883E+02  0.51100000000E-03 0.  1.
        -12    1    3    3    0    0  0.34700602502E+02 -0.10396714449E+01 -0.28875803712E+01  0.34836056768E+02  0.00000000000E+00 0.  1.
</event>
<event>
 7    1  0.1344618E-011  0.5930195E+02  0.7816164E-02  0.1266605E+00
        -11   -1    0    0    0    0  0.00000000000E+00  0.00000000000E+00  0.45593999997E+02  0.45594000000E+02  0.51100000000E-03 0.  1.
         11   -1    0    0    0    0 -0.00000000000E+00 -0.00000000000E+00 -0.45593999997E+02  0.45594000000E+02  0.51100000000E-03 0. -1.
    9900012    2    1    2    0    0  0.14492665600E+02 -0.25378884704E+02 -0.12751276959E+02  0.59301949615E+02  0.50000010191E+02 0.  0.
        -12    1    1    2    0    0 -0.14492665600E+02  0.25378884704E+02  0.12751276959E+02  0.31886050385E+02  0.00000000000E+00 0.  1.
         11    1    3    3    0    0  0.20086046993E+02 -0.33769485067E+01 -0.84262594358E+01  0.22042116808E+02  0.51100000000E-03 0. -1.
        -11    1    3    3    0    0 -0.77793449037E+01  0.41477498561E+01  0.40681043660E+01  0.97093516464E+01  0.51100000000E-03 0.  1.
         12    1    3    3    0    0  0.21859635110E+01 -0.26149686054E+02 -0.83931218895E+01  0.27550481162E+02  0.00000000000E+00 0. -1.
</event>
<event>
 7    1  0.1344618E-011  0.5930194E+02  0.7816164E-02  0.1266605E+00
        -11   -1    0    0    0    0  0.00000000000E+00  0.00000000000E+00  0.45593999997E+02  0.45594000000E+02  0.51100000000E-03 0.  1.
         11   -1    0    0    0    0 -0.00000000000E+00 -0.00000000000E+00 -0.45593999997E+02  0.45594000000E+02  0.51100000000E-03 0. -1.
    9900012    2    1    2    0    0  0.81267324440E+01 -0.30095700535E+02 -0.67026848660E+01  0.59301937915E+02  0.49999988851E+02 0.  0.
        -12    1    1    2    0    0 -0.81267324440E+01  0.30095700535E+02  0.67026848660E+01  0.31886062085E+02  0.00000000000E+00 0.  1.
         11    1    3    3    0    0 -0.20315462401E+01  0.64423389180E+01 -0.53701060861E+01  0.86295394140E+01  0.51100000000E-03 0. -1.
        -11    1    3    3    0    0  0.17327265130E+02 -0.28252986542E+02  0.10286248731E+02  0.34702626394E+02  0.51100000000E-03 0.  1.
         12    1    3    3    0    0 -0.71689864463E+01 -0.82850529112E+01 -0.11618827511E+02  0.15969772107E+02  0.00000000000E+00 0. -1.
</event>
<event>
 7    1  0.1344618E-011  0.5930197E+02  0.7816164E-02  0.1266605E+00
        -11   -1    0    0    0    0  0.00000000000E+00  0.00000000000E+00  0.45593999997E+02  0.45594000000E+02  0.51100000000E-03 0. -1.
         11   -1    0    0    0    0 -0.00000000000E+00 -0.00000000000E+00 -0.45593999997E+02  0.45594000000E+02  0.51100000000E-03 0.  1.
    9900012    2    1    2    0    0 -0.24832453788E+02  0.19737644155E+02  0.32393564078E+01  0.59301971902E+02  0.50000050836E+02 0.  0.
        -12    1    1    2    0    0  0.24832453788E+02 -0.19737644155E+02 -0.32393564078E+01  0.31886028098E+02  0.00000000000E+00 0.  1.
         11    1    3    3    0    0 -0.88507361729E+01  0.54184732897E+01 -0.38261757407E+01  0.11060515569E+02  0.51100000000E-03 0. -1.
        -11    1    3    3    0    0 -0.20500127189E+02  0.35161772372E+01 -0.13343508021E+02  0.24711696091E+02  0.51100000000E-03 0.  1.
        -12    1    3    3    0    0  0.45184095741E+01  0.10802993628E+02  0.20409040169E+02  0.23529760242E+02  0.00000000000E+00 0.  1.
</event>
<event>
 7    1  0.1344618E-011  0.5930195E+02  0.7816164E-02  0.1266605E+00
        -11   -1    0    0    0    0  0.00000000000E+00  0.00000000000E+00  0.45593999997E+02  0.45594000000E+02  0.51100000000E-03 0.  1.
         11   -1    0    0    0    0 -0.00000000000E+00 -0.00000000000E+00 -0.45593999997E+02  0.45594000000E+02  0.51100000000E-03 0. -1.
    9900012    2    1    2    0    0  0.72272375092E+01 -0.11991271730E+02 -0.28647806999E+02  0.59301946535E+02  0.50000004572E+02 0.  0.
        -12    1    1    2    0    0 -0.72272375092E+01  0.11991271730E+02  0.28647806999E+02  0.31886053465E+02  0.00000000000E+00 0.  1.
         11    1    3    3    0    0  0.50388506655E+01 -0.12808714453E+02 -0.47506816005E+01  0.14560980664E+02  0.51100000000E-03 0. -1.
        -11    1    3    3    0    0 -0.15626692596E+02 -0.83589457995E+01 -0.12504973875E+02  0.21689625821E+02  0.51100000000E-03 0.  1.
         12    1    3    3    0    0  0.17815079440E+02  0.91763885224E+01 -0.11392151523E+02  0.23051340050E+02  0.00000000000E+00 0. -1.
</event>
<event>
 7    1  0.1344618E-011  0.5930194E+02  0.7816164E-02  0.1266605E+00
        -11   -1    0    0    0    0  0.00000000000E+00  0.00000000000E+00  0.45593999997E+02  0.45594000000E+02  0.51100000000E-03 0. -1.
         11   -1    0    0    0    0 -0.00000000000E+00 -0.00000000000E+00 -0.45593999997E+02  0.45594000000E+02  0.51100000000E-03 0.  1.
    9900012    2    1    2    0    0 -0.18521655651E+02 -0.16303721756E+02  0.20195487364E+02  0.59301940648E+02  0.49999993836E+02 0.  0.
        -12    1    1    2    0    0  0.18521655651E+02  0.16303721756E+02 -0.20195487364E+02  0.31886059352E+02  0.00000000000E+00 0.  1.
         11    1    3    3    0    0 -0.21485780477E+02 -0.96916946904E+01  0.21188993720E+02  0.31694497374E+02  0.51100000000E-03 0. -1.
        -11    1    3    3    0    0 -0.55627923988E+01  0.80348904305E+01  0.29468301655E+01  0.10207248982E+02  0.51100000000E-03 0.  1.
        -12    1    3    3    0    0  0.85269172248E+01 -0.14646917496E+02 -0.39403365218E+01  0.17400194292E+02  0.00000000000E+00 0.  1.
</event>
<event>
 7    1  0.1344618E-011  0.5930199E+02  0.7816164E-02  0.1266605E+00
        -11   -1    0    0    0    0  0.00000000000E+00  0.00000000000E+00  0.45593999997E+02  0.45594000000E+02  0.51100000000E-03 0. -1.
         11   -1    0    0    0    0 -0.00000000000E+00 -0.00000000000E+00 -0.45593999997E+02  0.45594000000E+02  0.51100000000E-03 0.  1.
    9900012    2    1    2    0    0 -0.10263462886E+02  0.10133608941E+02  0.28437456596E+02  0.59301989929E+02  0.50000083713E+02 0.  0.
        -12    1    1    2    0    0  0.10263462886E+02 -0.10133608941E+02 -0.28437456596E+02  0.31886010071E+02  0.00000000000E+00 0.  1.
         11    1    3    3    0    0  0.12910825782E+02  0.46713903938E-01  0.78636110095E+01  0.15117142023E+02  0.51100000000E-03 0. -1.
        -11    1    3    3    0    0  0.64290618056E+01  0.31634968358E+01 -0.51610686070E+00  0.71837952701E+01  0.51100000000E-03 0.  1.
         12    1    3    3    0    0 -0.29603350474E+02  0.69233982018E+01  0.21089952447E+02  0.37001052636E+02  0.00000000000E+00 0. -1.
</event>
<event>
 7    1  0.1344618E-011  0.5930193E+02  0.7816164E-02  0.1266605E+00
        -11   -1    0    0    0    0  0.00000000000E+00  0.00000000000E+00  0.45593999997E+02  0.45594000000E+02  0.51100000000E-03 0.  1.
         11   -1    0    0    0    0 -0.00000000000E+00 -0.00000000000E+00 -0.45593999997E+02  0.45594000000E+02  0.51100000000E-03 0. -1.
    9900012    2    1    2    0    0 -0.23612603545E+02  0.16498667265E+02 -0.13673349652E+02  0.59301928458E+02  0.49999971604E+02 0.  0.
        -12    1    1    2    0    0  0.23612603545E+02 -0.16498667265E+02  0.13673349652E+02  0.31886071542E+02  0.00000000000E+00 0.  1.
         11    1    3    3    0    0  0.45687322811E+01  0.83763789745E+01 -0.24559976847E+02  0.26348235280E+02  0.51100000000E-03 0. -1.
        -11    1    3    3    0    0  0.81333949367E+00  0.51543574155E+00  0.10030063381E+01  0.13904017805E+01  0.51100000000E-03 0.  1.
        -12    1    3    3    0    0 -0.28994675320E+02  0.76068525488E+01  0.98836208563E+01  0.31563291397E+02  0.00000000000E+00 0.  1.
</event>
<event>
 7    1  0.1344618E-011  0.5930197E+02  0.7816164E-02  0.1266605E+00
        -11   -1    0    0    0    0  0.00000000000E+00  0.00000000000E+00  0.45593999997E+02  0.45594000000E+02  0.51100000000E-03 0. -1.
         11   -1    0    0    0    0 -0.00000000000E+00 -0.00000000000E+00 -0.45593999997E+02  0.45594000000E+02  0.51100000000E-03 0.  1.
    9900012    2    1    2    0    0 -0.42083103218E-01 -0.13419378901E+02  0.28924688043E+02  0.59301967330E+02  0.50000042497E+02 0.  0.
        -12    1    1    2    0    0  0.42083103218E-01  0.13419378901E+02 -0.28924688043E+02  0.31886032670E+02  0.00000000000E+00 0.  1.
         11    1    3    3    0    0 -0.69603519199E+01 -0.23159222305E+02  0.52145533481E-01  0.24182613507E+02  0.51100000000E-03 0.  1.
        -11    1    3    3    0    0 -0.31852503452E+00  0.63280627797E+01  0.13777360441E+01  0.64841339907E+01  0.51100000000E-03 0. -1.
        -12    1    3    3    0    0  0.72367938512E+01  0.34117806240E+01  0.27494806465E+02  0.28635219832E+02  0.00000000000E+00 0.  1.
</event>
<event>
 7    1  0.1344618E-011  0.5930196E+02  0.7816164E-02  0.1266605E+00
        -11   -1    0    0    0    0  0.00000000000E+00  0.00000000000E+00  0.45593999997E+02  0.45594000000E+02  0.51100000000E-03 0.  1.
         11   -1    0    0    0    0 -0.00000000000E+00 -0.00000000000E+00 -0.45593999997E+02  0.45594000000E+02  0.51100000000E-03 0. -1.
    9900012    2    1    2    0    0 -0.95568351015E+01 -0.62614741242E+00 -0.30413719872E+02  0.59301960512E+02  0.50000030064E+02 0.  0.
        -12    1    1    2    0    0  0.95568351015E+01  0.62614741242E+00  0.30413719872E+02  0.31886039488E+02  0.00000000000E+00 0.  1.
         11    1    3    3    0    0  0.73547019852E+01 -0.24099894747E+01 -0.95622836263E+01  0.12301908753E+02  0.51100000000E-03 0. -1.
        -11    1    3    3    0    0  0.95690452650E+01 -0.63870442042E+01 -0.14605245968E+02  0.18592314837E+02  0.51100000000E-03 0.  1.
        -12    1    3    3    0    0 -0.26480582352E+02  0.81708862664E+01 -0.62461902780E+01  0.28407736922E+02  0.00000000000E+00 0.  1.
</event>
<event>
 7    1  0.1344618E-011  0.5930198E+02  0.7816164E-02  0.1266605E+00
        -11   -1    0    0    0    0  0.00000000000E+00  0.00000000000E+00  0.45593999997E+02  0.45594000000E+02  0.51100000000E-03 0. -1.
         11   -1    0    0    0    0 -0.00000000000E+00 -0.00000000000E+00 -0.45593999997E+02  0.45594000000E+02  0.51100000000E-03 0.  1.
    9900012    2    1    2    0    0  0.15696866200E+02  0.11730335136E+02  0.25154048928E+02  0.59301975658E+02  0.50000057686E+02 0.  0.
        -12    1    1    2    0    0 -0.15696866200E+02 -0.11730335136E+02 -0.25154048928E+02  0.31886024342E+02  0.00000000000E+00 0.  1.
         11    1    3    3    0    0  0.66772854173E+01  0.11119805459E+02  0.27053892469E+02  0.30002488429E+02  0.51100000000E-03 0. -1.
        -11    1    3    3    0    0  0.17246505145E+02 -0.58002280383E+01 -0.40723044462E+01  0.18645864120E+02  0.51100000000E-03 0.  1.
         12    1    3    3    0    0 -0.82269243629E+01  0.64107577148E+01  0.21724609052E+01  0.10653623108E+02  0.00000000000E+00 0. -1.
</event>
<event>
 7    1  0.1344618E-011  0.5930192E+02  0.7816164E-02  0.1266605E+00
        -11   -1    0    0    0    0  0.00000000000E+00  0.00000000000E+00  0.45593999997E+02  0.45594000000E+02  0.51100000000E-03 0.  1.
         11   -1    0    0    0    0 -0.00000000000E+00 -0.00000000000E+00 -0.45593999997E+02  0.45594000000E+02  0.51100000000E-03 0. -1.
    9900012    2    1    2    0    0  0.24120720598E+02 -0.19764537387E+02  0.66540038606E+01  0.59301923608E+02  0.49999962760E+02 0.  0.
        -12    1    1    2    0    0 -0.24120720598E+02  0.19764537387E+02 -0.66540038606E+01  0.31886076392E+02  0.00000000000E+00 0.  1.
         11    1    3    3    0    0  0.95878258513E+01 -0.11945581981E+02 -0.25803960822E+01  0.15533247491E+02  0.51100000000E-03 0. -1.
        -11    1    3    3    0    0  0.20916756987E+02 -0.19722979923E+02  0.94404181234E+01  0.30259348217E+02  0.51100000000E-03 0.  1.
        -12    1    3    3    0    0 -0.63838622407E+01  0.11904024517E+02 -0.20601818067E+00  0.13509327900E+02  0.00000000000E+00 0.  1.
</event>
<event>
 7    1  0.1344618E-011  0.5930191E+02  0.7816164E-02  0.1266605E+00
        -11   -1    0    0    0    0  0.00000000000E+00  0.00000000000E+00  0.45593999997E+02  0.45594000000E+02  0.51100000000E-03 0. -1.
         11   -1    0    0    0    0 -0.00000000000E+00 -0.00000000000E+00 -0.45593999997E+02  0.45594000000E+02  0.51100000000E-03 0.  1.
    9900012    2    1    2    0    0  0.18804294359E+02  0.18402754452E+02  0.18012778217E+02  0.59301905275E+02  0.49999929324E+02 0.  0.
        -12    1    1    2    0    0 -0.18804294359E+02 -0.18402754452E+02 -0.18012778217E+02  0.31886094725E+02  0.00000000000E+00 0.  1.
         11    1    3    3    0    0 -0.95700044853E+01  0.21144941410E+02  0.76240269416E+01  0.24429885799E+02  0.51100000000E-03 0. -1.
        -11    1    3    3    0    0  0.30301662232E+01 -0.44941997567E+01 -0.29578849182E+01  0.61748540261E+01  0.51100000000E-03 0.  1.
        -12    1    3    3    0    0  0.25344132621E+02  0.17520127982E+01  0.13346636193E+02  0.28697165449E+02  0.00000000000E+00 0.  1.
</event>
<event>
 7    1  0.1344618E-011  0.5930194E+02  0.7816164E-02  0.1266605E+00
        -11   -1    0    0    0    0  0.00000000000E+00  0.00000000000E+00  0.45593999997E+02  0.45594000000E+02  0.51100000000E-03 0.  1.
         11   -1    0    0    0    0 -0.00000000000E+00 -0.00000000000E+00 -0.45593999997E+02  0.45594000000E+02  0.51100000000E-03 0. -1.
    9900012    2    1    2    0    0 -0.96695256336E+01 -0.24071111553E+02 -0.18541918262E+02  0.59301939249E+02  0.49999991286E+02 0.  0.
        -12    1    1    2    0    0  0.96695256336E+01  0.24071111553E+02  0.18541918262E+02  0.31886060751E+02  0.00000000000E+00 0.  1.
         11    1    3    3    0    0 -0.11537233083E+02 -0.63491537466E+01 -0.21513551100E+02  0.25224043722E+02  0.51100000000E-03 0.  1.
        -11    1    3    3    0    0 -0.10238635858E+02 -0.15923525439E+02 -0.48631447527E+01  0.19545805274E+02  0.51100000000E-03 0. -1.
        -12    1    3    3    0    0  0.12106343307E+02 -0.17984323667E+01  0.78347775908E+01  0.14532090254E+02  0.00000000000E+00 0.  1.
</event>
<event>
 7    1  0.1344618E-011  0.5930195E+02  0.7816164E-02  0.1266605E+00
        -11   -1    0    0    0    0  0.00000000000E+00  0.00000000000E+00  0.45593999997E+02  0.45594000000E+02  0.51100000000E-03 0. -1.
         11   -1    0    0    0    0 -0.00000000000E+00 -0.00000000000E+00 -0.45593999997E+02  0.45594000000E+02  0.51100000000E-03 0.  1.
    9900012    2    1    2    0    0  0.16080471737E+02 -0.12263298454E+02  0.24652587153E+02  0.59301951113E+02  0.50000012922E+02 0.  0.
        -12    1    1    2    0    0 -0.16080471737E+02  0.12263298454E+02 -0.24652587153E+02  0.31886048887E+02  0.00000000000E+00 0.  1.
         11    1    3    3    0    0  0.17735643005E+02  0.12683213835E+02  0.18707199897E+02  0.28729362580E+02  0.51100000000E-03 0. -1.
        -11    1    3    3    0    0 -0.72065928505E+01 -0.39590584504E+01  0.79549642990E+00  0.82608679422E+01  0.51100000000E-03 0.  1.
        -12    1    3    3    0    0  0.55514215821E+01 -0.20987453839E+02  0.51498908265E+01  0.22311720591E+02  0.00000000000E+00 0.  1.
</event>
<event>
 7    1  0.1344618E-011  0.5930195E+02  0.7816164E-02  0.1266605E+00
        -11   -1    0    0    0    0  0.00000000000E+00  0.00000000000E+00  0.45593999997E+02  0.45594000000E+02  0.51100000000E-03 0.  1.
         11   -1    0    0    0    0 -0.00000000000E+00 -0.00000000000E+00 -0.45593999997E+02  0.45594000000E+02  0.51100000000E-03 0. -1.
    9900012    2    1    2    0    0 -0.19631767391E+02 -0.24740163519E+02 -0.43861551209E+01  0.59301947586E+02  0.50000006489E+02 0.  0.
        -12    1    1    2    0    0  0.19631767391E+02  0.24740163519E+02  0.43861551209E+01  0.31886052414E+02  0.00000000000E+00 0.  1.
         11    1    3    3    0    0 -0.18504065353E+01 -0.14988210686E+02  0.12960098906E+01  0.15157509882E+02  0.51100000000E-03 0. -1.
        -11    1    3    3    0    0 -0.28807387437E+02 -0.31854573416E+01 -0.99136479977E+01  0.30631570745E+02  0.51100000000E-03 0.  1.
         12    1    3    3    0    0  0.11026026581E+02 -0.65664954910E+01  0.42314829862E+01  0.13512866960E+02  0.00000000000E+00 0. -1.
</event>
<event>
 7    1  0.1344618E-011  0.5930195E+02  0.7816164E-02  0.1266605E+00
        -11   -1    0    0    0    0  0.00000000000E+00  0.00000000000E+00  0.45593999997E+02  0.45594000000E+02  0.51100000000E-03 0.  1.
         11   -1    0    0    0    0 -0.00000000000E+00 -0.00000000000E+00 -0.45593999997E+02  0.45594000000E+02  0.51100000000E-03 0. -1.
    9900012    2    1    2    0    0 -0.62787538610E+01 -0.30963664833E+02  0.43068762093E+01  0.59301945484E+02  0.50000002656E+02 0.  0.
        -12    1    1    2    0    0  0.62787538610E+01  0.30963664833E+02 -0.43068762093E+01  0.31886054516E+02  0.00000000000E+00 0.  1.
         11    1    3    3    0    0 -0.13220051037E+02 -0.23662417858E+02  0.10995899401E+02  0.29250462769E+02  0.51100000000E-03 0. -1.
        -11    1    3    3    0    0 -0.70938022370E+00 -0.16940761069E+02 -0.31460141337E+01  0.17244999597E+02  0.51100000000E-03 0.  1.
        -12    1    3    3    0    0  0.76506773993E+01  0.96395140954E+01 -0.35430090577E+01  0.12806483118E+02  0.00000000000E+00 0.  1.
</event>
<event>
 7    1  0.1344618E-011  0.5930195E+02  0.7816164E-02  0.1266605E+00
        -11   -1    0    0    0    0  0.00000000000E+00  0.00000000000E+00  0.45593999997E+02  0.45594000000E+02  0.51100000000E-03 0. -1.
         11   -1    0    0    0    0 -0.00000000000E+00 -0.00000000000E+00 -0.45593999997E+02  0.45594000000E+02  0.51100000000E-03 0.  1.
    9900012    2    1    2    0    0 -0.12595743988E+01  0.21133181464E+02  0.23843699271E+02  0.59301954755E+02  0.50000019563E+02 0.  0.
        -12    1    1    2    0    0  0.12595743988E+01 -0.21133181464E+02 -0.23843699271E+02  0.31886045245E+02  0.00000000000E+00 0.  1.
         11    1    3    3    0    0 -0.72623701627E+01  0.57450920051E+01 -0.71768922787E+01  0.11715625701E+02  0.51100000000E-03 0. -1.
        -11    1    3    3    0    0 -0.18449076541E+01 -0.96046341275E+01  0.10126796871E+02  0.14078518960E+02  0.51100000000E-03 0.  1.
         12    1    3    3    0    0  0.78477034180E+01  0.24992723586E+02  0.20893794679E+02  0.33507810093E+02  0.00000000000E+00 0. -1.
</event>
<event>
 7    1  0.1344618E-011  0.5930195E+02  0.7816164E-02  0.1266605E+00
        -11   -1    0    0    0    0  0.00000000000E+00  0.00000000000E+00  0.45593999997E+02  0.45594000000E+02  0.51100000000E-03 0.  1.
         11   -1    0    0    0    0 -0.00000000000E+00 -0.00000000000E+00 -0.45593999997E+02  0.45594000000E+02  0.51100000000E-03 0. -1.
    9900012    2    1    2    0    0  0.30828619280E+02  0.32158133553E+01  0.74816623375E+01  0.59301945155E+02  0.50000002057E+02 0.  0.
        -12    1    1    2    0    0 -0.30828619280E+02 -0.32158133553E+01 -0.74816623375E+01  0.31886054845E+02  0.00000000000E+00 0.  1.
         11    1    3    3    0    0 -0.35721359774E+01 -0.35787402957E+01 -0.87716492484E+01  0.10124691025E+02  0.51100000000E-03 0. -1.
        -11    1    3    3    0    0  0.21204464937E+02  0.17658736029E+02  0.34260246821E+01  0.27806436967E+02  0.51100000000E-03 0.  1.
        -12    1    3    3    0    0  0.13196290320E+02 -0.10864182378E+02  0.12827286904E+02  0.21370817164E+02  0.00000000000E+00 0.  1.
</event>
<event>
 7    1  0.1344618E-011  0.5930189E+02  0.7816164E-02  0.1266605E+00
        -11   -1    0    0    0    0  0.00000000000E+00  0.00000000000E+00  0.45593999997E+02  0.45594000000E+02  0.51100000000E-03 0.  1.
         11   -1    0    0    0    0 -0.00000000000E+00 -0.00000000000E+00 -0.45593999997E+02  0.45594000000E+02  0.51100000000E-03 0. -1.
    9900012    2    1    2    0    0 -0.25164594810E+02  0.34508360258E+01 -0.19275864710E+02  0.59301889207E+02  0.49999900020E+02 0.  0.
        -12    1    1    2    0    0  0.25164594810E+02 -0.34508360258E+01  0.19275864710E+02  0.31886110793E+02  0.00000000000E+00 0.  1.
         11    1    3    3    0    0 -0.13545129851E+02  0.16859335042E+02 -0.14428307288E+02  0.25997764754E+02  0.51100000000E-03 0. -1.
        -11    1    3    3    0    0 -0.88045611705E+01 -0.39383386647E+01 -0.15826753710E+02  0.18534210048E+02  0.51100000000E-03 0.  1.
        -12    1    3    3    0    0 -0.28149037885E+01 -0.94701603516E+01  0.10979196288E+02  0.14769914406E+02  0.00000000000E+00 0.  1.
</event>
<event>
 7    1  0.1344618E-011  0.5930194E+02  0.7816164E-02  0.1266605E+00
        -11   -1    0    0    0    0  0.00000000000E+00  0.00000000000E+00  0.45593999997E+02  0.45594000000E+02  0.51100000000E-03 0.  1.
         11   -1    0    0    0    0 -0.00000000000E+00 -0.00000000000E+00 -0.45593999997E+02  0.45594000000E+02  0.51100000000E-03 0. -1.
    9900012    2    1    2    0    0  0.14016099922E+02 -0.10129603334E+02 -0.26789193065E+02  0.59301940573E+02  0.49999993699E+02 0.  0.
        -12    1    1    2    0    0 -0.14016099922E+02  0.10129603334E+02  0.26789193065E+02  0.31886059427E+02  0.00000000000E+00 0.  1.
         11    1    3    3    0    0  0.87307461619E+01  0.63341482385E+01 -0.48077949409E+01  0.11809413826E+02  0.51100000000E-03 0. -1.
        -11    1    3    3    0    0  0.21600126487E+02 -0.60484405722E+01 -0.89072616827E+01  0.24134796634E+02  0.51100000000E-03 0.  1.
         12    1    3    3    0    0 -0.16314772727E+02 -0.10415311000E+02 -0.13074136441E+02  0.23357730114E+02  0.00000000000E+00 0. -1.
</event>
<event>
 7    1  0.1719071E-011  0.5930205E+02  0.7816164E-02  0.1266604E+00
        -11   -1    0    0    0    0  0.00000000000E+00  0.00000000000E+00  0.45593999997E+02  0.45594000000E+02  0.51100000000E-03 0. -1.
         11   -1    0    0    0    0 -0.00000000000E+00 -0.00000000000E+00 -0.45593999997E+02  0.45594000000E+02  0.51100000000E-03 0.  1.
    9900012    2    1    2    0    0 -0.21700285872E+02  0.23228484300E+02  0.24997262089E+01  0.59302054492E+02  0.50000201461E+02 0.  0.
        -12    1    1    2    0    0  0.21700285872E+02 -0.23228484300E+02 -0.24997262089E+01  0.31885945508E+02  0.00000000000E+00 0.  1.
         11    1    3    3    0    0 -0.19734524244E+02  0.20916285141E+02  0.18450718055E+02  0.34166817649E+02  0.51100000000E-03 0. -1.
        -11    1    3    3    0    0 -0.98298570165E+01 -0.22895053634E+01 -0.10261446663E+02  0.14393234927E+02  0.51100000000E-03 0.  1.
        -12    1    3    3    0    0  0.78640953886E+01  0.46017045219E+01 -0.56895451831E+01  0.10742001917E+02  0.00000000000E+00 0.  1.
</event>
<event>
 7    1  0.1344618E-011  0.5930195E+02  0.7816164E-02  0.1266605E+00
        -11   -1    0    0    0    0  0.00000000000E+00  0.00000000000E+00  0.45593999997E+02  0.45594000000E+02  0.51100000000E-03 0.  1.
         11   -1    0    0    0    0 -0.00000000000E+00 -0.00000000000E+00 -0.45593999997E+02  0.45594000000E+02  0.51100000000E-03 0. -1.
    9900012    2    1    2    0    0 -0.31649927123E+02 -0.96947981346E+00 -0.37499705230E+01  0.59301952002E+02  0.50000014543E+02 0.  0.
        -12    1    1    2    0    0  0.31649927123E+02  0.96947981346E+00  0.37499705230E+01  0.31886047998E+02  0.00000000000E+00 0.  1.
         11    1    3    3    0    0  0.10431408163E+01  0.24433842946E+01 -0.71285676998E+01  0.76075454179E+01  0.51100000000E-03 0. -1.
        -11    1    3    3    0    0 -0.75655572199E+01  0.75827445392E+01 -0.15179269216E+02  0.18578102298E+02  0.51100000000E-03 0.  1.
        -12    1    3    3    0    0 -0.25127510720E+02 -0.10995608647E+02  0.18557866393E+02  0.33116304286E+02  0.00000000000E+00 0.  1.
</event>
<event>
 7    1  0.1344618E-011  0.5930202E+02  0.7816164E-02  0.1266604E+00
        -11   -1    0    0    0    0  0.00000000000E+00  0.00000000000E+00  0.45593999997E+02  0.45594000000E+02  0.51100000000E-03 0.  1.
         11   -1    0    0    0    0 -0.00000000000E+00 -0.00000000000E+00 -0.45593999997E+02  0.45594000000E+02  0.51100000000E-03 0. -1.
    9900012    2    1    2    0    0 -0.18624269113E+01  0.31533412748E+02  0.43463648852E+01  0.59302021244E+02  0.50000140824E+02 0.  0.
        -12    1    1    2    0    0  0.18624269113E+01 -0.31533412748E+02 -0.43463648852E+01  0.31885978756E+02  0.00000000000E+00 0.  1.
         11    1    3    3    0    0  0.64686206137E+01  0.72997650341E+01  0.13225747070E+02  0.16433198350E+02  0.51100000000E-03 0. -1.
        -11    1    3    3    0    0 -0.61093785266E+01  0.14057925578E+02  0.12045742723E+02  0.19494863312E+02  0.51100000000E-03 0.  1.
         12    1    3    3    0    0 -0.22216689985E+01  0.10175722135E+02 -0.20925124908E+02  0.23373959582E+02  0.00000000000E+00 0. -1.
</event>
<event>
 7    1  0.1344618E-011  0.5930193E+02  0.7816164E-02  0.1266605E+00
        -11   -1    0    0    0    0  0.00000000000E+00  0.00000000000E+00  0.45593999997E+02  0.45594000000E+02  0.51100000000E-03 0.  1.
         11   -1    0    0    0    0 -0.00000000000E+00 -0.00000000000E+00 -0.45593999997E+02  0.45594000000E+02  0.51100000000E-03 0. -1.
    9900012    2    1    2    0    0  0.87218235663E+01 -0.19259051668E+02 -0.23869229627E+02  0.59301930935E+02  0.49999976121E+02 0.  0.
        -12    1    1    2    0    0 -0.87218235663E+01  0.19259051668E+02  0.23869229627E+02  0.31886069065E+02  0.00000000000E+00 0.  1.
         11    1    3    3    0    0  0.25453387454E-01  0.16507854405E+01 -0.50009335360E+01  0.52664102516E+01  0.51100000000E-03 0. -1.
        -11    1    3    3    0    0 -0.17497793574E+01  0.13150556307E+02 -0.11714125768E+02  0.17698011237E+02  0.51100000000E-03 0.  1.
         12    1    3    3    0    0  0.10446149536E+02 -0.34060393415E+02 -0.71541703226E+01  0.36337509446E+02  0.00000000000E+00 0. -1.
</event>
<event>
 7    1  0.1344618E-011  0.5930195E+02  0.7816164E-02  0.1266605E+00
        -11   -1    0    0    0    0  0.00000000000E+00  0.00000000000E+00  0.45593999997E+02  0.45594000000E+02  0.51100000000E-03 0.  1.
         11   -1    0    0    0    0 -0.00000000000E+00 -0.00000000000E+00 -0.45593999997E+02  0.45594000000E+02  0.51100000000E-03 0. -1.
    9900012    2    1    2    0    0  0.30001160216E+02 -0.10792279739E+02 -0.42124981019E+00  0.59301947130E+02  0.50000005657E+02 0.  0.
        -12    1    1    2    0    0 -0.30001160216E+02  0.10792279739E+02  0.42124981019E+00  0.31886052870E+02  0.00000000000E+00 0.  1.
         11    1    3    3    0    0  0.34121402092E+02 -0.11794946805E+02 -0.45259435101E+00  0.36105341609E+02  0.51100000000E-03 0. -1.
        -11    1    3    3    0    0  0.36552490825E+01  0.93025661087E+01  0.45204489432E+01  0.10969641789E+02  0.51100000000E-03 0.  1.
         12    1    3    3    0    0 -0.77754909584E+01 -0.82998990424E+01 -0.44891044024E+01  0.12226963732E+02  0.00000000000E+00 0. -1.
</event>
<event>
 7    1  0.1344618E-011  0.5930193E+02  0.7816164E-02  0.1266605E+00
        -11   -1    0    0    0    0  0.00000000000E+00  0.00000000000E+00  0.45593999997E+02  0.45594000000E+02  0.51100000000E-03 0.  1.
         11   -1    0    0    0    0 -0.00000000000E+00 -0.00000000000E+00 -0.45593999997E+02  0.45594000000E+02  0.51100000000E-03 0. -1.
    9900012    2    1    2    0    0  0.30717926218E+02 -0.27823526267E+01 -0.80863366549E+01  0.59301932231E+02  0.49999978485E+02 0.  0.
        -12    1    1    2    0    0 -0.30717926218E+02  0.27823526267E+01  0.80863366549E+01  0.31886067769E+02  0.00000000000E+00 0.  1.
         11    1    3    3    0    0  0.16565201470E+02 -0.13502616172E+02 -0.92145870843E+01  0.23273056496E+02  0.51100000000E-03 0. -1.
        -11    1    3    3    0    0  0.79473008576E+01 -0.65730477378E+01 -0.10150210791E+02  0.14470360287E+02  0.51100000000E-03 0.  1.
        -12    1    3    3    0    0  0.62054238900E+01  0.17293311284E+02  0.11278461220E+02  0.21558515448E+02  0.00000000000E+00 0.  1.
</event>
<event>
 7    1  0.1344618E-011  0.5930195E+02  0.7816164E-02  0.1266605E+00
        -11   -1    0    0    0    0  0.00000000000E+00  0.00000000000E+00  0.45593999997E+02  0.45594000000E+02  0.51100000000E-03 0. -1.
         11   -1    0    0    0    0 -0.00000000000E+00 -0.00000000000E+00 -0.45593999997E+02  0.45594000000E+02  0.51100000000E-03 0.  1.
    9900012    2    1    2    0    0 -0.25959668093E+02  0.48118843394E+01  0.17879085675E+02  0.59301948144E+02  0.50000007507E+02 0.  0.
        -12    1    1    2    0    0  0.25959668093E+02 -0.48118843394E+01 -0.17879085675E+02  0.31886051856E+02  0.00000000000E+00 0.  1.
         11    1    3    3    0    0 -0.18848331324E+02  0.27713409229E+01 -0.45559014029E+01  0.19588163826E+02  0.51100000000E-03 0. -1.
        -11    1    3    3    0    0  0.33108971631E+01  0.15342994383E+02  0.87626863899E+01  0.17976489916E+02  0.51100000000E-03 0.  1.
        -12    1    3    3    0    0 -0.10422233932E+02 -0.13302450966E+02  0.13672300688E+02  0.21737294403E+02  0.00000000000E+00 0.  1.
</event>
<event>
 7    1  0.1344618E-011  0.5930194E+02  0.7816164E-02  0.1266605E+00
        -11   -1    0    0    0    0  0.00000000000E+00  0.00000000000E+00  0.45593999997E+02  0.45594000000E+02  0.51100000000E-03 0.  1.
         11   -1    0    0    0    0 -0.00000000000E+00 -0.00000000000E+00 -0.45593999997E+02  0.45594000000E+02  0.51100000000E-03 0. -1.
    9900012    2    1    2    0    0 -0.42093495830E+01 -0.14665735790E+02 -0.27998541235E+02  0.59301941268E+02  0.49999994967E+02 0.  0.
        -12    1    1    2    0    0  0.42093495830E+01  0.14665735790E+02  0.27998541235E+02  0.31886058732E+02  0.00000000000E+00 0.  1.
         11    1    3    3    0    0 -0.15272903992E+02 -0.24910435454E+01 -0.78936356532E+01  0.17371712017E+02  0.51100000000E-03 0. -1.
        -11    1    3    3    0    0 -0.24796521731E+01 -0.17998636254E+02 -0.15542429487E+01  0.18235000776E+02  0.51100000000E-03 0.  1.
         12    1    3    3    0    0  0.13543206582E+02  0.58239440090E+01 -0.18550662633E+02  0.23695228475E+02  0.00000000000E+00 0. -1.
</event>
<event>
 7    1  0.1344618E-011  0.5930194E+02  0.7816164E-02  0.1266605E+00
        -11   -1    0    0    0    0  0.00000000000E+00  0.00000000000E+00  0.45593999997E+02  0.45594000000E+02  0.51100000000E-03 0.  1.
         11   -1    0    0    0    0 -0.00000000000E+00 -0.00000000000E+00 -0.45593999997E+02  0.45594000000E+02  0.51100000000E-03 0. -1.
    9900012    2    1    2    0    0  0.29057693376E+02  0.12485172359E+02  0.40610314239E+01  0.59301936439E+02  0.49999986160E+02 0.  0.
        -12    1    1    2    0    0 -0.29057693376E+02 -0.12485172359E+02 -0.40610314239E+01  0.31886063561E+02  0.00000000000E+00 0.  1.
         11    1    3    3    0    0  0.35435416118E+02 -0.44086170653E+01  0.16143165414E+01  0.35745078515E+02  0.51100000000E-03 0. -1.
        -11    1    3    3    0    0 -0.69015538087E+01  0.16841119481E+01  0.41754832767E+01  0.82402875486E+01  0.51100000000E-03 0.  1.
        -12    1    3    3    0    0  0.52383106672E+00  0.15209677476E+02 -0.17287683943E+01  0.15316570376E+02  0.00000000000E+00 0.  1.
</event>
<event>
 7    1  0.1344618E-011  0.5930198E+02  0.7816164E-02  0.1266605E+00
        -11   -1    0    0    0    0  0.00000000000E+00  0.00000000000E+00  0.45593999997E+02  0.45594000000E+02  0.51100000000E-03 0.  1.
         11   -1    0    0    0    0 -0.00000000000E+00 -0.00000000000E+00 -0.45593999997E+02  0.45594000000E+02  0.51100000000E-03 0. -1.
    9900012    2    1    2    0    0 -0.27334793488E+02  0.10206027339E+02 -0.12859399725E+02  0.59301982839E+02  0.50000070783E+02 0.  0.
        -12    1    1    2    0    0  0.27334793488E+02 -0.10206027339E+02  0.12859399725E+02  0.31886017161E+02  0.00000000000E+00 0.  1.
         11    1    3    3    0    0 -0.58900185835E+01  0.16012673804E+02 -0.11387658366E+02  0.20512844868E+02  0.51100000000E-03 0. -1.
        -11    1    3    3    0    0 -0.70216948697E+01 -0.10195434316E+02 -0.14356822995E+02  0.18957042135E+02  0.51100000000E-03 0.  1.
        -12    1    3    3    0    0 -0.14423080035E+02  0.43887878511E+01  0.12885081636E+02  0.19832095837E+02  0.00000000000E+00 0.  1.
</event>
<event>
 7    1  0.1344618E-011  0.5930193E+02  0.7816164E-02  0.1266605E+00
        -11   -1    0    0    0    0  0.00000000000E+00  0.00000000000E+00  0.45593999997E+02  0.45594000000E+02  0.51100000000E-03 0.  1.
         11   -1    0    0    0    0 -0.00000000000E+00 -0.00000000000E+00 -0.45593999997E+02  0.45594000000E+02  0.51100000000E-03 0. -1.
    9900012    2    1    2    0    0  0.26203743741E+02 -0.16167993660E+02 -0.82874088848E+01  0.59301931709E+02  0.49999977533E+02 0.  0.
        -12    1    1    2    0    0 -0.26203743741E+02  0.16167993660E+02  0.82874088848E+01  0.31886068291E+02  0.00000000000E+00 0.  1.
         11    1    3    3    0    0 -0.53526721066E+01 -0.26398590534E+01 -0.83958941956E+01  0.10301019081E+02  0.51100000000E-03 0. -1.
        -11    1    3    3    0    0  0.93638968386E+01 -0.66188046814E+01 -0.16741841521E+02  0.20292372882E+02  0.51100000000E-03 0.  1.
         12    1    3    3    0    0  0.22192519009E+02 -0.69093299256E+01  0.16850326832E+02  0.28708539746E+02  0.00000000000E+00 0. -1.
</event>
<event>
 7    1  0.1344618E-011  0.5930194E+02  0.7816164E-02  0.1266605E+00
        -11   -1    0    0    0    0  0.00000000000E+00  0.00000000000E+00  0.45593999997E+02  0.45594000000E+02  0.51100000000E-03 0.  1.
         11   -1    0    0    0    0 -0.00000000000E+00 -0.00000000000E+00 -0.45593999997E+02  0.45594000000E+02  0.51100000000E-03 0. -1.
    9900012    2    1    2    0    0 -0.23749145596E+02 -0.23314560360E+01 -0.21148595010E+02  0.59301942315E+02  0.49999996876E+02 0.  0.
        -12    1    1    2    0    0  0.23749145596E+02  0.23314560360E+01  0.21148595010E+02  0.31886057685E+02  0.00000000000E+00 0.  1.
         11    1    3    3    0    0 -0.24091509325E+01 -0.37614177030E+01  0.24870536041E+01  0.51125049871E+01  0.51100000000E-03 0. -1.
        -11    1    3    3    0    0  0.85910805813E+01  0.72052796257E+01  0.50810758386E+01  0.12310160518E+02  0.51100000000E-03 0.  1.
         12    1    3    3    0    0 -0.29931075245E+02 -0.57753179587E+01 -0.28716724453E+02  0.41879276810E+02  0.00000000000E+00 0. -1.
</event>
<event>
 7    1  0.1344618E-011  0.5930193E+02  0.7816164E-02  0.1266605E+00
        -11   -1    0    0    0    0  0.00000000000E+00  0.00000000000E+00  0.45593999997E+02  0.45594000000E+02  0.51100000000E-03 0.  1.
         11   -1    0    0    0    0 -0.00000000000E+00 -0.00000000000E+00 -0.45593999997E+02  0.45594000000E+02  0.51100000000E-03 0. -1.
    9900012    2    1    2    0    0 -0.12060754268E+02  0.17321919703E+02 -0.23900017149E+02  0.59301929131E+02  0.49999972832E+02 0.  0.
        -12    1    1    2    0    0  0.12060754268E+02 -0.17321919703E+02  0.23900017149E+02  0.31886070869E+02  0.00000000000E+00 0.  1.
         11    1    3    3    0    0 -0.14853190258E+02 -0.16157857331E+00 -0.30368818988E+02  0.33806930287E+02  0.51100000000E-03 0. -1.
        -11    1    3    3    0    0 -0.60393040368E+01  0.12496844041E+01  0.12652454155E+01  0.62956930183E+01  0.51100000000E-03 0.  1.
         12    1    3    3    0    0  0.88317400270E+01  0.16233813873E+02  0.52035564229E+01  0.19199305826E+02  0.00000000000E+00 0. -1.
</event>
<event>
 7    1  0.1344618E-011  0.5930195E+02  0.7816164E-02  0.1266605E+00
        -11   -1    0    0    0    0  0.00000000000E+00  0.00000000000E+00  0.45593999997E+02  0.45594000000E+02  0.51100000000E-03 0. -1.
         11   -1    0    0    0    0 -0.00000000000E+00 -0.00000000000E+00 -0.45593999997E+02  0.45594000000E+02  0.51100000000E-03 0.  1.
    9900012    2    1    2    0    0  0.28556121616E+02  0.30240589925E+01  0.13860842655E+02  0.59301953308E+02  0.50000016925E+02 0.  0.
        -12    1    1    2    0    0 -0.28556121616E+02 -0.30240589925E+01 -0.13860842655E+02  0.31886046692E+02  0.00000000000E+00 0.  1.
         11    1    3    3    0    0  0.35100380793E+02  0.18721855202E+01 -0.94523751362E+00  0.35162981737E+02  0.51100000000E-03 0. -1.
        -11    1    3    3    0    0 -0.53417510613E+01 -0.47077854235E+01 -0.10452474946E+01  0.71965332334E+01  0.51100000000E-03 0.  1.
        -12    1    3    3    0    0 -0.12025081157E+01  0.58596588958E+01  0.15851327663E+02  0.16942438338E+02  0.00000000000E+00 0.  1.
</event>
<event>
 7    1  0.1344618E-011  0.5930193E+02  0.7816164E-02  0.1266605E+00
        -11   -1    0    0    0    0  0.00000000000E+00  0.00000000000E+00  0.45593999997E+02  0.45594000000E+02  0.51100000000E-03 0.  1.
         11   -1    0    0    0    0 -0.00000000000E+00 -0.00000000000E+00 -0.45593999997E+02  0.45594000000E+02  0.51100000000E-03 0. -1.
    9900012    2    1    2    0    0  0.22599094590E+01  0.10572510545E+02 -0.29997271026E+02  0.59301930330E+02  0.49999975019E+02 0.  0.
        -12    1    1    2    0    0 -0.22599094590E+01 -0.10572510545E+02  0.29997271026E+02  0.31886069670E+02  0.00000000000E+00 0.  1.
         11    1    3    3    0    0 -0.85061559320E+01 -0.90553496396E+01 -0.16749364775E+02  0.20854142669E+02  0.51100000000E-03 0. -1.
        -11    1    3    3    0    0  0.38025118222E+00 -0.57623995735E+01 -0.89928878310E+01  0.10687463292E+02  0.51100000000E-03 0.  1.
        -12    1    3    3    0    0  0.10385814209E+02  0.25390259758E+02 -0.42550184200E+01  0.27760324370E+02  0.00000000000E+00 0.  1.
</event>
<event>
 7    1  0.1344618E-011  0.5930192E+02  0.7816164E-02  0.1266605E+00
        -11   -1    0    0    0    0  0.00000000000E+00  0.00000000000E+00  0.45593999997E+02  0.45594000000E+02  0.51100000000E-03 0. -1.
         11   -1    0    0    0    0 -0.00000000000E+00 -0.00000000000E+00 -0.45593999997E+02  0.45594000000E+02  0.51100000000E-03 0.  1.
    9900012    2    1    2    0    0 -0.20671149555E+02  0.14472071693E+02  0.19493206041E+02  0.59301915813E+02  0.49999948544E+02 0.  0.
        -12    1    1    2    0    0  0.20671149555E+02 -0.14472071693E+02 -0.19493206041E+02  0.31886084187E+02  0.00000000000E+00 0.  1.
         11    1    3    3    0    0  0.10781864272E+02  0.13711422614E+01  0.13516803723E+02  0.17344526844E+02  0.51100000000E-03 0. -1.
        -11    1    3    3    0    0  0.38926828435E+01  0.41783038169E+00  0.12444866531E+01  0.41080785337E+01  0.51100000000E-03 0.  1.
         12    1    3    3    0    0 -0.35345696670E+02  0.12683099050E+02  0.47319156650E+01  0.37849310436E+02  0.00000000000E+00 0. -1.
</event>
<event>
 7    1  0.1344618E-011  0.5930195E+02  0.7816164E-02  0.1266605E+00
        -11   -1    0    0    0    0  0.00000000000E+00  0.00000000000E+00  0.45593999997E+02  0.45594000000E+02  0.51100000000E-03 0. -1.
         11   -1    0    0    0    0 -0.00000000000E+00 -0.00000000000E+00 -0.45593999997E+02  0.45594000000E+02  0.51100000000E-03 0.  1.
    9900012    2    1    2    0    0 -0.34676046831E+01 -0.26084411280E+02 -0.18008322994E+02  0.59301945194E+02  0.50000002127E+02 0.  0.
        -12    1    1    2    0    0  0.34676046831E+01  0.26084411280E+02  0.18008322994E+02  0.31886054806E+02  0.00000000000E+00 0.  1.
         11    1    3    3    0    0 -0.45728417649E+01 -0.20869573387E+02 -0.11788245480E+02  0.24401080036E+02  0.51100000000E-03 0. -1.
        -11    1    3    3    0    0  0.79394495243E+01 -0.69704512359E+01  0.11626630079E+02  0.15709887856E+02  0.51100000000E-03 0.  1.
        -12    1    3    3    0    0 -0.68342124424E+01  0.17556133432E+01 -0.17846707593E+02  0.19190977302E+02  0.00000000000E+00 0.  1.
</event>
<event>
 7    1  0.1344618E-011  0.5930194E+02  0.7816164E-02  0.1266605E+00
        -11   -1    0    0    0    0  0.00000000000E+00  0.00000000000E+00  0.45593999997E+02  0.45594000000E+02  0.51100000000E-03 0.  1.
         11   -1    0    0    0    0 -0.00000000000E+00 -0.00000000000E+00 -0.45593999997E+02  0.45594000000E+02  0.51100000000E-03 0. -1.
    9900012    2    1    2    0    0  0.20333091042E+02 -0.17916494500E+02 -0.16801350619E+02  0.59301941148E+02  0.49999994747E+02 0.  0.
        -12    1    1    2    0    0 -0.20333091042E+02  0.17916494500E+02  0.16801350619E+02  0.31886058852E+02  0.00000000000E+00 0.  1.
         11    1    3    3    0    0  0.15647423938E+02 -0.86015051876E+00 -0.21940666725E+02  0.26962466345E+02  0.51100000000E-03 0. -1.
        -11    1    3    3    0    0  0.11655044376E+02  0.16313945964E+01  0.37261252288E+01  0.12344452893E+02  0.51100000000E-03 0.  1.
         12    1    3    3    0    0 -0.69693772725E+01 -0.18687738578E+02  0.14131908767E+01  0.19995021910E+02  0.00000000000E+00 0. -1.
</event>
<event>
 7    1  0.1344618E-011  0.5930195E+02  0.7816164E-02  0.1266605E+00
        -11   -1    0    0    0    0  0.00000000000E+00  0.00000000000E+00  0.45593999997E+02  0.45594000000E+02  0.51100000000E-03 0.  1.
         11   -1    0    0    0    0 -0.00000000000E+00 -0.00000000000E+00 -0.45593999997E+02  0.45594000000E+02  0.51100000000E-03 0. -1.
    9900012    2    1    2    0    0  0.13838375287E+02 -0.17794973411E+02 -0.22551246804E+02  0.59301945969E+02  0.50000003540E+02 0.  0.
        -12    1    1    2    0    0 -0.13838375287E+02  0.17794973411E+02  0.22551246804E+02  0.31886054031E+02  0.00000000000E+00 0.  1.
         11    1    3    3    0    0  0.89813023689E+01  0.11284698503E+02 -0.13737201073E+02  0.19917803747E+02  0.51100000000E-03 0. -1.
        -11    1    3    3    0    0  0.60206533584E+01  0.26899168628E+01 -0.14854327473E+01  0.67594696759E+01  0.51100000000E-03 0.  1.
        -12    1    3    3    0    0 -0.11635804405E+01 -0.31769588776E+02 -0.73286129840E+01  0.32624672546E+02  0.00000000000E+00 0.  1.
</event>
<event>
 7    1  0.1344618E-011  0.5930198E+02  0.7816164E-02  0.1266605E+00
        -11   -1    0    0    0    0  0.00000000000E+00  0.00000000000E+00  0.45593999997E+02  0.45594000000E+02  0.51100000000E-03 0.  1.
         11   -1    0    0    0    0 -0.00000000000E+00 -0.00000000000E+00 -0.45593999997E+02  0.45594000000E+02  0.51100000000E-03 0. -1.
    9900012    2    1    2    0    0  0.61985777090E+01  0.28738633219E+02 -0.12344496163E+02  0.59301984407E+02  0.50000073642E+02 0.  0.
        -12    1    1    2    0    0 -0.61985777090E+01 -0.28738633219E+02  0.12344496163E+02  0.31886015593E+02  0.00000000000E+00 0.  1.
         11    1    3    3    0    0  0.22412134433E+02  0.30718417631E+02 -0.12876619103E+02  0.40146385533E+02  0.51100000000E-03 0. -1.
        -11    1    3    3    0    0 -0.51858397426E+01  0.29153219976E+01 -0.28905502813E+01  0.66141754872E+01  0.51100000000E-03 0.  1.
        -12    1    3    3    0    0 -0.11027716981E+02 -0.48951064103E+01  0.34226732218E+01  0.12541423387E+02  0.00000000000E+00 0.  1.
</event>
<event>
 7    1  0.1344618E-011  0.5930193E+02  0.7816164E-02  0.1266605E+00
        -11   -1    0    0    0    0  0.00000000000E+00  0.00000000000E+00  0.45593999997E+02  0.45594000000E+02  0.51100000000E-03 0. -1.
         11   -1    0    0    0    0 -0.00000000000E+00 -0.00000000000E+00 -0.45593999997E+02  0.45594000000E+02  0.51100000000E-03 0.  1.
    9900012    2    1    2    0    0 -0.24269417065E+02 -0.20029824867E+02 -0.51500688165E+01  0.59301926274E+02  0.49999967621E+02 0.  0.
        -12    1    1    2    0    0  0.24269417065E+02  0.20029824867E+02  0.51500688165E+01  0.31886073726E+02  0.00000000000E+00 0.  1.
         11    1    3    3    0    0 -0.15446237878E+02 -0.82463910255E+01  0.26735572020E+01  0.17712626511E+02  0.51100000000E-03 0. -1.
        -11    1    3    3    0    0 -0.43952192804E+01 -0.36303777222E+01  0.15485553442E+02  0.16501513888E+02  0.51100000000E-03 0.  1.
        -12    1    3    3    0    0 -0.44279599062E+01 -0.81530561189E+01 -0.23309179460E+02  0.25087785875E+02  0.00000000000E+00 0.  1.
</event>
<event>
 7    1  0.1344618E-011  0.5930191E+02  0.7816164E-02  0.1266605E+00
        -11   -1    0    0    0    0  0.00000000000E+00  0.00000000000E+00  0.45593999997E+02  0.45594000000E+02  0.51100000000E-03 0. -1.
         11   -1    0    0    0    0 -0.00000000000E+00 -0.00000000000E+00 -0.45593999997E+02  0.45594000000E+02  0.51100000000E-03 0.  1.
    9900012    2    1    2    0    0  0.16259979647E+02  0.25134492744E+02 -0.10981477592E+02  0.59301913477E+02  0.49999944283E+02 0.  0.
        -12    1    1    2    0    0 -0.16259979647E+02 -0.25134492744E+02  0.10981477592E+02  0.31886086523E+02  0.00000000000E+00 0.  1.
         11    1    3    3    0    0  0.15041117914E+02  0.11400184184E+02  0.10702673740E+02  0.21696696822E+02  0.51100000000E-03 0. -1.
        -11    1    3    3    0    0  0.77673840798E+01  0.10771216715E+02  0.14702249752E+01  0.13360872977E+02  0.51100000000E-03 0.  1.
        -12    1    3    3    0    0 -0.65485223468E+01  0.29630918453E+01 -0.23154376308E+02  0.24244343679E+02  0.00000000000E+00 0.  1.
</event>
<event>
 7    1  0.1344618E-011  0.5930195E+02  0.7816164E-02  0.1266605E+00
        -11   -1    0    0    0    0  0.00000000000E+00  0.00000000000E+00  0.45593999997E+02  0.45594000000E+02  0.51100000000E-03 0.  1.
         11   -1    0    0    0    0 -0.00000000000E+00 -0.00000000000E+00 -0.45593999997E+02  0.45594000000E+02  0.51100000000E-03 0. -1.
    9900012    2    1    2    0    0  0.18541128398E+02  0.12265759337E+02 -0.22858217433E+02  0.59301946644E+02  0.50000004772E+02 0.  0.
        -12    1    1    2    0    0 -0.18541128398E+02 -0.12265759337E+02  0.22858217433E+02  0.31886053356E+02  0.00000000000E+00 0.  1.
         11    1    3    3    0    0  0.30154043075E+01  0.13819876535E+02 -0.18276995442E+02  0.23111257284E+02  0.51100000000E-03 0. -1.
        -11    1    3    3    0    0  0.12345924724E+02  0.13794430988E+02  0.30421789951E+01  0.18760677943E+02  0.51100000000E-03 0.  1.
         12    1    3    3    0    0  0.31797993669E+01 -0.15348548186E+02 -0.76234009855E+01  0.17430011417E+02  0.00000000000E+00 0. -1.
</event>
<event>
 7    1  0.1344618E-011  0.5930195E+02  0.7816164E-02  0.1266605E+00
        -11   -1    0    0    0    0  0.00000000000E+00  0.00000000000E+00  0.45593999997E+02  0.45594000000E+02  0.51100000000E-03 0. -1.
         11   -1    0    0    0    0 -0.00000000000E+00 -0.00000000000E+00 -0.45593999997E+02  0.45594000000E+02  0.51100000000E-03 0.  1.
    9900012    2    1    2    0    0  0.26346118503E+02  0.10827115371E+02 -0.14330929259E+02  0.59301954136E+02  0.50000018434E+02 0.  0.
        -12    1    1    2    0    0 -0.26346118503E+02 -0.10827115371E+02  0.14330929259E+02  0.31886045864E+02  0.00000000000E+00 0.  1.
         11    1    3    3    0    0  0.35916450776E+01  0.21581929038E+02  0.77347533787E+01  0.23205731737E+02  0.51100000000E-03 0.  1.
        -11    1    3    3    0    0  0.26009881588E+00  0.22088991876E+01 -0.35494668121E+00  0.22523042474E+01  0.51100000000E-03 0. -1.
         12    1    3    3    0    0  0.22494374610E+02 -0.12963712855E+02 -0.21710735957E+02  0.33843918151E+02  0.00000000000E+00 0. -1.
</event>
<event>
 7    1  0.1344618E-011  0.5930196E+02  0.7816164E-02  0.1266605E+00
        -11   -1    0    0    0    0  0.00000000000E+00  0.00000000000E+00  0.45593999997E+02  0.45594000000E+02  0.51100000000E-03 0. -1.
         11   -1    0    0    0    0 -0.00000000000E+00 -0.00000000000E+00 -0.45593999997E+02  0.45594000000E+02  0.51100000000E-03 0.  1.
    9900012    2    1    2    0    0  0.23241811391E+02 -0.48416750989E-01  0.21829697099E+02  0.59301955775E+02  0.50000021424E+02 0.  0.
        -12    1    1    2    0    0 -0.23241811391E+02  0.48416750989E-01 -0.21829697099E+02  0.31886044225E+02  0.00000000000E+00 0.  1.
         11    1    3    3    0    0 -0.14245579983E+01 -0.73553775456E+01  0.11582878423E+02  0.13794709752E+02  0.51100000000E-03 0. -1.
        -11    1    3    3    0    0  0.22880062851E+02 -0.11236974977E+02  0.36842893854E+01  0.25755404699E+02  0.51100000000E-03 0.  1.
         12    1    3    3    0    0  0.17863065380E+01  0.18543935772E+02  0.65625292905E+01  0.19751841323E+02  0.00000000000E+00 0. -1.
</event>
<event>
 7    1  0.1344618E-011  0.5930195E+02  0.7816164E-02  0.1266605E+00
        -11   -1    0    0    0    0  0.00000000000E+00  0.00000000000E+00  0.45593999997E+02  0.45594000000E+02  0.51100000000E-03 0. -1.
         11   -1    0    0    0    0 -0.00000000000E+00 -0.00000000000E+00 -0.45593999997E+02  0.45594000000E+02  0.51100000000E-03 0.  1.
    9900012    2    1    2    0    0 -0.10266856655E+02 -0.27443478494E+02 -0.12576463730E+02  0.59301948232E+02  0.50000007667E+02 0.  0.
        -12    1    1    2    0    0  0.10266856655E+02  0.27443478494E+02  0.12576463730E+02  0.31886051768E+02  0.00000000000E+00 0.  1.
         11    1    3    3    0    0  0.99563127844E+01 -0.96210783871E+01  0.10779021570E+02  0.17546527288E+02  0.51100000000E-03 0. -1.
        -11    1    3    3    0    0  0.31776731416E+01 -0.20026961855E+01  0.15822862570E+01  0.40757856502E+01  0.51100000000E-03 0.  1.
        -12    1    3    3    0    0 -0.23400842581E+02 -0.15819703921E+02 -0.24937771557E+02  0.37679635294E+02  0.00000000000E+00 0.  1.
</event>
<event>
 7    1  0.1344618E-011  0.5930212E+02  0.7816164E-02  0.1266604E+00
        -11   -1    0    0    0    0  0.00000000000E+00  0.00000000000E+00  0.45593999997E+02  0.45594000000E+02  0.51100000000E-03 0. -1.
         11   -1    0    0    0    0 -0.00000000000E+00 -0.00000000000E+00 -0.45593999997E+02  0.45594000000E+02  0.51100000000E-03 0.  1.
    9900012    2    1    2    0    0  0.25628459702E+01  0.18321550746E+02  0.25970408189E+02  0.59302117501E+02  0.50000316373E+02 0.  0.
        -12    1    1    2    0    0 -0.25628459702E+01 -0.18321550746E+02 -0.25970408189E+02  0.31885882499E+02  0.00000000000E+00 0.  1.
         11    1    3    3    0    0  0.26211131092E+01  0.73833571703E+01  0.36075244777E+01  0.86254524608E+01  0.51100000000E-03 0.  1.
        -11    1    3    3    0    0 -0.14589365595E+02  0.20756316027E+02  0.21267209811E+02  0.33105414314E+02  0.51100000000E-03 0. -1.
        -12    1    3    3    0    0  0.14531098456E+02 -0.98181224517E+01  0.10956739003E+01  0.17571250727E+02  0.00000000000E+00 0.  1.
</event>
<event>
 7    1  0.1344618E-011  0.5930196E+02  0.7816164E-02  0.1266605E+00
        -11   -1    0    0    0    0  0.00000000000E+00  0.00000000000E+00  0.45593999997E+02  0.45594000000E+02  0.51100000000E-03 0. -1.
         11   -1    0    0    0    0 -0.00000000000E+00 -0.00000000000E+00 -0.45593999997E+02  0.45594000000E+02  0.51100000000E-03 0.  1.
    9900012    2    1    2    0    0  0.12836531104E+01 -0.31474273615E+02 -0.49438589155E+01  0.59301962211E+02  0.50000033163E+02 0.  0.
        -12    1    1    2    0    0 -0.12836531104E+01  0.31474273615E+02  0.49438589155E+01  0.31886037789E+02  0.00000000000E+00 0.  1.
         11    1    3    3    0    0  0.17500419739E+02 -0.32817532366E+01  0.39314918358E+01  0.18234341876E+02  0.51100000000E-03 0. -1.
        -11    1    3    3    0    0 -0.97933192582E+01 -0.36673324083E+01  0.56116508521E+01  0.11867984439E+02  0.51100000000E-03 0.  1.
        -12    1    3    3    0    0 -0.64234473699E+01 -0.24525187970E+02 -0.14487001603E+02  0.29199635897E+02  0.00000000000E+00 0.  1.
</event>
<event>
 7    1  0.1344618E-011  0.5930194E+02  0.7816164E-02  0.1266605E+00
        -11   -1    0    0    0    0  0.00000000000E+00  0.00000000000E+00  0.45593999997E+02  0.45594000000E+02  0.51100000000E-03 0. -1.
         11   -1    0    0    0    0 -0.00000000000E+00 -0.00000000000E+00 -0.45593999997E+02  0.45594000000E+02  0.51100000000E-03 0.  1.
    9900012    2    1    2    0    0 -0.17996600805E+02  0.22920242082E+02  0.12942395042E+02  0.59301941494E+02  0.49999995379E+02 0.  0.
        -12    1    1    2    0    0  0.17996600805E+02 -0.22920242082E+02 -0.12942395042E+02  0.31886058506E+02  0.00000000000E+00 0.  1.
         11    1    3    3    0    0 -0.80397962930E+01  0.10528593402E+02  0.61113729527E+01  0.14588984992E+02  0.51100000000E-03 0. -1.
        -11    1    3    3    0    0  0.11207816323E+02  0.15475651050E+02  0.12188165314E+02  0.22664119134E+02  0.51100000000E-03 0.  1.
        -12    1    3    3    0    0 -0.21164620836E+02 -0.30840023706E+01 -0.53571432247E+01  0.22048837368E+02  0.00000000000E+00 0.  1.
</event>
<event>
 7    1  0.1344618E-011  0.5930164E+02  0.7816164E-02  0.1266606E+00
        -11   -1    0    0    0    0  0.00000000000E+00  0.00000000000E+00  0.45593999997E+02  0.45594000000E+02  0.51100000000E-03 0.  1.
         11   -1    0    0    0    0 -0.00000000000E+00 -0.00000000000E+00 -0.45593999997E+02  0.45594000000E+02  0.51100000000E-03 0. -1.
    9900012    2    1    2    0    0  0.24475718374E+02  0.19183931160E+01 -0.20346961501E+02  0.59301641406E+02  0.49999448087E+02 0.  0.
        -12    1    1    2    0    0 -0.24475718374E+02 -0.19183931160E+01  0.20346961501E+02  0.31886358594E+02  0.00000000000E+00 0.  1.
         11    1    3    3    0    0  0.20196197099E+02 -0.73509427387E+01 -0.20359156076E+02  0.29604357328E+02  0.51100000000E-03 0. -1.
        -11    1    3    3    0    0  0.90586575374E+00  0.13565850941E+02 -0.10944828903E+02  0.17454001962E+02  0.51100000000E-03 0.  1.
        -12    1    3    3    0    0  0.33736555208E+01 -0.42965150865E+01  0.10957023478E+02  0.12243282115E+02  0.00000000000E+00 0.  1.
</event>
<event>
 7    1  0.1344618E-011  0.5930196E+02  0.7816164E-02  0.1266605E+00
        -11   -1    0    0    0    0  0.00000000000E+00  0.00000000000E+00  0.45593999997E+02  0.45594000000E+02  0.51100000000E-03 0.  1.
         11   -1    0    0    0    0 -0.00000000000E+00 -0.00000000000E+00 -0.45593999997E+02  0.45594000000E+02  0.51100000000E-03 0. -1.
    9900012    2    1    2    0    0  0.20246259271E+02  0.17937259037E+02 -0.16883808093E+02  0.59301964624E+02  0.50000037564E+02 0.  0.
        -12    1    1    2    0    0 -0.20246259271E+02 -0.17937259037E+02  0.16883808093E+02  0.31886035376E+02  0.00000000000E+00 0.  1.
         11    1    3    3    0    0  0.31608550345E+01  0.29071881576E+02 -0.14127987833E+02  0.32477151097E+02  0.51100000000E-03 0. -1.
        -11    1    3    3    0    0  0.29780811016E+01 -0.49714748386E+01  0.66211026985E+01  0.87990641732E+01  0.51100000000E-03 0.  1.
        -12    1    3    3    0    0  0.14107323135E+02 -0.61631476999E+01 -0.93769229594E+01  0.18025749354E+02  0.00000000000E+00 0.  1.
</event>
<event>
 7    1  0.1344618E-011  0.5930195E+02  0.7816164E-02  0.1266605E+00
        -11   -1    0    0    0    0  0.00000000000E+00  0.00000000000E+00  0.45593999997E+02  0.45594000000E+02  0.51100000000E-03 0.  1.
         11   -1    0    0    0    0 -0.00000000000E+00 -0.00000000000E+00 -0.45593999997E+02  0.45594000000E+02  0.51100000000E-03 0. -1.
    9900012    2    1    2    0    0 -0.28619694775E+01 -0.30978131485E+02 -0.69917700011E+01  0.59301947448E+02  0.50000006237E+02 0.  0.
        -12    1    1    2    0    0  0.28619694775E+01  0.30978131485E+02  0.69917700011E+01  0.31886052552E+02  0.00000000000E+00 0.  1.
         11    1    3    3    0    0  0.65602200279E+01 -0.20709540169E+02 -0.17741871787E+02  0.28048093618E+02  0.51100000000E-03 0. -1.
        -11    1    3    3    0    0  0.64324862540E+01 -0.37187713479E+00  0.10785854799E+02  0.12563830467E+02  0.51100000000E-03 0.  1.
         12    1    3    3    0    0 -0.15854675759E+02 -0.98967141818E+01 -0.35753012938E-01  0.18690023363E+02  0.00000000000E+00 0. -1.
</event>
<event>
 7    1  0.1344618E-011  0.5930195E+02  0.7816164E-02  0.1266605E+00
        -11   -1    0    0    0    0  0.00000000000E+00  0.00000000000E+00  0.45593999997E+02  0.45594000000E+02  0.51100000000E-03 0.  1.
         11   -1    0    0    0    0 -0.00000000000E+00 -0.00000000000E+00 -0.45593999997E+02  0.45594000000E+02  0.51100000000E-03 0. -1.
    9900012    2    1    2    0    0  0.17040901009E+02  0.11276522023E+02 -0.24477909944E+02  0.59301947698E+02  0.50000006695E+02 0.  0.
        -12    1    1    2    0    0 -0.17040901009E+02 -0.11276522023E+02  0.24477909944E+02  0.31886052302E+02  0.00000000000E+00 0.  1.
         11    1    3    3    0    0  0.83627097137E+01  0.10008818168E+02 -0.44089443576E+01  0.13767721143E+02  0.51100000000E-03 0. -1.
        -11    1    3    3    0    0  0.18870821812E+02  0.14702149908E+02 -0.10296029828E+02  0.26043604940E+02  0.51100000000E-03 0.  1.
         12    1    3    3    0    0 -0.10192630517E+02 -0.13434446053E+02 -0.97729357588E+01  0.19490621615E+02  0.00000000000E+00 0. -1.
</event>
<event>
 7    1  0.1344618E-011  0.5930195E+02  0.7816164E-02  0.1266605E+00
        -11   -1    0    0    0    0  0.00000000000E+00  0.00000000000E+00  0.45593999997E+02  0.45594000000E+02  0.51100000000E-03 0.  1.
         11   -1    0    0    0    0 -0.00000000000E+00 -0.00000000000E+00 -0.45593999997E+02  0.45594000000E+02  0.51100000000E-03 0. -1.
    9900012    2    1    2    0    0  0.29747806195E+02 -0.11463719386E+02  0.60937817090E+00  0.59301950114E+02  0.50000011100E+02 0.  0.
        -12    1    1    2    0    0 -0.29747806195E+02  0.11463719386E+02 -0.60937817090E+00  0.31886049886E+02  0.00000000000E+00 0.  1.
         11    1    3    3    0    0  0.18080265187E+00 -0.10344612849E+02  0.52864997182E+01  0.11618553443E+02  0.51100000000E-03 0. -1.
        -11    1    3    3    0    0 -0.82105974243E+01 -0.40871763785E+01 -0.33560103012E+01  0.97663568548E+01  0.51100000000E-03 0.  1.
         12    1    3    3    0    0  0.37777600968E+02  0.29680698410E+01 -0.13211112462E+01  0.37917039816E+02  0.00000000000E+00 0. -1.
</event>
<event>
 7    1  0.1344618E-011  0.5930197E+02  0.7816164E-02  0.1266605E+00
        -11   -1    0    0    0    0  0.00000000000E+00  0.00000000000E+00  0.45593999997E+02  0.45594000000E+02  0.51100000000E-03 0.  1.
         11   -1    0    0    0    0 -0.00000000000E+00 -0.00000000000E+00 -0.45593999997E+02  0.45594000000E+02  0.51100000000E-03 0. -1.
    9900012    2    1    2    0    0  0.13398211103E+00  0.31878818729E+02 -0.66487719483E+00  0.59301967064E+02  0.50000042012E+02 0.  0.
        -12    1    1    2    0    0 -0.13398211103E+00 -0.31878818729E+02  0.66487719483E+00  0.31886032936E+02  0.00000000000E+00 0.  1.
         11    1    3    3    0    0  0.12053518017E+02  0.13945229919E+02  0.71279951428E+01  0.19762718667E+02  0.51100000000E-03 0. -1.
        -11    1    3    3    0    0  0.77232532845E+01 -0.11734179887E+00 -0.10153704277E+02  0.12757747497E+02  0.51100000000E-03 0.  1.
        -12    1    3    3    0    0 -0.19642789190E+02  0.18050930608E+02  0.23608319397E+01  0.26781500900E+02  0.00000000000E+00 0.  1.
</event>
<event>
 7    1  0.1344618E-011  0.5930194E+02  0.7816164E-02  0.1266605E+00
        -11   -1    0    0    0    0  0.00000000000E+00  0.00000000000E+00  0.45593999997E+02  0.45594000000E+02  0.51100000000E-03 0.  1.
         11   -1    0    0    0    0 -0.00000000000E+00 -0.00000000000E+00 -0.45593999997E+02  0.45594000000E+02  0.51100000000E-03 0. -1.
    9900012    2    1    2    0    0 -0.25455188343E+02  0.19129533086E+02 -0.16777907959E+01  0.59301942990E+02  0.49999998107E+02 0.  0.
        -12    1    1    2    0    0  0.25455188343E+02 -0.19129533086E+02  0.16777907959E+01  0.31886057010E+02  0.00000000000E+00 0.  1.
         11    1    3    3    0    0 -0.10742660844E+02 -0.12121020898E+02 -0.92680842077E+01  0.18660688486E+02  0.51100000000E-03 0. -1.
        -11    1    3    3    0    0 -0.21018211380E+00 -0.18002855154E+01 -0.25708883644E+01  0.31455797083E+01  0.51100000000E-03 0.  1.
        -12    1    3    3    0    0 -0.14502345386E+02  0.33050839500E+02  0.10161181776E+02  0.37495674796E+02  0.00000000000E+00 0.  1.
</event>
<event>
 7    1  0.1344618E-011  0.5930194E+02  0.7816164E-02  0.1266605E+00
        -11   -1    0    0    0    0  0.00000000000E+00  0.00000000000E+00  0.45593999997E+02  0.45594000000E+02  0.51100000000E-03 0. -1.
         11   -1    0    0    0    0 -0.00000000000E+00 -0.00000000000E+00 -0.45593999997E+02  0.45594000000E+02  0.51100000000E-03 0.  1.
    9900012    2    1    2    0    0 -0.23757322581E+02 -0.51129022279E+01 -0.20643855397E+02  0.59301938609E+02  0.49999990117E+02 0.  0.
        -12    1    1    2    0    0  0.23757322581E+02  0.51129022279E+01  0.20643855397E+02  0.31886061391E+02  0.00000000000E+00 0.  1.
         11    1    3    3    0    0  0.21165643957E+01 -0.52893385390E+01 -0.15569059557E+02  0.16578677956E+02  0.51100000000E-03 0. -1.
        -11    1    3    3    0    0  0.89113423581E+00 -0.85421393027E+01 -0.11001453343E+02  0.13956870710E+02  0.51100000000E-03 0.  1.
         12    1    3    3    0    0 -0.26765021212E+02  0.87185756138E+01  0.59266575028E+01  0.28766389944E+02  0.00000000000E+00 0. -1.
</event>
<event>
 7    1  0.1344618E-011  0.5930193E+02  0.7816164E-02  0.1266605E+00
        -11   -1    0    0    0    0  0.00000000000E+00  0.00000000000E+00  0.45593999997E+02  0.45594000000E+02  0.51100000000E-03 0. -1.
         11   -1    0    0    0    0 -0.00000000000E+00 -0.00000000000E+00 -0.45593999997E+02  0.45594000000E+02  0.51100000000E-03 0.  1.
    9900012    2    1    2    0    0  0.17932544928E+02 -0.21015676156E+02  0.15921258826E+02  0.59301932596E+02  0.49999979151E+02 0.  0.
        -12    1    1    2    0    0 -0.17932544928E+02  0.21015676156E+02 -0.15921258826E+02  0.31886067404E+02  0.00000000000E+00 0.  1.
         11    1    3    3    0    0  0.11552601859E+02 -0.18511309920E+01  0.11934318180E+02  0.16712786912E+02  0.51100000000E-03 0. -1.
        -11    1    3    3    0    0  0.53600366229E+01 -0.10768779348E+02 -0.16503379219E+02  0.20422001057E+02  0.51100000000E-03 0.  1.
         12    1    3    3    0    0  0.10199064465E+01 -0.83957658157E+01  0.20490319864E+02  0.22167144628E+02  0.00000000000E+00 0. -1.
</event>
<event>
 7    1  0.1344618E-011  0.5930194E+02  0.7816164E-02  0.1266605E+00
        -11   -1    0    0    0    0  0.00000000000E+00  0.00000000000E+00  0.45593999997E+02  0.45594000000E+02  0.51100000000E-03 0.  1.
         11   -1    0    0    0    0 -0.00000000000E+00 -0.00000000000E+00 -0.45593999997E+02  0.45594000000E+02  0.51100000000E-03 0. -1.
    9900012    2    1    2    0    0 -0.19375537967E+02  0.73369588053E+01 -0.24237952995E+02  0.59301940328E+02  0.49999993252E+02 0.  0.
        -12    1    1    2    0    0  0.19375537967E+02 -0.73369588053E+01  0.24237952995E+02  0.31886059672E+02  0.00000000000E+00 0.  1.
         11    1    3    3    0    0 -0.83628087593E+01  0.26603709012E+01 -0.15431609572E+02  0.17752428508E+02  0.51100000000E-03 0. -1.
        -11    1    3    3    0    0 -0.58464020695E+01 -0.11005376803E+02 -0.18572803816E+02  0.22366219564E+02  0.51100000000E-03 0.  1.
         12    1    3    3    0    0 -0.51663271381E+01  0.15681964707E+02  0.97664603925E+01  0.19183292256E+02  0.00000000000E+00 0. -1.
</event>
<event>
 7    1  0.1344618E-011  0.5930186E+02  0.7816164E-02  0.1266605E+00
        -11   -1    0    0    0    0  0.00000000000E+00  0.00000000000E+00  0.45593999997E+02  0.45594000000E+02  0.51100000000E-03 0.  1.
         11   -1    0    0    0    0 -0.00000000000E+00 -0.00000000000E+00 -0.45593999997E+02  0.45594000000E+02  0.51100000000E-03 0. -1.
    9900012    2    1    2    0    0  0.13008976195E+00  0.30786231566E+02 -0.83016122537E+01  0.59301862833E+02  0.49999851921E+02 0.  0.
        -12    1    1    2    0    0 -0.13008976195E+00 -0.30786231566E+02  0.83016122537E+01  0.31886137167E+02  0.00000000000E+00 0.  1.
         11    1    3    3    0    0 -0.10475199832E+02  0.29813982423E+02 -0.22205342377E+02  0.38622281002E+02  0.51100000000E-03 0. -1.
        -11    1    3    3    0    0  0.67269329670E+01 -0.89202031197E+00  0.73488131601E+00  0.68254947212E+01  0.51100000000E-03 0.  1.
        -12    1    3    3    0    0  0.38783566274E+01  0.18642694552E+01  0.13168848808E+02  0.13854087110E+02  0.00000000000E+00 0.  1.
</event>
<event>
 7    1  0.1344618E-011  0.5930197E+02  0.7816164E-02  0.1266605E+00
        -11   -1    0    0    0    0  0.00000000000E+00  0.00000000000E+00  0.45593999997E+02  0.45594000000E+02  0.51100000000E-03 0. -1.
         11   -1    0    0    0    0 -0.00000000000E+00 -0.00000000000E+00 -0.45593999997E+02  0.45594000000E+02  0.51100000000E-03 0.  1.
    9900012    2    1    2    0    0  0.27498789158E+01  0.27145468144E+02  0.16500936008E+02  0.59301966005E+02  0.50000040081E+02 0.  0.
        -12    1    1    2    0    0 -0.27498789158E+01 -0.27145468144E+02 -0.16500936008E+02  0.31886033995E+02  0.00000000000E+00 0.  1.
         11    1    3    3    0    0 -0.67535913698E+01  0.82260107832E+01  0.21952907007E+02  0.24396892755E+02  0.51100000000E-03 0. -1.
        -11    1    3    3    0    0 -0.30272893495E+01  0.18806567785E+02  0.36781215717E+01  0.19400516777E+02  0.51100000000E-03 0.  1.
        -12    1    3    3    0    0  0.12530759635E+02  0.11288957568E+00 -0.91300925704E+01  0.15504556473E+02  0.00000000000E+00 0.  1.
</event>
<event>
 7    1  0.1344618E-011  0.5930195E+02  0.7816164E-02  0.1266605E+00
        -11   -1    0    0    0    0  0.00000000000E+00  0.00000000000E+00  0.45593999997E+02  0.45594000000E+02  0.51100000000E-03 0. -1.
         11   -1    0    0    0    0 -0.00000000000E+00 -0.00000000000E+00 -0.45593999997E+02  0.45594000000E+02  0.51100000000E-03 0.  1.
    9900012    2    1    2    0    0  0.27657886244E+02  0.15515408056E+02  0.33216732152E+01  0.59301951772E+02  0.50000014124E+02 0.  0.
        -12    1    1    2    0    0 -0.27657886244E+02 -0.15515408056E+02 -0.33216732152E+01  0.31886048228E+02  0.00000000000E+00 0.  1.
         11    1    3    3    0    0  0.19363508057E+01 -0.24606615795E+01  0.84036737832E+01  0.89680568223E+01  0.51100000000E-03 0. -1.
        -11    1    3    3    0    0  0.27061651402E+02 -0.91659249786E+00  0.68736343877E+01  0.27935997716E+02  0.51100000000E-03 0.  1.
        -12    1    3    3    0    0 -0.13401159639E+01  0.18892662134E+02 -0.11955634956E+02  0.22397897234E+02  0.00000000000E+00 0.  1.
</event>
<event>
 7    1  0.1344618E-011  0.5930195E+02  0.7816164E-02  0.1266605E+00
        -11   -1    0    0    0    0  0.00000000000E+00  0.00000000000E+00  0.45593999997E+02  0.45594000000E+02  0.51100000000E-03 0.  1.
         11   -1    0    0    0    0 -0.00000000000E+00 -0.00000000000E+00 -0.45593999997E+02  0.45594000000E+02  0.51100000000E-03 0. -1.
    9900012    2    1    2    0    0 -0.11803523369E+02 -0.60904262654E+01 -0.28987991776E+02  0.59301950963E+02  0.50000012648E+02 0.  0.
        -12    1    1    2    0    0  0.11803523369E+02  0.60904262654E+01  0.28987991776E+02  0.31886049037E+02  0.00000000000E+00 0.  1.
         11    1    3    3    0    0 -0.21990107580E+01 -0.11424345243E+02 -0.18031397022E+02  0.21458858110E+02  0.51100000000E-03 0. -1.
        -11    1    3    3    0    0 -0.21444488213E+02 -0.27193152087E+01 -0.42453273393E+01  0.22029152376E+02  0.51100000000E-03 0.  1.
         12    1    3    3    0    0  0.11839975602E+02  0.80532341866E+01 -0.67112674143E+01  0.15813940478E+02  0.00000000000E+00 0. -1.
</event>
<event>
 7    1  0.1344618E-011  0.5930189E+02  0.7816164E-02  0.1266605E+00
        -11   -1    0    0    0    0  0.00000000000E+00  0.00000000000E+00  0.45593999997E+02  0.45594000000E+02  0.51100000000E-03 0.  1.
         11   -1    0    0    0    0 -0.00000000000E+00 -0.00000000000E+00 -0.45593999997E+02  0.45594000000E+02  0.51100000000E-03 0. -1.
    9900012    2    1    2    0    0  0.35570722704E+01  0.16640187707E+02 -0.26966194776E+02  0.59301885926E+02  0.49999894036E+02 0.  0.
        -12    1    1    2    0    0 -0.35570722704E+01 -0.16640187707E+02  0.26966194776E+02  0.31886114074E+02  0.00000000000E+00 0.  1.
         11    1    3    3    0    0 -0.81176157087E+01 -0.69310921722E+01 -0.20451628694E+02  0.23069565232E+02  0.51100000000E-03 0. -1.
        -11    1    3    3    0    0 -0.72484967209E+01  0.96897872801E+01 -0.11285235670E+01  0.12153445929E+02  0.51100000000E-03 0.  1.
        -12    1    3    3    0    0  0.18923184700E+02  0.13881492599E+02 -0.53860425144E+01  0.24078874765E+02  0.00000000000E+00 0.  1.
</event>
<event>
 7    1  0.1344618E-011  0.5930194E+02  0.7816164E-02  0.1266605E+00
        -11   -1    0    0    0    0  0.00000000000E+00  0.00000000000E+00  0.45593999997E+02  0.45594000000E+02  0.51100000000E-03 0.  1.
         11   -1    0    0    0    0 -0.00000000000E+00 -0.00000000000E+00 -0.45593999997E+02  0.45594000000E+02  0.51100000000E-03 0. -1.
    9900012    2    1    2    0    0  0.37156627615E+01  0.23313701616E+02 -0.21433297268E+02  0.59301936201E+02  0.49999985726E+02 0.  0.
        -12    1    1    2    0    0 -0.37156627615E+01 -0.23313701616E+02  0.21433297268E+02  0.31886063799E+02  0.00000000000E+00 0.  1.
         11    1    3    3    0    0 -0.18313352253E+01  0.28433587447E+02 -0.20662109881E+02  0.35195816070E+02  0.51100000000E-03 0. -1.
        -11    1    3    3    0    0  0.13778567573E+01  0.13120672416E+01 -0.11089957792E+02  0.11251985326E+02  0.51100000000E-03 0.  1.
        -12    1    3    3    0    0  0.41691412295E+01 -0.64319530725E+01  0.10318770405E+02  0.12854134805E+02  0.00000000000E+00 0.  1.
</event>
<event>
 7    1  0.1344618E-011  0.5930195E+02  0.7816164E-02  0.1266605E+00
        -11   -1    0    0    0    0  0.00000000000E+00  0.00000000000E+00  0.45593999997E+02  0.45594000000E+02  0.51100000000E-03 0. -1.
         11   -1    0    0    0    0 -0.00000000000E+00 -0.00000000000E+00 -0.45593999997E+02  0.45594000000E+02  0.51100000000E-03 0.  1.
    9900012    2    1    2    0    0 -0.14044455765E+02 -0.27993792355E+02 -0.59850923642E+01  0.59301945388E+02  0.50000002480E+02 0.  0.
        -12    1    1    2    0    0  0.14044455765E+02  0.27993792355E+02  0.59850923642E+01  0.31886054612E+02  0.00000000000E+00 0.  1.
         11    1    3    3    0    0  0.74803576394E+00  0.31264888082E+01  0.67607873221E+01  0.74861695978E+01  0.51100000000E-03 0. -1.
        -11    1    3    3    0    0  0.41409368482E-01  0.51337706006E+01 -0.11534691564E+02  0.12625625729E+02  0.51100000000E-03 0.  1.
         12    1    3    3    0    0 -0.14833900897E+02 -0.36254051764E+02 -0.12111881219E+01  0.39190150060E+02  0.00000000000E+00 0. -1.
</event>
<event>
 7    1  0.1344618E-011  0.5930193E+02  0.7816164E-02  0.1266605E+00
        -11   -1    0    0    0    0  0.00000000000E+00  0.00000000000E+00  0.45593999997E+02  0.45594000000E+02  0.51100000000E-03 0. -1.
         11   -1    0    0    0    0 -0.00000000000E+00 -0.00000000000E+00 -0.45593999997E+02  0.45594000000E+02  0.51100000000E-03 0.  1.
    9900012    2    1    2    0    0 -0.27602793046E+02 -0.14233226970E+02 -0.72264996571E+01  0.59301933588E+02  0.49999980960E+02 0.  0.
        -12    1    1    2    0    0  0.27602793046E+02  0.14233226970E+02  0.72264996571E+01  0.31886066412E+02  0.00000000000E+00 0.  1.
         11    1    3    3    0    0 -0.13942330298E+02 -0.54307341693E+01 -0.10497848539E+02  0.18278027026E+02  0.51100000000E-03 0. -1.
        -11    1    3    3    0    0  0.27843071237E+01 -0.81577773352E+01 -0.14458581289E+02  0.16833070734E+02  0.51100000000E-03 0.  1.
        -12    1    3    3    0    0 -0.16444769872E+02 -0.64471546565E+00  0.17729930170E+02  0.24190835827E+02  0.00000000000E+00 0.  1.
</event>
<event>
 7    1  0.1344618E-011  0.5930194E+02  0.7816164E-02  0.1266605E+00
        -11   -1    0    0    0    0  0.00000000000E+00  0.00000000000E+00  0.45593999997E+02  0.45594000000E+02  0.51100000000E-03 0.  1.
         11   -1    0    0    0    0 -0.00000000000E+00 -0.00000000000E+00 -0.45593999997E+02  0.45594000000E+02  0.51100000000E-03 0. -1.
    9900012    2    1    2    0    0  0.47214009730E+01  0.29838747419E+02 -0.10201868685E+02  0.59301943497E+02  0.49999999032E+02 0.  0.
        -12    1    1    2    0    0 -0.47214009730E+01 -0.29838747419E+02  0.10201868685E+02  0.31886056503E+02  0.00000000000E+00 0.  1.
         11    1    3    3    0    0  0.17077699481E+01  0.67759808366E+00 -0.10318768876E+02  0.10481059524E+02  0.51100000000E-03 0. -1.
        -11    1    3    3    0    0 -0.15592706595E+02  0.24199489781E+02 -0.41825175315E+01  0.29090226155E+02  0.51100000000E-03 0.  1.
         12    1    3    3    0    0  0.18606337620E+02  0.49616595541E+01  0.42994177230E+01  0.19730657818E+02  0.00000000000E+00 0. -1.
</event>
<event>
 7    1  0.1344618E-011  0.5930192E+02  0.7816164E-02  0.1266605E+00
        -11   -1    0    0    0    0  0.00000000000E+00  0.00000000000E+00  0.45593999997E+02  0.45594000000E+02  0.51100000000E-03 0. -1.
         11   -1    0    0    0    0 -0.00000000000E+00 -0.00000000000E+00 -0.45593999997E+02  0.45594000000E+02  0.51100000000E-03 0.  1.
    9900012    2    1    2    0    0  0.98854820272E+01  0.24160800571E+02  0.18309970069E+02  0.59301920857E+02  0.49999957743E+02 0.  0.
        -12    1    1    2    0    0 -0.98854820272E+01 -0.24160800571E+02 -0.18309970069E+02  0.31886079143E+02  0.00000000000E+00 0.  1.
         11    1    3    3    0    0  0.42964147847E+01  0.16536064790E+01  0.81347781470E+01  0.93470963487E+01  0.51100000000E-03 0. -1.
        -11    1    3    3    0    0 -0.15696880781E+02 -0.70974535906E+00 -0.26704626343E+01  0.15938230004E+02  0.51100000000E-03 0.  1.
         12    1    3    3    0    0  0.21285948023E+02  0.23216939451E+02  0.12845654557E+02  0.34016594505E+02  0.00000000000E+00 0. -1.
</event>
<event>
 7    1  0.1344618E-011  0.5930195E+02  0.7816164E-02  0.1266605E+00
        -11   -1    0    0    0    0  0.00000000000E+00  0.00000000000E+00  0.45593999997E+02  0.45594000000E+02  0.51100000000E-03 0.  1.
         11   -1    0    0    0    0 -0.00000000000E+00 -0.00000000000E+00 -0.45593999997E+02  0.45594000000E+02  0.51100000000E-03 0. -1.
    9900012    2    1    2    0    0  0.81524602200E+01  0.14406383293E+02 -0.27252770748E+02  0.59301952885E+02  0.50000016153E+02 0.  0.
        -12    1    1    2    0    0 -0.81524602200E+01 -0.14406383293E+02  0.27252770748E+02  0.31886047115E+02  0.00000000000E+00 0.  1.
         11    1    3    3    0    0 -0.35847272146E+01  0.13988337422E+02  0.79791577941E+01  0.16498206339E+02  0.51100000000E-03 0. -1.
        -11    1    3    3    0    0 -0.41801383251E+01  0.16095110459E+01 -0.41030096081E+00  0.44980472833E+01  0.51100000000E-03 0.  1.
         12    1    3    3    0    0  0.15917325760E+02 -0.11914651750E+01 -0.34821627581E+02  0.38305699262E+02  0.00000000000E+00 0. -1.
</event>
<event>
 7    1  0.1344618E-011  0.5930192E+02  0.7816164E-02  0.1266605E+00
        -11   -1    0    0    0    0  0.00000000000E+00  0.00000000000E+00  0.45593999997E+02  0.45594000000E+02  0.51100000000E-03 0.  1.
         11   -1    0    0    0    0 -0.00000000000E+00 -0.00000000000E+00 -0.45593999997E+02  0.45594000000E+02  0.51100000000E-03 0. -1.
    9900012    2    1    2    0    0  0.24017802890E+01 -0.27292913619E+02 -0.16311049904E+02  0.59301921042E+02  0.49999958079E+02 0.  0.
        -12    1    1    2    0    0 -0.24017802890E+01  0.27292913619E+02  0.16311049904E+02  0.31886078958E+02  0.00000000000E+00 0.  1.
         11    1    3    3    0    0 -0.28887219728E+01 -0.21764447355E+02 -0.78234487857E+01  0.23307557454E+02  0.51100000000E-03 0. -1.
        -11    1    3    3    0    0 -0.56736308527E+01 -0.71943242764E+01 -0.18759968887E+02  0.20877854816E+02  0.51100000000E-03 0.  1.
         12    1    3    3    0    0  0.10964133115E+02  0.16658580118E+01  0.10272367769E+02  0.15116508772E+02  0.00000000000E+00 0. -1.
</event>
<event>
 7    1  0.1344618E-011  0.5930196E+02  0.7816164E-02  0.1266605E+00
        -11   -1    0    0    0    0  0.00000000000E+00  0.00000000000E+00  0.45593999997E+02  0.45594000000E+02  0.51100000000E-03 0. -1.
         11   -1    0    0    0    0 -0.00000000000E+00 -0.00000000000E+00 -0.45593999997E+02  0.45594000000E+02  0.51100000000E-03 0.  1.
    9900012    2    1    2    0    0  0.58934887266E+01 -0.11763121851E+01  0.31314578072E+02  0.59301957292E+02  0.50000024191E+02 0.  0.
        -12    1    1    2    0    0 -0.58934887266E+01  0.11763121851E+01 -0.31314578072E+02  0.31886042708E+02  0.00000000000E+00 0.  1.
         11    1    3    3    0    0  0.10169329388E+01 -0.50319018924E+01  0.13183101810E+01  0.53002010576E+01  0.51100000000E-03 0. -1.
        -11    1    3    3    0    0 -0.10038498708E+02 -0.12215503621E+02  0.27779923985E+02  0.31964263825E+02  0.51100000000E-03 0.  1.
         12    1    3    3    0    0  0.14915054496E+02  0.16071093329E+02  0.22163439066E+01  0.22037492409E+02  0.00000000000E+00 0. -1.
</event>
<event>
 7    1  0.1344618E-011  0.5930194E+02  0.7816164E-02  0.1266605E+00
        -11   -1    0    0    0    0  0.00000000000E+00  0.00000000000E+00  0.45593999997E+02  0.45594000000E+02  0.51100000000E-03 0.  1.
         11   -1    0    0    0    0 -0.00000000000E+00 -0.00000000000E+00 -0.45593999997E+02  0.45594000000E+02  0.51100000000E-03 0. -1.
    9900012    2    1    2    0    0 -0.68985968681E+01 -0.63811491736E+01 -0.30469835320E+02  0.59301943989E+02  0.49999999930E+02 0.  0.
        -12    1    1    2    0    0  0.68985968681E+01  0.63811491736E+01  0.30469835320E+02  0.31886056011E+02  0.00000000000E+00 0.  1.
         11    1    3    3    0    0 -0.70220480899E+01 -0.64724152643E+01  0.55022588251E+00  0.95657758448E+01  0.51100000000E-03 0. -1.
        -11    1    3    3    0    0  0.18394640370E+02 -0.27078334390E+01 -0.23030650270E+02  0.29599087966E+02  0.51100000000E-03 0.  1.
         12    1    3    3    0    0 -0.18271189149E+02  0.27990995297E+01 -0.79894109325E+01  0.20137080179E+02  0.00000000000E+00 0. -1.
</event>
<event>
 7    1  0.1344618E-011  0.5930191E+02  0.7816164E-02  0.1266605E+00
        -11   -1    0    0    0    0  0.00000000000E+00  0.00000000000E+00  0.45593999997E+02  0.45594000000E+02  0.51100000000E-03 0. -1.
         11   -1    0    0    0    0 -0.00000000000E+00 -0.00000000000E+00 -0.45593999997E+02  0.45594000000E+02  0.51100000000E-03 0.  1.
    9900012    2    1    2    0    0 -0.53200126154E+01  0.11523979453E+02  0.29250953397E+02  0.59301907243E+02  0.49999932913E+02 0.  0.
        -12    1    1    2    0    0  0.53200126154E+01 -0.11523979453E+02 -0.29250953397E+02  0.31886092757E+02  0.00000000000E+00 0.  1.
         11    1    3    3    0    0  0.49551989836E+01 -0.10344585297E+02  0.11082922859E+02  0.15949784365E+02  0.51100000000E-03 0. -1.
        -11    1    3    3    0    0  0.88700335563E+01 -0.14349597718E+01  0.61388988398E+01  0.10882218710E+02  0.51100000000E-03 0.  1.
        -12    1    3    3    0    0 -0.19145245155E+02  0.23303524522E+02  0.12029131699E+02  0.32469904167E+02  0.00000000000E+00 0.  1.
</event>
<event>
 7    1  0.1344618E-011  0.5930196E+02  0.7816164E-02  0.1266605E+00
        -11   -1    0    0    0    0  0.00000000000E+00  0.00000000000E+00  0.45593999997E+02  0.45594000000E+02  0.51100000000E-03 0.  1.
         11   -1    0    0    0    0 -0.00000000000E+00 -0.00000000000E+00 -0.45593999997E+02  0.45594000000E+02  0.51100000000E-03 0. -1.
    9900012    2    1    2    0    0  0.20816673624E+02  0.10539765538E+01 -0.24130365145E+02  0.59301964038E+02  0.50000036494E+02 0.  0.
        -12    1    1    2    0    0 -0.20816673624E+02 -0.10539765538E+01  0.24130365145E+02  0.31886035962E+02  0.00000000000E+00 0.  1.
         11    1    3    3    0    0  0.21688988582E+02  0.13012650176E+02 -0.10676326082E+02  0.27454056698E+02  0.51100000000E-03 0. -1.
        -11    1    3    3    0    0  0.44243212657E+01  0.69669661463E+01 -0.41611996697E+00  0.82635580735E+01  0.51100000000E-03 0.  1.
        -12    1    3    3    0    0 -0.52966362243E+01 -0.18925639769E+02 -0.13037919096E+02  0.23584349266E+02  0.00000000000E+00 0.  1.
</event>
<event>
 7    1  0.1344618E-011  0.5930194E+02  0.7816164E-02  0.1266605E+00
        -11   -1    0    0    0    0  0.00000000000E+00  0.00000000000E+00  0.45593999997E+02  0.45594000000E+02  0.51100000000E-03 0.  1.
         11   -1    0    0    0    0 -0.00000000000E+00 -0.00000000000E+00 -0.45593999997E+02  0.45594000000E+02  0.51100000000E-03 0. -1.
    9900012    2    1    2    0    0 -0.93257516808E+01  0.11213563779E+02 -0.28355021829E+02  0.59301938469E+02  0.49999989863E+02 0.  0.
        -12    1    1    2    0    0  0.93257516808E+01 -0.11213563779E+02  0.28355021829E+02  0.31886061531E+02  0.00000000000E+00 0.  1.
         11    1    3    3    0    0 -0.13972003006E+02  0.34175786969E+01 -0.91035006389E+01  0.17022644809E+02  0.51100000000E-03 0. -1.
        -11    1    3    3    0    0 -0.69740180940E+01 -0.11967183862E+02 -0.11730517055E+02  0.18150907653E+02  0.51100000000E-03 0.  1.
        -12    1    3    3    0    0  0.11620269420E+02  0.19763168945E+02 -0.75210041349E+01  0.24128386007E+02  0.00000000000E+00 0.  1.
</event>
<event>
 7    1  0.1344618E-011  0.5930194E+02  0.7816164E-02  0.1266605E+00
        -11   -1    0    0    0    0  0.00000000000E+00  0.00000000000E+00  0.45593999997E+02  0.45594000000E+02  0.51100000000E-03 0.  1.
         11   -1    0    0    0    0 -0.00000000000E+00 -0.00000000000E+00 -0.45593999997E+02  0.45594000000E+02  0.51100000000E-03 0. -1.
    9900012    2    1    2    0    0 -0.36638049850E+00  0.23126086633E+02  0.21949275906E+02  0.59301939873E+02  0.49999992423E+02 0.  0.
        -12    1    1    2    0    0  0.36638049850E+00 -0.23126086633E+02 -0.21949275906E+02  0.31886060127E+02  0.00000000000E+00 0.  1.
         11    1    3    3    0    0 -0.10814615454E+02  0.15049292555E+02 -0.98639146406E+01  0.20993663952E+02  0.51100000000E-03 0. -1.
        -11    1    3    3    0    0  0.15208095473E+01 -0.38995066277E+01  0.16070372277E+02  0.16606501107E+02  0.51100000000E-03 0.  1.
        -12    1    3    3    0    0  0.89274254084E+01  0.11976300706E+02  0.15742818270E+02  0.21701774814E+02  0.00000000000E+00 0.  1.
</event>
<event>
 7    1  0.1344618E-011  0.5930192E+02  0.7816164E-02  0.1266605E+00
        -11   -1    0    0    0    0  0.00000000000E+00  0.00000000000E+00  0.45593999997E+02  0.45594000000E+02  0.51100000000E-03 0. -1.
         11   -1    0    0    0    0 -0.00000000000E+00 -0.00000000000E+00 -0.45593999997E+02  0.45594000000E+02  0.51100000000E-03 0.  1.
    9900012    2    1    2    0    0 -0.17670809755E+02  0.35440289112E+01  0.26304070908E+02  0.59301924597E+02  0.49999964563E+02 0.  0.
        -12    1    1    2    0    0  0.17670809755E+02 -0.35440289112E+01 -0.26304070908E+02  0.31886075403E+02  0.00000000000E+00 0.  1.
         11    1    3    3    0    0 -0.20268628812E+02 -0.35355373646E+00  0.16086496369E+02  0.25878904147E+02  0.51100000000E-03 0. -1.
        -11    1    3    3    0    0 -0.44239102398E+01  0.11034487097E+02 -0.67875214936E+01  0.13689460748E+02  0.51100000000E-03 0.  1.
        -12    1    3    3    0    0  0.70217292968E+01 -0.71369044490E+01  0.17005096032E+02  0.19733559701E+02  0.00000000000E+00 0.  1.
</event>
<event>
 7    1  0.1344618E-011  0.5930197E+02  0.7816164E-02  0.1266605E+00
        -11   -1    0    0    0    0  0.00000000000E+00  0.00000000000E+00  0.45593999997E+02  0.45594000000E+02  0.51100000000E-03 0.  1.
         11   -1    0    0    0    0 -0.00000000000E+00 -0.00000000000E+00 -0.45593999997E+02  0.45594000000E+02  0.51100000000E-03 0. -1.
    9900012    2    1    2    0    0  0.52867966932E+01 -0.73323219833E+01 -0.30577867035E+02  0.59301966736E+02  0.50000041414E+02 0.  0.
        -12    1    1    2    0    0 -0.52867966932E+01  0.73323219833E+01  0.30577867035E+02  0.31886033264E+02  0.00000000000E+00 0.  1.
         11    1    3    3    0    0 -0.32388824742E+01  0.46559149255E+01 -0.13385035875E+02  0.14537093558E+02  0.51100000000E-03 0. -1.
        -11    1    3    3    0    0  0.41745810743E+01  0.11319400150E+02  0.42552011307E+01  0.12793071712E+02  0.51100000000E-03 0.  1.
        -12    1    3    3    0    0  0.43510980931E+01 -0.23307637059E+02 -0.21448032290E+02  0.31971801466E+02  0.00000000000E+00 0.  1.
</event>
<event>
 7    1  0.1344618E-011  0.5930196E+02  0.7816164E-02  0.1266605E+00
        -11   -1    0    0    0    0  0.00000000000E+00  0.00000000000E+00  0.45593999997E+02  0.45594000000E+02  0.51100000000E-03 0. -1.
         11   -1    0    0    0    0 -0.00000000000E+00 -0.00000000000E+00 -0.45593999997E+02  0.45594000000E+02  0.51100000000E-03 0.  1.
    9900012    2    1    2    0    0 -0.56550937694E+01 -0.25706399335E+02  0.17997792295E+02  0.59301959484E+02  0.50000028188E+02 0.  0.
        -12    1    1    2    0    0  0.56550937694E+01  0.25706399335E+02 -0.17997792295E+02  0.31886040516E+02  0.00000000000E+00 0.  1.
         11    1    3    3    0    0 -0.66722375019E+01 -0.13042313107E+02 -0.85093999432E+01  0.16941976629E+02  0.51100000000E-03 0. -1.
        -11    1    3    3    0    0  0.11910841335E+02 -0.11242668849E+02  0.33342641761E+01  0.16714755817E+02  0.51100000000E-03 0.  1.
         12    1    3    3    0    0 -0.10893697603E+02 -0.14214173791E+01  0.23172928062E+02  0.25645227037E+02  0.00000000000E+00 0. -1.
</event>
<event>
 7    1  0.1344618E-011  0.5930194E+02  0.7816164E-02  0.1266605E+00
        -11   -1    0    0    0    0  0.00000000000E+00  0.00000000000E+00  0.45593999997E+02  0.45594000000E+02  0.51100000000E-03 0. -1.
         11   -1    0    0    0    0 -0.00000000000E+00 -0.00000000000E+00 -0.45593999997E+02  0.45594000000E+02  0.51100000000E-03 0.  1.
    9900012    2    1    2    0    0 -0.19388316958E+01 -0.22935501941E+02  0.22066362744E+02  0.59301942194E+02  0.49999996657E+02 0.  0.
        -12    1    1    2    0    0  0.19388316958E+01  0.22935501941E+02 -0.22066362744E+02  0.31886057806E+02  0.00000000000E+00 0.  1.
         11    1    3    3    0    0 -0.22043322404E+01 -0.13788343299E+02  0.77964881096E+01  0.15992583239E+02  0.51100000000E-03 0. -1.
        -11    1    3    3    0    0 -0.14999267713E+02 -0.10925743174E+02  0.19649556206E+02  0.27026930184E+02  0.51100000000E-03 0.  1.
        -12    1    3    3    0    0  0.15264768257E+02  0.17785845314E+01 -0.53796815717E+01  0.16282428772E+02  0.00000000000E+00 0.  1.
</event>
<event>
 7    1  0.1344618E-011  0.5930214E+02  0.7816164E-02  0.1266604E+00
        -11   -1    0    0    0    0  0.00000000000E+00  0.00000000000E+00  0.45593999997E+02  0.45594000000E+02  0.51100000000E-03 0.  1.
         11   -1    0    0    0    0 -0.00000000000E+00 -0.00000000000E+00 -0.45593999997E+02  0.45594000000E+02  0.51100000000E-03 0. -1.
    9900012    2    1    2    0    0 -0.12020746893E+02  0.11122033598E+02 -0.27358916313E+02  0.59302136533E+02  0.50000351081E+02 0.  0.
        -12    1    1    2    0    0  0.12020746893E+02 -0.11122033598E+02  0.27358916313E+02  0.31885863467E+02  0.00000000000E+00 0.  1.
         11    1    3    3    0    0 -0.88225376069E+01 -0.20261696829E+01 -0.19759367680E+02  0.21734192986E+02  0.51100000000E-03 0. -1.
        -11    1    3    3    0    0 -0.97814042216E+01 -0.81862798807E+01  0.26067127296E+01  0.13018678825E+02  0.51100000000E-03 0.  1.
        -12    1    3    3    0    0  0.65831949353E+01  0.21334483162E+02 -0.10206261363E+02  0.24549264721E+02  0.00000000000E+00 0.  1.
</event>
<event>
 7    1  0.1344618E-011  0.5930194E+02  0.7816164E-02  0.1266605E+00
        -11   -1    0    0    0    0  0.00000000000E+00  0.00000000000E+00  0.45593999997E+02  0.45594000000E+02  0.51100000000E-03 0.  1.
         11   -1    0    0    0    0 -0.00000000000E+00 -0.00000000000E+00 -0.45593999997E+02  0.45594000000E+02  0.51100000000E-03 0. -1.
    9900012    2    1    2    0    0 -0.12255402215E+02 -0.54512256154E+01 -0.28927674675E+02  0.59301935548E+02  0.49999984535E+02 0.  0.
        -12    1    1    2    0    0  0.12255402215E+02  0.54512256154E+01  0.28927674675E+02  0.31886064452E+02  0.00000000000E+00 0.  1.
         11    1    3    3    0    0  0.58613498347E+01 -0.15382902235E+02 -0.26292689142E+02  0.31020873708E+02  0.51100000000E-03 0. -1.
        -11    1    3    3    0    0 -0.17616985239E+00 -0.45787225735E+01 -0.24718905310E+01  0.52063402962E+01  0.51100000000E-03 0.  1.
        -12    1    3    3    0    0 -0.17940582198E+02  0.14510399193E+02 -0.16309500210E+00  0.23074721544E+02  0.00000000000E+00 0.  1.
</event>
<event>
 7    1  0.1344618E-011  0.5930192E+02  0.7816164E-02  0.1266605E+00
        -11   -1    0    0    0    0  0.00000000000E+00  0.00000000000E+00  0.45593999997E+02  0.45594000000E+02  0.51100000000E-03 0. -1.
         11   -1    0    0    0    0 -0.00000000000E+00 -0.00000000000E+00 -0.45593999997E+02  0.45594000000E+02  0.51100000000E-03 0.  1.
    9900012    2    1    2    0    0  0.29867080513E+02 -0.19669417312E+01 -0.10991399460E+02  0.59301918079E+02  0.49999952676E+02 0.  0.
        -12    1    1    2    0    0 -0.29867080513E+02  0.19669417312E+01  0.10991399460E+02  0.31886081921E+02  0.00000000000E+00 0.  1.
         11    1    3    3    0    0  0.10926162180E+02 -0.76366894306E+01  0.17413815890E+02  0.21930367748E+02  0.51100000000E-03 0. -1.
        -11    1    3    3    0    0 -0.17453832488E+01 -0.57481879082E-01 -0.63898384699E+01  0.66241756305E+01  0.51100000000E-03 0.  1.
        -12    1    3    3    0    0  0.20686301582E+02  0.57272295784E+01 -0.22015376881E+02  0.30747374701E+02  0.00000000000E+00 0.  1.
</event>
<event>
 7    1  0.1344618E-011  0.5930193E+02  0.7816164E-02  0.1266605E+00
        -11   -1    0    0    0    0  0.00000000000E+00  0.00000000000E+00  0.45593999997E+02  0.45594000000E+02  0.51100000000E-03 0.  1.
         11   -1    0    0    0    0 -0.00000000000E+00 -0.00000000000E+00 -0.45593999997E+02  0.45594000000E+02  0.51100000000E-03 0. -1.
    9900012    2    1    2    0    0  0.37527625976E+01 -0.31319363417E+01 -0.31509190788E+02  0.59301931624E+02  0.49999977379E+02 0.  0.
        -12    1    1    2    0    0 -0.37527625976E+01  0.31319363417E+01  0.31509190788E+02  0.31886068376E+02  0.00000000000E+00 0.  1.
         11    1    3    3    0    0  0.11729945490E+02 -0.91857026885E+01 -0.97935085289E+01  0.17829233428E+02  0.51100000000E-03 0. -1.
        -11    1    3    3    0    0 -0.51843227406E+01 -0.14011831035E+02 -0.11011256351E+02  0.18559536037E+02  0.51100000000E-03 0.  1.
         12    1    3    3    0    0 -0.27928601517E+01  0.20065597381E+02 -0.10704425908E+02  0.22913162159E+02  0.00000000000E+00 0. -1.
</event>
