<event>
 7    1  0.2425980E-008  0.4614232E+02  0.7816164E-02  0.1320468E+00
        -11   -1    0    0    0    0  0.00000000000E+00  0.00000000000E+00  0.45593999997E+02  0.45594000000E+02  0.51100000000E-03 0. -1.
         11   -1    0    0    0    0 -0.00000000000E+00 -0.00000000000E+00 -0.45593999997E+02  0.45594000000E+02  0.51100000000E-03 0.  1.
    9900012    2    1    2    0    0  0.91417202774E+01  0.41018722763E+02 -0.16217479649E+02  0.46142319709E+02  0.10000017761E+02 0.  0.
         12    1    1    2    0    0 -0.91417202774E+01 -0.41018722763E+02  0.16217479649E+02  0.45045680291E+02  0.00000000000E+00 0. -1.
         11    1    3    3    0    0  0.30979227183E+00  0.62780258378E-01  0.48314734158E+00  0.57735970359E+00  0.51100000000E-03 0. -1.
        -11    1    3    3    0    0  0.98413314260E+00  0.84590180551E+01 -0.61638655707E+01  0.10512694399E+02  0.51100000000E-03 0.  1.
         12    1    3    3    0    0  0.78477948630E+01  0.32496924450E+02 -0.10536761419E+02  0.35052265606E+02  0.00000000000E+00 0. -1.
</event>
<event>
 7    1  0.2425980E-008  0.4614232E+02  0.7816164E-02  0.1320468E+00
        -11   -1    0    0    0    0  0.00000000000E+00  0.00000000000E+00  0.45593999997E+02  0.45594000000E+02  0.51100000000E-03 0.  1.
         11   -1    0    0    0    0 -0.00000000000E+00 -0.00000000000E+00 -0.45593999997E+02  0.45594000000E+02  0.51100000000E-03 0. -1.
    9900012    2    1    2    0    0 -0.26920121215E+02 -0.31239815266E+02  0.18124417923E+02  0.46142317530E+02  0.99999978963E+01 0.  0.
         12    1    1    2    0    0  0.26920121215E+02  0.31239815266E+02 -0.18124417923E+02  0.45045682470E+02  0.00000000000E+00 0. -1.
         11    1    3    3    0    0 -0.33840279906E+01 -0.71581686716E+01  0.12725990779E+01  0.80193848172E+01  0.51100000000E-03 0. -1.
        -11    1    3    3    0    0 -0.21769203691E+02 -0.21101949585E+02  0.13132318710E+02  0.33040101401E+02  0.51100000000E-03 0.  1.
        -12    1    3    3    0    0 -0.17668895330E+01 -0.29796970096E+01  0.37195001347E+01  0.50828313117E+01  0.00000000000E+00 0.  1.
</event>
<event>
 7    1  0.2425980E-008  0.4614232E+02  0.7816164E-02  0.1320468E+00
        -11   -1    0    0    0    0  0.00000000000E+00  0.00000000000E+00  0.45593999997E+02  0.45594000000E+02  0.51100000000E-03 0.  1.
         11   -1    0    0    0    0 -0.00000000000E+00 -0.00000000000E+00 -0.45593999997E+02  0.45594000000E+02  0.51100000000E-03 0. -1.
    9900012    2    1    2    0    0  0.27943157025E+02 -0.21791970346E+02  0.27810133092E+02  0.46142317646E+02  0.99999989536E+01 0.  0.
         12    1    1    2    0    0 -0.27943157025E+02  0.21791970346E+02 -0.27810133092E+02  0.45045682354E+02  0.00000000000E+00 0. -1.
         11    1    3    3    0    0  0.71217783119E+01 -0.18460376099E+01  0.72852828784E+01  0.10353884685E+02  0.51100000000E-03 0.  1.
        -11    1    3    3    0    0  0.10638894131E+02 -0.10429237268E+02  0.13824273707E+02  0.20324015403E+02  0.51100000000E-03 0. -1.
        -12    1    3    3    0    0  0.10182484582E+02 -0.95166954682E+01  0.67005765065E+01  0.15464417558E+02  0.00000000000E+00 0.  1.
</event>
<event>
 7    1  0.2425980E-008  0.4614232E+02  0.7816164E-02  0.1320468E+00
        -11   -1    0    0    0    0  0.00000000000E+00  0.00000000000E+00  0.45593999997E+02  0.45594000000E+02  0.51100000000E-03 0. -1.
         11   -1    0    0    0    0 -0.00000000000E+00 -0.00000000000E+00 -0.45593999997E+02  0.45594000000E+02  0.51100000000E-03 0.  1.
    9900012    2    1    2    0    0  0.22894066121E+02  0.13881999228E+02 -0.36225202803E+02  0.46142317807E+02  0.10000000420E+02 0.  0.
         12    1    1    2    0    0 -0.22894066121E+02 -0.13881999228E+02  0.36225202803E+02  0.45045682193E+02  0.00000000000E+00 0. -1.
         11    1    3    3    0    0  0.46848141657E+01  0.64183766394E+01 -0.15249180041E+02  0.17195363754E+02  0.51100000000E-03 0.  1.
        -11    1    3    3    0    0  0.41785051743E+01  0.30416513438E+01 -0.44330204631E+01  0.68090541983E+01  0.51100000000E-03 0. -1.
         12    1    3    3    0    0  0.14030746781E+02  0.44219712446E+01 -0.16543002299E+02  0.22137899855E+02  0.00000000000E+00 0. -1.
</event>
<event>
 7    1  0.2425980E-008  0.4614232E+02  0.7816164E-02  0.1320468E+00
        -11   -1    0    0    0    0  0.00000000000E+00  0.00000000000E+00  0.45593999997E+02  0.45594000000E+02  0.51100000000E-03 0. -1.
         11   -1    0    0    0    0 -0.00000000000E+00 -0.00000000000E+00 -0.45593999997E+02  0.45594000000E+02  0.51100000000E-03 0.  1.
    9900012    2    1    2    0    0  0.20289254247E+02  0.26732786520E+02 -0.30046926845E+02  0.46142317345E+02  0.99999962078E+01 0.  0.
         12    1    1    2    0    0 -0.20289254247E+02 -0.26732786520E+02  0.30046926845E+02  0.45045682655E+02  0.00000000000E+00 0. -1.
         11    1    3    3    0    0  0.59959732502E+01  0.11752284114E+02 -0.10911013776E+02  0.17120692129E+02  0.51100000000E-03 0. -1.
        -11    1    3    3    0    0  0.55527528957E+01  0.93526463647E+01 -0.65468056318E+01  0.12695106261E+02  0.51100000000E-03 0.  1.
         12    1    3    3    0    0  0.87405281009E+01  0.56278560411E+01 -0.12589107438E+02  0.16326518955E+02  0.00000000000E+00 0. -1.
</event>
<event>
 7    1  0.2425980E-008  0.4614232E+02  0.7816164E-02  0.1320468E+00
        -11   -1    0    0    0    0  0.00000000000E+00  0.00000000000E+00  0.45593999997E+02  0.45594000000E+02  0.51100000000E-03 0. -1.
         11   -1    0    0    0    0 -0.00000000000E+00 -0.00000000000E+00 -0.45593999997E+02  0.45594000000E+02  0.51100000000E-03 0.  1.
    9900012    2    1    2    0    0 -0.10176305494E+02  0.43192646863E+01 -0.43668069046E+02  0.46142317686E+02  0.99999993113E+01 0.  0.
         12    1    1    2    0    0  0.10176305494E+02 -0.43192646863E+01  0.43668069046E+02  0.45045682314E+02  0.00000000000E+00 0. -1.
         11    1    3    3    0    0 -0.23210303374E+01 -0.16793012886E+01 -0.86110717584E+01  0.90751193786E+01  0.51100000000E-03 0. -1.
        -11    1    3    3    0    0  0.95689679056E-01 -0.10724317093E+01 -0.13865481074E+01  0.17555005557E+01  0.51100000000E-03 0.  1.
        -12    1    3    3    0    0 -0.79509648361E+01  0.70709976842E+01 -0.33670449180E+02  0.35311697751E+02  0.00000000000E+00 0.  1.
</event>
<event>
 7    1  0.2425980E-008  0.4614232E+02  0.7816164E-02  0.1320468E+00
        -11   -1    0    0    0    0  0.00000000000E+00  0.00000000000E+00  0.45593999997E+02  0.45594000000E+02  0.51100000000E-03 0.  1.
         11   -1    0    0    0    0 -0.00000000000E+00 -0.00000000000E+00 -0.45593999997E+02  0.45594000000E+02  0.51100000000E-03 0. -1.
    9900012    2    1    2    0    0  0.18879300659E+02  0.20599399710E+02  0.35331999668E+02  0.46142318050E+02  0.10000002633E+02 0.  0.
         12    1    1    2    0    0 -0.18879300659E+02 -0.20599399710E+02 -0.35331999668E+02  0.45045681950E+02  0.00000000000E+00 0. -1.
         11    1    3    3    0    0  0.15573149179E+01  0.31463335447E+01  0.12470335864E+01  0.37255519799E+01  0.51100000000E-03 0. -1.
        -11    1    3    3    0    0  0.12510101566E+02  0.92950434229E+01  0.23658582880E+02  0.28330708032E+02  0.51100000000E-03 0.  1.
        -12    1    3    3    0    0  0.48118841750E+01  0.81580227424E+01  0.10426383202E+02  0.14086058038E+02  0.00000000000E+00 0.  1.
</event>
<event>
 7    1  0.2425980E-008  0.4614232E+02  0.7816164E-02  0.1320468E+00
        -11   -1    0    0    0    0  0.00000000000E+00  0.00000000000E+00  0.45593999997E+02  0.45594000000E+02  0.51100000000E-03 0. -1.
         11   -1    0    0    0    0 -0.00000000000E+00 -0.00000000000E+00 -0.45593999997E+02  0.45594000000E+02  0.51100000000E-03 0.  1.
    9900012    2    1    2    0    0  0.24851448728E+02  0.36793728552E+02  0.75987209767E+01  0.46142317354E+02  0.99999962833E+01 0.  0.
         12    1    1    2    0    0 -0.24851448728E+02 -0.36793728552E+02 -0.75987209767E+01  0.45045682646E+02  0.00000000000E+00 0. -1.
         11    1    3    3    0    0  0.24788001679E+01  0.11089903260E+02  0.15830644004E+01  0.11473294982E+02  0.51100000000E-03 0. -1.
        -11    1    3    3    0    0  0.10822724258E+02  0.13939382012E+02  0.35096411351E+01  0.17993201838E+02  0.51100000000E-03 0.  1.
         12    1    3    3    0    0  0.11549924302E+02  0.11764443280E+02  0.25060154412E+01  0.16675820534E+02  0.00000000000E+00 0. -1.
</event>
<event>
 7    1  0.2425980E-008  0.4614232E+02  0.7816164E-02  0.1320468E+00
        -11   -1    0    0    0    0  0.00000000000E+00  0.00000000000E+00  0.45593999997E+02  0.45594000000E+02  0.51100000000E-03 0.  1.
         11   -1    0    0    0    0 -0.00000000000E+00 -0.00000000000E+00 -0.45593999997E+02  0.45594000000E+02  0.51100000000E-03 0. -1.
    9900012    2    1    2    0    0  0.21793652397E+02 -0.20405291195E+02  0.33730910085E+02  0.46142317757E+02  0.99999999641E+01 0.  0.
         12    1    1    2    0    0 -0.21793652397E+02  0.20405291195E+02 -0.33730910085E+02  0.45045682243E+02  0.00000000000E+00 0. -1.
         11    1    3    3    0    0  0.85951922652E+01 -0.86426850710E+01  0.16898998694E+02  0.20836254281E+02  0.51100000000E-03 0.  1.
        -11    1    3    3    0    0  0.24389190206E+01  0.92775450099E-01  0.61328356388E+00  0.25165552376E+01  0.51100000000E-03 0. -1.
         12    1    3    3    0    0  0.10759541111E+02 -0.11855381574E+02  0.16218627827E+02  0.22789508239E+02  0.00000000000E+00 0. -1.
</event>
<event>
 7    1  0.2425980E-008  0.4614232E+02  0.7816164E-02  0.1320468E+00
        -11   -1    0    0    0    0  0.00000000000E+00  0.00000000000E+00  0.45593999997E+02  0.45594000000E+02  0.51100000000E-03 0.  1.
         11   -1    0    0    0    0 -0.00000000000E+00 -0.00000000000E+00 -0.45593999997E+02  0.45594000000E+02  0.51100000000E-03 0. -1.
    9900012    2    1    2    0    0 -0.29524310161E+02 -0.22188257100E+02  0.25789724888E+02  0.46142317039E+02  0.99999934167E+01 0.  0.
         12    1    1    2    0    0  0.29524310161E+02  0.22188257100E+02 -0.25789724888E+02  0.45045682961E+02  0.00000000000E+00 0. -1.
         11    1    3    3    0    0 -0.14626671146E+02 -0.15567912659E+02  0.16337870197E+02  0.26892850652E+02  0.51100000000E-03 0. -1.
        -11    1    3    3    0    0 -0.90242657245E+01 -0.48330187027E+01  0.78620908876E+01  0.12907668846E+02  0.51100000000E-03 0.  1.
         12    1    3    3    0    0 -0.58733732903E+01 -0.17873257379E+01  0.15897638038E+01  0.63417975411E+01  0.00000000000E+00 0. -1.
</event>
<event>
 7    1  0.2425980E-008  0.4614232E+02  0.7816164E-02  0.1320468E+00
        -11   -1    0    0    0    0  0.00000000000E+00  0.00000000000E+00  0.45593999997E+02  0.45594000000E+02  0.51100000000E-03 0. -1.
         11   -1    0    0    0    0 -0.00000000000E+00 -0.00000000000E+00 -0.45593999997E+02  0.45594000000E+02  0.51100000000E-03 0.  1.
    9900012    2    1    2    0    0 -0.33947616930E+01 -0.88799806402E+01 -0.44031068509E+02  0.46142318107E+02  0.10000003155E+02 0.  0.
         12    1    1    2    0    0  0.33947616930E+01  0.88799806402E+01  0.44031068509E+02  0.45045681893E+02  0.00000000000E+00 0. -1.
         11    1    3    3    0    0 -0.95876240103E+00  0.95557515090E+00 -0.81376774800E+01  0.82494935748E+01  0.51100000000E-03 0. -1.
        -11    1    3    3    0    0 -0.55441991774E+00 -0.62464697173E+01 -0.30547766658E+02  0.31184801000E+02  0.51100000000E-03 0.  1.
         12    1    3    3    0    0 -0.18815793743E+01 -0.35890860738E+01 -0.53456243715E+01  0.67080235322E+01  0.00000000000E+00 0. -1.
</event>
<event>
 7    1  0.2425980E-008  0.4614232E+02  0.7816164E-02  0.1320468E+00
        -11   -1    0    0    0    0  0.00000000000E+00  0.00000000000E+00  0.45593999997E+02  0.45594000000E+02  0.51100000000E-03 0.  1.
         11   -1    0    0    0    0 -0.00000000000E+00 -0.00000000000E+00 -0.45593999997E+02  0.45594000000E+02  0.51100000000E-03 0. -1.
    9900012    2    1    2    0    0 -0.13705652504E+02  0.40220019618E+02  0.14953882392E+02  0.46142317774E+02  0.10000000113E+02 0.  0.
         12    1    1    2    0    0  0.13705652504E+02 -0.40220019618E+02 -0.14953882392E+02  0.45045682226E+02  0.00000000000E+00 0. -1.
         11    1    3    3    0    0 -0.26908011871E+01  0.12466719144E+02  0.33631244699E+01  0.13189772694E+02  0.51100000000E-03 0.  1.
        -11    1    3    3    0    0 -0.10873612496E+02  0.28242616098E+02  0.11672907525E+02  0.32436670345E+02  0.51100000000E-03 0. -1.
         12    1    3    3    0    0 -0.14123882074E+00 -0.48931562378E+00 -0.82149602725E-01  0.51587473420E+00  0.00000000000E+00 0. -1.
</event>
<event>
 7    1  0.2425980E-008  0.4614232E+02  0.7816164E-02  0.1320468E+00
        -11   -1    0    0    0    0  0.00000000000E+00  0.00000000000E+00  0.45593999997E+02  0.45594000000E+02  0.51100000000E-03 0.  1.
         11   -1    0    0    0    0 -0.00000000000E+00 -0.00000000000E+00 -0.45593999997E+02  0.45594000000E+02  0.51100000000E-03 0. -1.
    9900012    2    1    2    0    0  0.13647501611E+02 -0.21616895279E+02  0.37088665808E+02  0.46142316598E+02  0.99999893949E+01 0.  0.
         12    1    1    2    0    0 -0.13647501611E+02  0.21616895279E+02 -0.37088665808E+02  0.45045683402E+02  0.00000000000E+00 0. -1.
         11    1    3    3    0    0  0.88984714418E+01 -0.15663345503E+02  0.24393679054E+02  0.30324491165E+02  0.51100000000E-03 0. -1.
        -11    1    3    3    0    0  0.57837397565E+01 -0.53831043079E+01  0.12203702817E+02  0.14538219295E+02  0.51100000000E-03 0.  1.
         12    1    3    3    0    0 -0.10347095877E+01 -0.57044546785E+00  0.49128393741E+00  0.12796061386E+01  0.00000000000E+00 0. -1.
</event>
<event>
 7    1  0.2425980E-008  0.4614232E+02  0.7816164E-02  0.1320468E+00
        -11   -1    0    0    0    0  0.00000000000E+00  0.00000000000E+00  0.45593999997E+02  0.45594000000E+02  0.51100000000E-03 0. -1.
         11   -1    0    0    0    0 -0.00000000000E+00 -0.00000000000E+00 -0.45593999997E+02  0.45594000000E+02  0.51100000000E-03 0.  1.
    9900012    2    1    2    0    0  0.15335385629E+02  0.42283320619E+02 -0.24617438915E+01  0.46142318321E+02  0.10000005107E+02 0.  0.
         12    1    1    2    0    0 -0.15335385629E+02 -0.42283320619E+02  0.24617438915E+01  0.45045681679E+02  0.00000000000E+00 0. -1.
         11    1    3    3    0    0  0.10826259368E+02  0.24278948590E+02 -0.37635291487E+00  0.26586027878E+02  0.51100000000E-03 0.  1.
        -11    1    3    3    0    0 -0.19604870476E+00  0.64951980870E+01 -0.28571548228E+01  0.70985468390E+01  0.51100000000E-03 0. -1.
         12    1    3    3    0    0  0.47051749656E+01  0.11509173941E+02  0.77176384616E+00  0.12457743604E+02  0.00000000000E+00 0. -1.
</event>
<event>
 7    1  0.2425980E-008  0.4614232E+02  0.7816164E-02  0.1320468E+00
        -11   -1    0    0    0    0  0.00000000000E+00  0.00000000000E+00  0.45593999997E+02  0.45594000000E+02  0.51100000000E-03 0.  1.
         11   -1    0    0    0    0 -0.00000000000E+00 -0.00000000000E+00 -0.45593999997E+02  0.45594000000E+02  0.51100000000E-03 0. -1.
    9900012    2    1    2    0    0 -0.33363640351E+02  0.21029345317E+02  0.21765741745E+02  0.46142319012E+02  0.10000011410E+02 0.  0.
         12    1    1    2    0    0  0.33363640351E+02 -0.21029345317E+02 -0.21765741745E+02  0.45045680988E+02  0.00000000000E+00 0. -1.
         11    1    3    3    0    0 -0.12050500732E+02  0.45745448381E+01  0.88715368011E+01  0.15647529960E+02  0.51100000000E-03 0.  1.
        -11    1    3    3    0    0 -0.69217013150E+01  0.33856263665E+01  0.63437577673E+01  0.99807653944E+01  0.51100000000E-03 0. -1.
        -12    1    3    3    0    0 -0.14391438304E+02  0.13069174112E+02  0.65504471769E+01  0.20514023658E+02  0.00000000000E+00 0.  1.
</event>
<event>
 7    1  0.2425980E-008  0.4614232E+02  0.7816164E-02  0.1320468E+00
        -11   -1    0    0    0    0  0.00000000000E+00  0.00000000000E+00  0.45593999997E+02  0.45594000000E+02  0.51100000000E-03 0. -1.
         11   -1    0    0    0    0 -0.00000000000E+00 -0.00000000000E+00 -0.45593999997E+02  0.45594000000E+02  0.51100000000E-03 0.  1.
    9900012    2    1    2    0    0  0.42923647187E+02  0.76734070495E+01 -0.11304551369E+02  0.46142317130E+02  0.99999942469E+01 0.  0.
         12    1    1    2    0    0 -0.42923647187E+02 -0.76734070495E+01  0.11304551369E+02  0.45045682870E+02  0.00000000000E+00 0. -1.
         11    1    3    3    0    0  0.13892619676E+02 -0.71553123461E+00 -0.52753380008E+01  0.14877703374E+02  0.51100000000E-03 0. -1.
        -11    1    3    3    0    0  0.34556068832E+01 -0.34605012384E+00  0.36655344873E+00  0.34921814545E+01  0.51100000000E-03 0.  1.
        -12    1    3    3    0    0  0.25575420628E+02  0.87349884080E+01 -0.63957668169E+01  0.27772432302E+02  0.00000000000E+00 0.  1.
</event>
<event>
 7    1  0.2425980E-008  0.4614232E+02  0.7816164E-02  0.1320468E+00
        -11   -1    0    0    0    0  0.00000000000E+00  0.00000000000E+00  0.45593999997E+02  0.45594000000E+02  0.51100000000E-03 0. -1.
         11   -1    0    0    0    0 -0.00000000000E+00 -0.00000000000E+00 -0.45593999997E+02  0.45594000000E+02  0.51100000000E-03 0.  1.
    9900012    2    1    2    0    0 -0.15033423028E+02  0.11608020245E+02 -0.40845606393E+02  0.46142317592E+02  0.99999984574E+01 0.  0.
         12    1    1    2    0    0  0.15033423028E+02 -0.11608020245E+02  0.40845606393E+02  0.45045682408E+02  0.00000000000E+00 0. -1.
         11    1    3    3    0    0 -0.40881934365E-01  0.48483656445E+00 -0.69672804137E+01  0.69842490256E+01  0.51100000000E-03 0. -1.
        -11    1    3    3    0    0 -0.60177636372E+01  0.10004508524E+01 -0.11062184254E+02  0.12632747201E+02  0.51100000000E-03 0.  1.
        -12    1    3    3    0    0 -0.89747774567E+01  0.10122732829E+02 -0.22816141725E+02  0.26525321366E+02  0.00000000000E+00 0.  1.
</event>
<event>
 7    1  0.2425980E-008  0.4614232E+02  0.7816164E-02  0.1320468E+00
        -11   -1    0    0    0    0  0.00000000000E+00  0.00000000000E+00  0.45593999997E+02  0.45594000000E+02  0.51100000000E-03 0.  1.
         11   -1    0    0    0    0 -0.00000000000E+00 -0.00000000000E+00 -0.45593999997E+02  0.45594000000E+02  0.51100000000E-03 0. -1.
    9900012    2    1    2    0    0  0.34240908758E+02 -0.43417181745E+01  0.28945174430E+02  0.46142317942E+02  0.10000001650E+02 0.  0.
         12    1    1    2    0    0 -0.34240908758E+02  0.43417181745E+01 -0.28945174430E+02  0.45045682058E+02  0.00000000000E+00 0. -1.
         11    1    3    3    0    0  0.14398610379E+02 -0.21122173189E+01  0.15253128518E+02  0.21081730780E+02  0.51100000000E-03 0. -1.
        -11    1    3    3    0    0  0.14439263365E+02  0.13594442058E+01  0.94806362079E+01  0.17326940822E+02  0.51100000000E-03 0.  1.
         12    1    3    3    0    0  0.54030350138E+01 -0.35889450614E+01  0.42114097044E+01  0.77336463400E+01  0.00000000000E+00 0. -1.
</event>
<event>
 7    1  0.2425980E-008  0.4614232E+02  0.7816164E-02  0.1320468E+00
        -11   -1    0    0    0    0  0.00000000000E+00  0.00000000000E+00  0.45593999997E+02  0.45594000000E+02  0.51100000000E-03 0. -1.
         11   -1    0    0    0    0 -0.00000000000E+00 -0.00000000000E+00 -0.45593999997E+02  0.45594000000E+02  0.51100000000E-03 0.  1.
    9900012    2    1    2    0    0 -0.31627949500E+02 -0.28629952643E+02 -0.14460708075E+02  0.46142318121E+02  0.10000003281E+02 0.  0.
         12    1    1    2    0    0  0.31627949500E+02  0.28629952643E+02  0.14460708075E+02  0.45045681879E+02  0.00000000000E+00 0. -1.
         11    1    3    3    0    0 -0.31145621445E+01 -0.50954489465E+01 -0.69766136314E+00  0.60125559421E+01  0.51100000000E-03 0. -1.
        -11    1    3    3    0    0 -0.18498573691E+02 -0.16423749831E+02 -0.55439952025E+01  0.25350989531E+02  0.51100000000E-03 0.  1.
        -12    1    3    3    0    0 -0.10014813664E+02 -0.71107538659E+01 -0.82190515097E+01  0.14778772648E+02  0.00000000000E+00 0.  1.
</event>
<event>
 7    1  0.2425980E-008  0.4614232E+02  0.7816164E-02  0.1320468E+00
        -11   -1    0    0    0    0  0.00000000000E+00  0.00000000000E+00  0.45593999997E+02  0.45594000000E+02  0.51100000000E-03 0. -1.
         11   -1    0    0    0    0 -0.00000000000E+00 -0.00000000000E+00 -0.45593999997E+02  0.45594000000E+02  0.51100000000E-03 0.  1.
    9900012    2    1    2    0    0 -0.19480536556E+02 -0.53257640951E+01 -0.40264855414E+02  0.46142315976E+02  0.99999837189E+01 0.  0.
         12    1    1    2    0    0  0.19480536556E+02  0.53257640951E+01  0.40264855414E+02  0.45045684024E+02  0.00000000000E+00 0. -1.
         11    1    3    3    0    0 -0.77927733703E+01 -0.68758512192E+00 -0.16279028931E+02  0.18061198003E+02  0.51100000000E-03 0. -1.
        -11    1    3    3    0    0 -0.98923682457E+01 -0.30104776297E+00 -0.16780344676E+02  0.19481518087E+02  0.51100000000E-03 0.  1.
         12    1    3    3    0    0 -0.17953949397E+01 -0.43371312102E+01 -0.72054818067E+01  0.85995998855E+01  0.00000000000E+00 0. -1.
</event>
<event>
 7    1  0.2425980E-008  0.4614232E+02  0.7816164E-02  0.1320468E+00
        -11   -1    0    0    0    0  0.00000000000E+00  0.00000000000E+00  0.45593999997E+02  0.45594000000E+02  0.51100000000E-03 0.  1.
         11   -1    0    0    0    0 -0.00000000000E+00 -0.00000000000E+00 -0.45593999997E+02  0.45594000000E+02  0.51100000000E-03 0. -1.
    9900012    2    1    2    0    0  0.19569196154E+02  0.13613468239E+02  0.38220849830E+02  0.46142319659E+02  0.10000017308E+02 0.  0.
         12    1    1    2    0    0 -0.19569196154E+02 -0.13613468239E+02 -0.38220849830E+02  0.45045680341E+02  0.00000000000E+00 0. -1.
         11    1    3    3    0    0 -0.63736327908E-01  0.69730435748E-01 -0.15486890073E+00  0.18140918030E+00  0.51100000000E-03 0. -1.
        -11    1    3    3    0    0  0.18510401002E+01  0.50235816645E+01  0.10880968214E+02  0.12126755202E+02  0.51100000000E-03 0.  1.
        -12    1    3    3    0    0  0.17781892382E+02  0.85201561385E+01  0.27494750517E+02  0.33834155277E+02  0.00000000000E+00 0.  1.
</event>
<event>
 7    1  0.2425980E-008  0.4614232E+02  0.7816164E-02  0.1320468E+00
        -11   -1    0    0    0    0  0.00000000000E+00  0.00000000000E+00  0.45593999997E+02  0.45594000000E+02  0.51100000000E-03 0.  1.
         11   -1    0    0    0    0 -0.00000000000E+00 -0.00000000000E+00 -0.45593999997E+02  0.45594000000E+02  0.51100000000E-03 0. -1.
    9900012    2    1    2    0    0 -0.35676307459E+02 -0.25241274656E+02  0.10917539654E+02  0.46142317274E+02  0.99999955579E+01 0.  0.
         12    1    1    2    0    0  0.35676307459E+02  0.25241274656E+02 -0.10917539654E+02  0.45045682726E+02  0.00000000000E+00 0. -1.
         11    1    3    3    0    0 -0.47720996915E+01 -0.28425814204E+01  0.29127807386E+01  0.62719611359E+01  0.51100000000E-03 0. -1.
        -11    1    3    3    0    0 -0.97045209348E+01 -0.60245156622E+01  0.62630907278E+01  0.13026850013E+02  0.51100000000E-03 0.  1.
         12    1    3    3    0    0 -0.21199686833E+02 -0.16374177574E+02  0.17416681871E+01  0.26843506125E+02  0.00000000000E+00 0. -1.
</event>
<event>
 7    1  0.2425980E-008  0.4614232E+02  0.7816164E-02  0.1320468E+00
        -11   -1    0    0    0    0  0.00000000000E+00  0.00000000000E+00  0.45593999997E+02  0.45594000000E+02  0.51100000000E-03 0. -1.
         11   -1    0    0    0    0 -0.00000000000E+00 -0.00000000000E+00 -0.45593999997E+02  0.45594000000E+02  0.51100000000E-03 0.  1.
    9900012    2    1    2    0    0 -0.29247753754E+02 -0.30781855097E+02  0.15038607727E+02  0.46142318462E+02  0.10000006388E+02 0.  0.
         12    1    1    2    0    0  0.29247753754E+02  0.30781855097E+02 -0.15038607727E+02  0.45045681538E+02  0.00000000000E+00 0. -1.
         11    1    3    3    0    0 -0.31099380019E+01 -0.53069953882E+01  0.51828185998E+01  0.80434770669E+01  0.51100000000E-03 0. -1.
        -11    1    3    3    0    0 -0.13736391722E+02 -0.16384446474E+02  0.66586446015E+01  0.22393661871E+02  0.51100000000E-03 0.  1.
        -12    1    3    3    0    0 -0.12401424030E+02 -0.90904132350E+01  0.31971445258E+01  0.15705179524E+02  0.00000000000E+00 0.  1.
</event>
<event>
 7    1  0.2425980E-008  0.4614232E+02  0.7816164E-02  0.1320468E+00
        -11   -1    0    0    0    0  0.00000000000E+00  0.00000000000E+00  0.45593999997E+02  0.45594000000E+02  0.51100000000E-03 0.  1.
         11   -1    0    0    0    0 -0.00000000000E+00 -0.00000000000E+00 -0.45593999997E+02  0.45594000000E+02  0.51100000000E-03 0. -1.
    9900012    2    1    2    0    0 -0.26149868481E+02 -0.36496794491E+02  0.36444269713E+01  0.46142317880E+02  0.10000001084E+02 0.  0.
         12    1    1    2    0    0  0.26149868481E+02  0.36496794491E+02 -0.36444269713E+01  0.45045682120E+02  0.00000000000E+00 0. -1.
         11    1    3    3    0    0 -0.61291111783E+01 -0.61613363341E+01 -0.68847952016E+00  0.87179168136E+01  0.51100000000E-03 0. -1.
        -11    1    3    3    0    0 -0.13870363322E+02 -0.15288647636E+02  0.16611341769E+00  0.20643578157E+02  0.51100000000E-03 0.  1.
        -12    1    3    3    0    0 -0.61503939809E+01 -0.15046810521E+02  0.41667930738E+01  0.16780822909E+02  0.00000000000E+00 0.  1.
</event>
<event>
 7    1  0.2425980E-008  0.4614232E+02  0.7816164E-02  0.1320468E+00
        -11   -1    0    0    0    0  0.00000000000E+00  0.00000000000E+00  0.45593999997E+02  0.45594000000E+02  0.51100000000E-03 0. -1.
         11   -1    0    0    0    0 -0.00000000000E+00 -0.00000000000E+00 -0.45593999997E+02  0.45594000000E+02  0.51100000000E-03 0.  1.
    9900012    2    1    2    0    0 -0.38976750128E+02 -0.17874501700E+02 -0.13799588441E+02  0.46142317602E+02  0.99999985499E+01 0.  0.
         12    1    1    2    0    0  0.38976750128E+02  0.17874501700E+02  0.13799588441E+02  0.45045682398E+02  0.00000000000E+00 0. -1.
         11    1    3    3    0    0 -0.56399847174E+01  0.28093525512E-01 -0.36972435753E+01  0.67438733066E+01  0.51100000000E-03 0. -1.
        -11    1    3    3    0    0 -0.12658363913E+02 -0.51958590202E+01 -0.51985920299E+01  0.14637502768E+02  0.51100000000E-03 0.  1.
        -12    1    3    3    0    0 -0.20678401497E+02 -0.12706736206E+02 -0.49037528357E+01  0.24760941528E+02  0.00000000000E+00 0.  1.
</event>
<event>
 7    1  0.2425980E-008  0.4614232E+02  0.7816164E-02  0.1320468E+00
        -11   -1    0    0    0    0  0.00000000000E+00  0.00000000000E+00  0.45593999997E+02  0.45594000000E+02  0.51100000000E-03 0. -1.
         11   -1    0    0    0    0 -0.00000000000E+00 -0.00000000000E+00 -0.45593999997E+02  0.45594000000E+02  0.51100000000E-03 0.  1.
    9900012    2    1    2    0    0  0.42764171759E+02  0.13997465533E+02  0.21000123736E+01  0.46142317859E+02  0.10000000893E+02 0.  0.
         12    1    1    2    0    0 -0.42764171759E+02 -0.13997465533E+02 -0.21000123736E+01  0.45045682141E+02  0.00000000000E+00 0. -1.
         11    1    3    3    0    0  0.39658181544E+01  0.44245700052E+01 -0.72831269473E+00  0.59862319539E+01  0.51100000000E-03 0. -1.
        -11    1    3    3    0    0  0.18207336624E+02  0.55223264728E+01  0.22883471064E+01  0.19163499925E+02  0.51100000000E-03 0.  1.
         12    1    3    3    0    0  0.20591016980E+02  0.40505690554E+01  0.53997796192E+00  0.20992585980E+02  0.00000000000E+00 0. -1.
</event>
<event>
 7    1  0.2425980E-008  0.4614232E+02  0.7816164E-02  0.1320468E+00
        -11   -1    0    0    0    0  0.00000000000E+00  0.00000000000E+00  0.45593999997E+02  0.45594000000E+02  0.51100000000E-03 0. -1.
         11   -1    0    0    0    0 -0.00000000000E+00 -0.00000000000E+00 -0.45593999997E+02  0.45594000000E+02  0.51100000000E-03 0.  1.
    9900012    2    1    2    0    0 -0.32864931250E+02  0.29353719430E+02  0.93471328410E+01  0.46142318267E+02  0.10000004611E+02 0.  0.
         12    1    1    2    0    0  0.32864931250E+02 -0.29353719430E+02 -0.93471328410E+01  0.45045681733E+02  0.00000000000E+00 0. -1.
         11    1    3    3    0    0 -0.11726377276E+02  0.15608514688E+02  0.22824667471E+01  0.19655617759E+02  0.51100000000E-03 0.  1.
        -11    1    3    3    0    0 -0.14915226233E+02  0.79165294186E+01  0.58681470721E+01  0.17876536632E+02  0.51100000000E-03 0. -1.
        -12    1    3    3    0    0 -0.62233277411E+01  0.58286753233E+01  0.11965190219E+01  0.86101638757E+01  0.00000000000E+00 0.  1.
</event>
<event>
 7    1  0.2425980E-008  0.4614232E+02  0.7816164E-02  0.1320468E+00
        -11   -1    0    0    0    0  0.00000000000E+00  0.00000000000E+00  0.45593999997E+02  0.45594000000E+02  0.51100000000E-03 0. -1.
         11   -1    0    0    0    0 -0.00000000000E+00 -0.00000000000E+00 -0.45593999997E+02  0.45594000000E+02  0.51100000000E-03 0.  1.
    9900012    2    1    2    0    0 -0.36629294948E+02 -0.75992381411E+01 -0.25093022486E+02  0.46142318229E+02  0.10000004268E+02 0.  0.
         12    1    1    2    0    0  0.36629294948E+02  0.75992381411E+01  0.25093022486E+02  0.45045681771E+02  0.00000000000E+00 0. -1.
         11    1    3    3    0    0 -0.15810844240E+01 -0.20234122177E+01 -0.15596735350E+01  0.30044311866E+01  0.51100000000E-03 0. -1.
        -11    1    3    3    0    0 -0.79735274089E+01 -0.33459365927E+01 -0.83297540093E+01  0.12006549593E+02  0.51100000000E-03 0.  1.
        -12    1    3    3    0    0 -0.27074683115E+02 -0.22298893307E+01 -0.15203594941E+02  0.31131337449E+02  0.00000000000E+00 0.  1.
</event>
<event>
 7    1  0.2425980E-008  0.4614232E+02  0.7816164E-02  0.1320468E+00
        -11   -1    0    0    0    0  0.00000000000E+00  0.00000000000E+00  0.45593999997E+02  0.45594000000E+02  0.51100000000E-03 0.  1.
         11   -1    0    0    0    0 -0.00000000000E+00 -0.00000000000E+00 -0.45593999997E+02  0.45594000000E+02  0.51100000000E-03 0. -1.
    9900012    2    1    2    0    0 -0.23693307106E+01 -0.19692938948E+02  0.40443635883E+02  0.46142320342E+02  0.10000023537E+02 0.  0.
         12    1    1    2    0    0  0.23693307106E+01  0.19692938948E+02 -0.40443635883E+02  0.45045679658E+02  0.00000000000E+00 0. -1.
         11    1    3    3    0    0 -0.89111794179E+00 -0.80880198844E+01  0.16179323367E+02  0.18110236379E+02  0.51100000000E-03 0. -1.
        -11    1    3    3    0    0  0.17293189890E+01 -0.86922861079E+01  0.20337680254E+02  0.22184851145E+02  0.51100000000E-03 0.  1.
         12    1    3    3    0    0 -0.32075317578E+01 -0.29126329553E+01  0.39266322618E+01  0.58472328181E+01  0.00000000000E+00 0. -1.
</event>
<event>
 7    1  0.2425980E-008  0.4614231E+02  0.7816164E-02  0.1320468E+00
        -11   -1    0    0    0    0  0.00000000000E+00  0.00000000000E+00  0.45593999997E+02  0.45594000000E+02  0.51100000000E-03 0.  1.
         11   -1    0    0    0    0 -0.00000000000E+00 -0.00000000000E+00 -0.45593999997E+02  0.45594000000E+02  0.51100000000E-03 0. -1.
    9900012    2    1    2    0    0  0.21037286572E+01  0.95945481034E+01  0.43961718924E+02  0.46142314765E+02  0.99999726789E+01 0.  0.
         12    1    1    2    0    0 -0.21037286572E+01 -0.95945481034E+01 -0.43961718924E+02  0.45045685235E+02  0.00000000000E+00 0. -1.
         11    1    3    3    0    0  0.13854154475E+01  0.48451089330E+01  0.24190573157E+02  0.24709882364E+02  0.51100000000E-03 0.  1.
        -11    1    3    3    0    0  0.11927396071E+01  0.15879024358E+01  0.17242116300E+02  0.17356112372E+02  0.51100000000E-03 0. -1.
         12    1    3    3    0    0 -0.47442639740E+00  0.31615367346E+01  0.25290294668E+01  0.40763200285E+01  0.00000000000E+00 0. -1.
</event>
<event>
 7    1  0.2425980E-008  0.4614232E+02  0.7816164E-02  0.1320468E+00
        -11   -1    0    0    0    0  0.00000000000E+00  0.00000000000E+00  0.45593999997E+02  0.45594000000E+02  0.51100000000E-03 0.  1.
         11   -1    0    0    0    0 -0.00000000000E+00 -0.00000000000E+00 -0.45593999997E+02  0.45594000000E+02  0.51100000000E-03 0. -1.
    9900012    2    1    2    0    0  0.84816680515E+01 -0.26600128385E+02  0.35349795275E+02  0.46142317088E+02  0.99999938599E+01 0.  0.
         12    1    1    2    0    0 -0.84816680515E+01  0.26600128385E+02 -0.35349795275E+02  0.45045682912E+02  0.00000000000E+00 0. -1.
         11    1    3    3    0    0  0.75227082882E+01 -0.12727551163E+02  0.18195585179E+02  0.23444850583E+02  0.51100000000E-03 0. -1.
        -11    1    3    3    0    0  0.30433328538E+01 -0.94882029690E+01  0.10697431783E+02  0.14619265284E+02  0.51100000000E-03 0.  1.
         12    1    3    3    0    0 -0.20843730906E+01 -0.43843742533E+01  0.64567783127E+01  0.80782012202E+01  0.00000000000E+00 0. -1.
</event>
<event>
 7    1  0.2425980E-008  0.4614232E+02  0.7816164E-02  0.1320468E+00
        -11   -1    0    0    0    0  0.00000000000E+00  0.00000000000E+00  0.45593999997E+02  0.45594000000E+02  0.51100000000E-03 0. -1.
         11   -1    0    0    0    0 -0.00000000000E+00 -0.00000000000E+00 -0.45593999997E+02  0.45594000000E+02  0.51100000000E-03 0.  1.
    9900012    2    1    2    0    0  0.25088716810E+02  0.37344710563E+02 -0.22455316360E+01  0.46142317293E+02  0.99999957329E+01 0.  0.
         12    1    1    2    0    0 -0.25088716810E+02 -0.37344710563E+02  0.22455316360E+01  0.45045682707E+02  0.00000000000E+00 0. -1.
         11    1    3    3    0    0  0.57711504326E+01  0.15913689428E+02 -0.10521818172E-01  0.16927840958E+02  0.51100000000E-03 0. -1.
        -11    1    3    3    0    0  0.47701226536E+01  0.64950735921E+01 -0.22425755072E+01  0.83647591874E+01  0.51100000000E-03 0.  1.
         12    1    3    3    0    0  0.14547443724E+02  0.14935947542E+02  0.75656893528E-02  0.20849717147E+02  0.00000000000E+00 0. -1.
</event>
<event>
 7    1  0.2425980E-008  0.4614232E+02  0.7816164E-02  0.1320468E+00
        -11   -1    0    0    0    0  0.00000000000E+00  0.00000000000E+00  0.45593999997E+02  0.45594000000E+02  0.51100000000E-03 0.  1.
         11   -1    0    0    0    0 -0.00000000000E+00 -0.00000000000E+00 -0.45593999997E+02  0.45594000000E+02  0.51100000000E-03 0. -1.
    9900012    2    1    2    0    0 -0.19173765513E+02  0.17729026177E+01  0.40722682612E+02  0.46142319333E+02  0.10000014338E+02 0.  0.
         12    1    1    2    0    0  0.19173765513E+02 -0.17729026177E+01 -0.40722682612E+02  0.45045680667E+02  0.00000000000E+00 0. -1.
         11    1    3    3    0    0 -0.17970453069E+01  0.30534262391E+01  0.92580959193E+01  0.99128766735E+01  0.51100000000E-03 0. -1.
        -11    1    3    3    0    0 -0.12234055955E+02 -0.25267326006E+01  0.24295587174E+02  0.27319078665E+02  0.51100000000E-03 0.  1.
        -12    1    3    3    0    0 -0.51426642513E+01  0.12462089792E+01  0.71689995186E+01  0.89103639947E+01  0.00000000000E+00 0.  1.
</event>
<event>
 7    1  0.2425980E-008  0.4614232E+02  0.7816164E-02  0.1320468E+00
        -11   -1    0    0    0    0  0.00000000000E+00  0.00000000000E+00  0.45593999997E+02  0.45594000000E+02  0.51100000000E-03 0. -1.
         11   -1    0    0    0    0 -0.00000000000E+00 -0.00000000000E+00 -0.45593999997E+02  0.45594000000E+02  0.51100000000E-03 0.  1.
    9900012    2    1    2    0    0  0.20936679287E+02 -0.40695020743E+01 -0.39676293129E+02  0.46142316265E+02  0.99999863571E+01 0.  0.
         12    1    1    2    0    0 -0.20936679287E+02  0.40695020743E+01  0.39676293129E+02  0.45045683735E+02  0.00000000000E+00 0. -1.
         11    1    3    3    0    0 -0.22678089082E+00  0.79371158348E+00 -0.11117032114E+01  0.13846631149E+01  0.51100000000E-03 0. -1.
        -11    1    3    3    0    0  0.45670482236E+01  0.94406056408E+00 -0.48198120639E+01  0.67066957899E+01  0.51100000000E-03 0.  1.
        -12    1    3    3    0    0  0.16596411955E+02 -0.58072742218E+01 -0.33744777853E+02  0.38050957360E+02  0.00000000000E+00 0.  1.
</event>
<event>
 7    1  0.2425980E-008  0.4614233E+02  0.7816164E-02  0.1320468E+00
        -11   -1    0    0    0    0  0.00000000000E+00  0.00000000000E+00  0.45593999997E+02  0.45594000000E+02  0.51100000000E-03 0.  1.
         11   -1    0    0    0    0 -0.00000000000E+00 -0.00000000000E+00 -0.45593999997E+02  0.45594000000E+02  0.51100000000E-03 0. -1.
    9900012    2    1    2    0    0 -0.77322211515E+01  0.14443631848E+02  0.41960778639E+02  0.46142326635E+02  0.10000080917E+02 0.  0.
         12    1    1    2    0    0  0.77322211515E+01 -0.14443631848E+02 -0.41960778639E+02  0.45045673365E+02  0.00000000000E+00 0. -1.
         11    1    3    3    0    0 -0.13301813241E+01  0.21482093124E+01  0.11432147112E+02  0.11708038839E+02  0.51100000000E-03 0. -1.
        -11    1    3    3    0    0 -0.48810662015E+01  0.29380361626E+01  0.16886112275E+02  0.17821269645E+02  0.51100000000E-03 0.  1.
         12    1    3    3    0    0 -0.15209736259E+01  0.93573863733E+01  0.13642519253E+02  0.16613018151E+02  0.00000000000E+00 0. -1.
</event>
<event>
 7    1  0.2425980E-008  0.4614232E+02  0.7816164E-02  0.1320468E+00
        -11   -1    0    0    0    0  0.00000000000E+00  0.00000000000E+00  0.45593999997E+02  0.45594000000E+02  0.51100000000E-03 0.  1.
         11   -1    0    0    0    0 -0.00000000000E+00 -0.00000000000E+00 -0.45593999997E+02  0.45594000000E+02  0.51100000000E-03 0. -1.
    9900012    2    1    2    0    0  0.30670274012E+02 -0.23502809742E+02  0.23153090724E+02  0.46142318922E+02  0.10000010582E+02 0.  0.
         12    1    1    2    0    0 -0.30670274012E+02  0.23502809742E+02 -0.23153090724E+02  0.45045681078E+02  0.00000000000E+00 0. -1.
         11    1    3    3    0    0  0.11389236537E+02 -0.94396734662E+01  0.88079298481E+01  0.17216322851E+02  0.51100000000E-03 0. -1.
        -11    1    3    3    0    0  0.17640773429E+02 -0.14857945754E+02  0.14227761497E+02  0.27099532038E+02  0.51100000000E-03 0.  1.
         12    1    3    3    0    0  0.16402640460E+01  0.79480947808E+00  0.11739937836E+00  0.18264640323E+01  0.00000000000E+00 0. -1.
</event>
<event>
 7    1  0.2425980E-008  0.4614232E+02  0.7816164E-02  0.1320468E+00
        -11   -1    0    0    0    0  0.00000000000E+00  0.00000000000E+00  0.45593999997E+02  0.45594000000E+02  0.51100000000E-03 0.  1.
         11   -1    0    0    0    0 -0.00000000000E+00 -0.00000000000E+00 -0.45593999997E+02  0.45594000000E+02  0.51100000000E-03 0. -1.
    9900012    2    1    2    0    0  0.20797838934E+02 -0.39793749407E+02 -0.36084529228E+01  0.46142317314E+02  0.99999959206E+01 0.  0.
         12    1    1    2    0    0 -0.20797838934E+02  0.39793749407E+02  0.36084529228E+01  0.45045682686E+02  0.00000000000E+00 0. -1.
         11    1    3    3    0    0  0.97073984332E+01 -0.99029263478E+01 -0.66762501218E+00  0.13883344626E+02  0.51100000000E-03 0. -1.
        -11    1    3    3    0    0  0.43589100376E+01 -0.99244676043E+01 -0.27694104713E+01  0.11187707029E+02  0.51100000000E-03 0.  1.
        -12    1    3    3    0    0  0.67315304631E+01 -0.19966355455E+02 -0.17141743930E+00  0.21071265659E+02  0.00000000000E+00 0.  1.
</event>
<event>
 7    1  0.2425980E-008  0.4614232E+02  0.7816164E-02  0.1320468E+00
        -11   -1    0    0    0    0  0.00000000000E+00  0.00000000000E+00  0.45593999997E+02  0.45594000000E+02  0.51100000000E-03 0. -1.
         11   -1    0    0    0    0 -0.00000000000E+00 -0.00000000000E+00 -0.45593999997E+02  0.45594000000E+02  0.51100000000E-03 0.  1.
    9900012    2    1    2    0    0 -0.22405696707E+02  0.25331119267E+02 -0.29756220268E+02  0.46142317711E+02  0.99999995446E+01 0.  0.
         12    1    1    2    0    0  0.22405696707E+02 -0.25331119267E+02  0.29756220268E+02  0.45045682289E+02  0.00000000000E+00 0. -1.
         11    1    3    3    0    0 -0.51963985205E+01  0.41701532250E+01 -0.91888135098E+01  0.11350199535E+02  0.51100000000E-03 0. -1.
        -11    1    3    3    0    0 -0.89559732320E-01  0.15233589734E+01 -0.30133071611E+01  0.33776713600E+01  0.51100000000E-03 0.  1.
         12    1    3    3    0    0 -0.17119738454E+02  0.19637607069E+02 -0.17554099597E+02  0.31414446816E+02  0.00000000000E+00 0. -1.
</event>
<event>
 7    1  0.2425980E-008  0.4614232E+02  0.7816164E-02  0.1320468E+00
        -11   -1    0    0    0    0  0.00000000000E+00  0.00000000000E+00  0.45593999997E+02  0.45594000000E+02  0.51100000000E-03 0. -1.
         11   -1    0    0    0    0 -0.00000000000E+00 -0.00000000000E+00 -0.45593999997E+02  0.45594000000E+02  0.51100000000E-03 0.  1.
    9900012    2    1    2    0    0  0.39348495243E+02 -0.20104766631E+02 -0.87525896749E+01  0.46142317131E+02  0.99999942499E+01 0.  0.
         12    1    1    2    0    0 -0.39348495243E+02  0.20104766631E+02  0.87525896749E+01  0.45045682869E+02  0.00000000000E+00 0. -1.
         11    1    3    3    0    0  0.33467588547E+01 -0.19263447352E+01 -0.27399639471E+01  0.47348708074E+01  0.51100000000E-03 0. -1.
        -11    1    3    3    0    0  0.27753827929E+02 -0.11092868153E+02 -0.62336103792E+01  0.30531698073E+02  0.51100000000E-03 0.  1.
        -12    1    3    3    0    0  0.82479084585E+01 -0.70855537430E+01  0.22098465140E+00  0.10875748250E+02  0.00000000000E+00 0.  1.
</event>
<event>
 7    1  0.2425980E-008  0.4614232E+02  0.7816164E-02  0.1320468E+00
        -11   -1    0    0    0    0  0.00000000000E+00  0.00000000000E+00  0.45593999997E+02  0.45594000000E+02  0.51100000000E-03 0. -1.
         11   -1    0    0    0    0 -0.00000000000E+00 -0.00000000000E+00 -0.45593999997E+02  0.45594000000E+02  0.51100000000E-03 0.  1.
    9900012    2    1    2    0    0 -0.38228558612E+02  0.17402635654E+02 -0.16273875022E+02  0.46142318415E+02  0.10000005961E+02 0.  0.
         12    1    1    2    0    0  0.38228558612E+02 -0.17402635654E+02  0.16273875022E+02  0.45045681585E+02  0.00000000000E+00 0. -1.
         11    1    3    3    0    0 -0.24563727269E+02  0.89268032197E+01 -0.95170673008E+01  0.27814368289E+02  0.51100000000E-03 0. -1.
        -11    1    3    3    0    0 -0.13009185633E+02  0.91066315931E+01 -0.70466009718E+01  0.17373089400E+02  0.51100000000E-03 0.  1.
         12    1    3    3    0    0 -0.65564571056E+00 -0.63079915879E+00  0.28979325094E+00  0.95486072533E+00  0.00000000000E+00 0. -1.
</event>
<event>
 7    1  0.2425980E-008  0.4614232E+02  0.7816164E-02  0.1320468E+00
        -11   -1    0    0    0    0  0.00000000000E+00  0.00000000000E+00  0.45593999997E+02  0.45594000000E+02  0.51100000000E-03 0.  1.
         11   -1    0    0    0    0 -0.00000000000E+00 -0.00000000000E+00 -0.45593999997E+02  0.45594000000E+02  0.51100000000E-03 0. -1.
    9900012    2    1    2    0    0  0.10176166042E+02  0.17714241798E+01  0.43845425970E+02  0.46142315662E+02  0.99999808615E+01 0.  0.
         12    1    1    2    0    0 -0.10176166042E+02 -0.17714241798E+01 -0.43845425970E+02  0.45045684338E+02  0.00000000000E+00 0. -1.
         11    1    3    3    0    0 -0.11884679663E+01 -0.10525609953E+01  0.32425514673E+01  0.36103297682E+01  0.51100000000E-03 0. -1.
        -11    1    3    3    0    0  0.79772811121E+01 -0.37975509012E-01  0.21814442611E+02  0.23227319320E+02  0.51100000000E-03 0.  1.
         12    1    3    3    0    0  0.33873528963E+01  0.28619606842E+01  0.18788431891E+02  0.19304666574E+02  0.00000000000E+00 0. -1.
</event>
<event>
 7    1  0.2425980E-008  0.4614232E+02  0.7816164E-02  0.1320468E+00
        -11   -1    0    0    0    0  0.00000000000E+00  0.00000000000E+00  0.45593999997E+02  0.45594000000E+02  0.51100000000E-03 0. -1.
         11   -1    0    0    0    0 -0.00000000000E+00 -0.00000000000E+00 -0.45593999997E+02  0.45594000000E+02  0.51100000000E-03 0.  1.
    9900012    2    1    2    0    0  0.74046998009E+01  0.77793062328E+01 -0.43746613656E+02  0.46142318843E+02  0.10000009861E+02 0.  0.
         12    1    1    2    0    0 -0.74046998009E+01 -0.77793062328E+01  0.43746613656E+02  0.45045681157E+02  0.00000000000E+00 0. -1.
         11    1    3    3    0    0  0.57660849887E+01  0.67143596703E+01 -0.17776938599E+02  0.19858245343E+02  0.51100000000E-03 0. -1.
        -11    1    3    3    0    0  0.47697227431E-01  0.18522787669E+01 -0.73491167086E+01  0.75790981201E+01  0.51100000000E-03 0.  1.
        -12    1    3    3    0    0  0.15909175848E+01 -0.78733220444E+00 -0.18620558348E+02  0.18704975380E+02  0.00000000000E+00 0.  1.
</event>
<event>
 7    1  0.2425980E-008  0.4614232E+02  0.7816164E-02  0.1320468E+00
        -11   -1    0    0    0    0  0.00000000000E+00  0.00000000000E+00  0.45593999997E+02  0.45594000000E+02  0.51100000000E-03 0.  1.
         11   -1    0    0    0    0 -0.00000000000E+00 -0.00000000000E+00 -0.45593999997E+02  0.45594000000E+02  0.51100000000E-03 0. -1.
    9900012    2    1    2    0    0 -0.19595407876E+02  0.39353311251E+02  0.98209142121E+01  0.46142317940E+02  0.10000001632E+02 0.  0.
         12    1    1    2    0    0  0.19595407876E+02 -0.39353311251E+02 -0.98209142121E+01  0.45045682060E+02  0.00000000000E+00 0. -1.
         11    1    3    3    0    0  0.10539338539E+01  0.27697949188E+01  0.15596476729E+00  0.29676363878E+01  0.51100000000E-03 0. -1.
        -11    1    3    3    0    0 -0.89136167103E+01  0.13392953265E+02  0.37261053813E+01  0.16513861498E+02  0.51100000000E-03 0.  1.
         12    1    3    3    0    0 -0.11735725020E+02  0.23190563068E+02  0.59388440635E+01  0.26660820054E+02  0.00000000000E+00 0. -1.
</event>
<event>
 7    1  0.2425980E-008  0.4614232E+02  0.7816164E-02  0.1320468E+00
        -11   -1    0    0    0    0  0.00000000000E+00  0.00000000000E+00  0.45593999997E+02  0.45594000000E+02  0.51100000000E-03 0.  1.
         11   -1    0    0    0    0 -0.00000000000E+00 -0.00000000000E+00 -0.45593999997E+02  0.45594000000E+02  0.51100000000E-03 0. -1.
    9900012    2    1    2    0    0 -0.13753130183E+02  0.24102006211E+02  0.35483210455E+02  0.46142317439E+02  0.99999970587E+01 0.  0.
         12    1    1    2    0    0  0.13753130183E+02 -0.24102006211E+02 -0.35483210455E+02  0.45045682561E+02  0.00000000000E+00 0. -1.
         11    1    3    3    0    0 -0.28207642424E+01  0.59187115230E+01  0.65845175579E+01  0.92921326258E+01  0.51100000000E-03 0. -1.
        -11    1    3    3    0    0 -0.87451205832E+01  0.10705879988E+02  0.23850088122E+02  0.27566641145E+02  0.51100000000E-03 0.  1.
        -12    1    3    3    0    0 -0.21872453576E+01  0.74774147005E+01  0.50486047748E+01  0.92835436677E+01  0.00000000000E+00 0.  1.
</event>
<event>
 7    1  0.2425980E-008  0.4614232E+02  0.7816164E-02  0.1320468E+00
        -11   -1    0    0    0    0  0.00000000000E+00  0.00000000000E+00  0.45593999997E+02  0.45594000000E+02  0.51100000000E-03 0.  1.
         11   -1    0    0    0    0 -0.00000000000E+00 -0.00000000000E+00 -0.45593999997E+02  0.45594000000E+02  0.51100000000E-03 0. -1.
    9900012    2    1    2    0    0 -0.87419528842E+00 -0.15935711737E+02  0.42123653471E+02  0.46142319766E+02  0.10000018282E+02 0.  0.
         12    1    1    2    0    0  0.87419528842E+00  0.15935711737E+02 -0.42123653471E+02  0.45045680234E+02  0.00000000000E+00 0. -1.
         11    1    3    3    0    0  0.58540787975E+00 -0.42198327222E+00  0.31524047053E+01  0.32339492814E+01  0.51100000000E-03 0. -1.
        -11    1    3    3    0    0  0.57538880145E+00  0.65726620643E+00  0.26863645561E+00  0.91391298566E+00  0.51100000000E-03 0.  1.
        -12    1    3    3    0    0 -0.20349919696E+01 -0.16170994671E+02  0.38702612310E+02  0.41994457499E+02  0.00000000000E+00 0.  1.
</event>
<event>
 7    1  0.2425980E-008  0.4614232E+02  0.7816164E-02  0.1320468E+00
        -11   -1    0    0    0    0  0.00000000000E+00  0.00000000000E+00  0.45593999997E+02  0.45594000000E+02  0.51100000000E-03 0.  1.
         11   -1    0    0    0    0 -0.00000000000E+00 -0.00000000000E+00 -0.45593999997E+02  0.45594000000E+02  0.51100000000E-03 0. -1.
    9900012    2    1    2    0    0 -0.94973060688E+01 -0.34352250478E+02  0.27547006820E+02  0.46142317408E+02  0.99999967824E+01 0.  0.
         12    1    1    2    0    0  0.94973060688E+01  0.34352250478E+02 -0.27547006820E+02  0.45045682592E+02  0.00000000000E+00 0. -1.
         11    1    3    3    0    0 -0.25264970519E+01 -0.92471624583E+01  0.12426424169E+02  0.15694241580E+02  0.51100000000E-03 0. -1.
        -11    1    3    3    0    0 -0.14566846363E+01 -0.32708365284E+01  0.38771638098E+01  0.52775658399E+01  0.51100000000E-03 0.  1.
         12    1    3    3    0    0 -0.55141243805E+01 -0.21834251491E+02  0.11243418841E+02  0.25170509989E+02  0.00000000000E+00 0. -1.
</event>
<event>
 7    1  0.2425980E-008  0.4614232E+02  0.7816164E-02  0.1320468E+00
        -11   -1    0    0    0    0  0.00000000000E+00  0.00000000000E+00  0.45593999997E+02  0.45594000000E+02  0.51100000000E-03 0. -1.
         11   -1    0    0    0    0 -0.00000000000E+00 -0.00000000000E+00 -0.45593999997E+02  0.45594000000E+02  0.51100000000E-03 0.  1.
    9900012    2    1    2    0    0  0.59288944457E+01  0.44510972051E+02 -0.35686245256E+01  0.46142317596E+02  0.99999984906E+01 0.  0.
         12    1    1    2    0    0 -0.59288944457E+01 -0.44510972051E+02  0.35686245256E+01  0.45045682404E+02  0.00000000000E+00 0. -1.
         11    1    3    3    0    0 -0.59430577484E+00  0.72844990273E+01  0.63395062559E+00  0.73361447021E+01  0.51100000000E-03 0. -1.
        -11    1    3    3    0    0  0.50839491101E+01  0.20329065143E+02  0.12505281649E+01  0.20992409321E+02  0.51100000000E-03 0.  1.
        -12    1    3    3    0    0  0.14392511104E+01  0.16897407880E+02 -0.54531033161E+01  0.17813763572E+02  0.00000000000E+00 0.  1.
</event>
<event>
 7    1  0.2425980E-008  0.4614232E+02  0.7816164E-02  0.1320468E+00
        -11   -1    0    0    0    0  0.00000000000E+00  0.00000000000E+00  0.45593999997E+02  0.45594000000E+02  0.51100000000E-03 0.  1.
         11   -1    0    0    0    0 -0.00000000000E+00 -0.00000000000E+00 -0.45593999997E+02  0.45594000000E+02  0.51100000000E-03 0. -1.
    9900012    2    1    2    0    0  0.22245049646E+02  0.33417275215E+02  0.20434210259E+02  0.46142318015E+02  0.10000002320E+02 0.  0.
         12    1    1    2    0    0 -0.22245049646E+02 -0.33417275215E+02 -0.20434210259E+02  0.45045681985E+02  0.00000000000E+00 0. -1.
         11    1    3    3    0    0  0.34579112810E+01  0.16901711581E+01  0.27055273026E+01  0.47046474063E+01  0.51100000000E-03 0. -1.
        -11    1    3    3    0    0  0.12336405327E+02  0.19609582455E+02  0.76146938281E+01  0.24386598427E+02  0.51100000000E-03 0.  1.
        -12    1    3    3    0    0  0.64507330385E+01  0.12117521601E+02  0.10113989128E+02  0.17051072183E+02  0.00000000000E+00 0.  1.
</event>
<event>
 7    1  0.2425980E-008  0.4614232E+02  0.7816164E-02  0.1320468E+00
        -11   -1    0    0    0    0  0.00000000000E+00  0.00000000000E+00  0.45593999997E+02  0.45594000000E+02  0.51100000000E-03 0.  1.
         11   -1    0    0    0    0 -0.00000000000E+00 -0.00000000000E+00 -0.45593999997E+02  0.45594000000E+02  0.51100000000E-03 0. -1.
    9900012    2    1    2    0    0 -0.29761869312E+02  0.12768322133E+02  0.31309974758E+02  0.46142318360E+02  0.10000005462E+02 0.  0.
         12    1    1    2    0    0  0.29761869312E+02 -0.12768322133E+02 -0.31309974758E+02  0.45045681640E+02  0.00000000000E+00 0. -1.
         11    1    3    3    0    0 -0.19789315080E+02  0.93828733605E+01  0.19119471684E+02  0.29072487021E+02  0.51100000000E-03 0. -1.
        -11    1    3    3    0    0 -0.51855241838E+01  0.28992826501E+01  0.29083719035E+01  0.66146903432E+01  0.51100000000E-03 0.  1.
         12    1    3    3    0    0 -0.47870300485E+01  0.48616612244E+00  0.92821311706E+01  0.10455140996E+02  0.00000000000E+00 0. -1.
</event>
<event>
 7    1  0.2425980E-008  0.4614232E+02  0.7816164E-02  0.1320468E+00
        -11   -1    0    0    0    0  0.00000000000E+00  0.00000000000E+00  0.45593999997E+02  0.45594000000E+02  0.51100000000E-03 0. -1.
         11   -1    0    0    0    0 -0.00000000000E+00 -0.00000000000E+00 -0.45593999997E+02  0.45594000000E+02  0.51100000000E-03 0.  1.
    9900012    2    1    2    0    0  0.23838440732E+02 -0.36642857085E+02 -0.10869366040E+02  0.46142319297E+02  0.10000014004E+02 0.  0.
         12    1    1    2    0    0 -0.23838440732E+02  0.36642857085E+02  0.10869366040E+02  0.45045680703E+02  0.00000000000E+00 0. -1.
         11    1    3    3    0    0  0.57176295514E+01 -0.26940473049E+01 -0.98208467814E+00  0.63963793777E+01  0.51100000000E-03 0. -1.
        -11    1    3    3    0    0  0.51116432341E+01 -0.86029261648E+01 -0.25955183830E+01  0.10338082563E+02  0.51100000000E-03 0.  1.
         12    1    3    3    0    0  0.13009167946E+02 -0.25345883616E+02 -0.72917629785E+01  0.29407857356E+02  0.00000000000E+00 0. -1.
</event>
<event>
 7    1  0.2425980E-008  0.4614232E+02  0.7816164E-02  0.1320468E+00
        -11   -1    0    0    0    0  0.00000000000E+00  0.00000000000E+00  0.45593999997E+02  0.45594000000E+02  0.51100000000E-03 0.  1.
         11   -1    0    0    0    0 -0.00000000000E+00 -0.00000000000E+00 -0.45593999997E+02  0.45594000000E+02  0.51100000000E-03 0. -1.
    9900012    2    1    2    0    0  0.27923146642E+02  0.34904160709E+02  0.55777073700E+01  0.46142319045E+02  0.10000011705E+02 0.  0.
         12    1    1    2    0    0 -0.27923146642E+02 -0.34904160709E+02 -0.55777073700E+01  0.45045680955E+02  0.00000000000E+00 0. -1.
         11    1    3    3    0    0  0.31782672358E+01  0.44901432559E+01 -0.15736819746E+01  0.57218217640E+01  0.51100000000E-03 0. -1.
        -11    1    3    3    0    0  0.23371868389E+02  0.25308574317E+02  0.68581845587E+01  0.35125530055E+02  0.51100000000E-03 0.  1.
        -12    1    3    3    0    0  0.13730110172E+01  0.51054431361E+01  0.29320478591E+00  0.52949672252E+01  0.00000000000E+00 0.  1.
</event>
<event>
 7    1  0.2425980E-008  0.4614232E+02  0.7816164E-02  0.1320468E+00
        -11   -1    0    0    0    0  0.00000000000E+00  0.00000000000E+00  0.45593999997E+02  0.45594000000E+02  0.51100000000E-03 0.  1.
         11   -1    0    0    0    0 -0.00000000000E+00 -0.00000000000E+00 -0.45593999997E+02  0.45594000000E+02  0.51100000000E-03 0. -1.
    9900012    2    1    2    0    0 -0.27251544201E+02 -0.32259471104E+02  0.15677804685E+02  0.46142315445E+02  0.99999788773E+01 0.  0.
         12    1    1    2    0    0  0.27251544201E+02  0.32259471104E+02 -0.15677804685E+02  0.45045684555E+02  0.00000000000E+00 0. -1.
         11    1    3    3    0    0 -0.90502859453E+01 -0.12431090397E+02  0.25271840964E+01  0.15582886250E+02  0.51100000000E-03 0. -1.
        -11    1    3    3    0    0 -0.63147425116E+01 -0.91349270685E+01  0.82576462274E+01  0.13838771153E+02  0.51100000000E-03 0.  1.
         12    1    3    3    0    0 -0.11886515745E+02 -0.10693453639E+02  0.48929743615E+01  0.16720658043E+02  0.00000000000E+00 0. -1.
</event>
<event>
 7    1  0.2425980E-008  0.4614233E+02  0.7816164E-02  0.1320468E+00
        -11   -1    0    0    0    0  0.00000000000E+00  0.00000000000E+00  0.45593999997E+02  0.45594000000E+02  0.51100000000E-03 0. -1.
         11   -1    0    0    0    0 -0.00000000000E+00 -0.00000000000E+00 -0.45593999997E+02  0.45594000000E+02  0.51100000000E-03 0.  1.
    9900012    2    1    2    0    0  0.38481148577E+02 -0.11714472155E+02 -0.20275225209E+02  0.46142329720E+02  0.10000109050E+02 0.  0.
         12    1    1    2    0    0 -0.38481148577E+02  0.11714472155E+02  0.20275225209E+02  0.45045670280E+02  0.00000000000E+00 0. -1.
         11    1    3    3    0    0  0.90851272475E+01 -0.43168929518E+01 -0.24141531426E+01  0.10344236923E+02  0.51100000000E-03 0. -1.
        -11    1    3    3    0    0  0.24947683964E+02 -0.86014435358E+01 -0.15723886133E+02  0.30718274064E+02  0.51100000000E-03 0.  1.
         12    1    3    3    0    0  0.44483373657E+01  0.12038643323E+01 -0.21371859337E+01  0.50798187335E+01  0.00000000000E+00 0. -1.
</event>
<event>
 7    1  0.2425980E-008  0.4614232E+02  0.7816164E-02  0.1320468E+00
        -11   -1    0    0    0    0  0.00000000000E+00  0.00000000000E+00  0.45593999997E+02  0.45594000000E+02  0.51100000000E-03 0.  1.
         11   -1    0    0    0    0 -0.00000000000E+00 -0.00000000000E+00 -0.45593999997E+02  0.45594000000E+02  0.51100000000E-03 0. -1.
    9900012    2    1    2    0    0 -0.29850782931E+02 -0.29394671845E+02  0.16552873468E+02  0.46142316582E+02  0.99999892505E+01 0.  0.
         12    1    1    2    0    0  0.29850782931E+02  0.29394671845E+02 -0.16552873468E+02  0.45045683418E+02  0.00000000000E+00 0. -1.
         11    1    3    3    0    0 -0.10680765369E+02 -0.57502896346E+01  0.28863724471E+01  0.12468990573E+02  0.51100000000E-03 0. -1.
        -11    1    3    3    0    0 -0.70618109557E+01 -0.88162256754E+01  0.75080203196E+01  0.13563383741E+02  0.51100000000E-03 0.  1.
         12    1    3    3    0    0 -0.12108206607E+02 -0.14828156535E+02  0.61584807013E+01  0.20109942268E+02  0.00000000000E+00 0. -1.
</event>
<event>
 7    1  0.2425980E-008  0.4614232E+02  0.7816164E-02  0.1320468E+00
        -11   -1    0    0    0    0  0.00000000000E+00  0.00000000000E+00  0.45593999997E+02  0.45594000000E+02  0.51100000000E-03 0.  1.
         11   -1    0    0    0    0 -0.00000000000E+00 -0.00000000000E+00 -0.45593999997E+02  0.45594000000E+02  0.51100000000E-03 0. -1.
    9900012    2    1    2    0    0 -0.70134108502E+01 -0.10778979146E+02  0.43171045279E+02  0.46142317924E+02  0.10000001489E+02 0.  0.
         12    1    1    2    0    0  0.70134108502E+01  0.10778979146E+02 -0.43171045279E+02  0.45045682076E+02  0.00000000000E+00 0. -1.
         11    1    3    3    0    0 -0.64622262037E-01 -0.25283729174E+01  0.26350686763E+01  0.36524557268E+01  0.51100000000E-03 0. -1.
        -11    1    3    3    0    0 -0.91054318807E+00 -0.36998573643E+01  0.24084557671E+02  0.24384092189E+02  0.51100000000E-03 0.  1.
         12    1    3    3    0    0 -0.60382454001E+01 -0.45507488642E+01  0.16451418932E+02  0.18105770008E+02  0.00000000000E+00 0. -1.
</event>
<event>
 7    1  0.2425980E-008  0.4614232E+02  0.7816164E-02  0.1320468E+00
        -11   -1    0    0    0    0  0.00000000000E+00  0.00000000000E+00  0.45593999997E+02  0.45594000000E+02  0.51100000000E-03 0.  1.
         11   -1    0    0    0    0 -0.00000000000E+00 -0.00000000000E+00 -0.45593999997E+02  0.45594000000E+02  0.51100000000E-03 0. -1.
    9900012    2    1    2    0    0  0.13820787639E+02  0.79616563087E+01  0.42127324781E+02  0.46142316130E+02  0.99999851239E+01 0.  0.
         12    1    1    2    0    0 -0.13820787639E+02 -0.79616563087E+01 -0.42127324781E+02  0.45045683870E+02  0.00000000000E+00 0. -1.
         11    1    3    3    0    0  0.65100923237E+00  0.23649567827E+01  0.13327220906E+02  0.13551075638E+02  0.51100000000E-03 0. -1.
        -11    1    3    3    0    0 -0.13775869887E-01  0.13726545440E+01  0.33338743106E+01  0.36054248642E+01  0.51100000000E-03 0.  1.
        -12    1    3    3    0    0  0.13183554277E+02  0.42240449820E+01  0.25466229564E+02  0.28985815628E+02  0.00000000000E+00 0.  1.
</event>
<event>
 7    1  0.2425980E-008  0.4614231E+02  0.7816164E-02  0.1320468E+00
        -11   -1    0    0    0    0  0.00000000000E+00  0.00000000000E+00  0.45593999997E+02  0.45594000000E+02  0.51100000000E-03 0.  1.
         11   -1    0    0    0    0 -0.00000000000E+00 -0.00000000000E+00 -0.45593999997E+02  0.45594000000E+02  0.51100000000E-03 0. -1.
    9900012    2    1    2    0    0  0.24638054358E+02 -0.36806998570E+02  0.82051751503E+01  0.46142314685E+02  0.99999719468E+01 0.  0.
         12    1    1    2    0    0 -0.24638054358E+02  0.36806998570E+02 -0.82051751503E+01  0.45045685315E+02  0.00000000000E+00 0. -1.
         11    1    3    3    0    0  0.66698527762E+01 -0.11604598072E+02  0.28652753508E+01  0.13688076401E+02  0.51100000000E-03 0.  1.
        -11    1    3    3    0    0  0.17480913280E+02 -0.25733345320E+02  0.46468828994E+01  0.31454425943E+02  0.51100000000E-03 0. -1.
         12    1    3    3    0    0  0.48728830215E+00  0.53094482178E+00  0.69301690008E+00  0.99981234088E+00  0.00000000000E+00 0. -1.
</event>
<event>
 7    1  0.2425980E-008  0.4614232E+02  0.7816164E-02  0.1320468E+00
        -11   -1    0    0    0    0  0.00000000000E+00  0.00000000000E+00  0.45593999997E+02  0.45594000000E+02  0.51100000000E-03 0. -1.
         11   -1    0    0    0    0 -0.00000000000E+00 -0.00000000000E+00 -0.45593999997E+02  0.45594000000E+02  0.51100000000E-03 0.  1.
    9900012    2    1    2    0    0  0.36580843861E+02  0.22458278553E+02  0.13659469531E+02  0.46142317399E+02  0.99999966943E+01 0.  0.
         12    1    1    2    0    0 -0.36580843861E+02 -0.22458278553E+02 -0.13659469531E+02  0.45045682601E+02  0.00000000000E+00 0. -1.
         11    1    3    3    0    0  0.18192818845E+02  0.15297751278E+02  0.69845878504E+01  0.24774670923E+02  0.51100000000E-03 0. -1.
        -11    1    3    3    0    0  0.15628764350E+02  0.77521073369E+01  0.61451877533E+01  0.18496399003E+02  0.51100000000E-03 0.  1.
         12    1    3    3    0    0  0.27592606659E+01 -0.59158006122E+00  0.52969392750E+00  0.28712474724E+01  0.00000000000E+00 0. -1.
</event>
<event>
 7    1  0.2425980E-008  0.4614232E+02  0.7816164E-02  0.1320468E+00
        -11   -1    0    0    0    0  0.00000000000E+00  0.00000000000E+00  0.45593999997E+02  0.45594000000E+02  0.51100000000E-03 0.  1.
         11   -1    0    0    0    0 -0.00000000000E+00 -0.00000000000E+00 -0.45593999997E+02  0.45594000000E+02  0.51100000000E-03 0. -1.
    9900012    2    1    2    0    0  0.36536239938E+02  0.96257056132E+01  0.24526770192E+02  0.46142317705E+02  0.99999994869E+01 0.  0.
         12    1    1    2    0    0 -0.36536239938E+02 -0.96257056132E+01 -0.24526770192E+02  0.45045682295E+02  0.00000000000E+00 0. -1.
         11    1    3    3    0    0  0.70160084640E+01  0.51993997063E+01  0.72678965067E+01  0.11361357840E+02  0.51100000000E-03 0. -1.
        -11    1    3    3    0    0  0.10421833771E+02  0.36887262674E+01  0.70607071361E+01  0.13117732508E+02  0.51100000000E-03 0.  1.
         12    1    3    3    0    0  0.19098397703E+02  0.73757963947E+00  0.10198166550E+02  0.21663227357E+02  0.00000000000E+00 0. -1.
</event>
<event>
 7    1  0.2425980E-008  0.4614232E+02  0.7816164E-02  0.1320468E+00
        -11   -1    0    0    0    0  0.00000000000E+00  0.00000000000E+00  0.45593999997E+02  0.45594000000E+02  0.51100000000E-03 0.  1.
         11   -1    0    0    0    0 -0.00000000000E+00 -0.00000000000E+00 -0.45593999997E+02  0.45594000000E+02  0.51100000000E-03 0. -1.
    9900012    2    1    2    0    0 -0.31413525124E+02 -0.31709178242E+02 -0.60689340369E+01  0.46142317567E+02  0.99999982280E+01 0.  0.
         12    1    1    2    0    0  0.31413525124E+02  0.31709178242E+02  0.60689340369E+01  0.45045682433E+02  0.00000000000E+00 0. -1.
         11    1    3    3    0    0 -0.10719886706E+01 -0.18101386950E+01  0.59988914688E+00  0.21876080670E+01  0.51100000000E-03 0. -1.
        -11    1    3    3    0    0 -0.21798463440E+02 -0.26305459943E+02 -0.57045081028E+01  0.34636565132E+02  0.51100000000E-03 0.  1.
        -12    1    3    3    0    0 -0.85430730139E+01 -0.35935796039E+01 -0.96431508105E+00  0.93181443682E+01  0.00000000000E+00 0.  1.
</event>
<event>
 7    1  0.2425980E-008  0.4614232E+02  0.7816164E-02  0.1320468E+00
        -11   -1    0    0    0    0  0.00000000000E+00  0.00000000000E+00  0.45593999997E+02  0.45594000000E+02  0.51100000000E-03 0. -1.
         11   -1    0    0    0    0 -0.00000000000E+00 -0.00000000000E+00 -0.45593999997E+02  0.45594000000E+02  0.51100000000E-03 0.  1.
    9900012    2    1    2    0    0  0.25180510828E+02 -0.57823571772E+01 -0.36900133492E+02  0.46142316169E+02  0.99999854816E+01 0.  0.
         12    1    1    2    0    0 -0.25180510828E+02  0.57823571772E+01  0.36900133492E+02  0.45045683831E+02  0.00000000000E+00 0. -1.
         11    1    3    3    0    0  0.17793190470E+01 -0.10951274841E+01 -0.55674893110E+01  0.59466139917E+01  0.51100000000E-03 0. -1.
        -11    1    3    3    0    0  0.83379261718E+01 -0.41528736011E+01 -0.17061631772E+02  0.19438792426E+02  0.51100000000E-03 0.  1.
        -12    1    3    3    0    0  0.15063265609E+02 -0.53435609203E+00 -0.14271012409E+02  0.20756909751E+02  0.00000000000E+00 0.  1.
</event>
<event>
 7    1  0.2425980E-008  0.4614232E+02  0.7816164E-02  0.1320468E+00
        -11   -1    0    0    0    0  0.00000000000E+00  0.00000000000E+00  0.45593999997E+02  0.45594000000E+02  0.51100000000E-03 0.  1.
         11   -1    0    0    0    0 -0.00000000000E+00 -0.00000000000E+00 -0.45593999997E+02  0.45594000000E+02  0.51100000000E-03 0. -1.
    9900012    2    1    2    0    0  0.12569358818E+00  0.11669971618E+02  0.43507578903E+02  0.46142318093E+02  0.10000003030E+02 0.  0.
         12    1    1    2    0    0 -0.12569358818E+00 -0.11669971618E+02 -0.43507578903E+02  0.45045681907E+02  0.00000000000E+00 0. -1.
         11    1    3    3    0    0 -0.42496981165E+00  0.54926504912E+00 -0.78185317071E-01  0.69885952803E+00  0.51100000000E-03 0. -1.
        -11    1    3    3    0    0 -0.16083842063E+01  0.32168521367E+01  0.23127390479E+02  0.23405367506E+02  0.51100000000E-03 0.  1.
        -12    1    3    3    0    0  0.21590476061E+01  0.79038544322E+01  0.20458373740E+02  0.22038091060E+02  0.00000000000E+00 0.  1.
</event>
<event>
 7    1  0.2425980E-008  0.4614233E+02  0.7816164E-02  0.1320468E+00
        -11   -1    0    0    0    0  0.00000000000E+00  0.00000000000E+00  0.45593999997E+02  0.45594000000E+02  0.51100000000E-03 0. -1.
         11   -1    0    0    0    0 -0.00000000000E+00 -0.00000000000E+00 -0.45593999997E+02  0.45594000000E+02  0.51100000000E-03 0.  1.
    9900012    2    1    2    0    0  0.26881392109E+02 -0.82566821159E+00 -0.36136156209E+02  0.46142325898E+02  0.10000074202E+02 0.  0.
         12    1    1    2    0    0 -0.26881392109E+02  0.82566821159E+00  0.36136156209E+02  0.45045674102E+02  0.00000000000E+00 0. -1.
         11    1    3    3    0    0  0.76350207459E+01 -0.29177508504E+01 -0.95267196307E+01  0.12552497720E+02  0.51100000000E-03 0. -1.
        -11    1    3    3    0    0  0.14718455117E+02 -0.80188120725E+00 -0.16387592088E+02  0.22041531463E+02  0.51100000000E-03 0.  1.
        -12    1    3    3    0    0  0.45279162462E+01  0.28939638461E+01 -0.10221844490E+02  0.11548296716E+02  0.00000000000E+00 0.  1.
</event>
<event>
 7    1  0.2425980E-008  0.4614232E+02  0.7816164E-02  0.1320468E+00
        -11   -1    0    0    0    0  0.00000000000E+00  0.00000000000E+00  0.45593999997E+02  0.45594000000E+02  0.51100000000E-03 0. -1.
         11   -1    0    0    0    0 -0.00000000000E+00 -0.00000000000E+00 -0.45593999997E+02  0.45594000000E+02  0.51100000000E-03 0.  1.
    9900012    2    1    2    0    0 -0.17144868446E+02  0.23660299114E+02 -0.34283482616E+02  0.46142318204E+02  0.10000004036E+02 0.  0.
         12    1    1    2    0    0  0.17144868446E+02 -0.23660299114E+02  0.34283482616E+02  0.45045681796E+02  0.00000000000E+00 0. -1.
         11    1    3    3    0    0 -0.13081697107E+02  0.20081440270E+02 -0.30730713673E+02  0.38971422935E+02  0.51100000000E-03 0. -1.
        -11    1    3    3    0    0 -0.39746660631E+01  0.37141319076E+01 -0.39627204104E+01  0.67302228382E+01  0.51100000000E-03 0.  1.
         12    1    3    3    0    0 -0.88505275611E-01 -0.13527306333E+00  0.40995146690E+00  0.44067243014E+00  0.00000000000E+00 0. -1.
</event>
<event>
 7    1  0.2425980E-008  0.4614232E+02  0.7816164E-02  0.1320468E+00
        -11   -1    0    0    0    0  0.00000000000E+00  0.00000000000E+00  0.45593999997E+02  0.45594000000E+02  0.51100000000E-03 0.  1.
         11   -1    0    0    0    0 -0.00000000000E+00 -0.00000000000E+00 -0.45593999997E+02  0.45594000000E+02  0.51100000000E-03 0. -1.
    9900012    2    1    2    0    0 -0.94349052823E+01  0.67129947399E+01  0.43531961846E+02  0.46142318318E+02  0.10000005077E+02 0.  0.
         12    1    1    2    0    0  0.94349052823E+01 -0.67129947399E+01 -0.43531961846E+02  0.45045681682E+02  0.00000000000E+00 0. -1.
         11    1    3    3    0    0 -0.28414154608E+01  0.64028829467E+01  0.19472632270E+02  0.20694297757E+02  0.51100000000E-03 0. -1.
        -11    1    3    3    0    0 -0.50861852725E+01 -0.25606552620E+00  0.93165602046E+01  0.10617586566E+02  0.51100000000E-03 0.  1.
        -12    1    3    3    0    0 -0.15073045490E+01  0.56617731940E+00  0.14742769371E+02  0.14830433995E+02  0.00000000000E+00 0.  1.
</event>
<event>
 7    1  0.2463047E-008  0.4614232E+02  0.7816164E-02  0.1320468E+00
        -11   -1    0    0    0    0  0.00000000000E+00  0.00000000000E+00  0.45593999997E+02  0.45594000000E+02  0.51100000000E-03 0.  1.
         11   -1    0    0    0    0 -0.00000000000E+00 -0.00000000000E+00 -0.45593999997E+02  0.45594000000E+02  0.51100000000E-03 0. -1.
    9900012    2    1    2    0    0  0.34898086358E+02  0.28460560889E+02  0.11106081989E+01  0.46142318652E+02  0.10000008123E+02 0.  0.
         12    1    1    2    0    0 -0.34898086358E+02 -0.28460560889E+02 -0.11106081989E+01  0.45045681348E+02  0.00000000000E+00 0. -1.
         11    1    3    3    0    0  0.20339682190E+01  0.13268660710E+01 -0.14890387668E+01  0.28486552961E+01  0.51100000000E-03 0.  1.
        -11    1    3    3    0    0  0.99929627253E+01  0.94783925258E+01 -0.23727477098E+01  0.13976020924E+02  0.51100000000E-03 0. -1.
        -12    1    3    3    0    0  0.22871155413E+02  0.17655302292E+02  0.49723946755E+01  0.29317642432E+02  0.00000000000E+00 0.  1.
</event>
<event>
 7    1  0.2425980E-008  0.4614232E+02  0.7816164E-02  0.1320468E+00
        -11   -1    0    0    0    0  0.00000000000E+00  0.00000000000E+00  0.45593999997E+02  0.45594000000E+02  0.51100000000E-03 0.  1.
         11   -1    0    0    0    0 -0.00000000000E+00 -0.00000000000E+00 -0.45593999997E+02  0.45594000000E+02  0.51100000000E-03 0. -1.
    9900012    2    1    2    0    0 -0.31432731241E+02 -0.19287344442E+02  0.25866875331E+02  0.46142317762E+02  0.10000000007E+02 0.  0.
         12    1    1    2    0    0  0.31432731241E+02  0.19287344442E+02 -0.25866875331E+02  0.45045682238E+02  0.00000000000E+00 0. -1.
         11    1    3    3    0    0 -0.19951271499E+02 -0.91484286569E+01  0.18163745193E+02  0.28489798543E+02  0.51100000000E-03 0. -1.
        -11    1    3    3    0    0 -0.27680464286E+00  0.25816446554E+00  0.79102032477E+00  0.87691682439E+00  0.51100000000E-03 0.  1.
         12    1    3    3    0    0 -0.11204655099E+02 -0.10397080251E+02  0.69121098133E+01  0.16775602394E+02  0.00000000000E+00 0. -1.
</event>
<event>
 7    1  0.2425980E-008  0.4614232E+02  0.7816164E-02  0.1320468E+00
        -11   -1    0    0    0    0  0.00000000000E+00  0.00000000000E+00  0.45593999997E+02  0.45594000000E+02  0.51100000000E-03 0.  1.
         11   -1    0    0    0    0 -0.00000000000E+00 -0.00000000000E+00 -0.45593999997E+02  0.45594000000E+02  0.51100000000E-03 0. -1.
    9900012    2    1    2    0    0 -0.24788542980E+02  0.36398855977E+01  0.37435181750E+02  0.46142318044E+02  0.10000002579E+02 0.  0.
         12    1    1    2    0    0  0.24788542980E+02 -0.36398855977E+01 -0.37435181750E+02  0.45045681956E+02  0.00000000000E+00 0. -1.
         11    1    3    3    0    0 -0.10080068571E+02 -0.77672710051E+00  0.17237249088E+02  0.19983339155E+02  0.51100000000E-03 0. -1.
        -11    1    3    3    0    0 -0.65350134270E+01 -0.11514883782E+01  0.67442952348E+01  0.94613870257E+01  0.51100000000E-03 0.  1.
        -12    1    3    3    0    0 -0.81734609826E+01  0.55681010764E+01  0.13453637427E+02  0.16697591864E+02  0.00000000000E+00 0.  1.
</event>
<event>
 7    1  0.2425980E-008  0.4614232E+02  0.7816164E-02  0.1320468E+00
        -11   -1    0    0    0    0  0.00000000000E+00  0.00000000000E+00  0.45593999997E+02  0.45594000000E+02  0.51100000000E-03 0.  1.
         11   -1    0    0    0    0 -0.00000000000E+00 -0.00000000000E+00 -0.45593999997E+02  0.45594000000E+02  0.51100000000E-03 0. -1.
    9900012    2    1    2    0    0 -0.20566252598E+02  0.40025505494E+02  0.20252481378E+01  0.46142318010E+02  0.10000002266E+02 0.  0.
         12    1    1    2    0    0  0.20566252598E+02 -0.40025505494E+02 -0.20252481378E+01  0.45045681990E+02  0.00000000000E+00 0. -1.
         11    1    3    3    0    0 -0.51016490372E+01  0.60221488561E+01  0.24913924906E+01  0.82764809277E+01  0.51100000000E-03 0. -1.
        -11    1    3    3    0    0 -0.14615441866E+02  0.33997705338E+02 -0.34273997519E+00  0.37007736761E+02  0.51100000000E-03 0.  1.
         12    1    3    3    0    0 -0.84916169478E+00  0.56512998735E-02 -0.12340437766E+00  0.85810032135E+00  0.00000000000E+00 0. -1.
</event>
<event>
 7    1  0.2425980E-008  0.4614232E+02  0.7816164E-02  0.1320468E+00
        -11   -1    0    0    0    0  0.00000000000E+00  0.00000000000E+00  0.45593999997E+02  0.45594000000E+02  0.51100000000E-03 0.  1.
         11   -1    0    0    0    0 -0.00000000000E+00 -0.00000000000E+00 -0.45593999997E+02  0.45594000000E+02  0.51100000000E-03 0. -1.
    9900012    2    1    2    0    0  0.26764369961E+02  0.36230802218E+02  0.33243138094E+00  0.46142322745E+02  0.10000045449E+02 0.  0.
         12    1    1    2    0    0 -0.26764369961E+02 -0.36230802218E+02 -0.33243138094E+00  0.45045677255E+02  0.00000000000E+00 0. -1.
         11    1    3    3    0    0  0.24252013550E+01  0.60844358441E+01 -0.21167498608E+01  0.68835013901E+01  0.51100000000E-03 0. -1.
        -11    1    3    3    0    0  0.23945895468E+02  0.29896183733E+02  0.31323993441E+01  0.38431752984E+02  0.51100000000E-03 0.  1.
        -12    1    3    3    0    0  0.39327313813E+00  0.25018264066E+00 -0.68321810238E+00  0.82706837098E+00  0.00000000000E+00 0.  1.
</event>
<event>
 7    1  0.2957401E-008  0.4614232E+02  0.7816164E-02  0.1320468E+00
        -11   -1    0    0    0    0  0.00000000000E+00  0.00000000000E+00  0.45593999997E+02  0.45594000000E+02  0.51100000000E-03 0. -1.
         11   -1    0    0    0    0 -0.00000000000E+00 -0.00000000000E+00 -0.45593999997E+02  0.45594000000E+02  0.51100000000E-03 0.  1.
    9900012    2    1    2    0    0  0.39192907610E+02  0.21074501905E+02  0.69924868748E+01  0.46142317519E+02  0.99999977930E+01 0.  0.
         12    1    1    2    0    0 -0.39192907610E+02 -0.21074501905E+02 -0.69924868748E+01  0.45045682481E+02  0.00000000000E+00 0. -1.
         11    1    3    3    0    0  0.69545073068E-01  0.11566257896E+01  0.68447437977E-01  0.11607347015E+01  0.51100000000E-03 0. -1.
        -11    1    3    3    0    0  0.87742300954E+01  0.14265532625E+01  0.18897744995E+01  0.90880919833E+01  0.51100000000E-03 0.  1.
        -12    1    3    3    0    0  0.30349132442E+02  0.18491322852E+02  0.50342649374E+01  0.35893490834E+02  0.00000000000E+00 0.  1.
</event>
<event>
 7    1  0.2425980E-008  0.4614232E+02  0.7816164E-02  0.1320468E+00
        -11   -1    0    0    0    0  0.00000000000E+00  0.00000000000E+00  0.45593999997E+02  0.45594000000E+02  0.51100000000E-03 0.  1.
         11   -1    0    0    0    0 -0.00000000000E+00 -0.00000000000E+00 -0.45593999997E+02  0.45594000000E+02  0.51100000000E-03 0. -1.
    9900012    2    1    2    0    0 -0.34402513778E+02  0.20919874891E+02  0.20197506644E+02  0.46142318805E+02  0.10000009520E+02 0.  0.
         12    1    1    2    0    0  0.34402513778E+02 -0.20919874891E+02 -0.20197506644E+02  0.45045681195E+02  0.00000000000E+00 0. -1.
         11    1    3    3    0    0 -0.76221555225E+01  0.53336414986E+01  0.66311561291E+01  0.11424413259E+02  0.51100000000E-03 0. -1.
        -11    1    3    3    0    0 -0.15376643173E+02  0.66400752528E+01  0.10891960379E+02  0.19979153030E+02  0.51100000000E-03 0.  1.
         12    1    3    3    0    0 -0.11403715082E+02  0.89461581398E+01  0.26743901360E+01  0.14738752516E+02  0.00000000000E+00 0. -1.
</event>
<event>
 7    1  0.2425980E-008  0.4614232E+02  0.7816164E-02  0.1320468E+00
        -11   -1    0    0    0    0  0.00000000000E+00  0.00000000000E+00  0.45593999997E+02  0.45594000000E+02  0.51100000000E-03 0.  1.
         11   -1    0    0    0    0 -0.00000000000E+00 -0.00000000000E+00 -0.45593999997E+02  0.45594000000E+02  0.51100000000E-03 0. -1.
    9900012    2    1    2    0    0 -0.43114445434E+02  0.12759198223E+02  0.27314889880E+01  0.46142316783E+02  0.99999910801E+01 0.  0.
         12    1    1    2    0    0  0.43114445434E+02 -0.12759198223E+02 -0.27314889880E+01  0.45045683217E+02  0.00000000000E+00 0. -1.
         11    1    3    3    0    0 -0.37516646533E+01  0.65582864236E+00 -0.31428652135E+00  0.38215016888E+01  0.51100000000E-03 0. -1.
        -11    1    3    3    0    0 -0.38866520802E+02  0.10371129935E+02  0.20890414166E+01  0.40280651307E+02  0.51100000000E-03 0.  1.
         12    1    3    3    0    0 -0.49625997899E+00  0.17322396452E+01  0.95673409279E+00  0.20401637874E+01  0.00000000000E+00 0. -1.
</event>
<event>
 7    1  0.2425980E-008  0.4614232E+02  0.7816164E-02  0.1320468E+00
        -11   -1    0    0    0    0  0.00000000000E+00  0.00000000000E+00  0.45593999997E+02  0.45594000000E+02  0.51100000000E-03 0.  1.
         11   -1    0    0    0    0 -0.00000000000E+00 -0.00000000000E+00 -0.45593999997E+02  0.45594000000E+02  0.51100000000E-03 0. -1.
    9900012    2    1    2    0    0 -0.36677832651E+02  0.69457291260E+01  0.25211245574E+02  0.46142318027E+02  0.10000002421E+02 0.  0.
         12    1    1    2    0    0  0.36677832651E+02 -0.69457291260E+01 -0.25211245574E+02  0.45045681973E+02  0.00000000000E+00 0. -1.
         11    1    3    3    0    0 -0.81481125515E+00  0.90869760937E+00  0.34354719454E+01  0.36458354976E+01  0.51100000000E-03 0. -1.
        -11    1    3    3    0    0 -0.68046836174E+01  0.23405685764E+01  0.45734523086E+01  0.85263384095E+01  0.51100000000E-03 0.  1.
        -12    1    3    3    0    0 -0.29058337778E+02  0.36964629402E+01  0.17202321320E+02  0.33970144119E+02  0.00000000000E+00 0.  1.
</event>
<event>
 7    1  0.2425980E-008  0.4614232E+02  0.7816164E-02  0.1320468E+00
        -11   -1    0    0    0    0  0.00000000000E+00  0.00000000000E+00  0.45593999997E+02  0.45594000000E+02  0.51100000000E-03 0. -1.
         11   -1    0    0    0    0 -0.00000000000E+00 -0.00000000000E+00 -0.45593999997E+02  0.45594000000E+02  0.51100000000E-03 0.  1.
    9900012    2    1    2    0    0 -0.34184354209E+02 -0.23292193262E+02 -0.17833036674E+02  0.46142317225E+02  0.99999951111E+01 0.  0.
         12    1    1    2    0    0  0.34184354209E+02  0.23292193262E+02  0.17833036674E+02  0.45045682775E+02  0.00000000000E+00 0. -1.
         11    1    3    3    0    0 -0.53110098803E+01 -0.23188014692E+01 -0.78148477990E+00  0.58475965084E+01  0.51100000000E-03 0.  1.
        -11    1    3    3    0    0 -0.84347929597E+01 -0.90802325164E+01 -0.89924819438E+01  0.15312122211E+02  0.51100000000E-03 0. -1.
        -12    1    3    3    0    0 -0.20438551369E+02 -0.11893159277E+02 -0.80590699500E+01  0.24982598506E+02  0.00000000000E+00 0.  1.
</event>
<event>
 7    1  0.2425980E-008  0.4614232E+02  0.7816164E-02  0.1320468E+00
        -11   -1    0    0    0    0  0.00000000000E+00  0.00000000000E+00  0.45593999997E+02  0.45594000000E+02  0.51100000000E-03 0.  1.
         11   -1    0    0    0    0 -0.00000000000E+00 -0.00000000000E+00 -0.45593999997E+02  0.45594000000E+02  0.51100000000E-03 0. -1.
    9900012    2    1    2    0    0  0.32032255042E+02 -0.11562776694E+02  0.29484747036E+02  0.46142317901E+02  0.10000001276E+02 0.  0.
         12    1    1    2    0    0 -0.32032255042E+02  0.11562776694E+02 -0.29484747036E+02  0.45045682099E+02  0.00000000000E+00 0. -1.
         11    1    3    3    0    0  0.48177034303E+01 -0.32192343094E+01  0.13803606004E+01  0.59564361433E+01  0.51100000000E-03 0. -1.
        -11    1    3    3    0    0  0.89103106848E+01 -0.43575875949E+01  0.11100840569E+02  0.14886600275E+02  0.51100000000E-03 0.  1.
         12    1    3    3    0    0  0.18304240927E+02 -0.39859547898E+01  0.17003545867E+02  0.25299281483E+02  0.00000000000E+00 0. -1.
</event>
<event>
 7    1  0.2425980E-008  0.4614232E+02  0.7816164E-02  0.1320468E+00
        -11   -1    0    0    0    0  0.00000000000E+00  0.00000000000E+00  0.45593999997E+02  0.45594000000E+02  0.51100000000E-03 0.  1.
         11   -1    0    0    0    0 -0.00000000000E+00 -0.00000000000E+00 -0.45593999997E+02  0.45594000000E+02  0.51100000000E-03 0. -1.
    9900012    2    1    2    0    0 -0.47689906150E+01  0.82510001972E+01  0.44026026892E+02  0.46142319634E+02  0.10000017075E+02 0.  0.
         12    1    1    2    0    0  0.47689906150E+01 -0.82510001972E+01 -0.44026026892E+02  0.45045680366E+02  0.00000000000E+00 0. -1.
         11    1    3    3    0    0 -0.39163562637E+01  0.72882942199E+01  0.22506093787E+02  0.23978768459E+02  0.51100000000E-03 0. -1.
        -11    1    3    3    0    0 -0.14150543243E+01  0.26761404296E+01  0.17468769149E+02  0.17729128635E+02  0.51100000000E-03 0.  1.
         12    1    3    3    0    0  0.56241997311E+00 -0.17134344523E+01  0.40511639570E+01  0.44344225390E+01  0.00000000000E+00 0. -1.
</event>
<event>
 7    1  0.2425980E-008  0.4614232E+02  0.7816164E-02  0.1320468E+00
        -11   -1    0    0    0    0  0.00000000000E+00  0.00000000000E+00  0.45593999997E+02  0.45594000000E+02  0.51100000000E-03 0.  1.
         11   -1    0    0    0    0 -0.00000000000E+00 -0.00000000000E+00 -0.45593999997E+02  0.45594000000E+02  0.51100000000E-03 0. -1.
    9900012    2    1    2    0    0 -0.10484800678E+01 -0.81884417825E+01  0.44282768603E+02  0.46142317805E+02  0.10000000399E+02 0.  0.
         12    1    1    2    0    0  0.10484800678E+01  0.81884417825E+01 -0.44282768603E+02  0.45045682195E+02  0.00000000000E+00 0. -1.
         11    1    3    3    0    0 -0.21760306201E+00 -0.60878782572E+01  0.31487807563E+02  0.32071664100E+02  0.51100000000E-03 0.  1.
        -11    1    3    3    0    0  0.16086509237E+01  0.91434763233E+00  0.55888654012E+01  0.58872069881E+01  0.51100000000E-03 0. -1.
        -12    1    3    3    0    0 -0.24395279296E+01 -0.30149111576E+01  0.72060956391E+01  0.81834467168E+01  0.00000000000E+00 0.  1.
</event>
<event>
 7    1  0.2425980E-008  0.4614232E+02  0.7816164E-02  0.1320468E+00
        -11   -1    0    0    0    0  0.00000000000E+00  0.00000000000E+00  0.45593999997E+02  0.45594000000E+02  0.51100000000E-03 0.  1.
         11   -1    0    0    0    0 -0.00000000000E+00 -0.00000000000E+00 -0.45593999997E+02  0.45594000000E+02  0.51100000000E-03 0. -1.
    9900012    2    1    2    0    0 -0.35243349578E+02 -0.45118505467E+01  0.27688681946E+02  0.46142316603E+02  0.99999894352E+01 0.  0.
         12    1    1    2    0    0  0.35243349578E+02  0.45118505467E+01 -0.27688681946E+02  0.45045683397E+02  0.00000000000E+00 0. -1.
         11    1    3    3    0    0 -0.26998014298E+02 -0.43836963533E+01  0.25051518265E+02  0.37090270118E+02  0.51100000000E-03 0.  1.
        -11    1    3    3    0    0 -0.36872213722E-01 -0.26001987432E+00  0.50650202591E+00  0.57053874413E+00  0.51100000000E-03 0. -1.
        -12    1    3    3    0    0 -0.82084630663E+01  0.13186568096E+00  0.21306616552E+01  0.84815077408E+01  0.00000000000E+00 0.  1.
</event>
<event>
 7    1  0.2425980E-008  0.4614232E+02  0.7816164E-02  0.1320468E+00
        -11   -1    0    0    0    0  0.00000000000E+00  0.00000000000E+00  0.45593999997E+02  0.45594000000E+02  0.51100000000E-03 0.  1.
         11   -1    0    0    0    0 -0.00000000000E+00 -0.00000000000E+00 -0.45593999997E+02  0.45594000000E+02  0.51100000000E-03 0. -1.
    9900012    2    1    2    0    0  0.32421895888E+02  0.30545689414E+02  0.67003712781E+01  0.46142318187E+02  0.10000003881E+02 0.  0.
         12    1    1    2    0    0 -0.32421895888E+02 -0.30545689414E+02 -0.67003712781E+01  0.45045681813E+02  0.00000000000E+00 0. -1.
         11    1    3    3    0    0  0.37760154978E+01  0.56310469789E+01 -0.43915963866E+00  0.67941036618E+01  0.51100000000E-03 0. -1.
        -11    1    3    3    0    0  0.25102725292E+02  0.20394822388E+02  0.34609464960E+01  0.32528045565E+02  0.51100000000E-03 0.  1.
         12    1    3    3    0    0  0.35431550979E+01  0.45198200470E+01  0.36785844207E+01  0.68201689602E+01  0.00000000000E+00 0. -1.
</event>
<event>
 7    1  0.2425980E-008  0.4614232E+02  0.7816164E-02  0.1320468E+00
        -11   -1    0    0    0    0  0.00000000000E+00  0.00000000000E+00  0.45593999997E+02  0.45594000000E+02  0.51100000000E-03 0.  1.
         11   -1    0    0    0    0 -0.00000000000E+00 -0.00000000000E+00 -0.45593999997E+02  0.45594000000E+02  0.51100000000E-03 0. -1.
    9900012    2    1    2    0    0  0.61488689956E+01 -0.15076405191E+02  0.42000078876E+02  0.46142320862E+02  0.10000028280E+02 0.  0.
         12    1    1    2    0    0 -0.61488689956E+01  0.15076405191E+02 -0.42000078876E+02  0.45045679138E+02  0.00000000000E+00 0. -1.
         11    1    3    3    0    0  0.47144107152E+01 -0.47450802894E+01  0.12295046320E+02  0.13996771757E+02  0.51100000000E-03 0.  1.
        -11    1    3    3    0    0 -0.16345412379E+01 -0.85157339277E+01  0.22304750695E+02  0.23930970586E+02  0.51100000000E-03 0. -1.
        -12    1    3    3    0    0  0.30689995183E+01 -0.18155909738E+01  0.74002818605E+01  0.82145785189E+01  0.00000000000E+00 0.  1.
</event>
<event>
 7    1  0.2425980E-008  0.4614232E+02  0.7816164E-02  0.1320468E+00
        -11   -1    0    0    0    0  0.00000000000E+00  0.00000000000E+00  0.45593999997E+02  0.45594000000E+02  0.51100000000E-03 0.  1.
         11   -1    0    0    0    0 -0.00000000000E+00 -0.00000000000E+00 -0.45593999997E+02  0.45594000000E+02  0.51100000000E-03 0. -1.
    9900012    2    1    2    0    0 -0.66106511174E+01 -0.37912563839E+02  0.23410474657E+02  0.46142317314E+02  0.99999959186E+01 0.  0.
         12    1    1    2    0    0  0.66106511174E+01  0.37912563839E+02 -0.23410474657E+02  0.45045682686E+02  0.00000000000E+00 0. -1.
         11    1    3    3    0    0  0.48986318382E+00 -0.27917083817E+00  0.17977595185E+01  0.18841023972E+01  0.51100000000E-03 0. -1.
        -11    1    3    3    0    0 -0.31791614108E+01 -0.28523616885E+02  0.15778581107E+02  0.32751601632E+02  0.51100000000E-03 0.  1.
        -12    1    3    3    0    0 -0.39213528904E+01 -0.91097761157E+01  0.58341340321E+01  0.11506613284E+02  0.00000000000E+00 0.  1.
</event>
<event>
 7    1  0.2425980E-008  0.4614232E+02  0.7816164E-02  0.1320468E+00
        -11   -1    0    0    0    0  0.00000000000E+00  0.00000000000E+00  0.45593999997E+02  0.45594000000E+02  0.51100000000E-03 0.  1.
         11   -1    0    0    0    0 -0.00000000000E+00 -0.00000000000E+00 -0.45593999997E+02  0.45594000000E+02  0.51100000000E-03 0. -1.
    9900012    2    1    2    0    0  0.10556482959E+02 -0.32458539927E+02  0.29395872845E+02  0.46142317777E+02  0.10000000146E+02 0.  0.
         12    1    1    2    0    0 -0.10556482959E+02  0.32458539927E+02 -0.29395872845E+02  0.45045682223E+02  0.00000000000E+00 0. -1.
         11    1    3    3    0    0 -0.72413548121E+00 -0.10859477119E+02  0.10288196874E+02  0.14976635492E+02  0.51100000000E-03 0. -1.
        -11    1    3    3    0    0  0.24522597365E+01 -0.76604563314E+01  0.51158981053E+01  0.95325013876E+01  0.51100000000E-03 0.  1.
        -12    1    3    3    0    0  0.88283587033E+01 -0.13938606476E+02  0.13991777866E+02  0.21633180897E+02  0.00000000000E+00 0.  1.
</event>
<event>
 7    1  0.2425980E-008  0.4614232E+02  0.7816164E-02  0.1320468E+00
        -11   -1    0    0    0    0  0.00000000000E+00  0.00000000000E+00  0.45593999997E+02  0.45594000000E+02  0.51100000000E-03 0.  1.
         11   -1    0    0    0    0 -0.00000000000E+00 -0.00000000000E+00 -0.45593999997E+02  0.45594000000E+02  0.51100000000E-03 0. -1.
    9900012    2    1    2    0    0  0.25596413444E+02 -0.32404058361E+01  0.36924746073E+02  0.46142317812E+02  0.10000000468E+02 0.  0.
         12    1    1    2    0    0 -0.25596413444E+02  0.32404058361E+01 -0.36924746073E+02  0.45045682188E+02  0.00000000000E+00 0. -1.
         11    1    3    3    0    0  0.10719640666E+01 -0.12161365985E+01  0.90940455124E+00  0.18587931798E+01  0.51100000000E-03 0. -1.
        -11    1    3    3    0    0  0.20085795274E+02 -0.44226234468E+01  0.30723737643E+02  0.36972243980E+02  0.51100000000E-03 0.  1.
        -12    1    3    3    0    0  0.44386541032E+01  0.23983542093E+01  0.52916038792E+01  0.73112806522E+01  0.00000000000E+00 0.  1.
</event>
<event>
 7    1  0.2425980E-008  0.4614232E+02  0.7816164E-02  0.1320468E+00
        -11   -1    0    0    0    0  0.00000000000E+00  0.00000000000E+00  0.45593999997E+02  0.45594000000E+02  0.51100000000E-03 0.  1.
         11   -1    0    0    0    0 -0.00000000000E+00 -0.00000000000E+00 -0.45593999997E+02  0.45594000000E+02  0.51100000000E-03 0. -1.
    9900012    2    1    2    0    0 -0.30277631849E+02 -0.85432772549E+01  0.32239586283E+02  0.46142317629E+02  0.99999987921E+01 0.  0.
         12    1    1    2    0    0  0.30277631849E+02  0.85432772549E+01 -0.32239586283E+02  0.45045682371E+02  0.00000000000E+00 0. -1.
         11    1    3    3    0    0 -0.36508106618E+01 -0.11277575620E+01  0.40020052595E+01  0.55331999751E+01  0.51100000000E-03 0.  1.
        -11    1    3    3    0    0 -0.24376426950E+02 -0.82233439205E+01  0.21726994382E+02  0.33673370209E+02  0.51100000000E-03 0. -1.
         12    1    3    3    0    0 -0.22503942371E+01  0.80782422769E+00  0.65105866411E+01  0.69357474447E+01  0.00000000000E+00 0. -1.
</event>
<event>
 7    1  0.2425980E-008  0.4614232E+02  0.7816164E-02  0.1320468E+00
        -11   -1    0    0    0    0  0.00000000000E+00  0.00000000000E+00  0.45593999997E+02  0.45594000000E+02  0.51100000000E-03 0.  1.
         11   -1    0    0    0    0 -0.00000000000E+00 -0.00000000000E+00 -0.45593999997E+02  0.45594000000E+02  0.51100000000E-03 0. -1.
    9900012    2    1    2    0    0  0.21950119925E+02  0.12400462040E+02  0.37330071369E+02  0.46142318165E+02  0.10000003685E+02 0.  0.
         12    1    1    2    0    0 -0.21950119925E+02 -0.12400462040E+02 -0.37330071369E+02  0.45045681835E+02  0.00000000000E+00 0. -1.
         11    1    3    3    0    0 -0.60962684466E+00  0.87807211097E+00  0.21425742550E+01  0.23944269087E+01  0.51100000000E-03 0. -1.
        -11    1    3    3    0    0  0.14334677034E+02  0.47600284635E+01  0.17646957051E+02  0.23228343248E+02  0.51100000000E-03 0.  1.
        -12    1    3    3    0    0  0.82250697356E+01  0.67623614654E+01  0.17540540064E+02  0.20519548008E+02  0.00000000000E+00 0.  1.
</event>
<event>
 7    1  0.2425980E-008  0.4614232E+02  0.7816164E-02  0.1320468E+00
        -11   -1    0    0    0    0  0.00000000000E+00  0.00000000000E+00  0.45593999997E+02  0.45594000000E+02  0.51100000000E-03 0. -1.
         11   -1    0    0    0    0 -0.00000000000E+00 -0.00000000000E+00 -0.45593999997E+02  0.45594000000E+02  0.51100000000E-03 0.  1.
    9900012    2    1    2    0    0  0.19735043463E+02 -0.58501079386E+00 -0.40488264091E+02  0.46142315332E+02  0.99999778510E+01 0.  0.
         12    1    1    2    0    0 -0.19735043463E+02  0.58501079386E+00  0.40488264091E+02  0.45045684668E+02  0.00000000000E+00 0. -1.
         11    1    3    3    0    0  0.61317056664E+01 -0.17064550822E+01 -0.16938274877E+02  0.18094611336E+02  0.51100000000E-03 0. -1.
        -11    1    3    3    0    0  0.50442333069E+01  0.35478536525E+01 -0.76302621533E+01  0.98108336028E+01  0.51100000000E-03 0.  1.
        -12    1    3    3    0    0  0.85591044892E+01 -0.24264093642E+01 -0.15919727060E+02  0.18236870393E+02  0.00000000000E+00 0.  1.
</event>
<event>
 7    1  0.2425980E-008  0.4614232E+02  0.7816164E-02  0.1320468E+00
        -11   -1    0    0    0    0  0.00000000000E+00  0.00000000000E+00  0.45593999997E+02  0.45594000000E+02  0.51100000000E-03 0. -1.
         11   -1    0    0    0    0 -0.00000000000E+00 -0.00000000000E+00 -0.45593999997E+02  0.45594000000E+02  0.51100000000E-03 0.  1.
    9900012    2    1    2    0    0  0.18901868913E+02  0.34916695756E+02 -0.21275742424E+02  0.46142317559E+02  0.99999981560E+01 0.  0.
         12    1    1    2    0    0 -0.18901868913E+02 -0.34916695756E+02  0.21275742424E+02  0.45045682441E+02  0.00000000000E+00 0. -1.
         11    1    3    3    0    0  0.88570597486E+01  0.14117550228E+02 -0.40976064490E+01  0.17162258322E+02  0.51100000000E-03 0. -1.
        -11    1    3    3    0    0  0.23512263248E+01  0.71542818706E+01 -0.71252943733E+01  0.10367344621E+02  0.51100000000E-03 0.  1.
         12    1    3    3    0    0  0.76935828391E+01  0.13644863657E+02 -0.10052841602E+02  0.18612714616E+02  0.00000000000E+00 0. -1.
</event>
<event>
 7    1  0.2425980E-008  0.4614232E+02  0.7816164E-02  0.1320468E+00
        -11   -1    0    0    0    0  0.00000000000E+00  0.00000000000E+00  0.45593999997E+02  0.45594000000E+02  0.51100000000E-03 0. -1.
         11   -1    0    0    0    0 -0.00000000000E+00 -0.00000000000E+00 -0.45593999997E+02  0.45594000000E+02  0.51100000000E-03 0.  1.
    9900012    2    1    2    0    0  0.26307286427E+02 -0.35238654735E+02 -0.97610208126E+01  0.46142316145E+02  0.99999852625E+01 0.  0.
         12    1    1    2    0    0 -0.26307286427E+02  0.35238654735E+02  0.97610208126E+01  0.45045683855E+02  0.00000000000E+00 0. -1.
         11    1    3    3    0    0  0.17792915794E+02 -0.15809907795E+02 -0.42041397849E+01  0.24170557059E+02  0.51100000000E-03 0. -1.
        -11    1    3    3    0    0  0.65011769545E+01 -0.13299886420E+02 -0.37113760338E+01  0.15261932804E+02  0.51100000000E-03 0.  1.
         12    1    3    3    0    0  0.20131936785E+01 -0.61288605199E+01 -0.18455049939E+01  0.67098262826E+01  0.00000000000E+00 0. -1.
</event>
<event>
 7    1  0.2425980E-008  0.4614232E+02  0.7816164E-02  0.1320468E+00
        -11   -1    0    0    0    0  0.00000000000E+00  0.00000000000E+00  0.45593999997E+02  0.45594000000E+02  0.51100000000E-03 0. -1.
         11   -1    0    0    0    0 -0.00000000000E+00 -0.00000000000E+00 -0.45593999997E+02  0.45594000000E+02  0.51100000000E-03 0.  1.
    9900012    2    1    2    0    0 -0.32624471278E+02 -0.30684006371E+02  0.48217282232E+01  0.46142318341E+02  0.10000005286E+02 0.  0.
         12    1    1    2    0    0  0.32624471278E+02  0.30684006371E+02 -0.48217282232E+01  0.45045681659E+02  0.00000000000E+00 0. -1.
         11    1    3    3    0    0 -0.14896253415E+02 -0.15472063541E+02  0.66255142031E+01  0.22476221986E+02  0.51100000000E-03 0. -1.
        -11    1    3    3    0    0 -0.14437216595E+02 -0.12871253859E+02 -0.26260367321E+00  0.19343509502E+02  0.51100000000E-03 0.  1.
        -12    1    3    3    0    0 -0.32910012680E+01 -0.23406889701E+01 -0.15411823067E+01  0.43225868532E+01  0.00000000000E+00 0.  1.
</event>
<event>
 7    1  0.2425980E-008  0.4614232E+02  0.7816164E-02  0.1320468E+00
        -11   -1    0    0    0    0  0.00000000000E+00  0.00000000000E+00  0.45593999997E+02  0.45594000000E+02  0.51100000000E-03 0.  1.
         11   -1    0    0    0    0 -0.00000000000E+00 -0.00000000000E+00 -0.45593999997E+02  0.45594000000E+02  0.51100000000E-03 0. -1.
    9900012    2    1    2    0    0 -0.29828272474E+01 -0.92931536878E+01  0.43975600368E+02  0.46142318835E+02  0.10000009795E+02 0.  0.
         12    1    1    2    0    0  0.29828272474E+01  0.92931536878E+01 -0.43975600368E+02  0.45045681165E+02  0.00000000000E+00 0. -1.
         11    1    3    3    0    0  0.19434858365E+01 -0.16253443827E+01  0.57642159869E+01  0.62964329397E+01  0.51100000000E-03 0. -1.
        -11    1    3    3    0    0 -0.16142672450E+01 -0.44999031601E+01  0.30522851259E+02  0.30894974291E+02  0.51100000000E-03 0.  1.
        -12    1    3    3    0    0 -0.33120458389E+01 -0.31679061450E+01  0.76885331222E+01  0.89509116046E+01  0.00000000000E+00 0.  1.
</event>
<event>
 7    1  0.2425980E-008  0.4614233E+02  0.7816164E-02  0.1320468E+00
        -11   -1    0    0    0    0  0.00000000000E+00  0.00000000000E+00  0.45593999997E+02  0.45594000000E+02  0.51100000000E-03 0.  1.
         11   -1    0    0    0    0 -0.00000000000E+00 -0.00000000000E+00 -0.45593999997E+02  0.45594000000E+02  0.51100000000E-03 0. -1.
    9900012    2    1    2    0    0 -0.37885293260E+02 -0.22997063295E+02  0.80593026215E+01  0.46142326242E+02  0.10000077336E+02 0.  0.
         12    1    1    2    0    0  0.37885293260E+02  0.22997063295E+02 -0.80593026215E+01  0.45045673758E+02  0.00000000000E+00 0. -1.
         11    1    3    3    0    0 -0.15693142741E+01 -0.25319655881E+01  0.21211252216E+01  0.36568797488E+01  0.51100000000E-03 0. -1.
        -11    1    3    3    0    0 -0.30508391417E+01 -0.33676306475E+01  0.16686910896E+01  0.48407732709E+01  0.51100000000E-03 0.  1.
        -12    1    3    3    0    0 -0.33265139844E+02 -0.17097467059E+02  0.42694863103E+01  0.37644673222E+02  0.00000000000E+00 0.  1.
</event>
<event>
 7    1  0.2425980E-008  0.4614232E+02  0.7816164E-02  0.1320468E+00
        -11   -1    0    0    0    0  0.00000000000E+00  0.00000000000E+00  0.45593999997E+02  0.45594000000E+02  0.51100000000E-03 0. -1.
         11   -1    0    0    0    0 -0.00000000000E+00 -0.00000000000E+00 -0.45593999997E+02  0.45594000000E+02  0.51100000000E-03 0.  1.
    9900012    2    1    2    0    0 -0.34400022375E+02 -0.22651403347E+02 -0.18239130830E+02  0.46142317561E+02  0.99999981739E+01 0.  0.
         12    1    1    2    0    0  0.34400022375E+02  0.22651403347E+02  0.18239130830E+02  0.45045682439E+02  0.00000000000E+00 0. -1.
         11    1    3    3    0    0 -0.26713262332E+01 -0.16139346503E+01 -0.28378144362E+01  0.42182887448E+01  0.51100000000E-03 0. -1.
        -11    1    3    3    0    0 -0.32252996533E+02 -0.20927947343E+02 -0.15079892075E+02  0.41299369373E+02  0.51100000000E-03 0.  1.
         12    1    3    3    0    0  0.52430039123E+00 -0.10952135332E+00 -0.32142431818E+00  0.62465944273E+00  0.00000000000E+00 0. -1.
</event>
<event>
 7    1  0.2425980E-008  0.4614232E+02  0.7816164E-02  0.1320468E+00
        -11   -1    0    0    0    0  0.00000000000E+00  0.00000000000E+00  0.45593999997E+02  0.45594000000E+02  0.51100000000E-03 0.  1.
         11   -1    0    0    0    0 -0.00000000000E+00 -0.00000000000E+00 -0.45593999997E+02  0.45594000000E+02  0.51100000000E-03 0. -1.
    9900012    2    1    2    0    0 -0.31738172065E+02 -0.31773940786E+02  0.34955054248E+01  0.46142318328E+02  0.10000005173E+02 0.  0.
         12    1    1    2    0    0  0.31738172065E+02  0.31773940786E+02 -0.34955054248E+01  0.45045681672E+02  0.00000000000E+00 0. -1.
         11    1    3    3    0    0 -0.17338030368E+02 -0.13264146524E+02  0.19084873175E+00  0.21830742167E+02  0.51100000000E-03 0. -1.
        -11    1    3    3    0    0 -0.11958563656E+02 -0.11884380300E+02  0.36188849280E+01  0.17243609490E+02  0.51100000000E-03 0.  1.
         12    1    3    3    0    0 -0.24415780397E+01 -0.66254139614E+01 -0.31422823500E+00  0.70679666714E+01  0.00000000000E+00 0. -1.
</event>
<event>
 7    1  0.2425980E-008  0.4614232E+02  0.7816164E-02  0.1320468E+00
        -11   -1    0    0    0    0  0.00000000000E+00  0.00000000000E+00  0.45593999997E+02  0.45594000000E+02  0.51100000000E-03 0.  1.
         11   -1    0    0    0    0 -0.00000000000E+00 -0.00000000000E+00 -0.45593999997E+02  0.45594000000E+02  0.51100000000E-03 0. -1.
    9900012    2    1    2    0    0  0.39532777575E+02  0.20213298412E+02 -0.75957595596E+01  0.46142317645E+02  0.99999989457E+01 0.  0.
         12    1    1    2    0    0 -0.39532777575E+02 -0.20213298412E+02  0.75957595596E+01  0.45045682355E+02  0.00000000000E+00 0. -1.
         11    1    3    3    0    0  0.85572018044E+01  0.22139023115E+01 -0.42954622205E+01  0.98274138060E+01  0.51100000000E-03 0. -1.
        -11    1    3    3    0    0  0.90644925666E+01  0.31695360568E+01  0.33461423418E+00  0.96084832961E+01  0.51100000000E-03 0.  1.
        -12    1    3    3    0    0  0.21911083204E+02  0.14829860044E+02 -0.36349115733E+01  0.26706420543E+02  0.00000000000E+00 0.  1.
</event>
<event>
 7    1  0.2425980E-008  0.4614232E+02  0.7816164E-02  0.1320468E+00
        -11   -1    0    0    0    0  0.00000000000E+00  0.00000000000E+00  0.45593999997E+02  0.45594000000E+02  0.51100000000E-03 0.  1.
         11   -1    0    0    0    0 -0.00000000000E+00 -0.00000000000E+00 -0.45593999997E+02  0.45594000000E+02  0.51100000000E-03 0. -1.
    9900012    2    1    2    0    0 -0.17508209504E+02 -0.19299988774E+02  0.36743523955E+02  0.46142317417E+02  0.99999968666E+01 0.  0.
         12    1    1    2    0    0  0.17508209504E+02  0.19299988774E+02 -0.36743523955E+02  0.45045682583E+02  0.00000000000E+00 0. -1.
         11    1    3    3    0    0 -0.15121929929E+01  0.38323360687E+00  0.23173241000E+01  0.27934900914E+01  0.51100000000E-03 0. -1.
        -11    1    3    3    0    0 -0.84625897770E+01 -0.50412970002E+01  0.11955355052E+02  0.15490662215E+02  0.51100000000E-03 0.  1.
        -12    1    3    3    0    0 -0.75334267342E+01 -0.14641925380E+02  0.22470844803E+02  0.27858165111E+02  0.00000000000E+00 0.  1.
</event>
<event>
 7    1  0.2425980E-008  0.4614232E+02  0.7816164E-02  0.1320468E+00
        -11   -1    0    0    0    0  0.00000000000E+00  0.00000000000E+00  0.45593999997E+02  0.45594000000E+02  0.51100000000E-03 0.  1.
         11   -1    0    0    0    0 -0.00000000000E+00 -0.00000000000E+00 -0.45593999997E+02  0.45594000000E+02  0.51100000000E-03 0. -1.
    9900012    2    1    2    0    0 -0.22386193577E+02 -0.20451105826E+02  0.33312522096E+02  0.46142317401E+02  0.99999967171E+01 0.  0.
         12    1    1    2    0    0  0.22386193577E+02  0.20451105826E+02 -0.33312522096E+02  0.45045682599E+02  0.00000000000E+00 0. -1.
         11    1    3    3    0    0 -0.10358727702E+02 -0.10825558997E+02  0.13586816490E+02  0.20226160036E+02  0.51100000000E-03 0. -1.
        -11    1    3    3    0    0 -0.73542174646E+01 -0.96259021124E+01  0.13627832379E+02  0.18233494498E+02  0.51100000000E-03 0.  1.
        -12    1    3    3    0    0 -0.46732484111E+01  0.35528369130E-03  0.60978732271E+01  0.76826628672E+01  0.00000000000E+00 0.  1.
</event>
<event>
 7    1  0.2425980E-008  0.4614232E+02  0.7816164E-02  0.1320468E+00
        -11   -1    0    0    0    0  0.00000000000E+00  0.00000000000E+00  0.45593999997E+02  0.45594000000E+02  0.51100000000E-03 0.  1.
         11   -1    0    0    0    0 -0.00000000000E+00 -0.00000000000E+00 -0.45593999997E+02  0.45594000000E+02  0.51100000000E-03 0. -1.
    9900012    2    1    2    0    0  0.56903287713E+01 -0.26443968101E+02  0.36020136956E+02  0.46142317001E+02  0.99999930727E+01 0.  0.
         12    1    1    2    0    0 -0.56903287713E+01  0.26443968101E+02 -0.36020136956E+02  0.45045682999E+02  0.00000000000E+00 0. -1.
         11    1    3    3    0    0 -0.42204313093E+00 -0.14183792323E+00  0.13588232148E+01  0.14299088052E+01  0.51100000000E-03 0. -1.
        -11    1    3    3    0    0  0.42681851977E+01 -0.23585287266E+02  0.25574539664E+02  0.35050538649E+02  0.51100000000E-03 0.  1.
        -12    1    3    3    0    0  0.18441867046E+01 -0.27168429114E+01  0.90867740775E+01  0.96618695469E+01  0.00000000000E+00 0.  1.
</event>
<event>
 7    1  0.2425980E-008  0.4614232E+02  0.7816164E-02  0.1320468E+00
        -11   -1    0    0    0    0  0.00000000000E+00  0.00000000000E+00  0.45593999997E+02  0.45594000000E+02  0.51100000000E-03 0. -1.
         11   -1    0    0    0    0 -0.00000000000E+00 -0.00000000000E+00 -0.45593999997E+02  0.45594000000E+02  0.51100000000E-03 0.  1.
    9900012    2    1    2    0    0  0.11756587724E+02  0.20838803794E+02 -0.38165958977E+02  0.46142317375E+02  0.99999964800E+01 0.  0.
         12    1    1    2    0    0 -0.11756587724E+02 -0.20838803794E+02  0.38165958977E+02  0.45045682625E+02  0.00000000000E+00 0. -1.
         11    1    3    3    0    0  0.21251723864E+01  0.60330874048E+00 -0.23902286985E+01  0.32547707447E+01  0.51100000000E-03 0. -1.
        -11    1    3    3    0    0  0.77356494172E+01  0.15322451371E+02 -0.32301203666E+02  0.36578484748E+02  0.51100000000E-03 0.  1.
         12    1    3    3    0    0  0.18957659208E+01  0.49130436824E+01 -0.34745266126E+01  0.63090618822E+01  0.00000000000E+00 0. -1.
</event>
<event>
 7    1  0.2425980E-008  0.4614232E+02  0.7816164E-02  0.1320468E+00
        -11   -1    0    0    0    0  0.00000000000E+00  0.00000000000E+00  0.45593999997E+02  0.45594000000E+02  0.51100000000E-03 0.  1.
         11   -1    0    0    0    0 -0.00000000000E+00 -0.00000000000E+00 -0.45593999997E+02  0.45594000000E+02  0.51100000000E-03 0. -1.
    9900012    2    1    2    0    0 -0.37989057876E+02  0.74227359267E+01  0.23040138531E+02  0.46142317516E+02  0.99999977632E+01 0.  0.
         12    1    1    2    0    0  0.37989057876E+02 -0.74227359267E+01 -0.23040138531E+02  0.45045682484E+02  0.00000000000E+00 0. -1.
         11    1    3    3    0    0 -0.27264151535E+02  0.52684159702E+01  0.19560505640E+02  0.33966211842E+02  0.51100000000E-03 0. -1.
        -11    1    3    3    0    0 -0.88292691743E+01  0.18506172430E+01  0.10537427019E+01  0.90824639980E+01  0.51100000000E-03 0.  1.
         12    1    3    3    0    0 -0.18956371667E+01  0.30370271354E+00  0.24258901901E+01  0.30936416761E+01  0.00000000000E+00 0. -1.
</event>
<event>
 7    1  0.2425980E-008  0.4614230E+02  0.7816164E-02  0.1320468E+00
        -11   -1    0    0    0    0  0.00000000000E+00  0.00000000000E+00  0.45593999997E+02  0.45594000000E+02  0.51100000000E-03 0.  1.
         11   -1    0    0    0    0 -0.00000000000E+00 -0.00000000000E+00 -0.45593999997E+02  0.45594000000E+02  0.51100000000E-03 0. -1.
    9900012    2    1    2    0    0  0.95319565584E+01  0.19325728334E+02  0.39557211520E+02  0.46142301485E+02  0.99998515781E+01 0.  0.
         12    1    1    2    0    0 -0.95319565584E+01 -0.19325728334E+02 -0.39557211520E+02  0.45045698515E+02  0.00000000000E+00 0. -1.
         11    1    3    3    0    0 -0.19667479658E+01  0.16352073298E+01  0.42091777280E+01  0.49253606954E+01  0.51100000000E-03 0. -1.
        -11    1    3    3    0    0  0.13360976785E+01  0.10862894593E+01  0.32053871843E+01  0.36386383523E+01  0.51100000000E-03 0.  1.
        -12    1    3    3    0    0  0.10162606846E+02  0.16604231545E+02  0.32142646608E+02  0.37578302437E+02  0.00000000000E+00 0.  1.
</event>
<event>
 7    1  0.2425980E-008  0.4614232E+02  0.7816164E-02  0.1320468E+00
        -11   -1    0    0    0    0  0.00000000000E+00  0.00000000000E+00  0.45593999997E+02  0.45594000000E+02  0.51100000000E-03 0.  1.
         11   -1    0    0    0    0 -0.00000000000E+00 -0.00000000000E+00 -0.45593999997E+02  0.45594000000E+02  0.51100000000E-03 0. -1.
    9900012    2    1    2    0    0  0.29280365637E+02  0.31582257475E+02  0.13203588509E+02  0.46142317093E+02  0.99999939059E+01 0.  0.
         12    1    1    2    0    0 -0.29280365637E+02 -0.31582257475E+02 -0.13203588509E+02  0.45045682907E+02  0.00000000000E+00 0. -1.
         11    1    3    3    0    0  0.13266985526E+02  0.13447289954E+02  0.25878997981E+01  0.19066718062E+02  0.51100000000E-03 0.  1.
        -11    1    3    3    0    0  0.59469560939E+01  0.54407587111E+01  0.72229870320E+00  0.80925804175E+01  0.51100000000E-03 0. -1.
        -12    1    3    3    0    0  0.10066424017E+02  0.12694208810E+02  0.98933900081E+01  0.18983018613E+02  0.00000000000E+00 0.  1.
</event>
<event>
 7    1  0.2425980E-008  0.4614232E+02  0.7816164E-02  0.1320468E+00
        -11   -1    0    0    0    0  0.00000000000E+00  0.00000000000E+00  0.45593999997E+02  0.45594000000E+02  0.51100000000E-03 0. -1.
         11   -1    0    0    0    0 -0.00000000000E+00 -0.00000000000E+00 -0.45593999997E+02  0.45594000000E+02  0.51100000000E-03 0.  1.
    9900012    2    1    2    0    0 -0.19695526592E+02 -0.39287171389E+02 -0.98852440054E+01  0.46142315939E+02  0.99999833840E+01 0.  0.
         12    1    1    2    0    0  0.19695526592E+02  0.39287171389E+02  0.98852440054E+01  0.45045684061E+02  0.00000000000E+00 0. -1.
         11    1    3    3    0    0  0.41362852091E+00 -0.17113332281E+01 -0.36998352844E+00  0.17990658807E+01  0.51100000000E-03 0. -1.
        -11    1    3    3    0    0 -0.14208048581E+02 -0.31845914969E+02 -0.94033222807E+01  0.36117217706E+02  0.51100000000E-03 0.  1.
         12    1    3    3    0    0 -0.59011065326E+01 -0.57299231920E+01 -0.11193819628E+00  0.82260323520E+01  0.00000000000E+00 0. -1.
</event>
<event>
 7    1  0.2425980E-008  0.4614232E+02  0.7816164E-02  0.1320468E+00
        -11   -1    0    0    0    0  0.00000000000E+00  0.00000000000E+00  0.45593999997E+02  0.45594000000E+02  0.51100000000E-03 0.  1.
         11   -1    0    0    0    0 -0.00000000000E+00 -0.00000000000E+00 -0.45593999997E+02  0.45594000000E+02  0.51100000000E-03 0. -1.
    9900012    2    1    2    0    0  0.96772314039E+00  0.31847319033E+01  0.44922539007E+02  0.46142317452E+02  0.99999971790E+01 0.  0.
         12    1    1    2    0    0 -0.96772314039E+00 -0.31847319033E+01 -0.44922539007E+02  0.45045682548E+02  0.00000000000E+00 0. -1.
         11    1    3    3    0    0  0.14912616907E+01 -0.23381753095E+01  0.70033973406E+01  0.75324962515E+01  0.51100000000E-03 0. -1.
        -11    1    3    3    0    0  0.18237322730E+00  0.94248971019E+00  0.22224317099E+02  0.22245040293E+02  0.51100000000E-03 0.  1.
         12    1    3    3    0    0 -0.70591177763E+00  0.45804175027E+01  0.15694824567E+02  0.16364780907E+02  0.00000000000E+00 0. -1.
</event>
<event>
 7    1  0.2425980E-008  0.4614232E+02  0.7816164E-02  0.1320468E+00
        -11   -1    0    0    0    0  0.00000000000E+00  0.00000000000E+00  0.45593999997E+02  0.45594000000E+02  0.51100000000E-03 0.  1.
         11   -1    0    0    0    0 -0.00000000000E+00 -0.00000000000E+00 -0.45593999997E+02  0.45594000000E+02  0.51100000000E-03 0. -1.
    9900012    2    1    2    0    0 -0.27119082557E+02  0.12472221147E+02  0.33735924172E+02  0.46142317423E+02  0.99999969180E+01 0.  0.
         12    1    1    2    0    0  0.27119082557E+02 -0.12472221147E+02 -0.33735924172E+02  0.45045682577E+02  0.00000000000E+00 0. -1.
         11    1    3    3    0    0 -0.54811494819E+01  0.59640912988E+01  0.13763008912E+02  0.15969777683E+02  0.51100000000E-03 0. -1.
        -11    1    3    3    0    0 -0.94420354274E+01  0.31642717362E+01  0.83237133280E+01  0.12978784707E+02  0.51100000000E-03 0.  1.
         12    1    3    3    0    0 -0.12195897648E+02  0.33438581121E+01  0.11649201932E+02  0.17193755034E+02  0.00000000000E+00 0. -1.
</event>
<event>
 7    1  0.2425980E-008  0.4614232E+02  0.7816164E-02  0.1320468E+00
        -11   -1    0    0    0    0  0.00000000000E+00  0.00000000000E+00  0.45593999997E+02  0.45594000000E+02  0.51100000000E-03 0. -1.
         11   -1    0    0    0    0 -0.00000000000E+00 -0.00000000000E+00 -0.45593999997E+02  0.45594000000E+02  0.51100000000E-03 0.  1.
    9900012    2    1    2    0    0  0.22376074633E+02 -0.37556491294E+02  0.10859768522E+02  0.46142319556E+02  0.10000016368E+02 0.  0.
         12    1    1    2    0    0 -0.22376074633E+02  0.37556491294E+02 -0.10859768522E+02  0.45045680444E+02  0.00000000000E+00 0. -1.
         11    1    3    3    0    0  0.80246167780E+00 -0.61032031473E+00  0.20879661345E+01  0.23186285754E+01  0.51100000000E-03 0. -1.
        -11    1    3    3    0    0  0.16571550159E+02 -0.27617621999E+02  0.81358487659E+01  0.33219592938E+02  0.51100000000E-03 0.  1.
        -12    1    3    3    0    0  0.50020627959E+01 -0.93285489799E+01  0.63595362214E+00  0.10604098042E+02  0.00000000000E+00 0.  1.
</event>
<event>
 7    1  0.2425980E-008  0.4614232E+02  0.7816164E-02  0.1320468E+00
        -11   -1    0    0    0    0  0.00000000000E+00  0.00000000000E+00  0.45593999997E+02  0.45594000000E+02  0.51100000000E-03 0. -1.
         11   -1    0    0    0    0 -0.00000000000E+00 -0.00000000000E+00 -0.45593999997E+02  0.45594000000E+02  0.51100000000E-03 0.  1.
    9900012    2    1    2    0    0  0.38518019845E+02  0.22715480540E+02  0.54297875069E+01  0.46142317618E+02  0.99999986926E+01 0.  0.
         12    1    1    2    0    0 -0.38518019845E+02 -0.22715480540E+02 -0.54297875069E+01  0.45045682382E+02  0.00000000000E+00 0. -1.
         11    1    3    3    0    0  0.11175185619E+02  0.30964538943E+01 -0.18632074704E+00  0.11597737539E+02  0.51100000000E-03 0.  1.
        -11    1    3    3    0    0  0.39340252609E+01  0.54419959275E+01  0.93035981286E+00  0.67791919925E+01  0.51100000000E-03 0. -1.
        -12    1    3    3    0    0  0.23408808964E+02  0.14177030718E+02  0.46857484411E+01  0.27765388086E+02  0.00000000000E+00 0.  1.
</event>
<event>
 7    1  0.2425980E-008  0.4614232E+02  0.7816164E-02  0.1320468E+00
        -11   -1    0    0    0    0  0.00000000000E+00  0.00000000000E+00  0.45593999997E+02  0.45594000000E+02  0.51100000000E-03 0.  1.
         11   -1    0    0    0    0 -0.00000000000E+00 -0.00000000000E+00 -0.45593999997E+02  0.45594000000E+02  0.51100000000E-03 0. -1.
    9900012    2    1    2    0    0  0.12863988385E+02 -0.27831558279E+02  0.33000538434E+02  0.46142319071E+02  0.10000011946E+02 0.  0.
         12    1    1    2    0    0 -0.12863988385E+02  0.27831558279E+02 -0.33000538434E+02  0.45045680929E+02  0.00000000000E+00 0. -1.
         11    1    3    3    0    0  0.36586309459E+00 -0.68690819099E+01  0.10533168846E+02  0.12580373138E+02  0.51100000000E-03 0. -1.
        -11    1    3    3    0    0  0.42056590945E+01 -0.41473919567E+01  0.76500889664E+01  0.96650033583E+01  0.51100000000E-03 0.  1.
        -12    1    3    3    0    0  0.82924661960E+01 -0.16815084412E+02  0.14817280622E+02  0.23896942575E+02  0.00000000000E+00 0.  1.
</event>
<event>
 7    1  0.2425980E-008  0.4614232E+02  0.7816164E-02  0.1320468E+00
        -11   -1    0    0    0    0  0.00000000000E+00  0.00000000000E+00  0.45593999997E+02  0.45594000000E+02  0.51100000000E-03 0.  1.
         11   -1    0    0    0    0 -0.00000000000E+00 -0.00000000000E+00 -0.45593999997E+02  0.45594000000E+02  0.51100000000E-03 0. -1.
    9900012    2    1    2    0    0 -0.43107367185E+02  0.75461153831E+01  0.10673543982E+02  0.46142317586E+02  0.99999984056E+01 0.  0.
         12    1    1    2    0    0  0.43107367185E+02 -0.75461153831E+01 -0.10673543982E+02  0.45045682414E+02  0.00000000000E+00 0. -1.
         11    1    3    3    0    0  0.10248484821E-01 -0.63920351372E+00  0.53232017721E+00  0.83189614470E+00  0.51100000000E-03 0. -1.
        -11    1    3    3    0    0 -0.11949453257E+02  0.25431637559E+01  0.60813018853E+00  0.12232209024E+02  0.51100000000E-03 0.  1.
        -12    1    3    3    0    0 -0.31168162413E+02  0.56421551409E+01  0.95330936160E+01  0.33078212417E+02  0.00000000000E+00 0.  1.
</event>
<event>
 7    1  0.2425980E-008  0.4614232E+02  0.7816164E-02  0.1320468E+00
        -11   -1    0    0    0    0  0.00000000000E+00  0.00000000000E+00  0.45593999997E+02  0.45594000000E+02  0.51100000000E-03 0.  1.
         11   -1    0    0    0    0 -0.00000000000E+00 -0.00000000000E+00 -0.45593999997E+02  0.45594000000E+02  0.51100000000E-03 0. -1.
    9900012    2    1    2    0    0  0.24864290277E+02 -0.35027273933E+02  0.13563579156E+02  0.46142317302E+02  0.99999958126E+01 0.  0.
         12    1    1    2    0    0 -0.24864290277E+02  0.35027273933E+02 -0.13563579156E+02  0.45045682698E+02  0.00000000000E+00 0. -1.
         11    1    3    3    0    0  0.17384372839E+02 -0.25262421575E+02  0.73139740758E+01  0.31526188794E+02  0.51100000000E-03 0. -1.
        -11    1    3    3    0    0  0.69311820370E+01 -0.87459335611E+01  0.70583336826E+01  0.13204268739E+02  0.51100000000E-03 0.  1.
         12    1    3    3    0    0  0.54873540125E+00 -0.10189187977E+01 -0.80872860197E+00  0.14118597694E+01  0.00000000000E+00 0. -1.
</event>
<event>
 7    1  0.2425980E-008  0.4614232E+02  0.7816164E-02  0.1320468E+00
        -11   -1    0    0    0    0  0.00000000000E+00  0.00000000000E+00  0.45593999997E+02  0.45594000000E+02  0.51100000000E-03 0.  1.
         11   -1    0    0    0    0 -0.00000000000E+00 -0.00000000000E+00 -0.45593999997E+02  0.45594000000E+02  0.51100000000E-03 0. -1.
    9900012    2    1    2    0    0 -0.16472209590E+02 -0.23080539069E+02  0.35000978398E+02  0.46142318061E+02  0.10000002736E+02 0.  0.
         12    1    1    2    0    0  0.16472209590E+02  0.23080539069E+02 -0.35000978398E+02  0.45045681939E+02  0.00000000000E+00 0. -1.
         11    1    3    3    0    0 -0.14405769552E+01  0.33894675199E+00  0.27043748068E+00  0.15044213362E+01  0.51100000000E-03 0. -1.
        -11    1    3    3    0    0 -0.88075740167E+00 -0.83182952082E+00  0.27574687066E+01  0.30118611989E+01  0.51100000000E-03 0.  1.
        -12    1    3    3    0    0 -0.14150875233E+02 -0.22587656300E+02  0.31973072211E+02  0.41626035526E+02  0.00000000000E+00 0.  1.
</event>
<event>
 7    1  0.2425980E-008  0.4614232E+02  0.7816164E-02  0.1320468E+00
        -11   -1    0    0    0    0  0.00000000000E+00  0.00000000000E+00  0.45593999997E+02  0.45594000000E+02  0.51100000000E-03 0. -1.
         11   -1    0    0    0    0 -0.00000000000E+00 -0.00000000000E+00 -0.45593999997E+02  0.45594000000E+02  0.51100000000E-03 0.  1.
    9900012    2    1    2    0    0  0.17018938753E+02  0.41645159768E+02  0.22693273179E+01  0.46142318133E+02  0.10000003392E+02 0.  0.
         12    1    1    2    0    0 -0.17018938753E+02 -0.41645159768E+02 -0.22693273179E+01  0.45045681867E+02  0.00000000000E+00 0. -1.
         11    1    3    3    0    0  0.65042001792E+00  0.17338873027E+01  0.14274478049E+01  0.23381657073E+01  0.51100000000E-03 0. -1.
        -11    1    3    3    0    0  0.12344711465E+02  0.34795324963E+02 -0.13253767091E+01  0.36944054517E+02  0.51100000000E-03 0.  1.
        -12    1    3    3    0    0  0.40238072697E+01  0.51159475022E+01  0.21672562221E+01  0.68600979090E+01  0.00000000000E+00 0.  1.
</event>
<event>
 7    1  0.2425980E-008  0.4614232E+02  0.7816164E-02  0.1320468E+00
        -11   -1    0    0    0    0  0.00000000000E+00  0.00000000000E+00  0.45593999997E+02  0.45594000000E+02  0.51100000000E-03 0.  1.
         11   -1    0    0    0    0 -0.00000000000E+00 -0.00000000000E+00 -0.45593999997E+02  0.45594000000E+02  0.51100000000E-03 0. -1.
    9900012    2    1    2    0    0 -0.40224594722E+02  0.16083724353E+02 -0.12345415365E+02  0.46142317741E+02  0.99999998177E+01 0.  0.
         12    1    1    2    0    0  0.40224594722E+02 -0.16083724353E+02  0.12345415365E+02  0.45045682259E+02  0.00000000000E+00 0. -1.
         11    1    3    3    0    0 -0.13289213335E+02  0.43384586144E+01 -0.72483946169E+01  0.15746892995E+02  0.51100000000E-03 0. -1.
        -11    1    3    3    0    0 -0.10631010184E+02  0.41744779312E+01  0.87071580763E+00  0.11454378631E+02  0.51100000000E-03 0.  1.
        -12    1    3    3    0    0 -0.16304371204E+02  0.75707878072E+01 -0.59677365557E+01  0.18941046116E+02  0.00000000000E+00 0.  1.
</event>
<event>
 7    1  0.2425980E-008  0.4614232E+02  0.7816164E-02  0.1320468E+00
        -11   -1    0    0    0    0  0.00000000000E+00  0.00000000000E+00  0.45593999997E+02  0.45594000000E+02  0.51100000000E-03 0.  1.
         11   -1    0    0    0    0 -0.00000000000E+00 -0.00000000000E+00 -0.45593999997E+02  0.45594000000E+02  0.51100000000E-03 0. -1.
    9900012    2    1    2    0    0 -0.16051128019E+02  0.40416034784E+02  0.11748145401E+02  0.46142317647E+02  0.99999989550E+01 0.  0.
         12    1    1    2    0    0  0.16051128019E+02 -0.40416034784E+02 -0.11748145401E+02  0.45045682353E+02  0.00000000000E+00 0. -1.
         11    1    3    3    0    0 -0.96539268722E+01  0.16207743536E+02  0.82202010517E+01  0.20578167075E+02  0.51100000000E-03 0. -1.
        -11    1    3    3    0    0 -0.63062832945E+01  0.21491531999E+02  0.41418661142E+01  0.22777405730E+02  0.51100000000E-03 0.  1.
         12    1    3    3    0    0 -0.90917852329E-01  0.27167592498E+01 -0.61392176518E+00  0.27867448414E+01  0.00000000000E+00 0. -1.
</event>
<event>
 7    1  0.2425980E-008  0.4614231E+02  0.7816164E-02  0.1320468E+00
        -11   -1    0    0    0    0  0.00000000000E+00  0.00000000000E+00  0.45593999997E+02  0.45594000000E+02  0.51100000000E-03 0. -1.
         11   -1    0    0    0    0 -0.00000000000E+00 -0.00000000000E+00 -0.45593999997E+02  0.45594000000E+02  0.51100000000E-03 0.  1.
    9900012    2    1    2    0    0 -0.35299432165E+02  0.18744620208E+02 -0.20777467461E+02  0.46142313725E+02  0.99999631956E+01 0.  0.
         12    1    1    2    0    0  0.35299432165E+02 -0.18744620208E+02  0.20777467461E+02  0.45045686275E+02  0.00000000000E+00 0. -1.
         11    1    3    3    0    0 -0.20583863311E+02  0.11146835593E+02 -0.91186747346E+01  0.25121656031E+02  0.51100000000E-03 0. -1.
        -11    1    3    3    0    0 -0.58166583425E+01  0.74821427066E+00 -0.19630850256E+01  0.61844192894E+01  0.51100000000E-03 0.  1.
         12    1    3    3    0    0 -0.88989105109E+01  0.68495703441E+01 -0.96957077010E+01  0.14836238405E+02  0.00000000000E+00 0. -1.
</event>
<event>
 7    1  0.2425980E-008  0.4614232E+02  0.7816164E-02  0.1320468E+00
        -11   -1    0    0    0    0  0.00000000000E+00  0.00000000000E+00  0.45593999997E+02  0.45594000000E+02  0.51100000000E-03 0. -1.
         11   -1    0    0    0    0 -0.00000000000E+00 -0.00000000000E+00 -0.45593999997E+02  0.45594000000E+02  0.51100000000E-03 0.  1.
    9900012    2    1    2    0    0  0.21937924612E+02 -0.33266145988E+02 -0.21004868539E+02  0.46142317549E+02  0.99999980626E+01 0.  0.
         12    1    1    2    0    0 -0.21937924612E+02  0.33266145988E+02  0.21004868539E+02  0.45045682451E+02  0.00000000000E+00 0. -1.
         11    1    3    3    0    0  0.15982952044E+01 -0.74074562565E+01 -0.40837025721E+01  0.86082276173E+01  0.51100000000E-03 0. -1.
        -11    1    3    3    0    0  0.70713058868E+01 -0.79602128228E+01 -0.88225980650E+01  0.13827747178E+02  0.51100000000E-03 0.  1.
         12    1    3    3    0    0  0.13268323521E+02 -0.17898476908E+02 -0.80985679019E+01  0.23706342754E+02  0.00000000000E+00 0. -1.
</event>
<event>
 7    1  0.2425980E-008  0.4614232E+02  0.7816164E-02  0.1320468E+00
        -11   -1    0    0    0    0  0.00000000000E+00  0.00000000000E+00  0.45593999997E+02  0.45594000000E+02  0.51100000000E-03 0.  1.
         11   -1    0    0    0    0 -0.00000000000E+00 -0.00000000000E+00 -0.45593999997E+02  0.45594000000E+02  0.51100000000E-03 0. -1.
    9900012    2    1    2    0    0  0.83690928407E+01  0.44216735621E+02 -0.19879715311E+01  0.46142318134E+02  0.10000003401E+02 0.  0.
         12    1    1    2    0    0 -0.83690928407E+01 -0.44216735621E+02  0.19879715311E+01  0.45045681866E+02  0.00000000000E+00 0. -1.
         11    1    3    3    0    0  0.66111538471E+00  0.12468248129E+01  0.42946942590E+00  0.14751575898E+01  0.51100000000E-03 0. -1.
        -11    1    3    3    0    0  0.91029115689E+01  0.26203356496E+02 -0.61374943938E+00  0.27746271449E+02  0.51100000000E-03 0.  1.
        -12    1    3    3    0    0 -0.13949341130E+01  0.16766554312E+02 -0.18036915176E+01  0.16920889095E+02  0.00000000000E+00 0.  1.
</event>
<event>
 7    1  0.2425980E-008  0.4614232E+02  0.7816164E-02  0.1320468E+00
        -11   -1    0    0    0    0  0.00000000000E+00  0.00000000000E+00  0.45593999997E+02  0.45594000000E+02  0.51100000000E-03 0.  1.
         11   -1    0    0    0    0 -0.00000000000E+00 -0.00000000000E+00 -0.45593999997E+02  0.45594000000E+02  0.51100000000E-03 0. -1.
    9900012    2    1    2    0    0 -0.25083672179E+02 -0.19114490165E+02  0.32164562382E+02  0.46142318548E+02  0.10000007175E+02 0.  0.
         12    1    1    2    0    0  0.25083672179E+02  0.19114490165E+02 -0.32164562382E+02  0.45045681452E+02  0.00000000000E+00 0. -1.
         11    1    3    3    0    0 -0.26614228845E+00 -0.19035084004E+01  0.36208172916E+01  0.40993284900E+01  0.51100000000E-03 0. -1.
        -11    1    3    3    0    0 -0.16680782616E+02 -0.11909379525E+02  0.23205889682E+02  0.30961187728E+02  0.51100000000E-03 0.  1.
         12    1    3    3    0    0 -0.81367472746E+01 -0.53016022392E+01  0.53378554088E+01  0.11081802330E+02  0.00000000000E+00 0. -1.
</event>
<event>
 7    1  0.2425980E-008  0.4614232E+02  0.7816164E-02  0.1320468E+00
        -11   -1    0    0    0    0  0.00000000000E+00  0.00000000000E+00  0.45593999997E+02  0.45594000000E+02  0.51100000000E-03 0.  1.
         11   -1    0    0    0    0 -0.00000000000E+00 -0.00000000000E+00 -0.45593999997E+02  0.45594000000E+02  0.51100000000E-03 0. -1.
    9900012    2    1    2    0    0  0.18599994289E+02 -0.10410402936E+02  0.39683462409E+02  0.46142318014E+02  0.10000002306E+02 0.  0.
         12    1    1    2    0    0 -0.18599994289E+02  0.10410402936E+02 -0.39683462409E+02  0.45045681986E+02  0.00000000000E+00 0. -1.
         11    1    3    3    0    0  0.26396898173E+01 -0.12838570303E+01  0.77593531743E+01  0.82960118822E+01  0.51100000000E-03 0.  1.
        -11    1    3    3    0    0  0.14038770645E+02 -0.90274688769E+01  0.21356820357E+02  0.27105277190E+02  0.51100000000E-03 0. -1.
         12    1    3    3    0    0  0.19215338274E+01 -0.99077028960E-01  0.10567288878E+02  0.10741028942E+02  0.00000000000E+00 0. -1.
</event>
<event>
 7    1  0.2425980E-008  0.4614232E+02  0.7816164E-02  0.1320468E+00
        -11   -1    0    0    0    0  0.00000000000E+00  0.00000000000E+00  0.45593999997E+02  0.45594000000E+02  0.51100000000E-03 0.  1.
         11   -1    0    0    0    0 -0.00000000000E+00 -0.00000000000E+00 -0.45593999997E+02  0.45594000000E+02  0.51100000000E-03 0. -1.
    9900012    2    1    2    0    0  0.37687255900E+02  0.18949993576E+02  0.15801328439E+02  0.46142317696E+02  0.99999994040E+01 0.  0.
         12    1    1    2    0    0 -0.37687255900E+02 -0.18949993576E+02 -0.15801328439E+02  0.45045682304E+02  0.00000000000E+00 0. -1.
         11    1    3    3    0    0  0.14345501951E+02  0.93784561501E+01  0.31226077009E+01  0.17421238334E+02  0.51100000000E-03 0. -1.
        -11    1    3    3    0    0  0.20941520184E+01  0.26083283296E+01  0.23708253364E+01  0.40999588276E+01  0.51100000000E-03 0.  1.
        -12    1    3    3    0    0  0.21247601931E+02  0.69632090964E+01  0.10307895402E+02  0.24621120534E+02  0.00000000000E+00 0.  1.
</event>
<event>
 7    1  0.2425980E-008  0.4614232E+02  0.7816164E-02  0.1320468E+00
        -11   -1    0    0    0    0  0.00000000000E+00  0.00000000000E+00  0.45593999997E+02  0.45594000000E+02  0.51100000000E-03 0.  1.
         11   -1    0    0    0    0 -0.00000000000E+00 -0.00000000000E+00 -0.45593999997E+02  0.45594000000E+02  0.51100000000E-03 0. -1.
    9900012    2    1    2    0    0  0.44600226291E+01 -0.82618899509E+01  0.44056360733E+02  0.46142317094E+02  0.99999939176E+01 0.  0.
         12    1    1    2    0    0 -0.44600226291E+01  0.82618899509E+01 -0.44056360733E+02  0.45045682906E+02  0.00000000000E+00 0. -1.
         11    1    3    3    0    0  0.10951416183E+01 -0.27408592184E+01  0.20345723556E+02  0.20558699173E+02  0.51100000000E-03 0. -1.
        -11    1    3    3    0    0  0.29452474101E+01 -0.64178329312E+01  0.23543285763E+02  0.24579450087E+02  0.51100000000E-03 0.  1.
         12    1    3    3    0    0  0.41963360067E+00  0.89680219865E+00  0.16735141490E+00  0.10041678338E+01  0.00000000000E+00 0. -1.
</event>
<event>
 7    1  0.2425980E-008  0.4614232E+02  0.7816164E-02  0.1320468E+00
        -11   -1    0    0    0    0  0.00000000000E+00  0.00000000000E+00  0.45593999997E+02  0.45594000000E+02  0.51100000000E-03 0.  1.
         11   -1    0    0    0    0 -0.00000000000E+00 -0.00000000000E+00 -0.45593999997E+02  0.45594000000E+02  0.51100000000E-03 0. -1.
    9900012    2    1    2    0    0 -0.11057128679E+02  0.23145342809E+02  0.37028995513E+02  0.46142317665E+02  0.99999991222E+01 0.  0.
         12    1    1    2    0    0  0.11057128679E+02 -0.23145342809E+02 -0.37028995513E+02  0.45045682335E+02  0.00000000000E+00 0. -1.
         11    1    3    3    0    0 -0.28184389699E+01  0.57662256130E+01  0.15527298380E+02  0.16801486580E+02  0.51100000000E-03 0. -1.
        -11    1    3    3    0    0 -0.27711886789E+01  0.11822729083E+02  0.13812948582E+02  0.18391681773E+02  0.51100000000E-03 0.  1.
        -12    1    3    3    0    0 -0.54675010298E+01  0.55563881133E+01  0.76887485506E+01  0.10949149312E+02  0.00000000000E+00 0.  1.
</event>
<event>
 7    1  0.2425980E-008  0.4614232E+02  0.7816164E-02  0.1320468E+00
        -11   -1    0    0    0    0  0.00000000000E+00  0.00000000000E+00  0.45593999997E+02  0.45594000000E+02  0.51100000000E-03 0.  1.
         11   -1    0    0    0    0 -0.00000000000E+00 -0.00000000000E+00 -0.45593999997E+02  0.45594000000E+02  0.51100000000E-03 0. -1.
    9900012    2    1    2    0    0  0.29191982156E+02 -0.34144601122E+02  0.33298287452E+01  0.46142319104E+02  0.10000012245E+02 0.  0.
         12    1    1    2    0    0 -0.29191982156E+02  0.34144601122E+02 -0.33298287452E+01  0.45045680896E+02  0.00000000000E+00 0. -1.
         11    1    3    3    0    0  0.76187505648E+01 -0.10030521561E+02 -0.66984534452E+00  0.12613699537E+02  0.51100000000E-03 0. -1.
        -11    1    3    3    0    0  0.10146976447E+02 -0.14181826516E+02  0.55742516072E+01  0.18307310442E+02  0.51100000000E-03 0.  1.
         12    1    3    3    0    0  0.11426255144E+02 -0.99322530437E+01 -0.15745775175E+01  0.15221309125E+02  0.00000000000E+00 0. -1.
</event>
<event>
 7    1  0.2425980E-008  0.4614232E+02  0.7816164E-02  0.1320468E+00
        -11   -1    0    0    0    0  0.00000000000E+00  0.00000000000E+00  0.45593999997E+02  0.45594000000E+02  0.51100000000E-03 0.  1.
         11   -1    0    0    0    0 -0.00000000000E+00 -0.00000000000E+00 -0.45593999997E+02  0.45594000000E+02  0.51100000000E-03 0. -1.
    9900012    2    1    2    0    0 -0.35859704072E+02  0.26814008922E+02 -0.49197616312E+01  0.46142317575E+02  0.99999983046E+01 0.  0.
         12    1    1    2    0    0  0.35859704072E+02 -0.26814008922E+02  0.49197616312E+01  0.45045682425E+02  0.00000000000E+00 0. -1.
         11    1    3    3    0    0 -0.41573140320E+01  0.50120460777E+01 -0.67943888627E+00  0.65471752159E+01  0.51100000000E-03 0. -1.
        -11    1    3    3    0    0 -0.23616924219E+02  0.16577606173E+02 -0.67780502898E+01  0.29639806038E+02  0.51100000000E-03 0.  1.
         12    1    3    3    0    0 -0.80854658217E+01  0.52243566708E+01  0.25377275448E+01  0.99553363212E+01  0.00000000000E+00 0. -1.
</event>
<event>
 7    1  0.2425980E-008  0.4614232E+02  0.7816164E-02  0.1320468E+00
        -11   -1    0    0    0    0  0.00000000000E+00  0.00000000000E+00  0.45593999997E+02  0.45594000000E+02  0.51100000000E-03 0.  1.
         11   -1    0    0    0    0 -0.00000000000E+00 -0.00000000000E+00 -0.45593999997E+02  0.45594000000E+02  0.51100000000E-03 0. -1.
    9900012    2    1    2    0    0  0.39719901433E+02  0.16709902910E+02 -0.13123338521E+02  0.46142318308E+02  0.10000004988E+02 0.  0.
         12    1    1    2    0    0 -0.39719901433E+02 -0.16709902910E+02  0.13123338521E+02  0.45045681692E+02  0.00000000000E+00 0. -1.
         11    1    3    3    0    0  0.38969861489E+01  0.36547743393E+01 -0.90925096562E+00  0.54194662187E+01  0.51100000000E-03 0. -1.
        -11    1    3    3    0    0  0.27744224707E+02  0.76274706758E+01 -0.67251328914E+01  0.29549073186E+02  0.51100000000E-03 0.  1.
        -12    1    3    3    0    0  0.80786905778E+01  0.54276578950E+01 -0.54889546641E+01  0.11173778903E+02  0.00000000000E+00 0.  1.
</event>
<event>
 7    1  0.2425980E-008  0.4614232E+02  0.7816164E-02  0.1320468E+00
        -11   -1    0    0    0    0  0.00000000000E+00  0.00000000000E+00  0.45593999997E+02  0.45594000000E+02  0.51100000000E-03 0.  1.
         11   -1    0    0    0    0 -0.00000000000E+00 -0.00000000000E+00 -0.45593999997E+02  0.45594000000E+02  0.51100000000E-03 0. -1.
    9900012    2    1    2    0    0 -0.12453235276E+02 -0.43265100670E+02  0.14702177018E+01  0.46142317133E+02  0.99999942764E+01 0.  0.
         12    1    1    2    0    0  0.12453235276E+02  0.43265100670E+02 -0.14702177018E+01  0.45045682867E+02  0.00000000000E+00 0. -1.
         11    1    3    3    0    0 -0.47535387960E+01 -0.88632123485E+01 -0.99728071457E+00  0.10106791445E+02  0.51100000000E-03 0. -1.
        -11    1    3    3    0    0 -0.69234711403E+01 -0.21690702332E+02  0.42943569870E+01  0.23170293966E+02  0.51100000000E-03 0.  1.
         12    1    3    3    0    0 -0.77622533929E+00 -0.12711185990E+02 -0.18268585706E+01  0.12865231723E+02  0.00000000000E+00 0. -1.
</event>
<event>
 7    1  0.2425980E-008  0.4614232E+02  0.7816164E-02  0.1320468E+00
        -11   -1    0    0    0    0  0.00000000000E+00  0.00000000000E+00  0.45593999997E+02  0.45594000000E+02  0.51100000000E-03 0.  1.
         11   -1    0    0    0    0 -0.00000000000E+00 -0.00000000000E+00 -0.45593999997E+02  0.45594000000E+02  0.51100000000E-03 0. -1.
    9900012    2    1    2    0    0  0.15412489927E+02  0.20883117547E+02  0.36816627513E+02  0.46142317569E+02  0.99999982473E+01 0.  0.
         12    1    1    2    0    0 -0.15412489927E+02 -0.20883117547E+02 -0.36816627513E+02  0.45045682431E+02  0.00000000000E+00 0. -1.
         11    1    3    3    0    0  0.69916104739E+00  0.11102129019E+01 -0.20309122029E+00  0.13276464750E+01  0.51100000000E-03 0. -1.
        -11    1    3    3    0    0  0.10019005704E+02  0.15834032754E+02  0.24204672256E+02  0.30609855077E+02  0.51100000000E-03 0.  1.
        -12    1    3    3    0    0  0.46943231763E+01  0.39388718908E+01  0.12815046477E+02  0.14204816017E+02  0.00000000000E+00 0.  1.
</event>
<event>
 7    1  0.2425980E-008  0.4614232E+02  0.7816164E-02  0.1320468E+00
        -11   -1    0    0    0    0  0.00000000000E+00  0.00000000000E+00  0.45593999997E+02  0.45594000000E+02  0.51100000000E-03 0.  1.
         11   -1    0    0    0    0 -0.00000000000E+00 -0.00000000000E+00 -0.45593999997E+02  0.45594000000E+02  0.51100000000E-03 0. -1.
    9900012    2    1    2    0    0  0.20423023947E+01 -0.21542541671E+02  0.39507733710E+02  0.46142321810E+02  0.10000036918E+02 0.  0.
         12    1    1    2    0    0 -0.20423023947E+01  0.21542541671E+02 -0.39507733710E+02  0.45045678190E+02  0.00000000000E+00 0. -1.
         11    1    3    3    0    0  0.45546340081E+01 -0.13012384370E+02  0.28012230551E+02  0.31221016938E+02  0.51100000000E-03 0. -1.
        -11    1    3    3    0    0 -0.24227386904E+01 -0.64316018448E+01  0.10610719237E+02  0.12642093499E+02  0.51100000000E-03 0.  1.
         12    1    3    3    0    0 -0.89592923014E-01 -0.20985554558E+01  0.88478392266E+00  0.22792113730E+01  0.00000000000E+00 0. -1.
</event>
<event>
 7    1  0.2425980E-008  0.4614232E+02  0.7816164E-02  0.1320468E+00
        -11   -1    0    0    0    0  0.00000000000E+00  0.00000000000E+00  0.45593999997E+02  0.45594000000E+02  0.51100000000E-03 0.  1.
         11   -1    0    0    0    0 -0.00000000000E+00 -0.00000000000E+00 -0.45593999997E+02  0.45594000000E+02  0.51100000000E-03 0. -1.
    9900012    2    1    2    0    0  0.21838421754E+02  0.10336770196E+02  0.38017734191E+02  0.46142316568E+02  0.99999891220E+01 0.  0.
         12    1    1    2    0    0 -0.21838421754E+02 -0.10336770196E+02 -0.38017734191E+02  0.45045683432E+02  0.00000000000E+00 0. -1.
         11    1    3    3    0    0  0.10155032948E+02  0.38876185620E+01  0.12777451200E+02  0.16778007381E+02  0.51100000000E-03 0. -1.
        -11    1    3    3    0    0  0.86374076933E+01  0.69541960542E+01  0.14903981148E+02  0.18576714153E+02  0.51100000000E-03 0.  1.
        -12    1    3    3    0    0  0.30459811129E+01 -0.50504442026E+00  0.10336301843E+02  0.10787595033E+02  0.00000000000E+00 0.  1.
</event>
<event>
 7    1  0.2425980E-008  0.4614232E+02  0.7816164E-02  0.1320468E+00
        -11   -1    0    0    0    0  0.00000000000E+00  0.00000000000E+00  0.45593999997E+02  0.45594000000E+02  0.51100000000E-03 0. -1.
         11   -1    0    0    0    0 -0.00000000000E+00 -0.00000000000E+00 -0.45593999997E+02  0.45594000000E+02  0.51100000000E-03 0.  1.
    9900012    2    1    2    0    0  0.30620693590E+02 -0.29477427736E+02 -0.14918713380E+02  0.46142316180E+02  0.99999855834E+01 0.  0.
         12    1    1    2    0    0 -0.30620693590E+02  0.29477427736E+02  0.14918713380E+02  0.45045683820E+02  0.00000000000E+00 0. -1.
         11    1    3    3    0    0  0.66454184738E+01 -0.81392287564E+01 -0.69434865963E+01  0.12594468540E+02  0.51100000000E-03 0. -1.
        -11    1    3    3    0    0  0.43862838965E+01 -0.70823003054E+01 -0.14340607067E+01  0.84531056072E+01  0.51100000000E-03 0.  1.
        -12    1    3    3    0    0  0.19588991220E+02 -0.14255898674E+02 -0.65411660772E+01  0.25094742032E+02  0.00000000000E+00 0.  1.
</event>
<event>
 7    1  0.2425980E-008  0.4614232E+02  0.7816164E-02  0.1320468E+00
        -11   -1    0    0    0    0  0.00000000000E+00  0.00000000000E+00  0.45593999997E+02  0.45594000000E+02  0.51100000000E-03 0.  1.
         11   -1    0    0    0    0 -0.00000000000E+00 -0.00000000000E+00 -0.45593999997E+02  0.45594000000E+02  0.51100000000E-03 0. -1.
    9900012    2    1    2    0    0  0.33870942960E+02  0.28749851037E+02  0.74376616007E+01  0.46142317390E+02  0.99999966183E+01 0.  0.
         12    1    1    2    0    0 -0.33870942960E+02 -0.28749851037E+02 -0.74376616007E+01  0.45045682610E+02  0.00000000000E+00 0. -1.
         11    1    3    3    0    0  0.97483586199E+01  0.72417980238E+01 -0.18585299359E+01  0.12285286654E+02  0.51100000000E-03 0. -1.
        -11    1    3    3    0    0  0.12798663849E+01  0.19523911713E+01 -0.14660334838E+00  0.23390985554E+01  0.51100000000E-03 0.  1.
        -12    1    3    3    0    0  0.22842717956E+02  0.19555661842E+02  0.94427948850E+01  0.31517932180E+02  0.00000000000E+00 0.  1.
</event>
<event>
 7    1  0.2425980E-008  0.4614232E+02  0.7816164E-02  0.1320468E+00
        -11   -1    0    0    0    0  0.00000000000E+00  0.00000000000E+00  0.45593999997E+02  0.45594000000E+02  0.51100000000E-03 0. -1.
         11   -1    0    0    0    0 -0.00000000000E+00 -0.00000000000E+00 -0.45593999997E+02  0.45594000000E+02  0.51100000000E-03 0.  1.
    9900012    2    1    2    0    0  0.82379957622E+00  0.37499859615E+02  0.24943844413E+02  0.46142317732E+02  0.99999997337E+01 0.  0.
         12    1    1    2    0    0 -0.82379957622E+00 -0.37499859615E+02 -0.24943844413E+02  0.45045682268E+02  0.00000000000E+00 0. -1.
         11    1    3    3    0    0  0.32286640630E-01  0.21531592639E+02  0.19019822371E+02  0.28729151872E+02  0.51100000000E-03 0. -1.
        -11    1    3    3    0    0 -0.22214783285E+00  0.14029169316E+02  0.59106388251E+01  0.15225064628E+02  0.51100000000E-03 0.  1.
         12    1    3    3    0    0  0.10136607684E+01  0.19390976601E+01  0.13383216822E-01  0.21881012315E+01  0.00000000000E+00 0. -1.
</event>
<event>
 7    1  0.2425980E-008  0.4614232E+02  0.7816164E-02  0.1320468E+00
        -11   -1    0    0    0    0  0.00000000000E+00  0.00000000000E+00  0.45593999997E+02  0.45594000000E+02  0.51100000000E-03 0.  1.
         11   -1    0    0    0    0 -0.00000000000E+00 -0.00000000000E+00 -0.45593999997E+02  0.45594000000E+02  0.51100000000E-03 0. -1.
    9900012    2    1    2    0    0  0.28526116525E+02  0.31794885326E+02  0.14298929238E+02  0.46142318362E+02  0.10000005478E+02 0.  0.
         12    1    1    2    0    0 -0.28526116525E+02 -0.31794885326E+02 -0.14298929238E+02  0.45045681638E+02  0.00000000000E+00 0. -1.
         11    1    3    3    0    0  0.13871589276E+02  0.17881672537E+02  0.93174798236E+01  0.24474285123E+02  0.51100000000E-03 0. -1.
        -11    1    3    3    0    0  0.62820753508E+01  0.21362706925E+01  0.17246632382E+01  0.68558432545E+01  0.51100000000E-03 0.  1.
         12    1    3    3    0    0  0.83724518988E+01  0.11776942096E+02  0.32567861766E+01  0.14812189985E+02  0.00000000000E+00 0. -1.
</event>
<event>
 7    1  0.2425980E-008  0.4614232E+02  0.7816164E-02  0.1320468E+00
        -11   -1    0    0    0    0  0.00000000000E+00  0.00000000000E+00  0.45593999997E+02  0.45594000000E+02  0.51100000000E-03 0.  1.
         11   -1    0    0    0    0 -0.00000000000E+00 -0.00000000000E+00 -0.45593999997E+02  0.45594000000E+02  0.51100000000E-03 0. -1.
    9900012    2    1    2    0    0  0.32503869664E+02  0.31073533306E+02  0.26547150491E+01  0.46142317330E+02  0.99999960683E+01 0.  0.
         12    1    1    2    0    0 -0.32503869664E+02 -0.31073533306E+02 -0.26547150491E+01  0.45045682670E+02  0.00000000000E+00 0. -1.
         11    1    3    3    0    0  0.80079948376E+01  0.44005142886E+01  0.30229112097E+01  0.96244739994E+01  0.51100000000E-03 0. -1.
        -11    1    3    3    0    0  0.21894738044E+02  0.23461770815E+02  0.11594488587E+01  0.32111969197E+02  0.51100000000E-03 0.  1.
         12    1    3    3    0    0  0.26011367818E+01  0.32112482022E+01 -0.15276450193E+01  0.44058741334E+01  0.00000000000E+00 0. -1.
</event>
<event>
 7    1  0.2425980E-008  0.4614232E+02  0.7816164E-02  0.1320468E+00
        -11   -1    0    0    0    0  0.00000000000E+00  0.00000000000E+00  0.45593999997E+02  0.45594000000E+02  0.51100000000E-03 0. -1.
         11   -1    0    0    0    0 -0.00000000000E+00 -0.00000000000E+00 -0.45593999997E+02  0.45594000000E+02  0.51100000000E-03 0.  1.
    9900012    2    1    2    0    0 -0.40443572256E+02  0.19123563886E+02  0.52650074262E+01  0.46142317235E+02  0.99999952041E+01 0.  0.
         12    1    1    2    0    0  0.40443572256E+02 -0.19123563886E+02 -0.52650074262E+01  0.45045682765E+02  0.00000000000E+00 0. -1.
         11    1    3    3    0    0 -0.43030271955E+01  0.49527109239E+01  0.12346255942E+01  0.66760534120E+01  0.51100000000E-03 0. -1.
        -11    1    3    3    0    0 -0.78843519524E+01  0.55254348138E+01  0.20997397630E+01  0.98540521068E+01  0.51100000000E-03 0.  1.
         12    1    3    3    0    0 -0.28256193108E+02  0.86454181485E+01  0.19306420691E+01  0.29612211716E+02  0.00000000000E+00 0. -1.
</event>
<event>
 7    1  0.2425980E-008  0.4614232E+02  0.7816164E-02  0.1320468E+00
        -11   -1    0    0    0    0  0.00000000000E+00  0.00000000000E+00  0.45593999997E+02  0.45594000000E+02  0.51100000000E-03 0.  1.
         11   -1    0    0    0    0 -0.00000000000E+00 -0.00000000000E+00 -0.45593999997E+02  0.45594000000E+02  0.51100000000E-03 0. -1.
    9900012    2    1    2    0    0  0.91727602636E+01  0.10461930639E+02  0.42842992190E+02  0.46142317595E+02  0.99999984859E+01 0.  0.
         12    1    1    2    0    0 -0.91727602636E+01 -0.10461930639E+02 -0.42842992190E+02  0.45045682405E+02  0.00000000000E+00 0. -1.
         11    1    3    3    0    0  0.49350384481E+01  0.41846371743E+01  0.77397594105E+01  0.10088095398E+02  0.51100000000E-03 0. -1.
        -11    1    3    3    0    0  0.26599347099E+01  0.13590831971E+01  0.15273516909E+02  0.15562862167E+02  0.51100000000E-03 0.  1.
         12    1    3    3    0    0  0.15777871056E+01  0.49182102677E+01  0.19829715870E+02  0.20491360030E+02  0.00000000000E+00 0. -1.
</event>
<event>
 7    1  0.2425980E-008  0.4614232E+02  0.7816164E-02  0.1320468E+00
        -11   -1    0    0    0    0  0.00000000000E+00  0.00000000000E+00  0.45593999997E+02  0.45594000000E+02  0.51100000000E-03 0.  1.
         11   -1    0    0    0    0 -0.00000000000E+00 -0.00000000000E+00 -0.45593999997E+02  0.45594000000E+02  0.51100000000E-03 0. -1.
    9900012    2    1    2    0    0  0.16889167837E+02  0.41616252895E+02  0.34578828055E+01  0.46142318201E+02  0.10000004013E+02 0.  0.
         12    1    1    2    0    0 -0.16889167837E+02 -0.41616252895E+02 -0.34578828055E+01  0.45045681799E+02  0.00000000000E+00 0. -1.
         11    1    3    3    0    0  0.11070398164E+01  0.30823496297E+01 -0.10082600174E+01  0.34268068108E+01  0.51100000000E-03 0. -1.
        -11    1    3    3    0    0  0.69084199861E+01  0.17160936285E+02 -0.22075986137E+01  0.18630552669E+02  0.51100000000E-03 0.  1.
         12    1    3    3    0    0  0.88737080344E+01  0.21372966981E+02  0.66737414365E+01  0.24084958721E+02  0.00000000000E+00 0. -1.
</event>
<event>
 7    1  0.2425980E-008  0.4614232E+02  0.7816164E-02  0.1320468E+00
        -11   -1    0    0    0    0  0.00000000000E+00  0.00000000000E+00  0.45593999997E+02  0.45594000000E+02  0.51100000000E-03 0.  1.
         11   -1    0    0    0    0 -0.00000000000E+00 -0.00000000000E+00 -0.45593999997E+02  0.45594000000E+02  0.51100000000E-03 0. -1.
    9900012    2    1    2    0    0 -0.36156504269E+02  0.56067553138E+01  0.26275179128E+02  0.46142317141E+02  0.99999943422E+01 0.  0.
         12    1    1    2    0    0  0.36156504269E+02 -0.56067553138E+01 -0.26275179128E+02  0.45045682859E+02  0.00000000000E+00 0. -1.
         11    1    3    3    0    0 -0.11534756956E+02  0.52576321315E+01  0.79535137907E+01  0.14965015721E+02  0.51100000000E-03 0. -1.
        -11    1    3    3    0    0 -0.11760661133E+01 -0.12183447145E+01  0.84393467118E+00  0.18920151523E+01  0.51100000000E-03 0.  1.
        -12    1    3    3    0    0 -0.23445681200E+02  0.15674678968E+01  0.17477730666E+02  0.29285286267E+02  0.00000000000E+00 0.  1.
</event>
<event>
 7    1  0.2425980E-008  0.4614232E+02  0.7816164E-02  0.1320468E+00
        -11   -1    0    0    0    0  0.00000000000E+00  0.00000000000E+00  0.45593999997E+02  0.45594000000E+02  0.51100000000E-03 0. -1.
         11   -1    0    0    0    0 -0.00000000000E+00 -0.00000000000E+00 -0.45593999997E+02  0.45594000000E+02  0.51100000000E-03 0.  1.
    9900012    2    1    2    0    0 -0.31020035899E+02 -0.38685388722E+01 -0.32433088943E+02  0.46142317870E+02  0.10000000990E+02 0.  0.
         12    1    1    2    0    0  0.31020035899E+02  0.38685388722E+01  0.32433088943E+02  0.45045682130E+02  0.00000000000E+00 0. -1.
         11    1    3    3    0    0 -0.30317067908E+01 -0.35264912283E+01 -0.63624780118E+01  0.78808954543E+01  0.51100000000E-03 0. -1.
        -11    1    3    3    0    0 -0.12851740807E+02 -0.59841453803E+00 -0.11902969921E+02  0.17527293999E+02  0.51100000000E-03 0.  1.
         12    1    3    3    0    0 -0.15136588302E+02  0.25636689419E+00 -0.14167641010E+02  0.20734128416E+02  0.00000000000E+00 0. -1.
</event>
<event>
 7    1  0.2425980E-008  0.4614232E+02  0.7816164E-02  0.1320468E+00
        -11   -1    0    0    0    0  0.00000000000E+00  0.00000000000E+00  0.45593999997E+02  0.45594000000E+02  0.51100000000E-03 0.  1.
         11   -1    0    0    0    0 -0.00000000000E+00 -0.00000000000E+00 -0.45593999997E+02  0.45594000000E+02  0.51100000000E-03 0. -1.
    9900012    2    1    2    0    0  0.16518410504E+01 -0.38843950475E+02  0.22749340126E+02  0.46142317148E+02  0.99999944135E+01 0.  0.
         12    1    1    2    0    0 -0.16518410504E+01  0.38843950475E+02 -0.22749340126E+02  0.45045682852E+02  0.00000000000E+00 0. -1.
         11    1    3    3    0    0 -0.20767622382E+00 -0.37853236753E+01  0.10146747712E+01  0.39244579108E+01  0.51100000000E-03 0. -1.
        -11    1    3    3    0    0  0.51579604539E+01 -0.15805891012E+02  0.90860449627E+01  0.18946951207E+02  0.51100000000E-03 0.  1.
        -12    1    3    3    0    0 -0.32984431797E+01 -0.19252735788E+02  0.12648620392E+02  0.23270908030E+02  0.00000000000E+00 0.  1.
</event>
<event>
 7    1  0.2425980E-008  0.4614232E+02  0.7816164E-02  0.1320468E+00
        -11   -1    0    0    0    0  0.00000000000E+00  0.00000000000E+00  0.45593999997E+02  0.45594000000E+02  0.51100000000E-03 0.  1.
         11   -1    0    0    0    0 -0.00000000000E+00 -0.00000000000E+00 -0.45593999997E+02  0.45594000000E+02  0.51100000000E-03 0. -1.
    9900012    2    1    2    0    0 -0.95237475450E+01 -0.44026929577E+02 -0.20300669822E+00  0.46142317554E+02  0.99999981127E+01 0.  0.
         12    1    1    2    0    0  0.95237475450E+01  0.44026929577E+02  0.20300669822E+00  0.45045682446E+02  0.00000000000E+00 0. -1.
         11    1    3    3    0    0 -0.21816412516E+01 -0.91851768999E+01 -0.37402789865E+00  0.94481178212E+01  0.51100000000E-03 0. -1.
        -11    1    3    3    0    0 -0.64683457701E+01 -0.10938539334E+02  0.11123472678E+01  0.12756506437E+02  0.51100000000E-03 0.  1.
         12    1    3    3    0    0 -0.87376052332E+00 -0.23903213343E+02 -0.94132606732E+00  0.23937693296E+02  0.00000000000E+00 0. -1.
</event>
<event>
 7    1  0.2425980E-008  0.4614232E+02  0.7816164E-02  0.1320468E+00
        -11   -1    0    0    0    0  0.00000000000E+00  0.00000000000E+00  0.45593999997E+02  0.45594000000E+02  0.51100000000E-03 0. -1.
         11   -1    0    0    0    0 -0.00000000000E+00 -0.00000000000E+00 -0.45593999997E+02  0.45594000000E+02  0.51100000000E-03 0.  1.
    9900012    2    1    2    0    0 -0.39232582779E+02 -0.10103148025E+02 -0.19693765352E+02  0.46142317129E+02  0.99999942402E+01 0.  0.
         12    1    1    2    0    0  0.39232582779E+02  0.10103148025E+02  0.19693765352E+02  0.45045682871E+02  0.00000000000E+00 0. -1.
         11    1    3    3    0    0 -0.36626750973E+01 -0.11761018122E+01 -0.38078373358E+01  0.54127654464E+01  0.51100000000E-03 0. -1.
        -11    1    3    3    0    0 -0.11296067532E+02 -0.24899671153E+00 -0.77363534019E+01  0.13693586283E+02  0.51100000000E-03 0.  1.
         12    1    3    3    0    0 -0.24273840149E+02 -0.86780495010E+01 -0.81495746147E+01  0.27035965400E+02  0.00000000000E+00 0. -1.
</event>
<event>
 7    1  0.2425980E-008  0.4614232E+02  0.7816164E-02  0.1320468E+00
        -11   -1    0    0    0    0  0.00000000000E+00  0.00000000000E+00  0.45593999997E+02  0.45594000000E+02  0.51100000000E-03 0. -1.
         11   -1    0    0    0    0 -0.00000000000E+00 -0.00000000000E+00 -0.45593999997E+02  0.45594000000E+02  0.51100000000E-03 0.  1.
    9900012    2    1    2    0    0  0.27061396516E+02  0.26917469767E+02  0.23921625579E+02  0.46142317294E+02  0.99999957440E+01 0.  0.
         12    1    1    2    0    0 -0.27061396516E+02 -0.26917469767E+02 -0.23921625579E+02  0.45045682706E+02  0.00000000000E+00 0. -1.
         11    1    3    3    0    0  0.10274155196E+02  0.65005851309E+01  0.93244396285E+01  0.15321913937E+02  0.51100000000E-03 0. -1.
        -11    1    3    3    0    0 -0.37151313788E+00  0.49710001473E+00 -0.19904163132E+00  0.65172714258E+00  0.51100000000E-03 0.  1.
        -12    1    3    3    0    0  0.17158754458E+02  0.19919784621E+02  0.14796227582E+02  0.30168676215E+02  0.00000000000E+00 0.  1.
</event>
<event>
 7    1  0.2425980E-008  0.4614232E+02  0.7816164E-02  0.1320468E+00
        -11   -1    0    0    0    0  0.00000000000E+00  0.00000000000E+00  0.45593999997E+02  0.45594000000E+02  0.51100000000E-03 0. -1.
         11   -1    0    0    0    0 -0.00000000000E+00 -0.00000000000E+00 -0.45593999997E+02  0.45594000000E+02  0.51100000000E-03 0.  1.
    9900012    2    1    2    0    0  0.38526077524E+01 -0.40794259815E+02 -0.18710941839E+02  0.46142316913E+02  0.99999922629E+01 0.  0.
         12    1    1    2    0    0 -0.38526077524E+01  0.40794259815E+02  0.18710941839E+02  0.45045683087E+02  0.00000000000E+00 0. -1.
         11    1    3    3    0    0  0.29744172911E+01 -0.62549474247E+01 -0.29414817409E+01  0.75248814343E+01  0.51100000000E-03 0. -1.
        -11    1    3    3    0    0  0.39263524908E+01 -0.20417662224E+02 -0.88011448435E+01  0.22577806036E+02  0.51100000000E-03 0.  1.
         12    1    3    3    0    0 -0.30481620295E+01 -0.14121650166E+02 -0.69683152545E+01  0.16039629443E+02  0.00000000000E+00 0. -1.
</event>
<event>
 7    1  0.2425980E-008  0.4614232E+02  0.7816164E-02  0.1320468E+00
        -11   -1    0    0    0    0  0.00000000000E+00  0.00000000000E+00  0.45593999997E+02  0.45594000000E+02  0.51100000000E-03 0.  1.
         11   -1    0    0    0    0 -0.00000000000E+00 -0.00000000000E+00 -0.45593999997E+02  0.45594000000E+02  0.51100000000E-03 0. -1.
    9900012    2    1    2    0    0  0.16211740659E+02 -0.81892021852E+01  0.41221714063E+02  0.46142320097E+02  0.10000021301E+02 0.  0.
         12    1    1    2    0    0 -0.16211740659E+02  0.81892021852E+01 -0.41221714063E+02  0.45045679903E+02  0.00000000000E+00 0. -1.
         11    1    3    3    0    0  0.64922145375E+00 -0.24165818829E+01  0.12242803609E+01  0.27857169914E+01  0.51100000000E-03 0. -1.
        -11    1    3    3    0    0  0.12435841782E+02 -0.37798870771E+01  0.30042290626E+02  0.32733422269E+02  0.51100000000E-03 0.  1.
         12    1    3    3    0    0  0.31266774227E+01 -0.19927332252E+01  0.99551430761E+01  0.10623180836E+02  0.00000000000E+00 0. -1.
</event>
<event>
 7    1  0.2425980E-008  0.4614232E+02  0.7816164E-02  0.1320468E+00
        -11   -1    0    0    0    0  0.00000000000E+00  0.00000000000E+00  0.45593999997E+02  0.45594000000E+02  0.51100000000E-03 0.  1.
         11   -1    0    0    0    0 -0.00000000000E+00 -0.00000000000E+00 -0.45593999997E+02  0.45594000000E+02  0.51100000000E-03 0. -1.
    9900012    2    1    2    0    0 -0.19076923214E+02 -0.23585311077E+02  0.33300415712E+02  0.46142316694E+02  0.99999902679E+01 0.  0.
         12    1    1    2    0    0  0.19076923214E+02  0.23585311077E+02 -0.33300415712E+02  0.45045683306E+02  0.00000000000E+00 0. -1.
         11    1    3    3    0    0 -0.25053131480E+01 -0.28245812427E+01  0.49673401278E+01  0.62393366131E+01  0.51100000000E-03 0. -1.
        -11    1    3    3    0    0 -0.10350680050E+02 -0.94997002740E+01  0.90141508054E+01  0.16692387420E+02  0.51100000000E-03 0.  1.
        -12    1    3    3    0    0 -0.62209300161E+01 -0.11261029560E+02  0.19318924779E+02  0.23210592660E+02  0.00000000000E+00 0.  1.
</event>
<event>
 7    1  0.2425980E-008  0.4614231E+02  0.7816164E-02  0.1320468E+00
        -11   -1    0    0    0    0  0.00000000000E+00  0.00000000000E+00  0.45593999997E+02  0.45594000000E+02  0.51100000000E-03 0.  1.
         11   -1    0    0    0    0 -0.00000000000E+00 -0.00000000000E+00 -0.45593999997E+02  0.45594000000E+02  0.51100000000E-03 0. -1.
    9900012    2    1    2    0    0 -0.22627408300E+02  0.67377885872E+01  0.38362962240E+02  0.46142309049E+02  0.99999205530E+01 0.  0.
         12    1    1    2    0    0  0.22627408300E+02 -0.67377885872E+01 -0.38362962240E+02  0.45045690951E+02  0.00000000000E+00 0. -1.
         11    1    3    3    0    0 -0.23951075867E+01  0.19577149906E+01  0.61020790475E+01  0.68413856271E+01  0.51100000000E-03 0. -1.
        -11    1    3    3    0    0 -0.14058666628E+02  0.48846348355E+01  0.28271615835E+02  0.31949804804E+02  0.51100000000E-03 0.  1.
        -12    1    3    3    0    0 -0.61736340859E+01 -0.10456123883E+00  0.39892673577E+01  0.73511186177E+01  0.00000000000E+00 0.  1.
</event>
<event>
 7    1  0.2425980E-008  0.4614232E+02  0.7816164E-02  0.1320468E+00
        -11   -1    0    0    0    0  0.00000000000E+00  0.00000000000E+00  0.45593999997E+02  0.45594000000E+02  0.51100000000E-03 0. -1.
         11   -1    0    0    0    0 -0.00000000000E+00 -0.00000000000E+00 -0.45593999997E+02  0.45594000000E+02  0.51100000000E-03 0.  1.
    9900012    2    1    2    0    0  0.14500685786E+02 -0.40301223086E+02  0.13951884343E+02  0.46142317108E+02  0.99999940471E+01 0.  0.
         12    1    1    2    0    0 -0.14500685786E+02  0.40301223086E+02 -0.13951884343E+02  0.45045682892E+02  0.00000000000E+00 0. -1.
         11    1    3    3    0    0  0.20900972068E+01 -0.26932162395E+01  0.11758613913E+00  0.34111210486E+01  0.51100000000E-03 0. -1.
        -11    1    3    3    0    0  0.10414516592E+02 -0.19862976902E+02  0.58989383910E+01  0.23190461006E+02  0.51100000000E-03 0.  1.
        -12    1    3    3    0    0  0.19960719871E+01 -0.17745029944E+02  0.79353598129E+01  0.19540735054E+02  0.00000000000E+00 0.  1.
</event>
<event>
 7    1  0.2425980E-008  0.4614232E+02  0.7816164E-02  0.1320468E+00
        -11   -1    0    0    0    0  0.00000000000E+00  0.00000000000E+00  0.45593999997E+02  0.45594000000E+02  0.51100000000E-03 0.  1.
         11   -1    0    0    0    0 -0.00000000000E+00 -0.00000000000E+00 -0.45593999997E+02  0.45594000000E+02  0.51100000000E-03 0. -1.
    9900012    2    1    2    0    0  0.62778713481E+01 -0.20634892954E+02  0.39546213842E+02  0.46142317576E+02  0.99999983083E+01 0.  0.
         12    1    1    2    0    0 -0.62778713481E+01  0.20634892954E+02 -0.39546213842E+02  0.45045682424E+02  0.00000000000E+00 0. -1.
         11    1    3    3    0    0 -0.58364109648E+00 -0.58952585575E+01  0.76964788782E+01  0.97123888809E+01  0.51100000000E-03 0. -1.
        -11    1    3    3    0    0  0.29732841166E+01 -0.50572584400E+01  0.53098342973E+01  0.79126874001E+01  0.51100000000E-03 0.  1.
        -12    1    3    3    0    0  0.38882283280E+01 -0.96823759564E+01  0.26539900666E+02  0.28517241295E+02  0.00000000000E+00 0.  1.
</event>
<event>
 7    1  0.2425980E-008  0.4614232E+02  0.7816164E-02  0.1320468E+00
        -11   -1    0    0    0    0  0.00000000000E+00  0.00000000000E+00  0.45593999997E+02  0.45594000000E+02  0.51100000000E-03 0. -1.
         11   -1    0    0    0    0 -0.00000000000E+00 -0.00000000000E+00 -0.45593999997E+02  0.45594000000E+02  0.51100000000E-03 0.  1.
    9900012    2    1    2    0    0  0.36408665098E+02  0.15149546999E+02 -0.21771857431E+02  0.46142318248E+02  0.10000004440E+02 0.  0.
         12    1    1    2    0    0 -0.36408665098E+02 -0.15149546999E+02  0.21771857431E+02  0.45045681752E+02  0.00000000000E+00 0. -1.
         11    1    3    3    0    0  0.22408496897E+02  0.81000964764E+01 -0.13076777979E+02  0.27180037135E+02  0.51100000000E-03 0. -1.
        -11    1    3    3    0    0  0.13822666695E+02  0.73134741319E+01 -0.93598867918E+01  0.18225270902E+02  0.51100000000E-03 0.  1.
         12    1    3    3    0    0  0.17750150604E+00 -0.26402360907E+00  0.66480734006E+00  0.73701021037E+00  0.00000000000E+00 0. -1.
</event>
<event>
 7    1  0.2425980E-008  0.4614232E+02  0.7816164E-02  0.1320468E+00
        -11   -1    0    0    0    0  0.00000000000E+00  0.00000000000E+00  0.45593999997E+02  0.45594000000E+02  0.51100000000E-03 0.  1.
         11   -1    0    0    0    0 -0.00000000000E+00 -0.00000000000E+00 -0.45593999997E+02  0.45594000000E+02  0.51100000000E-03 0. -1.
    9900012    2    1    2    0    0 -0.38584442368E+01 -0.18796136387E+02  0.40754524491E+02  0.46142316505E+02  0.99999885469E+01 0.  0.
         12    1    1    2    0    0  0.38584442368E+01  0.18796136387E+02 -0.40754524491E+02  0.45045683495E+02  0.00000000000E+00 0. -1.
         11    1    3    3    0    0  0.63939006351E+00 -0.13422737976E+01  0.63033399819E+00  0.16148807422E+01  0.51100000000E-03 0. -1.
        -11    1    3    3    0    0 -0.25569423305E+01 -0.16466409212E+01  0.38136589021E+01  0.48778453119E+01  0.51100000000E-03 0.  1.
         12    1    3    3    0    0 -0.19408919698E+01 -0.15807221668E+02  0.36310531591E+02  0.39649590451E+02  0.00000000000E+00 0. -1.
</event>
<event>
 7    1  0.2425980E-008  0.4614232E+02  0.7816164E-02  0.1320468E+00
        -11   -1    0    0    0    0  0.00000000000E+00  0.00000000000E+00  0.45593999997E+02  0.45594000000E+02  0.51100000000E-03 0.  1.
         11   -1    0    0    0    0 -0.00000000000E+00 -0.00000000000E+00 -0.45593999997E+02  0.45594000000E+02  0.51100000000E-03 0. -1.
    9900012    2    1    2    0    0  0.10967973691E+02 -0.26120185385E+01  0.43611861305E+02  0.46142317252E+02  0.99999953551E+01 0.  0.
         12    1    1    2    0    0 -0.10967973691E+02  0.26120185385E+01 -0.43611861305E+02  0.45045682748E+02  0.00000000000E+00 0. -1.
         11    1    3    3    0    0  0.44349379312E+01 -0.28576436887E+01  0.12197005165E+02  0.13289158633E+02  0.51100000000E-03 0.  1.
        -11    1    3    3    0    0 -0.38605295357E+00 -0.22212332290E+01  0.81587364855E+01  0.84645079740E+01  0.51100000000E-03 0. -1.
        -12    1    3    3    0    0  0.69190887134E+01  0.24668583793E+01  0.23256119655E+02  0.24388650645E+02  0.00000000000E+00 0.  1.
</event>
<event>
 7    1  0.2425980E-008  0.4614232E+02  0.7816164E-02  0.1320468E+00
        -11   -1    0    0    0    0  0.00000000000E+00  0.00000000000E+00  0.45593999997E+02  0.45594000000E+02  0.51100000000E-03 0. -1.
         11   -1    0    0    0    0 -0.00000000000E+00 -0.00000000000E+00 -0.45593999997E+02  0.45594000000E+02  0.51100000000E-03 0.  1.
    9900012    2    1    2    0    0  0.41578613690E+02  0.13071706927E+02 -0.11378174313E+02  0.46142317754E+02  0.99999999323E+01 0.  0.
         12    1    1    2    0    0 -0.41578613690E+02 -0.13071706927E+02  0.11378174313E+02  0.45045682246E+02  0.00000000000E+00 0. -1.
         11    1    3    3    0    0  0.31035783846E+02  0.65985173022E+01 -0.65856036558E+01  0.32405716861E+02  0.51100000000E-03 0. -1.
        -11    1    3    3    0    0  0.90058736785E+01  0.37699639995E+01 -0.35725857489E+01  0.10396237707E+02  0.51100000000E-03 0.  1.
         12    1    3    3    0    0  0.15369561655E+01  0.27032256248E+01 -0.12199849085E+01  0.33403631854E+01  0.00000000000E+00 0. -1.
</event>
<event>
 7    1  0.2425980E-008  0.4614232E+02  0.7816164E-02  0.1320468E+00
        -11   -1    0    0    0    0  0.00000000000E+00  0.00000000000E+00  0.45593999997E+02  0.45594000000E+02  0.51100000000E-03 0.  1.
         11   -1    0    0    0    0 -0.00000000000E+00 -0.00000000000E+00 -0.45593999997E+02  0.45594000000E+02  0.51100000000E-03 0. -1.
    9900012    2    1    2    0    0 -0.21045029539E+02 -0.31022458272E+01  0.39706375277E+02  0.46142318352E+02  0.10000005390E+02 0.  0.
         12    1    1    2    0    0  0.21045029539E+02  0.31022458272E+01 -0.39706375277E+02  0.45045681648E+02  0.00000000000E+00 0. -1.
         11    1    3    3    0    0  0.43095977604E+00 -0.68322970209E+00  0.49472607912E+00  0.94725039397E+00  0.51100000000E-03 0. -1.
        -11    1    3    3    0    0 -0.53413359566E+01  0.18134288563E+01  0.12323422806E+02  0.13553049248E+02  0.51100000000E-03 0.  1.
        -12    1    3    3    0    0 -0.16134653358E+02 -0.42324449814E+01  0.26888226392E+02  0.31642018710E+02  0.00000000000E+00 0.  1.
</event>
<event>
 7    1  0.2425980E-008  0.4614232E+02  0.7816164E-02  0.1320468E+00
        -11   -1    0    0    0    0  0.00000000000E+00  0.00000000000E+00  0.45593999997E+02  0.45594000000E+02  0.51100000000E-03 0.  1.
         11   -1    0    0    0    0 -0.00000000000E+00 -0.00000000000E+00 -0.45593999997E+02  0.45594000000E+02  0.51100000000E-03 0. -1.
    9900012    2    1    2    0    0  0.36131800220E+02  0.14608096062E+02  0.22587832978E+02  0.46142315896E+02  0.99999829927E+01 0.  0.
         12    1    1    2    0    0 -0.36131800220E+02 -0.14608096062E+02 -0.22587832978E+02  0.45045684104E+02  0.00000000000E+00 0. -1.
         11    1    3    3    0    0  0.81759509075E+01  0.35201845229E+00  0.26086205431E+01  0.85892369644E+01  0.51100000000E-03 0. -1.
        -11    1    3    3    0    0  0.63732176516E+01  0.25181737816E+01  0.68824390237E+01  0.97122123950E+01  0.51100000000E-03 0.  1.
         12    1    3    3    0    0  0.21582631661E+02  0.11737903828E+02  0.13096773412E+02  0.27840866537E+02  0.00000000000E+00 0. -1.
</event>
<event>
 7    1  0.2425980E-008  0.4614232E+02  0.7816164E-02  0.1320468E+00
        -11   -1    0    0    0    0  0.00000000000E+00  0.00000000000E+00  0.45593999997E+02  0.45594000000E+02  0.51100000000E-03 0.  1.
         11   -1    0    0    0    0 -0.00000000000E+00 -0.00000000000E+00 -0.45593999997E+02  0.45594000000E+02  0.51100000000E-03 0. -1.
    9900012    2    1    2    0    0 -0.10369426793E+02 -0.39763733317E+02  0.18450856707E+02  0.46142316382E+02  0.99999874257E+01 0.  0.
         12    1    1    2    0    0  0.10369426793E+02  0.39763733317E+02 -0.18450856707E+02  0.45045683618E+02  0.00000000000E+00 0. -1.
         11    1    3    3    0    0  0.11697360779E+01 -0.22470034562E+01  0.14044895788E+00  0.25371308983E+01  0.51100000000E-03 0. -1.
        -11    1    3    3    0    0 -0.48319743299E+01 -0.23164929682E+02  0.12225367133E+02  0.26634968460E+02  0.51100000000E-03 0.  1.
        -12    1    3    3    0    0 -0.67071885415E+01 -0.14351800180E+02  0.60850406165E+01  0.16970217024E+02  0.00000000000E+00 0.  1.
</event>
<event>
 7    1  0.2425980E-008  0.4614232E+02  0.7816164E-02  0.1320468E+00
        -11   -1    0    0    0    0  0.00000000000E+00  0.00000000000E+00  0.45593999997E+02  0.45594000000E+02  0.51100000000E-03 0.  1.
         11   -1    0    0    0    0 -0.00000000000E+00 -0.00000000000E+00 -0.45593999997E+02  0.45594000000E+02  0.51100000000E-03 0. -1.
    9900012    2    1    2    0    0 -0.55088209471E+01 -0.22150902971E+02  0.38834313166E+02  0.46142317746E+02  0.99999998664E+01 0.  0.
         12    1    1    2    0    0  0.55088209471E+01  0.22150902971E+02 -0.38834313166E+02  0.45045682254E+02  0.00000000000E+00 0. -1.
         11    1    3    3    0    0 -0.13129056423E+01 -0.16426172259E+00  0.20826236728E+01  0.24673923001E+01  0.51100000000E-03 0. -1.
        -11    1    3    3    0    0 -0.20379849960E+01 -0.46189216158E+01  0.36445526005E+01  0.62266028985E+01  0.51100000000E-03 0.  1.
         12    1    3    3    0    0 -0.21579303088E+01 -0.17367719632E+02  0.33107136892E+02  0.37448322548E+02  0.00000000000E+00 0. -1.
</event>
<event>
 7    1  0.2425980E-008  0.4614232E+02  0.7816164E-02  0.1320468E+00
        -11   -1    0    0    0    0  0.00000000000E+00  0.00000000000E+00  0.45593999997E+02  0.45594000000E+02  0.51100000000E-03 0.  1.
         11   -1    0    0    0    0 -0.00000000000E+00 -0.00000000000E+00 -0.45593999997E+02  0.45594000000E+02  0.51100000000E-03 0. -1.
    9900012    2    1    2    0    0 -0.28102474046E+01 -0.32298303302E+02  0.31273559708E+02  0.46142318481E+02  0.10000006569E+02 0.  0.
         12    1    1    2    0    0  0.28102474046E+01  0.32298303302E+02 -0.31273559708E+02  0.45045681519E+02  0.00000000000E+00 0. -1.
         11    1    3    3    0    0 -0.38191554749E+01 -0.10578206371E+02  0.10648666670E+02  0.15488011515E+02  0.51100000000E-03 0. -1.
        -11    1    3    3    0    0  0.38308693521E-01 -0.21321614899E+02  0.20533191702E+02  0.29601092736E+02  0.51100000000E-03 0.  1.
         12    1    3    3    0    0  0.97059937678E+00 -0.39848203153E+00  0.91701336246E-01  0.10532142302E+01  0.00000000000E+00 0. -1.
</event>
<event>
 7    1  0.2425980E-008  0.4614232E+02  0.7816164E-02  0.1320468E+00
        -11   -1    0    0    0    0  0.00000000000E+00  0.00000000000E+00  0.45593999997E+02  0.45594000000E+02  0.51100000000E-03 0.  1.
         11   -1    0    0    0    0 -0.00000000000E+00 -0.00000000000E+00 -0.45593999997E+02  0.45594000000E+02  0.51100000000E-03 0. -1.
    9900012    2    1    2    0    0  0.61510094032E+01 -0.21866520130E+02  0.38899021313E+02  0.46142317872E+02  0.10000001012E+02 0.  0.
         12    1    1    2    0    0 -0.61510094032E+01  0.21866520130E+02 -0.38899021313E+02  0.45045682128E+02  0.00000000000E+00 0. -1.
         11    1    3    3    0    0  0.43752442729E+01 -0.37962707177E+01  0.70300332312E+01  0.91091054063E+01  0.51100000000E-03 0. -1.
        -11    1    3    3    0    0  0.19702403176E+01 -0.23720129827E+01  0.40534636347E+01  0.50930207341E+01  0.51100000000E-03 0.  1.
         12    1    3    3    0    0 -0.19447518732E+00 -0.15698236430E+02  0.27815524447E+02  0.31940191732E+02  0.00000000000E+00 0. -1.
</event>
<event>
 7    1  0.2425980E-008  0.4614232E+02  0.7816164E-02  0.1320468E+00
        -11   -1    0    0    0    0  0.00000000000E+00  0.00000000000E+00  0.45593999997E+02  0.45594000000E+02  0.51100000000E-03 0.  1.
         11   -1    0    0    0    0 -0.00000000000E+00 -0.00000000000E+00 -0.45593999997E+02  0.45594000000E+02  0.51100000000E-03 0. -1.
    9900012    2    1    2    0    0 -0.38765551477E+02  0.22466324473E+02  0.46486424960E+01  0.46142316592E+02  0.99999893360E+01 0.  0.
         12    1    1    2    0    0  0.38765551477E+02 -0.22466324473E+02 -0.46486424960E+01  0.45045683408E+02  0.00000000000E+00 0. -1.
         11    1    3    3    0    0 -0.11022628617E+02  0.70968584246E+01  0.53136288621E+01  0.14145613916E+02  0.51100000000E-03 0. -1.
        -11    1    3    3    0    0 -0.25106524767E+02  0.13808186291E+02  0.65454219537E+00  0.28660635378E+02  0.51100000000E-03 0.  1.
         12    1    3    3    0    0 -0.26363980941E+01  0.15612797573E+01 -0.13195285615E+01  0.33360672978E+01  0.00000000000E+00 0. -1.
</event>
<event>
 7    1  0.2425980E-008  0.4614232E+02  0.7816164E-02  0.1320468E+00
        -11   -1    0    0    0    0  0.00000000000E+00  0.00000000000E+00  0.45593999997E+02  0.45594000000E+02  0.51100000000E-03 0.  1.
         11   -1    0    0    0    0 -0.00000000000E+00 -0.00000000000E+00 -0.45593999997E+02  0.45594000000E+02  0.51100000000E-03 0. -1.
    9900012    2    1    2    0    0  0.34157521477E+02  0.24404474561E+02  0.16333971265E+02  0.46142320192E+02  0.10000022171E+02 0.  0.
         12    1    1    2    0    0 -0.34157521477E+02 -0.24404474561E+02 -0.16333971265E+02  0.45045679808E+02  0.00000000000E+00 0. -1.
         11    1    3    3    0    0  0.55543758604E+01  0.50437323066E+01  0.74145407404E+00  0.75392361141E+01  0.51100000000E-03 0. -1.
        -11    1    3    3    0    0  0.22046851325E+02  0.15213846300E+02  0.15281676243E+02  0.30839169925E+02  0.51100000000E-03 0.  1.
        -12    1    3    3    0    0  0.65562942916E+01  0.41468959542E+01  0.31084094811E+00  0.77639141538E+01  0.00000000000E+00 0.  1.
</event>
<event>
 7    1  0.2425980E-008  0.4614232E+02  0.7816164E-02  0.1320468E+00
        -11   -1    0    0    0    0  0.00000000000E+00  0.00000000000E+00  0.45593999997E+02  0.45594000000E+02  0.51100000000E-03 0.  1.
         11   -1    0    0    0    0 -0.00000000000E+00 -0.00000000000E+00 -0.45593999997E+02  0.45594000000E+02  0.51100000000E-03 0. -1.
    9900012    2    1    2    0    0 -0.22343502491E+02 -0.98063473059E+01  0.37864454565E+02  0.46142317959E+02  0.10000001800E+02 0.  0.
         12    1    1    2    0    0  0.22343502491E+02  0.98063473059E+01 -0.37864454565E+02  0.45045682041E+02  0.00000000000E+00 0. -1.
         11    1    3    3    0    0 -0.14362172605E+02 -0.27587182411E+01  0.23175803600E+02  0.27404386529E+02  0.51100000000E-03 0. -1.
        -11    1    3    3    0    0 -0.70381958746E+01 -0.72375280409E+01  0.14628637692E+02  0.17773999389E+02  0.51100000000E-03 0.  1.
         12    1    3    3    0    0 -0.94313401123E+00  0.18989897613E+00  0.60013273238E-01  0.96393203974E+00  0.00000000000E+00 0. -1.
</event>
<event>
 7    1  0.2425980E-008  0.4614232E+02  0.7816164E-02  0.1320468E+00
        -11   -1    0    0    0    0  0.00000000000E+00  0.00000000000E+00  0.45593999997E+02  0.45594000000E+02  0.51100000000E-03 0.  1.
         11   -1    0    0    0    0 -0.00000000000E+00 -0.00000000000E+00 -0.45593999997E+02  0.45594000000E+02  0.51100000000E-03 0. -1.
    9900012    2    1    2    0    0 -0.17063279274E+02  0.37510289009E+02  0.18191653951E+02  0.46142317026E+02  0.99999932960E+01 0.  0.
         12    1    1    2    0    0  0.17063279274E+02 -0.37510289009E+02 -0.18191653951E+02  0.45045682974E+02  0.00000000000E+00 0. -1.
         11    1    3    3    0    0 -0.49065807166E+01  0.14887794531E+02  0.80886569536E+01  0.17639368807E+02  0.51100000000E-03 0. -1.
        -11    1    3    3    0    0 -0.69174530075E+01  0.92391355505E+01  0.78420298385E+01  0.13953860186E+02  0.51100000000E-03 0.  1.
         12    1    3    3    0    0 -0.52392455500E+01  0.13383358927E+02  0.22609671591E+01  0.14549088033E+02  0.00000000000E+00 0. -1.
</event>
<event>
 7    1  0.2425980E-008  0.4614232E+02  0.7816164E-02  0.1320468E+00
        -11   -1    0    0    0    0  0.00000000000E+00  0.00000000000E+00  0.45593999997E+02  0.45594000000E+02  0.51100000000E-03 0.  1.
         11   -1    0    0    0    0 -0.00000000000E+00 -0.00000000000E+00 -0.45593999997E+02  0.45594000000E+02  0.51100000000E-03 0. -1.
    9900012    2    1    2    0    0  0.30864282055E+02 -0.31816512468E+02  0.80136894484E+01  0.46142316622E+02  0.99999896146E+01 0.  0.
         12    1    1    2    0    0 -0.30864282055E+02  0.31816512468E+02 -0.80136894484E+01  0.45045683378E+02  0.00000000000E+00 0. -1.
         11    1    3    3    0    0  0.17522620887E+02 -0.15132760832E+02  0.32822994841E+01  0.23384101080E+02  0.51100000000E-03 0. -1.
        -11    1    3    3    0    0  0.11232503153E+02 -0.98998847543E+01  0.18282781168E+01  0.15083747756E+02  0.51100000000E-03 0.  1.
         12    1    3    3    0    0  0.21091580144E+01 -0.67838668820E+01  0.29031118476E+01  0.76744677862E+01  0.00000000000E+00 0. -1.
</event>
<event>
 7    1  0.2425980E-008  0.4614232E+02  0.7816164E-02  0.1320468E+00
        -11   -1    0    0    0    0  0.00000000000E+00  0.00000000000E+00  0.45593999997E+02  0.45594000000E+02  0.51100000000E-03 0.  1.
         11   -1    0    0    0    0 -0.00000000000E+00 -0.00000000000E+00 -0.45593999997E+02  0.45594000000E+02  0.51100000000E-03 0. -1.
    9900012    2    1    2    0    0  0.43575904044E+01  0.36142663715E+02  0.26529846636E+02  0.46142317665E+02  0.99999991207E+01 0.  0.
         12    1    1    2    0    0 -0.43575904044E+01 -0.36142663715E+02 -0.26529846636E+02  0.45045682335E+02  0.00000000000E+00 0. -1.
         11    1    3    3    0    0 -0.16952032225E+01  0.48795963208E+01  0.39602659660E+01  0.65090614532E+01  0.51100000000E-03 0. -1.
        -11    1    3    3    0    0  0.70821196389E+01  0.29906016903E+02  0.22137484449E+02  0.37876041023E+02  0.51100000000E-03 0.  1.
        -12    1    3    3    0    0 -0.10293260121E+01  0.13570504907E+01  0.43209622054E+00  0.17572151881E+01  0.00000000000E+00 0.  1.
</event>
<event>
 7    1  0.2425980E-008  0.4614232E+02  0.7816164E-02  0.1320468E+00
        -11   -1    0    0    0    0  0.00000000000E+00  0.00000000000E+00  0.45593999997E+02  0.45594000000E+02  0.51100000000E-03 0.  1.
         11   -1    0    0    0    0 -0.00000000000E+00 -0.00000000000E+00 -0.45593999997E+02  0.45594000000E+02  0.51100000000E-03 0. -1.
    9900012    2    1    2    0    0 -0.38966301194E+02 -0.18290001783E+02  0.13274664367E+02  0.46142317543E+02  0.99999980091E+01 0.  0.
         12    1    1    2    0    0  0.38966301194E+02  0.18290001783E+02 -0.13274664367E+02  0.45045682457E+02  0.00000000000E+00 0. -1.
         11    1    3    3    0    0 -0.62732715403E+01 -0.99354769613E+00  0.53335094823E+01  0.82938167632E+01  0.51100000000E-03 0. -1.
        -11    1    3    3    0    0 -0.17157046405E+02 -0.95293265768E+01  0.37549647459E+01  0.19981793385E+02  0.51100000000E-03 0.  1.
         12    1    3    3    0    0 -0.15535983249E+02 -0.77671275101E+01  0.41861901386E+01  0.17866707395E+02  0.00000000000E+00 0. -1.
</event>
<event>
 7    1  0.2425980E-008  0.4614232E+02  0.7816164E-02  0.1320468E+00
        -11   -1    0    0    0    0  0.00000000000E+00  0.00000000000E+00  0.45593999997E+02  0.45594000000E+02  0.51100000000E-03 0.  1.
         11   -1    0    0    0    0 -0.00000000000E+00 -0.00000000000E+00 -0.45593999997E+02  0.45594000000E+02  0.51100000000E-03 0. -1.
    9900012    2    1    2    0    0 -0.16844095326E+02 -0.39476360897E+02  0.13675048558E+02  0.46142316854E+02  0.99999917284E+01 0.  0.
         12    1    1    2    0    0  0.16844095326E+02  0.39476360897E+02 -0.13675048558E+02  0.45045683146E+02  0.00000000000E+00 0. -1.
         11    1    3    3    0    0 -0.26225986776E+00 -0.63712678768E+01  0.29424412196E+01  0.70228053646E+01  0.51100000000E-03 0. -1.
        -11    1    3    3    0    0 -0.14842529555E+01 -0.40369451715E+01  0.35717738212E+01  0.55908408709E+01  0.51100000000E-03 0.  1.
        -12    1    3    3    0    0 -0.15097582503E+02 -0.29068147848E+02  0.71608335175E+01  0.33528670619E+02  0.00000000000E+00 0.  1.
</event>
<event>
 7    1  0.2425980E-008  0.4614232E+02  0.7816164E-02  0.1320468E+00
        -11   -1    0    0    0    0  0.00000000000E+00  0.00000000000E+00  0.45593999997E+02  0.45594000000E+02  0.51100000000E-03 0.  1.
         11   -1    0    0    0    0 -0.00000000000E+00 -0.00000000000E+00 -0.45593999997E+02  0.45594000000E+02  0.51100000000E-03 0. -1.
    9900012    2    1    2    0    0 -0.27574554128E+02  0.33297752605E+02  0.12649787101E+02  0.46142317881E+02  0.10000001091E+02 0.  0.
         12    1    1    2    0    0  0.27574554128E+02 -0.33297752605E+02 -0.12649787101E+02  0.45045682119E+02  0.00000000000E+00 0. -1.
         11    1    3    3    0    0 -0.59534262330E+01  0.88597647420E+01  0.41885715741E+01  0.11466597023E+02  0.51100000000E-03 0. -1.
        -11    1    3    3    0    0 -0.42118159686E+01  0.43959654953E+01  0.50502321081E+01  0.79100411501E+01  0.51100000000E-03 0.  1.
         12    1    3    3    0    0 -0.17409311926E+02  0.20042022368E+02  0.34109834188E+01  0.26765679708E+02  0.00000000000E+00 0. -1.
</event>
<event>
 7    1  0.2425980E-008  0.4614232E+02  0.7816164E-02  0.1320468E+00
        -11   -1    0    0    0    0  0.00000000000E+00  0.00000000000E+00  0.45593999997E+02  0.45594000000E+02  0.51100000000E-03 0.  1.
         11   -1    0    0    0    0 -0.00000000000E+00 -0.00000000000E+00 -0.45593999997E+02  0.45594000000E+02  0.51100000000E-03 0. -1.
    9900012    2    1    2    0    0 -0.25251739743E+02 -0.12690757219E+02  0.35077169888E+02  0.46142317342E+02  0.99999961745E+01 0.  0.
         12    1    1    2    0    0  0.25251739743E+02  0.12690757219E+02 -0.35077169888E+02  0.45045682658E+02  0.00000000000E+00 0. -1.
         11    1    3    3    0    0 -0.38268342020E+01 -0.37622683592E+00  0.38481813128E+01  0.54401016828E+01  0.51100000000E-03 0. -1.
        -11    1    3    3    0    0 -0.15133046499E+02 -0.42756106757E+01  0.21160607096E+02  0.26364014033E+02  0.51100000000E-03 0.  1.
        -12    1    3    3    0    0 -0.62918590419E+01 -0.80389197073E+01  0.10068381479E+02  0.14338201626E+02  0.00000000000E+00 0.  1.
</event>
<event>
 7    1  0.2425980E-008  0.4614232E+02  0.7816164E-02  0.1320468E+00
        -11   -1    0    0    0    0  0.00000000000E+00  0.00000000000E+00  0.45593999997E+02  0.45594000000E+02  0.51100000000E-03 0. -1.
         11   -1    0    0    0    0 -0.00000000000E+00 -0.00000000000E+00 -0.45593999997E+02  0.45594000000E+02  0.51100000000E-03 0.  1.
    9900012    2    1    2    0    0 -0.33662181263E+02 -0.10181635343E+02 -0.28147918100E+02  0.46142318309E+02  0.10000004999E+02 0.  0.
         12    1    1    2    0    0  0.33662181263E+02  0.10181635343E+02  0.28147918100E+02  0.45045681691E+02  0.00000000000E+00 0. -1.
         11    1    3    3    0    0 -0.67279240185E+01  0.10431467520E+01 -0.42891614183E+01  0.80467398789E+01  0.51100000000E-03 0. -1.
        -11    1    3    3    0    0 -0.22980670067E+02 -0.10008492909E+02 -0.17733223451E+02  0.30704207224E+02  0.51100000000E-03 0.  1.
        -12    1    3    3    0    0 -0.39535871769E+01 -0.12162891859E+01 -0.61255332304E+01  0.73913712060E+01  0.00000000000E+00 0.  1.
</event>
<event>
 7    1  0.2425980E-008  0.4614232E+02  0.7816164E-02  0.1320468E+00
        -11   -1    0    0    0    0  0.00000000000E+00  0.00000000000E+00  0.45593999997E+02  0.45594000000E+02  0.51100000000E-03 0.  1.
         11   -1    0    0    0    0 -0.00000000000E+00 -0.00000000000E+00 -0.45593999997E+02  0.45594000000E+02  0.51100000000E-03 0. -1.
    9900012    2    1    2    0    0 -0.28260296469E+02 -0.31437254308E+02  0.15561751793E+02  0.46142318367E+02  0.10000005525E+02 0.  0.
         12    1    1    2    0    0  0.28260296469E+02  0.31437254308E+02 -0.15561751793E+02  0.45045681633E+02  0.00000000000E+00 0. -1.
         11    1    3    3    0    0 -0.13218303504E+02 -0.17437641819E+02  0.37240195740E+01  0.22196018151E+02  0.51100000000E-03 0. -1.
        -11    1    3    3    0    0 -0.40068758465E+01 -0.57886127755E+01  0.35049430779E+01  0.78643320221E+01  0.51100000000E-03 0.  1.
        -12    1    3    3    0    0 -0.11035117119E+02 -0.82109997133E+01  0.83327891410E+01  0.16081968194E+02  0.00000000000E+00 0.  1.
</event>
<event>
 7    1  0.2425980E-008  0.4614232E+02  0.7816164E-02  0.1320468E+00
        -11   -1    0    0    0    0  0.00000000000E+00  0.00000000000E+00  0.45593999997E+02  0.45594000000E+02  0.51100000000E-03 0.  1.
         11   -1    0    0    0    0 -0.00000000000E+00 -0.00000000000E+00 -0.45593999997E+02  0.45594000000E+02  0.51100000000E-03 0. -1.
    9900012    2    1    2    0    0 -0.31949215780E+02  0.28445318709E+02  0.14114713070E+02  0.46142315740E+02  0.99999815671E+01 0.  0.
         12    1    1    2    0    0  0.31949215780E+02 -0.28445318709E+02 -0.14114713070E+02  0.45045684260E+02  0.00000000000E+00 0. -1.
         11    1    3    3    0    0 -0.82854959795E+01  0.49848839551E+01  0.65312096975E+01  0.11668556554E+02  0.51100000000E-03 0. -1.
        -11    1    3    3    0    0 -0.72259385739E+01  0.10249928722E+02  0.28065345948E+01  0.12851142509E+02  0.51100000000E-03 0.  1.
        -12    1    3    3    0    0 -0.16437781227E+02  0.13210506032E+02  0.47769687780E+01  0.21622616677E+02  0.00000000000E+00 0.  1.
</event>
<event>
 7    1  0.2425980E-008  0.4614232E+02  0.7816164E-02  0.1320468E+00
        -11   -1    0    0    0    0  0.00000000000E+00  0.00000000000E+00  0.45593999997E+02  0.45594000000E+02  0.51100000000E-03 0.  1.
         11   -1    0    0    0    0 -0.00000000000E+00 -0.00000000000E+00 -0.45593999997E+02  0.45594000000E+02  0.51100000000E-03 0. -1.
    9900012    2    1    2    0    0 -0.43775819832E+02 -0.10503370374E+02 -0.15717539550E+01  0.46142316504E+02  0.99999885356E+01 0.  0.
         12    1    1    2    0    0  0.43775819832E+02  0.10503370374E+02  0.15717539550E+01  0.45045683496E+02  0.00000000000E+00 0. -1.
         11    1    3    3    0    0 -0.61126374141E+01  0.12272538683E+01 -0.53600552307E+00  0.62576185882E+01  0.51100000000E-03 0. -1.
        -11    1    3    3    0    0 -0.16261813413E+02 -0.43102844361E+01 -0.32186767330E+01  0.17128485268E+02  0.51100000000E-03 0.  1.
        -12    1    3    3    0    0 -0.21401369004E+02 -0.74203398062E+01  0.21829283010E+01  0.22756212648E+02  0.00000000000E+00 0.  1.
</event>
<event>
 7    1  0.2425980E-008  0.4614232E+02  0.7816164E-02  0.1320468E+00
        -11   -1    0    0    0    0  0.00000000000E+00  0.00000000000E+00  0.45593999997E+02  0.45594000000E+02  0.51100000000E-03 0.  1.
         11   -1    0    0    0    0 -0.00000000000E+00 -0.00000000000E+00 -0.45593999997E+02  0.45594000000E+02  0.51100000000E-03 0. -1.
    9900012    2    1    2    0    0  0.22357808781E+02 -0.40909708366E+01  0.38890943420E+02  0.46142321673E+02  0.10000035669E+02 0.  0.
         12    1    1    2    0    0 -0.22357808781E+02  0.40909708366E+01 -0.38890943420E+02  0.45045678327E+02  0.00000000000E+00 0. -1.
         11    1    3    3    0    0  0.13257811989E+02 -0.31589705375E+01  0.24154039687E+02  0.27733847679E+02  0.51100000000E-03 0. -1.
        -11    1    3    3    0    0  0.74532495365E+01  0.53661715135E+00  0.14334911986E+02  0.16165660782E+02  0.51100000000E-03 0.  1.
         12    1    3    3    0    0  0.16467472548E+01 -0.14686174504E+01  0.40199174666E+00  0.22428132114E+01  0.00000000000E+00 0. -1.
</event>
<event>
 7    1  0.2425980E-008  0.4614232E+02  0.7816164E-02  0.1320468E+00
        -11   -1    0    0    0    0  0.00000000000E+00  0.00000000000E+00  0.45593999997E+02  0.45594000000E+02  0.51100000000E-03 0.  1.
         11   -1    0    0    0    0 -0.00000000000E+00 -0.00000000000E+00 -0.45593999997E+02  0.45594000000E+02  0.51100000000E-03 0. -1.
    9900012    2    1    2    0    0  0.30233695834E+02  0.21292891636E+02  0.25722557410E+02  0.46142316991E+02  0.99999929791E+01 0.  0.
         12    1    1    2    0    0 -0.30233695834E+02 -0.21292891636E+02 -0.25722557410E+02  0.45045683009E+02  0.00000000000E+00 0. -1.
         11    1    3    3    0    0  0.95038320760E+00  0.12452736390E+01  0.50929756645E+00  0.16472155140E+01  0.51100000000E-03 0. -1.
        -11    1    3    3    0    0  0.17018830948E+02  0.93865833027E+01  0.18752480276E+02  0.27007481736E+02  0.51100000000E-03 0.  1.
        -12    1    3    3    0    0  0.12264481678E+02  0.10661034695E+02  0.64607795671E+01  0.17487619741E+02  0.00000000000E+00 0.  1.
</event>
<event>
 7    1  0.2425980E-008  0.4614232E+02  0.7816164E-02  0.1320468E+00
        -11   -1    0    0    0    0  0.00000000000E+00  0.00000000000E+00  0.45593999997E+02  0.45594000000E+02  0.51100000000E-03 0.  1.
         11   -1    0    0    0    0 -0.00000000000E+00 -0.00000000000E+00 -0.45593999997E+02  0.45594000000E+02  0.51100000000E-03 0. -1.
    9900012    2    1    2    0    0 -0.21285337105E+02 -0.11219916007E+02  0.38080985358E+02  0.46142317225E+02  0.99999951080E+01 0.  0.
         12    1    1    2    0    0  0.21285337105E+02  0.11219916007E+02 -0.38080985358E+02  0.45045682775E+02  0.00000000000E+00 0. -1.
         11    1    3    3    0    0 -0.34363283299E+01  0.17759888780E+01  0.57897629435E+01  0.69630341151E+01  0.51100000000E-03 0. -1.
        -11    1    3    3    0    0 -0.17123848548E+01 -0.21225277875E+01  0.37851943849E+01  0.46653063021E+01  0.51100000000E-03 0.  1.
         12    1    3    3    0    0 -0.16136623920E+02 -0.10873377097E+02  0.28506028029E+02  0.34513976807E+02  0.00000000000E+00 0. -1.
</event>
<event>
 7    1  0.2425980E-008  0.4614232E+02  0.7816164E-02  0.1320468E+00
        -11   -1    0    0    0    0  0.00000000000E+00  0.00000000000E+00  0.45593999997E+02  0.45594000000E+02  0.51100000000E-03 0. -1.
         11   -1    0    0    0    0 -0.00000000000E+00 -0.00000000000E+00 -0.45593999997E+02  0.45594000000E+02  0.51100000000E-03 0.  1.
    9900012    2    1    2    0    0  0.14572974785E+02  0.58204125696E+01 -0.42223981785E+02  0.46142318360E+02  0.10000005466E+02 0.  0.
         12    1    1    2    0    0 -0.14572974785E+02 -0.58204125696E+01  0.42223981785E+02  0.45045681640E+02  0.00000000000E+00 0. -1.
         11    1    3    3    0    0 -0.17221803687E+00  0.10291441514E+01 -0.65180428022E+00  0.12303031404E+01  0.51100000000E-03 0. -1.
        -11    1    3    3    0    0  0.20330226491E+01  0.18155771033E+01 -0.15672433671E+02  0.15907692440E+02  0.51100000000E-03 0.  1.
        -12    1    3    3    0    0  0.12712170173E+02  0.29756913149E+01 -0.25899743834E+02  0.29004322781E+02  0.00000000000E+00 0.  1.
</event>
<event>
 7    1  0.2425980E-008  0.4614232E+02  0.7816164E-02  0.1320468E+00
        -11   -1    0    0    0    0  0.00000000000E+00  0.00000000000E+00  0.45593999997E+02  0.45594000000E+02  0.51100000000E-03 0.  1.
         11   -1    0    0    0    0 -0.00000000000E+00 -0.00000000000E+00 -0.45593999997E+02  0.45594000000E+02  0.51100000000E-03 0. -1.
    9900012    2    1    2    0    0 -0.19495154966E+02  0.38691961605E+02  0.12328200048E+02  0.46142317894E+02  0.10000001208E+02 0.  0.
         12    1    1    2    0    0  0.19495154966E+02 -0.38691961605E+02 -0.12328200048E+02  0.45045682106E+02  0.00000000000E+00 0. -1.
         11    1    3    3    0    0  0.68513073755E+00  0.44725841039E+01  0.23236210109E+01  0.50865142836E+01  0.51100000000E-03 0. -1.
        -11    1    3    3    0    0 -0.46154493552E+01  0.82629396351E+01  0.12312578898E+01  0.95443459920E+01  0.51100000000E-03 0.  1.
        -12    1    3    3    0    0 -0.15564836348E+02  0.25956437866E+02  0.87733211471E+01  0.31511457618E+02  0.00000000000E+00 0.  1.
</event>
<event>
 7    1  0.2425980E-008  0.4614232E+02  0.7816164E-02  0.1320468E+00
        -11   -1    0    0    0    0  0.00000000000E+00  0.00000000000E+00  0.45593999997E+02  0.45594000000E+02  0.51100000000E-03 0.  1.
         11   -1    0    0    0    0 -0.00000000000E+00 -0.00000000000E+00 -0.45593999997E+02  0.45594000000E+02  0.51100000000E-03 0. -1.
    9900012    2    1    2    0    0  0.34022576451E+02 -0.27049918745E+02  0.11827072899E+02  0.46142318011E+02  0.10000002275E+02 0.  0.
         12    1    1    2    0    0 -0.34022576451E+02  0.27049918745E+02 -0.11827072899E+02  0.45045681989E+02  0.00000000000E+00 0. -1.
         11    1    3    3    0    0  0.12114763030E+02 -0.71836152575E+01  0.55472262270E+00  0.14095372606E+02  0.51100000000E-03 0. -1.
        -11    1    3    3    0    0  0.16089688304E+01 -0.19829825714E+01  0.25845878825E+01  0.36333311656E+01  0.51100000000E-03 0.  1.
        -12    1    3    3    0    0  0.20298844591E+02 -0.17883320916E+02  0.86877623941E+01  0.28413614239E+02  0.00000000000E+00 0.  1.
</event>
<event>
 7    1  0.2425980E-008  0.4614232E+02  0.7816164E-02  0.1320468E+00
        -11   -1    0    0    0    0  0.00000000000E+00  0.00000000000E+00  0.45593999997E+02  0.45594000000E+02  0.51100000000E-03 0.  1.
         11   -1    0    0    0    0 -0.00000000000E+00 -0.00000000000E+00 -0.45593999997E+02  0.45594000000E+02  0.51100000000E-03 0. -1.
    9900012    2    1    2    0    0 -0.93255010741E+01 -0.10483874269E+02  0.42804636717E+02  0.46142317471E+02  0.99999973577E+01 0.  0.
         12    1    1    2    0    0  0.93255010741E+01  0.10483874269E+02 -0.42804636717E+02  0.45045682529E+02  0.00000000000E+00 0. -1.
         11    1    3    3    0    0 -0.88102955148E+01 -0.68883044578E+01  0.31036416727E+02  0.32989834933E+02  0.51100000000E-03 0.  1.
        -11    1    3    3    0    0 -0.40109730999E+00 -0.15566991328E+01  0.47518254449E+00  0.16763024650E+01  0.51100000000E-03 0. -1.
         12    1    3    3    0    0 -0.11410824936E+00 -0.20388706784E+01  0.11293037446E+02  0.11476180074E+02  0.00000000000E+00 0. -1.
</event>
<event>
 7    1  0.2425980E-008  0.4614232E+02  0.7816164E-02  0.1320468E+00
        -11   -1    0    0    0    0  0.00000000000E+00  0.00000000000E+00  0.45593999997E+02  0.45594000000E+02  0.51100000000E-03 0. -1.
         11   -1    0    0    0    0 -0.00000000000E+00 -0.00000000000E+00 -0.45593999997E+02  0.45594000000E+02  0.51100000000E-03 0.  1.
    9900012    2    1    2    0    0  0.40369239998E+02  0.12937621990E+02 -0.15233381365E+02  0.46142317536E+02  0.99999979501E+01 0.  0.
         12    1    1    2    0    0 -0.40369239998E+02 -0.12937621990E+02  0.15233381365E+02  0.45045682464E+02  0.00000000000E+00 0. -1.
         11    1    3    3    0    0  0.82218575581E+01  0.20368918932E+01 -0.84084250855E+00  0.85120436251E+01  0.51100000000E-03 0. -1.
        -11    1    3    3    0    0  0.12010638624E+02  0.27793792246E+01 -0.16058686626E+01  0.12432184179E+02  0.51100000000E-03 0.  1.
        -12    1    3    3    0    0  0.20136743816E+02  0.81213508726E+01 -0.12786670194E+02  0.25198089732E+02  0.00000000000E+00 0.  1.
</event>
<event>
 7    1  0.2425980E-008  0.4614232E+02  0.7816164E-02  0.1320468E+00
        -11   -1    0    0    0    0  0.00000000000E+00  0.00000000000E+00  0.45593999997E+02  0.45594000000E+02  0.51100000000E-03 0. -1.
         11   -1    0    0    0    0 -0.00000000000E+00 -0.00000000000E+00 -0.45593999997E+02  0.45594000000E+02  0.51100000000E-03 0.  1.
    9900012    2    1    2    0    0 -0.32930379315E+02  0.18382756805E+02 -0.24632860552E+02  0.46142318204E+02  0.10000004035E+02 0.  0.
         12    1    1    2    0    0  0.32930379315E+02 -0.18382756805E+02  0.24632860552E+02  0.45045681796E+02  0.00000000000E+00 0. -1.
         11    1    3    3    0    0 -0.36366661726E+01  0.67473207942E+00 -0.66161872854E+00  0.37574384670E+01  0.51100000000E-03 0. -1.
        -11    1    3    3    0    0 -0.12197672713E+02  0.75045303618E+01 -0.58726994176E+01  0.15478688390E+02  0.51100000000E-03 0.  1.
         12    1    3    3    0    0 -0.17096040429E+02  0.10203494363E+02 -0.18098542406E+02  0.26906191347E+02  0.00000000000E+00 0. -1.
</event>
<event>
 7    1  0.2425980E-008  0.4614232E+02  0.7816164E-02  0.1320468E+00
        -11   -1    0    0    0    0  0.00000000000E+00  0.00000000000E+00  0.45593999997E+02  0.45594000000E+02  0.51100000000E-03 0.  1.
         11   -1    0    0    0    0 -0.00000000000E+00 -0.00000000000E+00 -0.45593999997E+02  0.45594000000E+02  0.51100000000E-03 0. -1.
    9900012    2    1    2    0    0 -0.14790067409E+02 -0.26913939081E+02  0.32954619603E+02  0.46142321362E+02  0.10000032833E+02 0.  0.
         12    1    1    2    0    0  0.14790067409E+02  0.26913939081E+02 -0.32954619603E+02  0.45045678638E+02  0.00000000000E+00 0. -1.
         11    1    3    3    0    0 -0.12073120560E+01 -0.80157304842E+01  0.66343924296E+01  0.10474955884E+02  0.51100000000E-03 0. -1.
        -11    1    3    3    0    0 -0.19674471970E+01 -0.75125040105E+01  0.94829578383E+01  0.12257041022E+02  0.51100000000E-03 0.  1.
         12    1    3    3    0    0 -0.11615308156E+02 -0.11385704586E+02  0.16837269335E+02  0.23410324456E+02  0.00000000000E+00 0. -1.
</event>
<event>
 7    1  0.2425980E-008  0.4614233E+02  0.7816164E-02  0.1320468E+00
        -11   -1    0    0    0    0  0.00000000000E+00  0.00000000000E+00  0.45593999997E+02  0.45594000000E+02  0.51100000000E-03 0.  1.
         11   -1    0    0    0    0 -0.00000000000E+00 -0.00000000000E+00 -0.45593999997E+02  0.45594000000E+02  0.51100000000E-03 0. -1.
    9900012    2    1    2    0    0 -0.77507520093E+01  0.12357029155E+00  0.44373678964E+02  0.46142325279E+02  0.10000068551E+02 0.  0.
         12    1    1    2    0    0  0.77507520093E+01 -0.12357029155E+00 -0.44373678964E+02  0.45045674721E+02  0.00000000000E+00 0. -1.
         11    1    3    3    0    0  0.35800272613E+00  0.85885158566E+00  0.33315920074E+01  0.34590891233E+01  0.51100000000E-03 0. -1.
        -11    1    3    3    0    0  0.86682811318E+00  0.91918091880E+00  0.99189536248E+00  0.16062817967E+01  0.51100000000E-03 0.  1.
        -12    1    3    3    0    0 -0.89755828486E+01 -0.16544622129E+01  0.40050191594E+02  0.41076954359E+02  0.00000000000E+00 0.  1.
</event>
<event>
 7    1  0.2425980E-008  0.4614232E+02  0.7816164E-02  0.1320468E+00
        -11   -1    0    0    0    0  0.00000000000E+00  0.00000000000E+00  0.45593999997E+02  0.45594000000E+02  0.51100000000E-03 0.  1.
         11   -1    0    0    0    0 -0.00000000000E+00 -0.00000000000E+00 -0.45593999997E+02  0.45594000000E+02  0.51100000000E-03 0. -1.
    9900012    2    1    2    0    0 -0.40866187554E+02  0.22822939370E+00 -0.18947721418E+02  0.46142317401E+02  0.99999967192E+01 0.  0.
         12    1    1    2    0    0  0.40866187554E+02 -0.22822939370E+00  0.18947721418E+02  0.45045682599E+02  0.00000000000E+00 0. -1.
         11    1    3    3    0    0 -0.57443825217E+01 -0.12501729908E+01 -0.80984790246E+00  0.59343674430E+01  0.51100000000E-03 0. -1.
        -11    1    3    3    0    0 -0.13229737317E+02 -0.28959964782E+01 -0.62565385452E+01  0.14918345079E+02  0.51100000000E-03 0.  1.
        -12    1    3    3    0    0 -0.21892067715E+02  0.43743988627E+01 -0.11881334970E+02  0.25289604879E+02  0.00000000000E+00 0.  1.
</event>
<event>
 7    1  0.2425980E-008  0.4614232E+02  0.7816164E-02  0.1320468E+00
        -11   -1    0    0    0    0  0.00000000000E+00  0.00000000000E+00  0.45593999997E+02  0.45594000000E+02  0.51100000000E-03 0.  1.
         11   -1    0    0    0    0 -0.00000000000E+00 -0.00000000000E+00 -0.45593999997E+02  0.45594000000E+02  0.51100000000E-03 0. -1.
    9900012    2    1    2    0    0  0.42733549376E+02 -0.77607072866E+01  0.11946918099E+02  0.46142315723E+02  0.99999814183E+01 0.  0.
         12    1    1    2    0    0 -0.42733549376E+02  0.77607072866E+01 -0.11946918099E+02  0.45045684277E+02  0.00000000000E+00 0. -1.
         11    1    3    3    0    0  0.21300853762E+01 -0.18544560367E+01 -0.20447620738E+00  0.28316217407E+01  0.51100000000E-03 0. -1.
        -11    1    3    3    0    0  0.19104800902E+02 -0.61488975735E+01  0.60292542092E+01  0.20956007861E+02  0.51100000000E-03 0.  1.
        -12    1    3    3    0    0  0.21498663098E+02  0.24264632368E+00  0.61221400970E+01  0.22354686122E+02  0.00000000000E+00 0.  1.
</event>
<event>
 7    1  0.2425980E-008  0.4614232E+02  0.7816164E-02  0.1320468E+00
        -11   -1    0    0    0    0  0.00000000000E+00  0.00000000000E+00  0.45593999997E+02  0.45594000000E+02  0.51100000000E-03 0.  1.
         11   -1    0    0    0    0 -0.00000000000E+00 -0.00000000000E+00 -0.45593999997E+02  0.45594000000E+02  0.51100000000E-03 0. -1.
    9900012    2    1    2    0    0  0.89779526406E+01  0.14622578739E+01  0.44117702408E+02  0.46142317660E+02  0.99999990816E+01 0.  0.
         12    1    1    2    0    0 -0.89779526406E+01 -0.14622578739E+01 -0.44117702408E+02  0.45045682340E+02  0.00000000000E+00 0. -1.
         11    1    3    3    0    0  0.46024684983E+01  0.23938221886E+01  0.13929699496E+02  0.14864374499E+02  0.51100000000E-03 0. -1.
        -11    1    3    3    0    0 -0.40010725961E+00  0.23411466679E+01  0.78074332276E+01  0.81607026294E+01  0.51100000000E-03 0.  1.
        -12    1    3    3    0    0  0.47755914019E+01 -0.32727109826E+01  0.22380569684E+02  0.23117240532E+02  0.00000000000E+00 0.  1.
</event>
<event>
 7    1  0.2425980E-008  0.4614232E+02  0.7816164E-02  0.1320468E+00
        -11   -1    0    0    0    0  0.00000000000E+00  0.00000000000E+00  0.45593999997E+02  0.45594000000E+02  0.51100000000E-03 0. -1.
         11   -1    0    0    0    0 -0.00000000000E+00 -0.00000000000E+00 -0.45593999997E+02  0.45594000000E+02  0.51100000000E-03 0.  1.
    9900012    2    1    2    0    0 -0.12251746712E+02  0.28431360261E+02 -0.32721031232E+02  0.46142318424E+02  0.10000006041E+02 0.  0.
         12    1    1    2    0    0  0.12251746712E+02 -0.28431360261E+02  0.32721031232E+02  0.45045681576E+02  0.00000000000E+00 0. -1.
         11    1    3    3    0    0 -0.34976592316E+01  0.54733660722E+01 -0.10822951381E+02  0.12622505025E+02  0.51100000000E-03 0. -1.
        -11    1    3    3    0    0 -0.61202359030E+01  0.19804697018E+02 -0.15366013082E+02  0.25803055435E+02  0.51100000000E-03 0.  1.
        -12    1    3    3    0    0 -0.26338515779E+01  0.31532971704E+01 -0.65320667696E+01  0.77167579631E+01  0.00000000000E+00 0.  1.
</event>
<event>
 7    1  0.2425980E-008  0.4614232E+02  0.7816164E-02  0.1320468E+00
        -11   -1    0    0    0    0  0.00000000000E+00  0.00000000000E+00  0.45593999997E+02  0.45594000000E+02  0.51100000000E-03 0.  1.
         11   -1    0    0    0    0 -0.00000000000E+00 -0.00000000000E+00 -0.45593999997E+02  0.45594000000E+02  0.51100000000E-03 0. -1.
    9900012    2    1    2    0    0  0.23982522465E+02 -0.36375944951E+02  0.11434279384E+02  0.46142317633E+02  0.99999988349E+01 0.  0.
         12    1    1    2    0    0 -0.23982522465E+02  0.36375944951E+02 -0.11434279384E+02  0.45045682367E+02  0.00000000000E+00 0. -1.
         11    1    3    3    0    0  0.90342875513E+01 -0.19545586726E+02  0.46885827565E+01  0.22037039741E+02  0.51100000000E-03 0. -1.
        -11    1    3    3    0    0  0.44841679675E+01 -0.90511177863E+01  0.27783477708E+01  0.10476149681E+02  0.51100000000E-03 0.  1.
        -12    1    3    3    0    0  0.10464066946E+02 -0.77792404390E+01  0.39673488566E+01  0.13629128211E+02  0.00000000000E+00 0.  1.
</event>
<event>
 7    1  0.2425980E-008  0.4614232E+02  0.7816164E-02  0.1320468E+00
        -11   -1    0    0    0    0  0.00000000000E+00  0.00000000000E+00  0.45593999997E+02  0.45594000000E+02  0.51100000000E-03 0.  1.
         11   -1    0    0    0    0 -0.00000000000E+00 -0.00000000000E+00 -0.45593999997E+02  0.45594000000E+02  0.51100000000E-03 0. -1.
    9900012    2    1    2    0    0 -0.40115643011E+02 -0.15350604967E+02 -0.13572309653E+02  0.46142317894E+02  0.10000001215E+02 0.  0.
         12    1    1    2    0    0  0.40115643011E+02  0.15350604967E+02  0.13572309653E+02  0.45045682106E+02  0.00000000000E+00 0. -1.
         11    1    3    3    0    0 -0.26251502456E+01  0.14215567235E+01 -0.11117293818E+01  0.31856207888E+01  0.51100000000E-03 0. -1.
        -11    1    3    3    0    0 -0.13802102098E+02 -0.53683287643E+01 -0.40368156130E+01  0.15349685879E+02  0.51100000000E-03 0.  1.
         12    1    3    3    0    0 -0.23688390668E+02 -0.11403832927E+02 -0.84237646579E+01  0.27607011227E+02  0.00000000000E+00 0. -1.
</event>
<event>
 7    1  0.2425980E-008  0.4614232E+02  0.7816164E-02  0.1320468E+00
        -11   -1    0    0    0    0  0.00000000000E+00  0.00000000000E+00  0.45593999997E+02  0.45594000000E+02  0.51100000000E-03 0. -1.
         11   -1    0    0    0    0 -0.00000000000E+00 -0.00000000000E+00 -0.45593999997E+02  0.45594000000E+02  0.51100000000E-03 0.  1.
    9900012    2    1    2    0    0  0.39571359445E+02 -0.17456675129E+01 -0.21451657957E+02  0.46142317937E+02  0.10000001604E+02 0.  0.
         12    1    1    2    0    0 -0.39571359445E+02  0.17456675129E+01  0.21451657957E+02  0.45045682063E+02  0.00000000000E+00 0. -1.
         11    1    3    3    0    0  0.13422268225E+02  0.17383451168E+01 -0.64778438892E+01  0.15004718916E+02  0.51100000000E-03 0. -1.
        -11    1    3    3    0    0  0.19966724456E+02 -0.92315296532E+00 -0.81665826790E+01  0.21592020976E+02  0.51100000000E-03 0.  1.
         12    1    3    3    0    0  0.61823667640E+01 -0.25608596644E+01 -0.68072313889E+01  0.95455780447E+01  0.00000000000E+00 0. -1.
</event>
<event>
 7    1  0.2425980E-008  0.4614232E+02  0.7816164E-02  0.1320468E+00
        -11   -1    0    0    0    0  0.00000000000E+00  0.00000000000E+00  0.45593999997E+02  0.45594000000E+02  0.51100000000E-03 0.  1.
         11   -1    0    0    0    0 -0.00000000000E+00 -0.00000000000E+00 -0.45593999997E+02  0.45594000000E+02  0.51100000000E-03 0. -1.
    9900012    2    1    2    0    0 -0.33270911096E+02 -0.26937383414E+02 -0.14019174236E+02  0.46142318780E+02  0.10000009289E+02 0.  0.
         12    1    1    2    0    0  0.33270911096E+02  0.26937383414E+02  0.14019174236E+02  0.45045681220E+02  0.00000000000E+00 0. -1.
         11    1    3    3    0    0  0.48793394902E+00 -0.30501230537E+00 -0.50299078798E+00  0.76427222830E+00  0.51100000000E-03 0. -1.
        -11    1    3    3    0    0 -0.27088030874E+02 -0.19600142944E+02 -0.12221657595E+02  0.35599100195E+02  0.51100000000E-03 0.  1.
         12    1    3    3    0    0 -0.66708141702E+01 -0.70322281645E+01 -0.12945258531E+01  0.97789463561E+01  0.00000000000E+00 0. -1.
</event>
<event>
 7    1  0.2425980E-008  0.4614231E+02  0.7816164E-02  0.1320468E+00
        -11   -1    0    0    0    0  0.00000000000E+00  0.00000000000E+00  0.45593999997E+02  0.45594000000E+02  0.51100000000E-03 0.  1.
         11   -1    0    0    0    0 -0.00000000000E+00 -0.00000000000E+00 -0.45593999997E+02  0.45594000000E+02  0.51100000000E-03 0. -1.
    9900012    2    1    2    0    0  0.28163339427E+02  0.35131344916E+02 -0.13148451545E+01  0.46142313180E+02  0.99999582255E+01 0.  0.
         12    1    1    2    0    0 -0.28163339427E+02 -0.35131344916E+02  0.13148451545E+01  0.45045686820E+02  0.00000000000E+00 0. -1.
         11    1    3    3    0    0  0.21359509905E+02  0.27777644342E+02 -0.29404018833E+01  0.35163505969E+02  0.51100000000E-03 0.  1.
        -11    1    3    3    0    0  0.28672352806E+01  0.13526956502E+01 -0.10191085856E+01  0.33300760121E+01  0.51100000000E-03 0. -1.
         12    1    3    3    0    0  0.39365942424E+01  0.60010049240E+01  0.26446653144E+01  0.76487311988E+01  0.00000000000E+00 0. -1.
</event>
<event>
 7    1  0.2425980E-008  0.4614232E+02  0.7816164E-02  0.1320468E+00
        -11   -1    0    0    0    0  0.00000000000E+00  0.00000000000E+00  0.45593999997E+02  0.45594000000E+02  0.51100000000E-03 0.  1.
         11   -1    0    0    0    0 -0.00000000000E+00 -0.00000000000E+00 -0.45593999997E+02  0.45594000000E+02  0.51100000000E-03 0. -1.
    9900012    2    1    2    0    0 -0.20056408951E+02  0.37833452420E+01  0.40156445929E+02  0.46142318843E+02  0.10000009866E+02 0.  0.
         12    1    1    2    0    0  0.20056408951E+02 -0.37833452420E+01 -0.40156445929E+02  0.45045681157E+02  0.00000000000E+00 0. -1.
         11    1    3    3    0    0 -0.10583375326E+02 -0.13801093617E+01  0.15327638602E+02  0.18677500918E+02  0.51100000000E-03 0. -1.
        -11    1    3    3    0    0 -0.44776836222E+01  0.40329100897E+01  0.90260878110E+01  0.10852846440E+02  0.51100000000E-03 0.  1.
         12    1    3    3    0    0 -0.49953500033E+01  0.11305445140E+01  0.15802719516E+02  0.16611971486E+02  0.00000000000E+00 0. -1.
</event>
<event>
 7    1  0.2425980E-008  0.4614232E+02  0.7816164E-02  0.1320468E+00
        -11   -1    0    0    0    0  0.00000000000E+00  0.00000000000E+00  0.45593999997E+02  0.45594000000E+02  0.51100000000E-03 0.  1.
         11   -1    0    0    0    0 -0.00000000000E+00 -0.00000000000E+00 -0.45593999997E+02  0.45594000000E+02  0.51100000000E-03 0. -1.
    9900012    2    1    2    0    0 -0.41450414216E+02 -0.16214405331E+02 -0.69332016460E+01  0.46142322471E+02  0.10000042951E+02 0.  0.
         12    1    1    2    0    0  0.41450414216E+02  0.16214405331E+02  0.69332016460E+01  0.45045677529E+02  0.00000000000E+00 0. -1.
         11    1    3    3    0    0 -0.16927626809E+01  0.43900010667E+00  0.10777360358E+01  0.20541864111E+01  0.51100000000E-03 0. -1.
        -11    1    3    3    0    0 -0.13320333693E+02 -0.77179928926E+01 -0.18081196599E+01  0.15500580665E+02  0.51100000000E-03 0.  1.
         12    1    3    3    0    0 -0.26437317843E+02 -0.89354125453E+01 -0.62028180220E+01  0.28587555395E+02  0.00000000000E+00 0. -1.
</event>
<event>
 7    1  0.2425980E-008  0.4614231E+02  0.7816164E-02  0.1320468E+00
        -11   -1    0    0    0    0  0.00000000000E+00  0.00000000000E+00  0.45593999997E+02  0.45594000000E+02  0.51100000000E-03 0. -1.
         11   -1    0    0    0    0 -0.00000000000E+00 -0.00000000000E+00 -0.45593999997E+02  0.45594000000E+02  0.51100000000E-03 0.  1.
    9900012    2    1    2    0    0 -0.37719642856E+02 -0.10936590753E+02 -0.22062039839E+02  0.46142311235E+02  0.99999404868E+01 0.  0.
         12    1    1    2    0    0  0.37719642856E+02  0.10936590753E+02  0.22062039839E+02  0.45045688765E+02  0.00000000000E+00 0. -1.
         11    1    3    3    0    0 -0.19877197482E+02 -0.13219635641E+01 -0.12617335442E+02  0.23580664141E+02  0.51100000000E-03 0.  1.
        -11    1    3    3    0    0 -0.31421049237E+01 -0.24268969290E+01 -0.29939680752E+01  0.49725744994E+01  0.51100000000E-03 0. -1.
        -12    1    3    3    0    0 -0.14700340450E+02 -0.71877302596E+01 -0.64507363217E+01  0.17589072594E+02  0.00000000000E+00 0.  1.
</event>
<event>
 7    1  0.2425980E-008  0.4614232E+02  0.7816164E-02  0.1320468E+00
        -11   -1    0    0    0    0  0.00000000000E+00  0.00000000000E+00  0.45593999997E+02  0.45594000000E+02  0.51100000000E-03 0.  1.
         11   -1    0    0    0    0 -0.00000000000E+00 -0.00000000000E+00 -0.45593999997E+02  0.45594000000E+02  0.51100000000E-03 0. -1.
    9900012    2    1    2    0    0  0.37929092865E+00  0.28082985477E+02  0.35218107713E+02  0.46142322674E+02  0.10000044795E+02 0.  0.
         12    1    1    2    0    0 -0.37929092865E+00 -0.28082985477E+02 -0.35218107713E+02  0.45045677326E+02  0.00000000000E+00 0. -1.
         11    1    3    3    0    0 -0.34091694348E+01  0.76029521765E+01  0.12817877994E+02  0.15288077530E+02  0.51100000000E-03 0. -1.
        -11    1    3    3    0    0  0.83297770027E+00  0.14140440447E+02  0.13895849034E+02  0.19842896172E+02  0.51100000000E-03 0.  1.
        -12    1    3    3    0    0  0.29554826632E+01  0.63395928536E+01  0.85043806862E+01  0.11011348972E+02  0.00000000000E+00 0.  1.
</event>
<event>
 7    1  0.2425980E-008  0.4614232E+02  0.7816164E-02  0.1320468E+00
        -11   -1    0    0    0    0  0.00000000000E+00  0.00000000000E+00  0.45593999997E+02  0.45594000000E+02  0.51100000000E-03 0.  1.
         11   -1    0    0    0    0 -0.00000000000E+00 -0.00000000000E+00 -0.45593999997E+02  0.45594000000E+02  0.51100000000E-03 0. -1.
    9900012    2    1    2    0    0  0.20415291036E+02 -0.34604598163E+02  0.20367895475E+02  0.46142317763E+02  0.10000000021E+02 0.  0.
         12    1    1    2    0    0 -0.20415291036E+02  0.34604598163E+02 -0.20367895475E+02  0.45045682237E+02  0.00000000000E+00 0. -1.
         11    1    3    3    0    0  0.81383167834E+01 -0.73347778515E+01  0.67419032223E+01  0.12864074997E+02  0.51100000000E-03 0.  1.
        -11    1    3    3    0    0  0.44733466930E+01 -0.66546427349E+01  0.57649642152E+01  0.98757234281E+01  0.51100000000E-03 0. -1.
         12    1    3    3    0    0  0.78036275597E+01 -0.20615177576E+02  0.78610280372E+01  0.23402519339E+02  0.00000000000E+00 0. -1.
</event>
<event>
 7    1  0.2425980E-008  0.4614232E+02  0.7816164E-02  0.1320468E+00
        -11   -1    0    0    0    0  0.00000000000E+00  0.00000000000E+00  0.45593999997E+02  0.45594000000E+02  0.51100000000E-03 0.  1.
         11   -1    0    0    0    0 -0.00000000000E+00 -0.00000000000E+00 -0.45593999997E+02  0.45594000000E+02  0.51100000000E-03 0. -1.
    9900012    2    1    2    0    0 -0.41240130180E+02 -0.47800028908E+01 -0.17479038880E+02  0.46142316910E+02  0.99999922403E+01 0.  0.
         12    1    1    2    0    0  0.41240130180E+02  0.47800028908E+01  0.17479038880E+02  0.45045683090E+02  0.00000000000E+00 0. -1.
         11    1    3    3    0    0 -0.47313159648E+01 -0.12490390257E+01 -0.24924322736E+01  0.54915997802E+01  0.51100000000E-03 0.  1.
        -11    1    3    3    0    0 -0.82492908105E+01  0.20046109234E+01 -0.63027792785E+01  0.10573281928E+02  0.51100000000E-03 0. -1.
         12    1    3    3    0    0 -0.28259523404E+02 -0.55355747886E+01 -0.86838273276E+01  0.30077435202E+02  0.00000000000E+00 0. -1.
</event>
<event>
 7    1  0.2425980E-008  0.4614231E+02  0.7816164E-02  0.1320468E+00
        -11   -1    0    0    0    0  0.00000000000E+00  0.00000000000E+00  0.45593999997E+02  0.45594000000E+02  0.51100000000E-03 0. -1.
         11   -1    0    0    0    0 -0.00000000000E+00 -0.00000000000E+00 -0.45593999997E+02  0.45594000000E+02  0.51100000000E-03 0.  1.
    9900012    2    1    2    0    0  0.29321857065E+02 -0.32515834936E+01 -0.34040708018E+02  0.46142313200E+02  0.99999584065E+01 0.  0.
         12    1    1    2    0    0 -0.29321857065E+02  0.32515834936E+01  0.34040708018E+02  0.45045686800E+02  0.00000000000E+00 0. -1.
         11    1    3    3    0    0  0.15834254580E+02 -0.30189767099E+01 -0.12610647573E+02  0.20466222684E+02  0.51100000000E-03 0. -1.
        -11    1    3    3    0    0  0.73270530105E+01 -0.10448527830E+00 -0.77148766091E+01  0.10640298132E+02  0.51100000000E-03 0.  1.
         12    1    3    3    0    0  0.61605494742E+01 -0.12812150542E+00 -0.13715183836E+02  0.15035792383E+02  0.00000000000E+00 0. -1.
</event>
<event>
 7    1  0.2425980E-008  0.4614232E+02  0.7816164E-02  0.1320468E+00
        -11   -1    0    0    0    0  0.00000000000E+00  0.00000000000E+00  0.45593999997E+02  0.45594000000E+02  0.51100000000E-03 0.  1.
         11   -1    0    0    0    0 -0.00000000000E+00 -0.00000000000E+00 -0.45593999997E+02  0.45594000000E+02  0.51100000000E-03 0. -1.
    9900012    2    1    2    0    0  0.38519206043E+02  0.19333253307E+02  0.13099985482E+02  0.46142317219E+02  0.99999950523E+01 0.  0.
         12    1    1    2    0    0 -0.38519206043E+02 -0.19333253307E+02 -0.13099985482E+02  0.45045682781E+02  0.00000000000E+00 0. -1.
         11    1    3    3    0    0  0.27729592987E+02  0.12267209454E+02  0.13318224564E+02  0.33117817875E+02  0.51100000000E-03 0.  1.
        -11    1    3    3    0    0  0.74844016385E+00  0.11304613363E+01 -0.10206110964E+00  0.13596037081E+01  0.51100000000E-03 0. -1.
         12    1    3    3    0    0  0.10041172893E+02  0.59355825169E+01 -0.11617797191E+00  0.11664895636E+02  0.00000000000E+00 0. -1.
</event>
<event>
 7    1  0.2425980E-008  0.4614231E+02  0.7816164E-02  0.1320468E+00
        -11   -1    0    0    0    0  0.00000000000E+00  0.00000000000E+00  0.45593999997E+02  0.45594000000E+02  0.51100000000E-03 0.  1.
         11   -1    0    0    0    0 -0.00000000000E+00 -0.00000000000E+00 -0.45593999997E+02  0.45594000000E+02  0.51100000000E-03 0. -1.
    9900012    2    1    2    0    0  0.79933443903E+01  0.30912418649E+02  0.31774874817E+02  0.46142313737E+02  0.99999633015E+01 0.  0.
         12    1    1    2    0    0 -0.79933443903E+01 -0.30912418649E+02 -0.31774874817E+02  0.45045686263E+02  0.00000000000E+00 0. -1.
         11    1    3    3    0    0  0.31094925462E+01  0.53703320901E+01  0.37355566217E+01  0.72431895038E+01  0.51100000000E-03 0. -1.
        -11    1    3    3    0    0 -0.15383702008E+01  0.95388010504E+01  0.88841600729E+01  0.13125685080E+02  0.51100000000E-03 0.  1.
        -12    1    3    3    0    0  0.64222220450E+01  0.16003285509E+02  0.19155158123E+02  0.25773439153E+02  0.00000000000E+00 0.  1.
</event>
<event>
 7    1  0.2425980E-008  0.4614232E+02  0.7816164E-02  0.1320468E+00
        -11   -1    0    0    0    0  0.00000000000E+00  0.00000000000E+00  0.45593999997E+02  0.45594000000E+02  0.51100000000E-03 0.  1.
         11   -1    0    0    0    0 -0.00000000000E+00 -0.00000000000E+00 -0.45593999997E+02  0.45594000000E+02  0.51100000000E-03 0. -1.
    9900012    2    1    2    0    0 -0.42033096520E+02  0.14533101649E+02  0.71499143756E+01  0.46142317386E+02  0.99999965816E+01 0.  0.
         12    1    1    2    0    0  0.42033096520E+02 -0.14533101649E+02 -0.71499143756E+01  0.45045682614E+02  0.00000000000E+00 0. -1.
         11    1    3    3    0    0 -0.13255449373E+01  0.15953041335E+01 -0.23552647177E+00  0.20874715900E+01  0.51100000000E-03 0. -1.
        -11    1    3    3    0    0 -0.25723924777E+01 -0.97396866093E+00  0.11667566823E+01  0.29878318943E+01  0.51100000000E-03 0.  1.
        -12    1    3    3    0    0 -0.38135159105E+02  0.13911766176E+02  0.62186841651E+01  0.41067013902E+02  0.00000000000E+00 0.  1.
</event>
<event>
 7    1  0.2425980E-008  0.4614231E+02  0.7816164E-02  0.1320468E+00
        -11   -1    0    0    0    0  0.00000000000E+00  0.00000000000E+00  0.45593999997E+02  0.45594000000E+02  0.51100000000E-03 0.  1.
         11   -1    0    0    0    0 -0.00000000000E+00 -0.00000000000E+00 -0.45593999997E+02  0.45594000000E+02  0.51100000000E-03 0. -1.
    9900012    2    1    2    0    0 -0.24126762444E+02 -0.24948636638E+02  0.28715476984E+02  0.46142314807E+02  0.99999730607E+01 0.  0.
         12    1    1    2    0    0  0.24126762444E+02  0.24948636638E+02 -0.28715476984E+02  0.45045685193E+02  0.00000000000E+00 0. -1.
         11    1    3    3    0    0 -0.18921918144E+01 -0.40908310506E+01  0.76851756161E+01  0.89093890396E+01  0.51100000000E-03 0. -1.
        -11    1    3    3    0    0 -0.29761388780E+01 -0.38363970863E+01  0.48431385041E+01  0.68579396363E+01  0.51100000000E-03 0.  1.
        -12    1    3    3    0    0 -0.19258431751E+02 -0.17021408501E+02  0.16187162864E+02  0.30374986131E+02  0.00000000000E+00 0.  1.
</event>
<event>
 7    1  0.2425980E-008  0.4614232E+02  0.7816164E-02  0.1320468E+00
        -11   -1    0    0    0    0  0.00000000000E+00  0.00000000000E+00  0.45593999997E+02  0.45594000000E+02  0.51100000000E-03 0.  1.
         11   -1    0    0    0    0 -0.00000000000E+00 -0.00000000000E+00 -0.45593999997E+02  0.45594000000E+02  0.51100000000E-03 0. -1.
    9900012    2    1    2    0    0 -0.42205225133E+02 -0.12725027297E+02  0.92685606861E+01  0.46142316906E+02  0.99999922014E+01 0.  0.
         12    1    1    2    0    0  0.42205225133E+02  0.12725027297E+02 -0.92685606861E+01  0.45045683094E+02  0.00000000000E+00 0. -1.
         11    1    3    3    0    0 -0.42160362961E+01  0.64453859906E+00  0.28776331473E+01  0.51450135906E+01  0.51100000000E-03 0. -1.
        -11    1    3    3    0    0 -0.18835111182E+02 -0.57993174924E+01  0.51220822237E+01  0.20362446395E+02  0.51100000000E-03 0.  1.
        -12    1    3    3    0    0 -0.19154077655E+02 -0.75702484031E+01  0.12688453152E+01  0.20634856920E+02  0.00000000000E+00 0.  1.
</event>
<event>
 7    1  0.2425980E-008  0.4614232E+02  0.7816164E-02  0.1320468E+00
        -11   -1    0    0    0    0  0.00000000000E+00  0.00000000000E+00  0.45593999997E+02  0.45594000000E+02  0.51100000000E-03 0.  1.
         11   -1    0    0    0    0 -0.00000000000E+00 -0.00000000000E+00 -0.45593999997E+02  0.45594000000E+02  0.51100000000E-03 0. -1.
    9900012    2    1    2    0    0 -0.39562494964E+02 -0.21455446492E+02  0.18937465763E+01  0.46142317987E+02  0.10000002056E+02 0.  0.
         12    1    1    2    0    0  0.39562494964E+02  0.21455446492E+02 -0.18937465763E+01  0.45045682013E+02  0.00000000000E+00 0. -1.
         11    1    3    3    0    0 -0.22083161113E+02 -0.16233491323E+02  0.15867255549E+01  0.27453778311E+02  0.51100000000E-03 0. -1.
        -11    1    3    3    0    0 -0.99547183901E+01 -0.45117231463E+01 -0.11553400975E+01  0.10990308229E+02  0.51100000000E-03 0.  1.
        -12    1    3    3    0    0 -0.75246154610E+01 -0.71023202277E+00  0.14623611189E+01  0.76982314465E+01  0.00000000000E+00 0.  1.
</event>
<event>
 7    1  0.2425980E-008  0.4614232E+02  0.7816164E-02  0.1320468E+00
        -11   -1    0    0    0    0  0.00000000000E+00  0.00000000000E+00  0.45593999997E+02  0.45594000000E+02  0.51100000000E-03 0.  1.
         11   -1    0    0    0    0 -0.00000000000E+00 -0.00000000000E+00 -0.45593999997E+02  0.45594000000E+02  0.51100000000E-03 0. -1.
    9900012    2    1    2    0    0 -0.24980546035E+02  0.35522348102E+02 -0.11968649898E+02  0.46142317907E+02  0.10000001327E+02 0.  0.
         12    1    1    2    0    0  0.24980546035E+02 -0.35522348102E+02  0.11968649898E+02  0.45045682093E+02  0.00000000000E+00 0. -1.
         11    1    3    3    0    0 -0.37382790353E+01  0.66212724396E+01  0.11644932931E+01  0.76923353902E+01  0.51100000000E-03 0. -1.
        -11    1    3    3    0    0 -0.62514035692E+01  0.97063566791E+01 -0.21973797445E+01  0.11752526731E+02  0.51100000000E-03 0.  1.
        -12    1    3    3    0    0 -0.14990863430E+02  0.19194718983E+02 -0.10935763447E+02  0.26697455785E+02  0.00000000000E+00 0.  1.
</event>
<event>
 7    1  0.2425980E-008  0.4614231E+02  0.7816164E-02  0.1320468E+00
        -11   -1    0    0    0    0  0.00000000000E+00  0.00000000000E+00  0.45593999997E+02  0.45594000000E+02  0.51100000000E-03 0. -1.
         11   -1    0    0    0    0 -0.00000000000E+00 -0.00000000000E+00 -0.45593999997E+02  0.45594000000E+02  0.51100000000E-03 0.  1.
    9900012    2    1    2    0    0 -0.37083134245E+01 -0.44826765756E+02  0.24338121153E+01  0.46142312548E+02  0.99999524662E+01 0.  0.
         12    1    1    2    0    0  0.37083134245E+01  0.44826765756E+02 -0.24338121153E+01  0.45045687452E+02  0.00000000000E+00 0. -1.
         11    1    3    3    0    0  0.18296051073E+00 -0.16118309351E+01  0.17843517454E+01  0.24115109215E+01  0.51100000000E-03 0. -1.
        -11    1    3    3    0    0 -0.24996283169E+01 -0.88006335939E+01  0.15369904388E+01  0.92769409423E+01  0.51100000000E-03 0.  1.
        -12    1    3    3    0    0 -0.13916456183E+01 -0.34414301227E+02 -0.88753006896E+00  0.34453860685E+02  0.00000000000E+00 0.  1.
</event>
<event>
 7    1  0.2425980E-008  0.4614233E+02  0.7816164E-02  0.1320468E+00
        -11   -1    0    0    0    0  0.00000000000E+00  0.00000000000E+00  0.45593999997E+02  0.45594000000E+02  0.51100000000E-03 0. -1.
         11   -1    0    0    0    0 -0.00000000000E+00 -0.00000000000E+00 -0.45593999997E+02  0.45594000000E+02  0.51100000000E-03 0.  1.
    9900012    2    1    2    0    0  0.27449649389E+02 -0.34611492548E+02 -0.88132707033E+01  0.46142329748E+02  0.10000109302E+02 0.  0.
         12    1    1    2    0    0 -0.27449649389E+02  0.34611492548E+02  0.88132707033E+01  0.45045670252E+02  0.00000000000E+00 0. -1.
         11    1    3    3    0    0  0.15042818775E+00 -0.38878923562E+01 -0.16692484753E+01  0.42337603081E+01  0.51100000000E-03 0. -1.
        -11    1    3    3    0    0  0.18940441175E+02 -0.23739045000E+02 -0.45139027221E+01  0.30702734201E+02  0.51100000000E-03 0.  1.
        -12    1    3    3    0    0  0.83587800269E+01 -0.69845551919E+01 -0.26301195059E+01  0.11205835238E+02  0.00000000000E+00 0.  1.
</event>
<event>
 7    1  0.2425980E-008  0.4614232E+02  0.7816164E-02  0.1320468E+00
        -11   -1    0    0    0    0  0.00000000000E+00  0.00000000000E+00  0.45593999997E+02  0.45594000000E+02  0.51100000000E-03 0. -1.
         11   -1    0    0    0    0 -0.00000000000E+00 -0.00000000000E+00 -0.45593999997E+02  0.45594000000E+02  0.51100000000E-03 0.  1.
    9900012    2    1    2    0    0 -0.24532329659E+02  0.11415731026E+02 -0.36013323288E+02  0.46142316881E+02  0.99999919765E+01 0.  0.
         12    1    1    2    0    0  0.24532329659E+02 -0.11415731026E+02  0.36013323288E+02  0.45045683119E+02  0.00000000000E+00 0. -1.
         11    1    3    3    0    0 -0.61196382800E+01  0.25336859627E+01 -0.68147945763E+01  0.95032080169E+01  0.51100000000E-03 0. -1.
        -11    1    3    3    0    0 -0.15616959734E+02  0.10531503439E+02 -0.25739469933E+02  0.31895490413E+02  0.51100000000E-03 0.  1.
         12    1    3    3    0    0 -0.27957316458E+01 -0.16494583765E+01 -0.34590587793E+01  0.47436184511E+01  0.00000000000E+00 0. -1.
</event>
<event>
 7    1  0.2425980E-008  0.4614232E+02  0.7816164E-02  0.1320468E+00
        -11   -1    0    0    0    0  0.00000000000E+00  0.00000000000E+00  0.45593999997E+02  0.45594000000E+02  0.51100000000E-03 0.  1.
         11   -1    0    0    0    0 -0.00000000000E+00 -0.00000000000E+00 -0.45593999997E+02  0.45594000000E+02  0.51100000000E-03 0. -1.
    9900012    2    1    2    0    0 -0.12173880453E+02  0.73132764055E+01  0.42748404290E+02  0.46142318227E+02  0.10000004245E+02 0.  0.
         12    1    1    2    0    0  0.12173880453E+02 -0.73132764055E+01 -0.42748404290E+02  0.45045681773E+02  0.00000000000E+00 0. -1.
         11    1    3    3    0    0 -0.95711691157E+00  0.31293207365E+01  0.97866212591E+01  0.10319238198E+02  0.51100000000E-03 0. -1.
        -11    1    3    3    0    0 -0.64845286678E+01  0.53421367785E+01  0.26016279968E+02  0.27339245803E+02  0.51100000000E-03 0.  1.
        -12    1    3    3    0    0 -0.47322348736E+01 -0.11581811095E+01  0.69455030627E+01  0.84838342261E+01  0.00000000000E+00 0.  1.
</event>
<event>
 7    1  0.2425980E-008  0.4614232E+02  0.7816164E-02  0.1320468E+00
        -11   -1    0    0    0    0  0.00000000000E+00  0.00000000000E+00  0.45593999997E+02  0.45594000000E+02  0.51100000000E-03 0.  1.
         11   -1    0    0    0    0 -0.00000000000E+00 -0.00000000000E+00 -0.45593999997E+02  0.45594000000E+02  0.51100000000E-03 0. -1.
    9900012    2    1    2    0    0  0.10508472833E+02  0.43780492910E+02 -0.13978681145E+01  0.46142316567E+02  0.99999891089E+01 0.  0.
         12    1    1    2    0    0 -0.10508472833E+02 -0.43780492910E+02  0.13978681145E+01  0.45045683433E+02  0.00000000000E+00 0. -1.
         11    1    3    3    0    0  0.81075748305E+01  0.15514281929E+02 -0.19415973577E+01  0.17612368210E+02  0.51100000000E-03 0. -1.
        -11    1    3    3    0    0  0.38844602010E+00  0.75206665523E+01 -0.11513996426E+01  0.76182043225E+01  0.51100000000E-03 0.  1.
        -12    1    3    3    0    0  0.20124519824E+01  0.20745544428E+02  0.16951288858E+01  0.20911744034E+02  0.00000000000E+00 0.  1.
</event>
<event>
 7    1  0.2425980E-008  0.4614232E+02  0.7816164E-02  0.1320468E+00
        -11   -1    0    0    0    0  0.00000000000E+00  0.00000000000E+00  0.45593999997E+02  0.45594000000E+02  0.51100000000E-03 0. -1.
         11   -1    0    0    0    0 -0.00000000000E+00 -0.00000000000E+00 -0.45593999997E+02  0.45594000000E+02  0.51100000000E-03 0.  1.
    9900012    2    1    2    0    0 -0.22505233867E+02  0.37210369315E+02  0.11748031651E+02  0.46142318924E+02  0.10000010601E+02 0.  0.
         12    1    1    2    0    0  0.22505233867E+02 -0.37210369315E+02 -0.11748031651E+02  0.45045681076E+02  0.00000000000E+00 0. -1.
         11    1    3    3    0    0 -0.27302499975E+01  0.41558730917E+01  0.33901619409E+01  0.60182010975E+01  0.51100000000E-03 0. -1.
        -11    1    3    3    0    0 -0.10421336950E+02  0.17923255655E+02  0.83072949670E+01  0.22335140632E+02  0.51100000000E-03 0.  1.
        -12    1    3    3    0    0 -0.93536469194E+01  0.15131240568E+02  0.50574742979E-01  0.17788977194E+02  0.00000000000E+00 0.  1.
</event>
<event>
 7    1  0.2425980E-008  0.4614232E+02  0.7816164E-02  0.1320468E+00
        -11   -1    0    0    0    0  0.00000000000E+00  0.00000000000E+00  0.45593999997E+02  0.45594000000E+02  0.51100000000E-03 0.  1.
         11   -1    0    0    0    0 -0.00000000000E+00 -0.00000000000E+00 -0.45593999997E+02  0.45594000000E+02  0.51100000000E-03 0. -1.
    9900012    2    1    2    0    0  0.23608234496E+02 -0.38360222422E+02  0.50803373422E+00  0.46142317648E+02  0.99999989691E+01 0.  0.
         12    1    1    2    0    0 -0.23608234496E+02  0.38360222422E+02 -0.50803373422E+00  0.45045682352E+02  0.00000000000E+00 0. -1.
         11    1    3    3    0    0  0.38337574805E+01 -0.11144593146E+02  0.34788323414E+01  0.12288284157E+02  0.51100000000E-03 0. -1.
        -11    1    3    3    0    0  0.10609108164E+02 -0.12711403908E+02 -0.10665271679E+01  0.16591276196E+02  0.51100000000E-03 0.  1.
         12    1    3    3    0    0  0.91653688511E+01 -0.14504225369E+02 -0.19042714393E+01  0.17262757296E+02  0.00000000000E+00 0. -1.
</event>
<event>
 7    1  0.2425980E-008  0.4614232E+02  0.7816164E-02  0.1320468E+00
        -11   -1    0    0    0    0  0.00000000000E+00  0.00000000000E+00  0.45593999997E+02  0.45594000000E+02  0.51100000000E-03 0.  1.
         11   -1    0    0    0    0 -0.00000000000E+00 -0.00000000000E+00 -0.45593999997E+02  0.45594000000E+02  0.51100000000E-03 0. -1.
    9900012    2    1    2    0    0 -0.10319389430E+02 -0.37075544795E+02  0.23409991683E+02  0.46142317292E+02  0.99999957179E+01 0.  0.
         12    1    1    2    0    0  0.10319389430E+02  0.37075544795E+02 -0.23409991683E+02  0.45045682708E+02  0.00000000000E+00 0. -1.
         11    1    3    3    0    0 -0.54490771386E+01 -0.16535941081E+02  0.14841118237E+02  0.22877687381E+02  0.51100000000E-03 0. -1.
        -11    1    3    3    0    0 -0.25052395941E+01 -0.10342486564E+02  0.68525999229E+01  0.12657068370E+02  0.51100000000E-03 0.  1.
         12    1    3    3    0    0 -0.23650726969E+01 -0.10197117150E+02  0.17162735224E+01  0.10607561541E+02  0.00000000000E+00 0. -1.
</event>
<event>
 7    1  0.2425980E-008  0.4614232E+02  0.7816164E-02  0.1320468E+00
        -11   -1    0    0    0    0  0.00000000000E+00  0.00000000000E+00  0.45593999997E+02  0.45594000000E+02  0.51100000000E-03 0. -1.
         11   -1    0    0    0    0 -0.00000000000E+00 -0.00000000000E+00 -0.45593999997E+02  0.45594000000E+02  0.51100000000E-03 0.  1.
    9900012    2    1    2    0    0 -0.99770207704E+00 -0.43283299909E+02  0.12436801756E+02  0.46142317650E+02  0.99999989899E+01 0.  0.
         12    1    1    2    0    0  0.99770207704E+00  0.43283299909E+02 -0.12436801756E+02  0.45045682350E+02  0.00000000000E+00 0. -1.
         11    1    3    3    0    0  0.99754738761E+00 -0.17720175931E+02  0.16610729137E+01  0.17825793090E+02  0.51100000000E-03 0. -1.
        -11    1    3    3    0    0  0.16282010855E+01 -0.13269857709E+02  0.55911346732E+01  0.14491409510E+02  0.51100000000E-03 0.  1.
         12    1    3    3    0    0 -0.36234505501E+01 -0.12293266269E+02  0.51845941693E+01  0.13825115050E+02  0.00000000000E+00 0. -1.
</event>
<event>
 7    1  0.2425980E-008  0.4614231E+02  0.7816164E-02  0.1320468E+00
        -11   -1    0    0    0    0  0.00000000000E+00  0.00000000000E+00  0.45593999997E+02  0.45594000000E+02  0.51100000000E-03 0. -1.
         11   -1    0    0    0    0 -0.00000000000E+00 -0.00000000000E+00 -0.45593999997E+02  0.45594000000E+02  0.51100000000E-03 0.  1.
    9900012    2    1    2    0    0 -0.21643709485E+02  0.36798347851E+02 -0.14371682771E+02  0.46142313963E+02  0.99999653659E+01 0.  0.
         12    1    1    2    0    0  0.21643709485E+02 -0.36798347851E+02  0.14371682771E+02  0.45045686037E+02  0.00000000000E+00 0. -1.
         11    1    3    3    0    0 -0.91526154538E+01  0.24458957852E+02 -0.68262258618E+01  0.26992746223E+02  0.51100000000E-03 0. -1.
        -11    1    3    3    0    0 -0.50512926870E+01  0.49186473452E+01 -0.23858846263E+01  0.74431911992E+01  0.51100000000E-03 0.  1.
         12    1    3    3    0    0 -0.74398013445E+01  0.74207426538E+01 -0.51595722831E+01  0.11706376541E+02  0.00000000000E+00 0. -1.
</event>
<event>
 7    1  0.2425980E-008  0.4614232E+02  0.7816164E-02  0.1320468E+00
        -11   -1    0    0    0    0  0.00000000000E+00  0.00000000000E+00  0.45593999997E+02  0.45594000000E+02  0.51100000000E-03 0.  1.
         11   -1    0    0    0    0 -0.00000000000E+00 -0.00000000000E+00 -0.45593999997E+02  0.45594000000E+02  0.51100000000E-03 0. -1.
    9900012    2    1    2    0    0  0.12693649942E+02  0.19121081562E+02  0.38760404481E+02  0.46142318026E+02  0.10000002418E+02 0.  0.
         12    1    1    2    0    0 -0.12693649942E+02 -0.19121081562E+02 -0.38760404481E+02  0.45045681974E+02  0.00000000000E+00 0. -1.
         11    1    3    3    0    0  0.43936680092E+01  0.33245208201E+01  0.95519486687E+01  0.11027079436E+02  0.51100000000E-03 0. -1.
        -11    1    3    3    0    0  0.54181805063E+01  0.12232136319E+02  0.26761753603E+02  0.29919446771E+02  0.51100000000E-03 0.  1.
         12    1    3    3    0    0  0.28818014264E+01  0.35644244223E+01  0.24467022095E+01  0.51957918189E+01  0.00000000000E+00 0. -1.
</event>
<event>
 7    1  0.2425980E-008  0.4614232E+02  0.7816164E-02  0.1320468E+00
        -11   -1    0    0    0    0  0.00000000000E+00  0.00000000000E+00  0.45593999997E+02  0.45594000000E+02  0.51100000000E-03 0.  1.
         11   -1    0    0    0    0 -0.00000000000E+00 -0.00000000000E+00 -0.45593999997E+02  0.45594000000E+02  0.51100000000E-03 0. -1.
    9900012    2    1    2    0    0  0.27417369836E+02  0.29716680726E+02  0.19857497242E+02  0.46142317867E+02  0.10000000966E+02 0.  0.
         12    1    1    2    0    0 -0.27417369836E+02 -0.29716680726E+02 -0.19857497242E+02  0.45045682133E+02  0.00000000000E+00 0. -1.
         11    1    3    3    0    0  0.13958905856E+02  0.19013249469E+02  0.82236615529E+01  0.24979658078E+02  0.51100000000E-03 0. -1.
        -11    1    3    3    0    0  0.13081511104E+02  0.10828178895E+02  0.10510291837E+02  0.19971019646E+02  0.51100000000E-03 0.  1.
        -12    1    3    3    0    0  0.37695287677E+00 -0.12474763814E+00  0.11235438518E+01  0.11916401434E+01  0.00000000000E+00 0.  1.
</event>
<event>
 7    1  0.2425980E-008  0.4614232E+02  0.7816164E-02  0.1320468E+00
        -11   -1    0    0    0    0  0.00000000000E+00  0.00000000000E+00  0.45593999997E+02  0.45594000000E+02  0.51100000000E-03 0.  1.
         11   -1    0    0    0    0 -0.00000000000E+00 -0.00000000000E+00 -0.45593999997E+02  0.45594000000E+02  0.51100000000E-03 0. -1.
    9900012    2    1    2    0    0  0.19871652392E+02 -0.31115522702E+02  0.25808043368E+02  0.46142318473E+02  0.10000006487E+02 0.  0.
         12    1    1    2    0    0 -0.19871652392E+02  0.31115522702E+02 -0.25808043368E+02  0.45045681527E+02  0.00000000000E+00 0. -1.
         11    1    3    3    0    0  0.41212471603E+01 -0.23862103983E+01  0.21222360530E+01  0.52136900893E+01  0.51100000000E-03 0. -1.
        -11    1    3    3    0    0  0.95485862322E+01 -0.10915897373E+02  0.10877770247E+02  0.18128932685E+02  0.51100000000E-03 0.  1.
         12    1    3    3    0    0  0.62018189992E+01 -0.17813414931E+02  0.12808037068E+02  0.22799695698E+02  0.00000000000E+00 0. -1.
</event>
<event>
 7    1  0.2425980E-008  0.4614232E+02  0.7816164E-02  0.1320468E+00
        -11   -1    0    0    0    0  0.00000000000E+00  0.00000000000E+00  0.45593999997E+02  0.45594000000E+02  0.51100000000E-03 0. -1.
         11   -1    0    0    0    0 -0.00000000000E+00 -0.00000000000E+00 -0.45593999997E+02  0.45594000000E+02  0.51100000000E-03 0.  1.
    9900012    2    1    2    0    0 -0.58731784372E+01  0.43555463378E+02 -0.98762777030E+01  0.46142317895E+02  0.10000001222E+02 0.  0.
         12    1    1    2    0    0  0.58731784372E+01 -0.43555463378E+02  0.98762777030E+01  0.45045682105E+02  0.00000000000E+00 0. -1.
         11    1    3    3    0    0 -0.47208662695E+01  0.28877184195E+02 -0.75836884273E+01  0.30227316715E+02  0.51100000000E-03 0.  1.
        -11    1    3    3    0    0 -0.15983046048E+01  0.39348546748E+01 -0.29039504163E+01  0.51449574539E+01  0.51100000000E-03 0. -1.
         12    1    3    3    0    0  0.44599243716E+00  0.10743424509E+02  0.61136114062E+00  0.10770043726E+02  0.00000000000E+00 0. -1.
</event>
<event>
 7    1  0.2425980E-008  0.4614232E+02  0.7816164E-02  0.1320468E+00
        -11   -1    0    0    0    0  0.00000000000E+00  0.00000000000E+00  0.45593999997E+02  0.45594000000E+02  0.51100000000E-03 0.  1.
         11   -1    0    0    0    0 -0.00000000000E+00 -0.00000000000E+00 -0.45593999997E+02  0.45594000000E+02  0.51100000000E-03 0. -1.
    9900012    2    1    2    0    0  0.10555250280E+02 -0.35821372218E+02  0.25189870584E+02  0.46142316565E+02  0.99999890965E+01 0.  0.
         12    1    1    2    0    0 -0.10555250280E+02  0.35821372218E+02 -0.25189870584E+02  0.45045683435E+02  0.00000000000E+00 0. -1.
         11    1    3    3    0    0  0.13477848574E+01 -0.14605285535E+02  0.12194537794E+02  0.19074528614E+02  0.51100000000E-03 0.  1.
        -11    1    3    3    0    0  0.61589241585E+01 -0.80629417468E+01  0.67884090438E+01  0.12207615410E+02  0.51100000000E-03 0. -1.
         12    1    3    3    0    0  0.30485412646E+01 -0.13153144937E+02  0.62069237462E+01  0.14860172541E+02  0.00000000000E+00 0. -1.
</event>
<event>
 7    1  0.2425980E-008  0.4614232E+02  0.7816164E-02  0.1320468E+00
        -11   -1    0    0    0    0  0.00000000000E+00  0.00000000000E+00  0.45593999997E+02  0.45594000000E+02  0.51100000000E-03 0.  1.
         11   -1    0    0    0    0 -0.00000000000E+00 -0.00000000000E+00 -0.45593999997E+02  0.45594000000E+02  0.51100000000E-03 0. -1.
    9900012    2    1    2    0    0  0.23614327859E+02 -0.67136410213E+01  0.37767763578E+02  0.46142318502E+02  0.10000006752E+02 0.  0.
         12    1    1    2    0    0 -0.23614327859E+02  0.67136410213E+01 -0.37767763578E+02  0.45045681498E+02  0.00000000000E+00 0. -1.
         11    1    3    3    0    0  0.51719006087E+01 -0.27612581429E+01  0.74009208690E+01  0.94417547314E+01  0.51100000000E-03 0. -1.
        -11    1    3    3    0    0  0.50594856959E+00 -0.25648790120E+01  0.41537344692E+01  0.49079627752E+01  0.51100000000E-03 0.  1.
        -12    1    3    3    0    0  0.17936478680E+02 -0.13875038665E+01  0.26213108240E+02  0.31792600995E+02  0.00000000000E+00 0.  1.
</event>
<event>
 7    1  0.2425980E-008  0.4614232E+02  0.7816164E-02  0.1320468E+00
        -11   -1    0    0    0    0  0.00000000000E+00  0.00000000000E+00  0.45593999997E+02  0.45594000000E+02  0.51100000000E-03 0. -1.
         11   -1    0    0    0    0 -0.00000000000E+00 -0.00000000000E+00 -0.45593999997E+02  0.45594000000E+02  0.51100000000E-03 0.  1.
    9900012    2    1    2    0    0  0.39129070749E+02  0.17332799070E+02 -0.14057148924E+02  0.46142317219E+02  0.99999950592E+01 0.  0.
         12    1    1    2    0    0 -0.39129070749E+02 -0.17332799070E+02  0.14057148924E+02  0.45045682781E+02  0.00000000000E+00 0. -1.
         11    1    3    3    0    0  0.33235662603E+02  0.13555427782E+02 -0.13581931188E+02  0.38377437982E+02  0.51100000000E-03 0. -1.
        -11    1    3    3    0    0  0.58053045741E+01  0.23782283748E+01 -0.80416913867E+00  0.63248889054E+01  0.51100000000E-03 0.  1.
         12    1    3    3    0    0  0.88103572528E-01  0.13991429130E+01  0.32895140292E+00  0.14399903319E+01  0.00000000000E+00 0. -1.
</event>
<event>
 7    1  0.2425980E-008  0.4614232E+02  0.7816164E-02  0.1320468E+00
        -11   -1    0    0    0    0  0.00000000000E+00  0.00000000000E+00  0.45593999997E+02  0.45594000000E+02  0.51100000000E-03 0. -1.
         11   -1    0    0    0    0 -0.00000000000E+00 -0.00000000000E+00 -0.45593999997E+02  0.45594000000E+02  0.51100000000E-03 0.  1.
    9900012    2    1    2    0    0 -0.29754521474E+02 -0.33802685281E+02 -0.10772059188E+01  0.46142318154E+02  0.10000003583E+02 0.  0.
         12    1    1    2    0    0  0.29754521474E+02  0.33802685281E+02  0.10772059188E+01  0.45045681846E+02  0.00000000000E+00 0. -1.
         11    1    3    3    0    0 -0.16672484917E+02 -0.22142497377E+02  0.37453582578E-01  0.27717563861E+02  0.51100000000E-03 0. -1.
        -11    1    3    3    0    0 -0.12730486419E+01 -0.35035204305E+01 -0.16183705684E+01  0.40637952469E+01  0.51100000000E-03 0.  1.
         12    1    3    3    0    0 -0.11808987916E+02 -0.81566674739E+01  0.50371106701E+00  0.14360959046E+02  0.00000000000E+00 0. -1.
</event>
<event>
 7    1  0.2425980E-008  0.4614232E+02  0.7816164E-02  0.1320468E+00
        -11   -1    0    0    0    0  0.00000000000E+00  0.00000000000E+00  0.45593999997E+02  0.45594000000E+02  0.51100000000E-03 0.  1.
         11   -1    0    0    0    0 -0.00000000000E+00 -0.00000000000E+00 -0.45593999997E+02  0.45594000000E+02  0.51100000000E-03 0. -1.
    9900012    2    1    2    0    0  0.26234184306E+02  0.34270137029E+02 -0.12901114342E+02  0.46142317971E+02  0.10000001916E+02 0.  0.
         12    1    1    2    0    0 -0.26234184306E+02 -0.34270137029E+02  0.12901114342E+02  0.45045682029E+02  0.00000000000E+00 0. -1.
         11    1    3    3    0    0  0.15523303720E+02  0.20080788159E+02 -0.67260939118E+01  0.26257405642E+02  0.51100000000E-03 0. -1.
        -11    1    3    3    0    0  0.87096660633E+01  0.12731049894E+02 -0.27656483350E+01  0.15671206887E+02  0.51100000000E-03 0.  1.
         12    1    3    3    0    0  0.20012145231E+01  0.14582989761E+01 -0.34093720953E+01  0.42137054424E+01  0.00000000000E+00 0. -1.
</event>
<event>
 7    1  0.2425980E-008  0.4614232E+02  0.7816164E-02  0.1320468E+00
        -11   -1    0    0    0    0  0.00000000000E+00  0.00000000000E+00  0.45593999997E+02  0.45594000000E+02  0.51100000000E-03 0.  1.
         11   -1    0    0    0    0 -0.00000000000E+00 -0.00000000000E+00 -0.45593999997E+02  0.45594000000E+02  0.51100000000E-03 0. -1.
    9900012    2    1    2    0    0 -0.21087509684E+02  0.36256906619E+02  0.16427625906E+02  0.46142320572E+02  0.10000025631E+02 0.  0.
         12    1    1    2    0    0  0.21087509684E+02 -0.36256906619E+02 -0.16427625906E+02  0.45045679428E+02  0.00000000000E+00 0. -1.
         11    1    3    3    0    0 -0.12135160337E+02  0.15047204081E+02  0.10277594763E+02  0.21893136400E+02  0.51100000000E-03 0. -1.
        -11    1    3    3    0    0 -0.86974873235E+01  0.20281720230E+02  0.67953520870E+01  0.23090501759E+02  0.51100000000E-03 0.  1.
         12    1    3    3    0    0 -0.25486202348E+00  0.92798230790E+00 -0.64532094342E+00  0.11586824133E+01  0.00000000000E+00 0. -1.
</event>
<event>
 7    1  0.2425980E-008  0.4614232E+02  0.7816164E-02  0.1320468E+00
        -11   -1    0    0    0    0  0.00000000000E+00  0.00000000000E+00  0.45593999997E+02  0.45594000000E+02  0.51100000000E-03 0. -1.
         11   -1    0    0    0    0 -0.00000000000E+00 -0.00000000000E+00 -0.45593999997E+02  0.45594000000E+02  0.51100000000E-03 0.  1.
    9900012    2    1    2    0    0  0.36533600320E+02 -0.23703047684E+02 -0.11514113721E+02  0.46142320555E+02  0.10000025477E+02 0.  0.
         12    1    1    2    0    0 -0.36533600320E+02  0.23703047684E+02  0.11514113721E+02  0.45045679445E+02  0.00000000000E+00 0. -1.
         11    1    3    3    0    0  0.82264432229E+01 -0.78000429598E+01  0.10193213415E+00  0.11336905605E+02  0.51100000000E-03 0. -1.
        -11    1    3    3    0    0  0.14734939384E+02 -0.96802835457E+01 -0.84141220278E+01  0.19535193317E+02  0.51100000000E-03 0.  1.
        -12    1    3    3    0    0  0.13572217714E+02 -0.62227211789E+01 -0.32019238273E+01  0.15270221633E+02  0.00000000000E+00 0.  1.
</event>
<event>
 7    1  0.2425980E-008  0.4614232E+02  0.7816164E-02  0.1320468E+00
        -11   -1    0    0    0    0  0.00000000000E+00  0.00000000000E+00  0.45593999997E+02  0.45594000000E+02  0.51100000000E-03 0. -1.
         11   -1    0    0    0    0 -0.00000000000E+00 -0.00000000000E+00 -0.45593999997E+02  0.45594000000E+02  0.51100000000E-03 0.  1.
    9900012    2    1    2    0    0 -0.31318136585E+02 -0.28212234084E+02 -0.15885769866E+02  0.46142317461E+02  0.99999972628E+01 0.  0.
         12    1    1    2    0    0  0.31318136585E+02  0.28212234084E+02  0.15885769866E+02  0.45045682539E+02  0.00000000000E+00 0. -1.
         11    1    3    3    0    0 -0.96778337134E+01 -0.72910755655E+01 -0.17097031138E+01  0.12236965853E+02  0.51100000000E-03 0.  1.
        -11    1    3    3    0    0 -0.42092586500E+00  0.33663465063E+00  0.23881607831E+00  0.58952086665E+00  0.51100000000E-03 0. -1.
        -12    1    3    3    0    0 -0.21219377007E+02 -0.21257793169E+02 -0.14414882830E+02  0.33315830741E+02  0.00000000000E+00 0.  1.
</event>
<event>
 7    1  0.2425980E-008  0.4614232E+02  0.7816164E-02  0.1320468E+00
        -11   -1    0    0    0    0  0.00000000000E+00  0.00000000000E+00  0.45593999997E+02  0.45594000000E+02  0.51100000000E-03 0.  1.
         11   -1    0    0    0    0 -0.00000000000E+00 -0.00000000000E+00 -0.45593999997E+02  0.45594000000E+02  0.51100000000E-03 0. -1.
    9900012    2    1    2    0    0  0.26701874194E+02  0.93336025529E+01  0.35057200197E+02  0.46142317546E+02  0.99999980417E+01 0.  0.
         12    1    1    2    0    0 -0.26701874194E+02 -0.93336025529E+01 -0.35057200197E+02  0.45045682454E+02  0.00000000000E+00 0. -1.
         11    1    3    3    0    0  0.22981387903E+01  0.21264620700E+01  0.48719848293E+01  0.57913313903E+01  0.51100000000E-03 0. -1.
        -11    1    3    3    0    0  0.97094716529E+01  0.47453486195E+01  0.72940759169E+01  0.13038240565E+02  0.51100000000E-03 0.  1.
        -12    1    3    3    0    0  0.14694263751E+02  0.24617918634E+01  0.22891139451E+02  0.27312745591E+02  0.00000000000E+00 0.  1.
</event>
<event>
 7    1  0.2425980E-008  0.4614232E+02  0.7816164E-02  0.1320468E+00
        -11   -1    0    0    0    0  0.00000000000E+00  0.00000000000E+00  0.45593999997E+02  0.45594000000E+02  0.51100000000E-03 0.  1.
         11   -1    0    0    0    0 -0.00000000000E+00 -0.00000000000E+00 -0.45593999997E+02  0.45594000000E+02  0.51100000000E-03 0. -1.
    9900012    2    1    2    0    0  0.82826823340E+01 -0.31079893122E+02  0.31536501224E+02  0.46142317714E+02  0.99999995747E+01 0.  0.
         12    1    1    2    0    0 -0.82826823340E+01  0.31079893122E+02 -0.31536501224E+02  0.45045682286E+02  0.00000000000E+00 0. -1.
         11    1    3    3    0    0  0.69512661504E+01 -0.14369701800E+02  0.20265328975E+02  0.25797131422E+02  0.51100000000E-03 0. -1.
        -11    1    3    3    0    0  0.99054954902E+00 -0.35856666792E+01  0.16562785982E+01  0.40720330302E+01  0.51100000000E-03 0.  1.
         12    1    3    3    0    0  0.34086663460E+00 -0.13124524642E+02  0.96148936515E+01  0.16273153262E+02  0.00000000000E+00 0. -1.
</event>
<event>
 7    1  0.2425980E-008  0.4614232E+02  0.7816164E-02  0.1320468E+00
        -11   -1    0    0    0    0  0.00000000000E+00  0.00000000000E+00  0.45593999997E+02  0.45594000000E+02  0.51100000000E-03 0.  1.
         11   -1    0    0    0    0 -0.00000000000E+00 -0.00000000000E+00 -0.45593999997E+02  0.45594000000E+02  0.51100000000E-03 0. -1.
    9900012    2    1    2    0    0  0.55942699171E+01 -0.43075552663E+02 -0.11929559932E+02  0.46142317706E+02  0.99999994990E+01 0.  0.
         12    1    1    2    0    0 -0.55942699171E+01  0.43075552663E+02  0.11929559932E+02  0.45045682294E+02  0.00000000000E+00 0. -1.
         11    1    3    3    0    0  0.24705245790E+01 -0.26823729230E+02 -0.67256060185E+01  0.27764180487E+02  0.51100000000E-03 0. -1.
        -11    1    3    3    0    0 -0.11171358989E+01 -0.95298435378E+01 -0.37303193877E+01  0.10294716775E+02  0.51100000000E-03 0.  1.
         12    1    3    3    0    0  0.42408812369E+01 -0.67219798952E+01 -0.14736345254E+01  0.80834204451E+01  0.00000000000E+00 0. -1.
</event>
<event>
 7    1  0.2425980E-008  0.4614232E+02  0.7816164E-02  0.1320468E+00
        -11   -1    0    0    0    0  0.00000000000E+00  0.00000000000E+00  0.45593999997E+02  0.45594000000E+02  0.51100000000E-03 0.  1.
         11   -1    0    0    0    0 -0.00000000000E+00 -0.00000000000E+00 -0.45593999997E+02  0.45594000000E+02  0.51100000000E-03 0. -1.
    9900012    2    1    2    0    0  0.32402589482E+01 -0.71312840190E+01  0.44359429806E+02  0.46142317604E+02  0.99999985646E+01 0.  0.
         12    1    1    2    0    0 -0.32402589482E+01  0.71312840190E+01 -0.44359429806E+02  0.45045682396E+02  0.00000000000E+00 0. -1.
         11    1    3    3    0    0  0.19983882658E+00 -0.14911360452E+01  0.27327668058E+02  0.27369049381E+02  0.51100000000E-03 0. -1.
        -11    1    3    3    0    0  0.14520085435E+01  0.46716760927E+00  0.43190006879E+01  0.45804302843E+01  0.51100000000E-03 0.  1.
        -12    1    3    3    0    0  0.15884115781E+01 -0.61073155831E+01  0.12712761060E+02  0.14192837938E+02  0.00000000000E+00 0.  1.
</event>
<event>
 7    1  0.2425980E-008  0.4614232E+02  0.7816164E-02  0.1320468E+00
        -11   -1    0    0    0    0  0.00000000000E+00  0.00000000000E+00  0.45593999997E+02  0.45594000000E+02  0.51100000000E-03 0.  1.
         11   -1    0    0    0    0 -0.00000000000E+00 -0.00000000000E+00 -0.45593999997E+02  0.45594000000E+02  0.51100000000E-03 0. -1.
    9900012    2    1    2    0    0 -0.33804045840E+02 -0.10032804482E+02  0.28031103412E+02  0.46142318304E+02  0.10000004955E+02 0.  0.
         12    1    1    2    0    0  0.33804045840E+02  0.10032804482E+02 -0.28031103412E+02  0.45045681696E+02  0.00000000000E+00 0. -1.
         11    1    3    3    0    0 -0.16742594894E+02 -0.68545591483E+01  0.13518236783E+02  0.22584113684E+02  0.51100000000E-03 0. -1.
        -11    1    3    3    0    0 -0.17302812229E+02 -0.38830159386E+01  0.13434264273E+02  0.22247349969E+02  0.51100000000E-03 0.  1.
         12    1    3    3    0    0  0.24136128357E+00  0.70477060523E+00  0.10786023559E+01  0.13108546515E+01  0.00000000000E+00 0. -1.
</event>
<event>
 7    1  0.2425980E-008  0.4614232E+02  0.7816164E-02  0.1320468E+00
        -11   -1    0    0    0    0  0.00000000000E+00  0.00000000000E+00  0.45593999997E+02  0.45594000000E+02  0.51100000000E-03 0.  1.
         11   -1    0    0    0    0 -0.00000000000E+00 -0.00000000000E+00 -0.45593999997E+02  0.45594000000E+02  0.51100000000E-03 0. -1.
    9900012    2    1    2    0    0 -0.13761063278E+02  0.39114872856E+02  0.17600379618E+02  0.46142317590E+02  0.99999984430E+01 0.  0.
         12    1    1    2    0    0  0.13761063278E+02 -0.39114872856E+02 -0.17600379618E+02  0.45045682410E+02  0.00000000000E+00 0. -1.
         11    1    3    3    0    0  0.38602259024E+00  0.26012117434E+01  0.17838249816E+01  0.31776324205E+01  0.51100000000E-03 0. -1.
        -11    1    3    3    0    0  0.83708453216E+00  0.59025471732E+00  0.40707732603E+00  0.11021902539E+01  0.51100000000E-03 0.  1.
         12    1    3    3    0    0 -0.14984170401E+02  0.35923406395E+02  0.15409477310E+02  0.41862494916E+02  0.00000000000E+00 0. -1.
</event>
<event>
 7    1  0.2425980E-008  0.4614232E+02  0.7816164E-02  0.1320468E+00
        -11   -1    0    0    0    0  0.00000000000E+00  0.00000000000E+00  0.45593999997E+02  0.45594000000E+02  0.51100000000E-03 0. -1.
         11   -1    0    0    0    0 -0.00000000000E+00 -0.00000000000E+00 -0.45593999997E+02  0.45594000000E+02  0.51100000000E-03 0.  1.
    9900012    2    1    2    0    0  0.21500713467E+02 -0.51376085161E+01 -0.39248410557E+02  0.46142318385E+02  0.10000005691E+02 0.  0.
         12    1    1    2    0    0 -0.21500713467E+02  0.51376085161E+01  0.39248410557E+02  0.45045681615E+02  0.00000000000E+00 0. -1.
         11    1    3    3    0    0  0.19514509312E+02 -0.34599690243E+01 -0.31681984411E+02  0.37370250144E+02  0.51100000000E-03 0.  1.
        -11    1    3    3    0    0  0.19170425760E+01 -0.11239550045E+00 -0.67246831470E+01  0.69935004594E+01  0.51100000000E-03 0. -1.
        -12    1    3    3    0    0  0.69161578520E-01 -0.15652439914E+01 -0.84174299901E+00  0.17785677813E+01  0.00000000000E+00 0.  1.
</event>
<event>
 7    1  0.2425980E-008  0.4614232E+02  0.7816164E-02  0.1320468E+00
        -11   -1    0    0    0    0  0.00000000000E+00  0.00000000000E+00  0.45593999997E+02  0.45594000000E+02  0.51100000000E-03 0.  1.
         11   -1    0    0    0    0 -0.00000000000E+00 -0.00000000000E+00 -0.45593999997E+02  0.45594000000E+02  0.51100000000E-03 0. -1.
    9900012    2    1    2    0    0  0.62812129447E+01 -0.11586034671E+02  0.43074628313E+02  0.46142318301E+02  0.10000004925E+02 0.  0.
         12    1    1    2    0    0 -0.62812129447E+01  0.11586034671E+02 -0.43074628313E+02  0.45045681699E+02  0.00000000000E+00 0. -1.
         11    1    3    3    0    0 -0.54062183865E+00 -0.28542905590E+00  0.17029110235E+00  0.63461881397E+00  0.51100000000E-03 0. -1.
        -11    1    3    3    0    0 -0.21196304601E+00  0.50768362507E+00  0.11093584624E+00  0.56122902557E+00  0.51100000000E-03 0.  1.
        -12    1    3    3    0    0  0.70337978294E+01 -0.11808289240E+02  0.42793401364E+02  0.44946470462E+02  0.00000000000E+00 0.  1.
</event>
<event>
 7    1  0.2425980E-008  0.4614232E+02  0.7816164E-02  0.1320468E+00
        -11   -1    0    0    0    0  0.00000000000E+00  0.00000000000E+00  0.45593999997E+02  0.45594000000E+02  0.51100000000E-03 0. -1.
         11   -1    0    0    0    0 -0.00000000000E+00 -0.00000000000E+00 -0.45593999997E+02  0.45594000000E+02  0.51100000000E-03 0.  1.
    9900012    2    1    2    0    0 -0.27479274682E+02  0.21760940692E+02 -0.28292479480E+02  0.46142317943E+02  0.10000001658E+02 0.  0.
         12    1    1    2    0    0  0.27479274682E+02 -0.21760940692E+02  0.28292479480E+02  0.45045682057E+02  0.00000000000E+00 0. -1.
         11    1    3    3    0    0 -0.40785125659E+00 -0.27982937302E+00  0.33582601187E+00  0.59785156760E+00  0.51100000000E-03 0. -1.
        -11    1    3    3    0    0 -0.10719809758E+02  0.62818549994E+01 -0.12963813067E+02  0.17956516171E+02  0.51100000000E-03 0.  1.
        -12    1    3    3    0    0 -0.16351613667E+02  0.15758915065E+02 -0.15664492425E+02  0.27587950204E+02  0.00000000000E+00 0.  1.
</event>
<event>
 7    1  0.2425980E-008  0.4614232E+02  0.7816164E-02  0.1320468E+00
        -11   -1    0    0    0    0  0.00000000000E+00  0.00000000000E+00  0.45593999997E+02  0.45594000000E+02  0.51100000000E-03 0. -1.
         11   -1    0    0    0    0 -0.00000000000E+00 -0.00000000000E+00 -0.45593999997E+02  0.45594000000E+02  0.51100000000E-03 0.  1.
    9900012    2    1    2    0    0  0.83740026117E+01 -0.43267068922E+02 -0.93247170990E+01  0.46142317390E+02  0.99999966161E+01 0.  0.
         12    1    1    2    0    0 -0.83740026117E+01  0.43267068922E+02  0.93247170990E+01  0.45045682610E+02  0.00000000000E+00 0. -1.
         11    1    3    3    0    0  0.71395820594E+01 -0.23780126749E+02 -0.93349732494E+01  0.26525643932E+02  0.51100000000E-03 0. -1.
        -11    1    3    3    0    0  0.27511312010E+00 -0.76574544999E+01 -0.89181994371E+00  0.77141195039E+01  0.51100000000E-03 0.  1.
         12    1    3    3    0    0  0.95930743222E+00 -0.11829487672E+02  0.90207609407E+00  0.11902553954E+02  0.00000000000E+00 0. -1.
</event>
<event>
 7    1  0.2425980E-008  0.4614232E+02  0.7816164E-02  0.1320468E+00
        -11   -1    0    0    0    0  0.00000000000E+00  0.00000000000E+00  0.45593999997E+02  0.45594000000E+02  0.51100000000E-03 0.  1.
         11   -1    0    0    0    0 -0.00000000000E+00 -0.00000000000E+00 -0.45593999997E+02  0.45594000000E+02  0.51100000000E-03 0. -1.
    9900012    2    1    2    0    0  0.14027623183E+02  0.41680196937E+02 -0.97519381310E+01  0.46142319561E+02  0.10000016417E+02 0.  0.
         12    1    1    2    0    0 -0.14027623183E+02 -0.41680196937E+02  0.97519381310E+01  0.45045680439E+02  0.00000000000E+00 0. -1.
         11    1    3    3    0    0 -0.11126459196E+01  0.50252963295E+01 -0.12186791584E+01  0.52893065040E+01  0.51100000000E-03 0. -1.
        -11    1    3    3    0    0  0.10330494889E+02  0.29797020917E+02 -0.74678346373E+01  0.32409105736E+02  0.51100000000E-03 0.  1.
        -12    1    3    3    0    0  0.48097742141E+01  0.68578796906E+01 -0.10654243353E+01  0.84439073216E+01  0.00000000000E+00 0.  1.
</event>
<event>
 7    1  0.2425980E-008  0.4614232E+02  0.7816164E-02  0.1320468E+00
        -11   -1    0    0    0    0  0.00000000000E+00  0.00000000000E+00  0.45593999997E+02  0.45594000000E+02  0.51100000000E-03 0.  1.
         11   -1    0    0    0    0 -0.00000000000E+00 -0.00000000000E+00 -0.45593999997E+02  0.45594000000E+02  0.51100000000E-03 0. -1.
    9900012    2    1    2    0    0  0.32203741051E+02 -0.27466076664E+02 -0.15415810259E+02  0.46142317511E+02  0.99999977150E+01 0.  0.
         12    1    1    2    0    0 -0.32203741051E+02  0.27466076664E+02  0.15415810259E+02  0.45045682489E+02  0.00000000000E+00 0. -1.
         11    1    3    3    0    0  0.40599650628E+01 -0.64773392078E+01 -0.32434688505E+01  0.83041754539E+01  0.51100000000E-03 0. -1.
        -11    1    3    3    0    0  0.38242015507E+01 -0.63757113454E+01 -0.20194392801E+01  0.77040475030E+01  0.51100000000E-03 0.  1.
        -12    1    3    3    0    0  0.24319574437E+02 -0.14613026111E+02 -0.10152902129E+02  0.30134094554E+02  0.00000000000E+00 0.  1.
</event>
<event>
 7    1  0.2425980E-008  0.4614232E+02  0.7816164E-02  0.1320468E+00
        -11   -1    0    0    0    0  0.00000000000E+00  0.00000000000E+00  0.45593999997E+02  0.45594000000E+02  0.51100000000E-03 0.  1.
         11   -1    0    0    0    0 -0.00000000000E+00 -0.00000000000E+00 -0.45593999997E+02  0.45594000000E+02  0.51100000000E-03 0. -1.
    9900012    2    1    2    0    0  0.25929441798E+02  0.35871138927E+01  0.36659382296E+02  0.46142315985E+02  0.99999838072E+01 0.  0.
         12    1    1    2    0    0 -0.25929441798E+02 -0.35871138927E+01 -0.36659382296E+02  0.45045684015E+02  0.00000000000E+00 0. -1.
         11    1    3    3    0    0  0.17767990047E+01 -0.21754895128E+00  0.38671489402E+01  0.42613593413E+01  0.51100000000E-03 0.  1.
        -11    1    3    3    0    0  0.18929837144E+02 -0.63179841211E+00  0.26534749543E+02  0.32601086441E+02  0.51100000000E-03 0. -1.
         12    1    3    3    0    0  0.52228056493E+01  0.44364612560E+01  0.62574838122E+01  0.92798702031E+01  0.00000000000E+00 0. -1.
</event>
<event>
 7    1  0.2425980E-008  0.4614232E+02  0.7816164E-02  0.1320468E+00
        -11   -1    0    0    0    0  0.00000000000E+00  0.00000000000E+00  0.45593999997E+02  0.45594000000E+02  0.51100000000E-03 0.  1.
         11   -1    0    0    0    0 -0.00000000000E+00 -0.00000000000E+00 -0.45593999997E+02  0.45594000000E+02  0.51100000000E-03 0. -1.
    9900012    2    1    2    0    0 -0.42503140904E+02 -0.10676091756E+01 -0.14881420827E+02  0.46142318055E+02  0.10000002684E+02 0.  0.
         12    1    1    2    0    0  0.42503140904E+02  0.10676091756E+01  0.14881420827E+02  0.45045681945E+02  0.00000000000E+00 0. -1.
         11    1    3    3    0    0 -0.15772277346E+02  0.79874120007E+00 -0.75674977722E+00  0.15810610066E+02  0.51100000000E-03 0.  1.
        -11    1    3    3    0    0 -0.81577366128E+01 -0.12187222535E+01 -0.47173662751E+01  0.95019732377E+01  0.51100000000E-03 0. -1.
        -12    1    3    3    0    0 -0.18573126945E+02 -0.64762812224E+00 -0.94073047746E+01  0.20829734751E+02  0.00000000000E+00 0.  1.
</event>
<event>
 7    1  0.2425980E-008  0.4614232E+02  0.7816164E-02  0.1320468E+00
        -11   -1    0    0    0    0  0.00000000000E+00  0.00000000000E+00  0.45593999997E+02  0.45594000000E+02  0.51100000000E-03 0. -1.
         11   -1    0    0    0    0 -0.00000000000E+00 -0.00000000000E+00 -0.45593999997E+02  0.45594000000E+02  0.51100000000E-03 0.  1.
    9900012    2    1    2    0    0  0.31254811969E+02 -0.24324173621E+02 -0.21461242175E+02  0.46142316419E+02  0.99999877625E+01 0.  0.
         12    1    1    2    0    0 -0.31254811969E+02  0.24324173621E+02  0.21461242175E+02  0.45045683581E+02  0.00000000000E+00 0. -1.
         11    1    3    3    0    0  0.59068277933E+01 -0.16120065167E+01 -0.18763945076E+01  0.64039078849E+01  0.51100000000E-03 0. -1.
        -11    1    3    3    0    0  0.40144361575E+01 -0.44534420432E+01 -0.10352602608E+01  0.60844562422E+01  0.51100000000E-03 0.  1.
         12    1    3    3    0    0  0.21333548018E+02 -0.18258725061E+02 -0.18549587407E+02  0.33653952292E+02  0.00000000000E+00 0. -1.
</event>
<event>
 7    1  0.2425980E-008  0.4614232E+02  0.7816164E-02  0.1320468E+00
        -11   -1    0    0    0    0  0.00000000000E+00  0.00000000000E+00  0.45593999997E+02  0.45594000000E+02  0.51100000000E-03 0.  1.
         11   -1    0    0    0    0 -0.00000000000E+00 -0.00000000000E+00 -0.45593999997E+02  0.45594000000E+02  0.51100000000E-03 0. -1.
    9900012    2    1    2    0    0  0.35174766356E+02  0.10562071676E+02  0.26082408596E+02  0.46142316695E+02  0.99999902740E+01 0.  0.
         12    1    1    2    0    0 -0.35174766356E+02 -0.10562071676E+02 -0.26082408596E+02  0.45045683305E+02  0.00000000000E+00 0. -1.
         11    1    3    3    0    0  0.14775032059E+02  0.67713721468E+01  0.10490699767E+02  0.19344452304E+02  0.51100000000E-03 0. -1.
        -11    1    3    3    0    0  0.15697028024E+02  0.53723398744E+01  0.13595250951E+02  0.21449698674E+02  0.51100000000E-03 0.  1.
         12    1    3    3    0    0  0.47027062726E+01 -0.15816403451E+01  0.19964578779E+01  0.53481657160E+01  0.00000000000E+00 0. -1.
</event>
<event>
 7    1  0.2425980E-008  0.4614232E+02  0.7816164E-02  0.1320468E+00
        -11   -1    0    0    0    0  0.00000000000E+00  0.00000000000E+00  0.45593999997E+02  0.45594000000E+02  0.51100000000E-03 0. -1.
         11   -1    0    0    0    0 -0.00000000000E+00 -0.00000000000E+00 -0.45593999997E+02  0.45594000000E+02  0.51100000000E-03 0.  1.
    9900012    2    1    2    0    0 -0.28807790646E+02 -0.44566076004E+01 -0.34341861961E+02  0.46142316121E+02  0.99999850422E+01 0.  0.
         12    1    1    2    0    0  0.28807790646E+02  0.44566076004E+01  0.34341861961E+02  0.45045683879E+02  0.00000000000E+00 0. -1.
         11    1    3    3    0    0 -0.15592451452E+02 -0.59345677431E+01 -0.17152233585E+02  0.23927865634E+02  0.51100000000E-03 0.  1.
        -11    1    3    3    0    0 -0.35806018954E+01  0.16060251139E+01 -0.25214425797E+01  0.46645149312E+01  0.51100000000E-03 0. -1.
         12    1    3    3    0    0 -0.96347372978E+01 -0.12806497123E+00 -0.14668185797E+02  0.17549935556E+02  0.00000000000E+00 0. -1.
</event>
<event>
 7    1  0.2425980E-008  0.4614232E+02  0.7816164E-02  0.1320468E+00
        -11   -1    0    0    0    0  0.00000000000E+00  0.00000000000E+00  0.45593999997E+02  0.45594000000E+02  0.51100000000E-03 0. -1.
         11   -1    0    0    0    0 -0.00000000000E+00 -0.00000000000E+00 -0.45593999997E+02  0.45594000000E+02  0.51100000000E-03 0.  1.
    9900012    2    1    2    0    0  0.72684941657E+01  0.37844686051E+02 -0.23325141188E+02  0.46142317841E+02  0.10000000730E+02 0.  0.
         12    1    1    2    0    0 -0.72684941657E+01 -0.37844686051E+02  0.23325141188E+02  0.45045682159E+02  0.00000000000E+00 0. -1.
         11    1    3    3    0    0 -0.13555642040E+01  0.66254306825E+01 -0.20684613473E+01  0.70719458882E+01  0.51100000000E-03 0. -1.
        -11    1    3    3    0    0  0.83395871645E+00  0.90858110279E+01 -0.79121950708E+01  0.12076848938E+02  0.51100000000E-03 0.  1.
        -12    1    3    3    0    0  0.77900996532E+01  0.22133444340E+02 -0.13344484770E+02  0.26993523015E+02  0.00000000000E+00 0.  1.
</event>
<event>
 7    1  0.2425980E-008  0.4614232E+02  0.7816164E-02  0.1320468E+00
        -11   -1    0    0    0    0  0.00000000000E+00  0.00000000000E+00  0.45593999997E+02  0.45594000000E+02  0.51100000000E-03 0.  1.
         11   -1    0    0    0    0 -0.00000000000E+00 -0.00000000000E+00 -0.45593999997E+02  0.45594000000E+02  0.51100000000E-03 0. -1.
    9900012    2    1    2    0    0 -0.13356426993E+02  0.19214412150E+02  0.38490592433E+02  0.46142317831E+02  0.10000000634E+02 0.  0.
         12    1    1    2    0    0  0.13356426993E+02 -0.19214412150E+02 -0.38490592433E+02  0.45045682169E+02  0.00000000000E+00 0. -1.
         11    1    3    3    0    0 -0.31842828473E+01  0.79935269492E+01  0.11298934711E+02  0.14202184909E+02  0.51100000000E-03 0. -1.
        -11    1    3    3    0    0 -0.82539120044E+01  0.39708048936E+01  0.16648514852E+02  0.19001773652E+02  0.51100000000E-03 0.  1.
        -12    1    3    3    0    0 -0.19182321409E+01  0.72500803067E+01  0.10543142870E+02  0.12938359269E+02  0.00000000000E+00 0.  1.
</event>
<event>
 7    1  0.2425980E-008  0.4614232E+02  0.7816164E-02  0.1320468E+00
        -11   -1    0    0    0    0  0.00000000000E+00  0.00000000000E+00  0.45593999997E+02  0.45594000000E+02  0.51100000000E-03 0. -1.
         11   -1    0    0    0    0 -0.00000000000E+00 -0.00000000000E+00 -0.45593999997E+02  0.45594000000E+02  0.51100000000E-03 0.  1.
    9900012    2    1    2    0    0 -0.41756926859E+02  0.16849148344E+02  0.12564795981E+01  0.46142317836E+02  0.10000000685E+02 0.  0.
         12    1    1    2    0    0  0.41756926859E+02 -0.16849148344E+02 -0.12564795981E+01  0.45045682164E+02  0.00000000000E+00 0. -1.
         11    1    3    3    0    0 -0.99288763989E+01  0.62752994309E+01 -0.59235395954E-01  0.11745870704E+02  0.51100000000E-03 0. -1.
        -11    1    3    3    0    0 -0.30850480327E+02  0.11255676335E+02  0.21986595995E+01  0.32913165914E+02  0.51100000000E-03 0.  1.
         12    1    3    3    0    0 -0.97757013286E+00 -0.68182742196E+00 -0.88294460548E+00  0.14832812189E+01  0.00000000000E+00 0. -1.
</event>
<event>
 7    1  0.2425980E-008  0.4614232E+02  0.7816164E-02  0.1320468E+00
        -11   -1    0    0    0    0  0.00000000000E+00  0.00000000000E+00  0.45593999997E+02  0.45594000000E+02  0.51100000000E-03 0. -1.
         11   -1    0    0    0    0 -0.00000000000E+00 -0.00000000000E+00 -0.45593999997E+02  0.45594000000E+02  0.51100000000E-03 0.  1.
    9900012    2    1    2    0    0 -0.12671574328E+02  0.19146489386E+02 -0.38755087081E+02  0.46142316228E+02  0.99999860244E+01 0.  0.
         12    1    1    2    0    0  0.12671574328E+02 -0.19146489386E+02  0.38755087081E+02  0.45045683772E+02  0.00000000000E+00 0. -1.
         11    1    3    3    0    0 -0.40419876211E+01  0.57152960636E+01 -0.57732754088E+01  0.90737523787E+01  0.51100000000E-03 0. -1.
        -11    1    3    3    0    0 -0.69425971745E+01  0.56323044196E+01 -0.17578767626E+02  0.19721449747E+02  0.51100000000E-03 0.  1.
        -12    1    3    3    0    0 -0.16869895320E+01  0.77988889030E+01 -0.15403044047E+02  0.17347114103E+02  0.00000000000E+00 0.  1.
</event>
<event>
 7    1  0.2425980E-008  0.4614232E+02  0.7816164E-02  0.1320468E+00
        -11   -1    0    0    0    0  0.00000000000E+00  0.00000000000E+00  0.45593999997E+02  0.45594000000E+02  0.51100000000E-03 0.  1.
         11   -1    0    0    0    0 -0.00000000000E+00 -0.00000000000E+00 -0.45593999997E+02  0.45594000000E+02  0.51100000000E-03 0. -1.
    9900012    2    1    2    0    0 -0.33092224853E+02  0.29458889744E+02  0.81358417164E+01  0.46142318175E+02  0.10000003770E+02 0.  0.
         12    1    1    2    0    0  0.33092224853E+02 -0.29458889744E+02 -0.81358417164E+01  0.45045681825E+02  0.00000000000E+00 0. -1.
         11    1    3    3    0    0 -0.16054990407E+02  0.14283218831E+02  0.63939550959E+01  0.22419984817E+02  0.51100000000E-03 0. -1.
        -11    1    3    3    0    0 -0.73017320502E+01  0.10527967938E+02  0.11793336829E+00  0.12812779104E+02  0.51100000000E-03 0.  1.
         12    1    3    3    0    0 -0.97355023963E+01  0.46477029746E+01  0.16239532522E+01  0.10909554254E+02  0.00000000000E+00 0. -1.
</event>
<event>
 7    1  0.2425980E-008  0.4614232E+02  0.7816164E-02  0.1320468E+00
        -11   -1    0    0    0    0  0.00000000000E+00  0.00000000000E+00  0.45593999997E+02  0.45594000000E+02  0.51100000000E-03 0. -1.
         11   -1    0    0    0    0 -0.00000000000E+00 -0.00000000000E+00 -0.45593999997E+02  0.45594000000E+02  0.51100000000E-03 0.  1.
    9900012    2    1    2    0    0  0.38533983582E+02 -0.22646400163E+02  0.56023345378E+01  0.46142317817E+02  0.10000000509E+02 0.  0.
         12    1    1    2    0    0 -0.38533983582E+02  0.22646400163E+02 -0.56023345378E+01  0.45045682183E+02  0.00000000000E+00 0. -1.
         11    1    3    3    0    0  0.44031652213E+01 -0.47447239572E+01 -0.37969452400E+00  0.64841682265E+01  0.51100000000E-03 0. -1.
        -11    1    3    3    0    0  0.17431530495E+02 -0.59236219985E+01  0.50295551418E+01  0.19085176922E+02  0.51100000000E-03 0.  1.
        -12    1    3    3    0    0  0.16699287866E+02 -0.11978054208E+02  0.95247392006E+00  0.20572972668E+02  0.00000000000E+00 0.  1.
</event>
<event>
 7    1  0.2425980E-008  0.4614232E+02  0.7816164E-02  0.1320468E+00
        -11   -1    0    0    0    0  0.00000000000E+00  0.00000000000E+00  0.45593999997E+02  0.45594000000E+02  0.51100000000E-03 0.  1.
         11   -1    0    0    0    0 -0.00000000000E+00 -0.00000000000E+00 -0.45593999997E+02  0.45594000000E+02  0.51100000000E-03 0. -1.
    9900012    2    1    2    0    0 -0.44157897050E+02  0.57291032528E+01  0.68096260162E+01  0.46142317605E+02  0.99999985729E+01 0.  0.
         12    1    1    2    0    0  0.44157897050E+02 -0.57291032528E+01 -0.68096260162E+01  0.45045682395E+02  0.00000000000E+00 0. -1.
         11    1    3    3    0    0 -0.14818061371E+02  0.59854739176E+01  0.76927716968E+00  0.15999769637E+02  0.51100000000E-03 0. -1.
        -11    1    3    3    0    0 -0.88833517756E+01 -0.99942833917E+00  0.58715289413E+00  0.89586575198E+01  0.51100000000E-03 0.  1.
        -12    1    3    3    0    0 -0.20456483904E+02  0.74305767438E+00  0.54531959524E+01  0.21183890448E+02  0.00000000000E+00 0.  1.
</event>
<event>
 7    1  0.2425980E-008  0.4614232E+02  0.7816164E-02  0.1320468E+00
        -11   -1    0    0    0    0  0.00000000000E+00  0.00000000000E+00  0.45593999997E+02  0.45594000000E+02  0.51100000000E-03 0.  1.
         11   -1    0    0    0    0 -0.00000000000E+00 -0.00000000000E+00 -0.45593999997E+02  0.45594000000E+02  0.51100000000E-03 0. -1.
    9900012    2    1    2    0    0 -0.74441817844E+01 -0.37981732634E+02  0.23045296528E+02  0.46142317095E+02  0.99999939236E+01 0.  0.
         12    1    1    2    0    0  0.74441817844E+01  0.37981732634E+02 -0.23045296528E+02  0.45045682905E+02  0.00000000000E+00 0. -1.
         11    1    3    3    0    0 -0.12140274436E+01 -0.73025076512E+01  0.75248025043E+01  0.10555715685E+02  0.51100000000E-03 0. -1.
        -11    1    3    3    0    0  0.12056731015E+01 -0.93149255510E+01  0.49560604625E+01  0.10619982167E+02  0.51100000000E-03 0.  1.
        -12    1    3    3    0    0 -0.74358274423E+01 -0.21364299432E+02  0.10564433561E+02  0.24966619243E+02  0.00000000000E+00 0.  1.
</event>
<event>
 7    1  0.2425980E-008  0.4614232E+02  0.7816164E-02  0.1320468E+00
        -11   -1    0    0    0    0  0.00000000000E+00  0.00000000000E+00  0.45593999997E+02  0.45594000000E+02  0.51100000000E-03 0.  1.
         11   -1    0    0    0    0 -0.00000000000E+00 -0.00000000000E+00 -0.45593999997E+02  0.45594000000E+02  0.51100000000E-03 0. -1.
    9900012    2    1    2    0    0 -0.37593613737E+02  0.16083547375E+02  0.18898498526E+02  0.46142317227E+02  0.99999951307E+01 0.  0.
         12    1    1    2    0    0  0.37593613737E+02 -0.16083547375E+02 -0.18898498526E+02  0.45045682773E+02  0.00000000000E+00 0. -1.
         11    1    3    3    0    0 -0.21942238460E+01  0.28748516753E+01  0.96911633724E+00  0.37441390436E+01  0.51100000000E-03 0. -1.
        -11    1    3    3    0    0 -0.87914572396E+01  0.59790806687E+01  0.30194145424E+01  0.11052420119E+02  0.51100000000E-03 0.  1.
        -12    1    3    3    0    0 -0.26607932651E+02  0.72296150314E+01  0.14909967646E+02  0.31345758065E+02  0.00000000000E+00 0.  1.
</event>
<event>
 7    1  0.2425980E-008  0.4614232E+02  0.7816164E-02  0.1320468E+00
        -11   -1    0    0    0    0  0.00000000000E+00  0.00000000000E+00  0.45593999997E+02  0.45594000000E+02  0.51100000000E-03 0.  1.
         11   -1    0    0    0    0 -0.00000000000E+00 -0.00000000000E+00 -0.45593999997E+02  0.45594000000E+02  0.51100000000E-03 0. -1.
    9900012    2    1    2    0    0  0.14413451470E+02 -0.35990844093E+02  0.22935235131E+02  0.46142318161E+02  0.10000003647E+02 0.  0.
         12    1    1    2    0    0 -0.14413451470E+02  0.35990844093E+02 -0.22935235131E+02  0.45045681839E+02  0.00000000000E+00 0. -1.
         11    1    3    3    0    0  0.44958749960E+01 -0.70622711252E+01  0.41447031323E+01  0.93416877352E+01  0.51100000000E-03 0. -1.
        -11    1    3    3    0    0  0.78891090252E+01 -0.10703150567E+02  0.82908939039E+01  0.15669537174E+02  0.51100000000E-03 0.  1.
         12    1    3    3    0    0  0.20284674493E+01 -0.18225422401E+02  0.10499638095E+02  0.21131093251E+02  0.00000000000E+00 0. -1.
</event>
<event>
 7    1  0.2425980E-008  0.4614232E+02  0.7816164E-02  0.1320468E+00
        -11   -1    0    0    0    0  0.00000000000E+00  0.00000000000E+00  0.45593999997E+02  0.45594000000E+02  0.51100000000E-03 0.  1.
         11   -1    0    0    0    0 -0.00000000000E+00 -0.00000000000E+00 -0.45593999997E+02  0.45594000000E+02  0.51100000000E-03 0. -1.
    9900012    2    1    2    0    0 -0.21687933840E+02  0.22101511622E+02  0.32714984436E+02  0.46142317667E+02  0.99999991382E+01 0.  0.
         12    1    1    2    0    0  0.21687933840E+02 -0.22101511622E+02 -0.32714984436E+02  0.45045682333E+02  0.00000000000E+00 0. -1.
         11    1    3    3    0    0 -0.48256197225E+01  0.80249047405E+01  0.12249659098E+02  0.15418814808E+02  0.51100000000E-03 0. -1.
        -11    1    3    3    0    0 -0.87486393215E+01  0.32354156099E+01  0.73960758426E+01  0.11904139712E+02  0.51100000000E-03 0.  1.
        -12    1    3    3    0    0 -0.81136747961E+01  0.10841191272E+02  0.13069249496E+02  0.18819363147E+02  0.00000000000E+00 0.  1.
</event>
<event>
 7    1  0.2425980E-008  0.4614232E+02  0.7816164E-02  0.1320468E+00
        -11   -1    0    0    0    0  0.00000000000E+00  0.00000000000E+00  0.45593999997E+02  0.45594000000E+02  0.51100000000E-03 0.  1.
         11   -1    0    0    0    0 -0.00000000000E+00 -0.00000000000E+00 -0.45593999997E+02  0.45594000000E+02  0.51100000000E-03 0. -1.
    9900012    2    1    2    0    0  0.16905205491E+02  0.36811539544E+02  0.19703761261E+02  0.46142316254E+02  0.99999862563E+01 0.  0.
         12    1    1    2    0    0 -0.16905205491E+02 -0.36811539544E+02 -0.19703761261E+02  0.45045683746E+02  0.00000000000E+00 0. -1.
         11    1    3    3    0    0  0.85873792185E+00  0.52737663117E+01  0.16712934725E+00  0.53458371101E+01  0.51100000000E-03 0. -1.
        -11    1    3    3    0    0  0.88659731484E+01  0.22848444098E+02  0.14198941345E+02  0.28324314875E+02  0.51100000000E-03 0.  1.
        -12    1    3    3    0    0  0.71804944205E+01  0.86893291351E+01  0.53376905693E+01  0.12472164269E+02  0.00000000000E+00 0.  1.
</event>
<event>
 7    1  0.2425980E-008  0.4614232E+02  0.7816164E-02  0.1320468E+00
        -11   -1    0    0    0    0  0.00000000000E+00  0.00000000000E+00  0.45593999997E+02  0.45594000000E+02  0.51100000000E-03 0. -1.
         11   -1    0    0    0    0 -0.00000000000E+00 -0.00000000000E+00 -0.45593999997E+02  0.45594000000E+02  0.51100000000E-03 0.  1.
    9900012    2    1    2    0    0  0.18212797724E+02  0.36255429622E+02  0.19569143090E+02  0.46142317195E+02  0.99999948423E+01 0.  0.
         12    1    1    2    0    0 -0.18212797724E+02 -0.36255429622E+02 -0.19569143090E+02  0.45045682805E+02  0.00000000000E+00 0. -1.
         11    1    3    3    0    0  0.69218772127E+00  0.10282280730E+02  0.60639294214E+01  0.11957243041E+02  0.51100000000E-03 0. -1.
        -11    1    3    3    0    0  0.12899393883E+02  0.19979482468E+02  0.11092028464E+02  0.26241325765E+02  0.51100000000E-03 0.  1.
         12    1    3    3    0    0  0.46212161197E+01  0.59936664251E+01  0.24131852050E+01  0.79437483894E+01  0.00000000000E+00 0. -1.
</event>
<event>
 7    1  0.2425980E-008  0.4614232E+02  0.7816164E-02  0.1320468E+00
        -11   -1    0    0    0    0  0.00000000000E+00  0.00000000000E+00  0.45593999997E+02  0.45594000000E+02  0.51100000000E-03 0. -1.
         11   -1    0    0    0    0 -0.00000000000E+00 -0.00000000000E+00 -0.45593999997E+02  0.45594000000E+02  0.51100000000E-03 0.  1.
    9900012    2    1    2    0    0  0.29755043915E+02 -0.33471323155E+02  0.48395414982E+01  0.46142320141E+02  0.10000021698E+02 0.  0.
         12    1    1    2    0    0 -0.29755043915E+02  0.33471323155E+02 -0.48395414982E+01  0.45045679859E+02  0.00000000000E+00 0. -1.
         11    1    3    3    0    0  0.14521874244E+02 -0.13052626420E+02  0.82039450703E+00  0.19543002211E+02  0.51100000000E-03 0. -1.
        -11    1    3    3    0    0  0.14790970069E+02 -0.15913380281E+02  0.38848963208E+01  0.22070362191E+02  0.51100000000E-03 0.  1.
        -12    1    3    3    0    0  0.44219960100E+00 -0.45053164537E+01  0.13425067034E+00  0.45289557381E+01  0.00000000000E+00 0.  1.
</event>
<event>
 7    1  0.2425980E-008  0.4614232E+02  0.7816164E-02  0.1320468E+00
        -11   -1    0    0    0    0  0.00000000000E+00  0.00000000000E+00  0.45593999997E+02  0.45594000000E+02  0.51100000000E-03 0. -1.
         11   -1    0    0    0    0 -0.00000000000E+00 -0.00000000000E+00 -0.45593999997E+02  0.45594000000E+02  0.51100000000E-03 0.  1.
    9900012    2    1    2    0    0  0.11938499767E+02 -0.36448166540E+02 -0.23624496832E+02  0.46142317950E+02  0.10000001721E+02 0.  0.
         12    1    1    2    0    0 -0.11938499767E+02  0.36448166540E+02  0.23624496832E+02  0.45045682050E+02  0.00000000000E+00 0. -1.
         11    1    3    3    0    0 -0.52710798916E+00 -0.11549542679E+01  0.10125206650E+00  0.12735833052E+01  0.51100000000E-03 0. -1.
        -11    1    3    3    0    0  0.68209330281E+00 -0.10912742054E+02 -0.56123280548E+01  0.12290297672E+02  0.51100000000E-03 0.  1.
         12    1    3    3    0    0  0.11783514453E+02 -0.24380470218E+02 -0.18113420843E+02  0.32578436972E+02  0.00000000000E+00 0. -1.
</event>
<event>
 7    1  0.2425980E-008  0.4614232E+02  0.7816164E-02  0.1320468E+00
        -11   -1    0    0    0    0  0.00000000000E+00  0.00000000000E+00  0.45593999997E+02  0.45594000000E+02  0.51100000000E-03 0. -1.
         11   -1    0    0    0    0 -0.00000000000E+00 -0.00000000000E+00 -0.45593999997E+02  0.45594000000E+02  0.51100000000E-03 0.  1.
    9900012    2    1    2    0    0 -0.80358511345E+01 -0.19320702574E+02 -0.39890464385E+02  0.46142316519E+02  0.99999886691E+01 0.  0.
         12    1    1    2    0    0  0.80358511345E+01  0.19320702574E+02  0.39890464385E+02  0.45045683481E+02  0.00000000000E+00 0. -1.
         11    1    3    3    0    0 -0.29609559797E+01 -0.15346110553E+02 -0.29444953069E+02  0.33335801039E+02  0.51100000000E-03 0. -1.
        -11    1    3    3    0    0 -0.40227496246E+01 -0.40383255729E+01 -0.10258854723E+02  0.11736042282E+02  0.51100000000E-03 0.  1.
         12    1    3    3    0    0 -0.10521455302E+01  0.63733551430E-01 -0.18665659436E+00  0.10704731975E+01  0.00000000000E+00 0. -1.
</event>
<event>
 7    1  0.2425980E-008  0.4614232E+02  0.7816164E-02  0.1320468E+00
        -11   -1    0    0    0    0  0.00000000000E+00  0.00000000000E+00  0.45593999997E+02  0.45594000000E+02  0.51100000000E-03 0.  1.
         11   -1    0    0    0    0 -0.00000000000E+00 -0.00000000000E+00 -0.45593999997E+02  0.45594000000E+02  0.51100000000E-03 0. -1.
    9900012    2    1    2    0    0 -0.17536919695E+02 -0.18457971778E+02  0.37160101994E+02  0.46142318134E+02  0.10000003403E+02 0.  0.
         12    1    1    2    0    0  0.17536919695E+02  0.18457971778E+02 -0.37160101994E+02  0.45045681866E+02  0.00000000000E+00 0. -1.
         11    1    3    3    0    0 -0.48380556167E+01 -0.10489743623E+02  0.12268922317E+02  0.16851348864E+02  0.51100000000E-03 0. -1.
        -11    1    3    3    0    0 -0.94797548484E+01 -0.76794063485E+01  0.19289690610E+02  0.22823917235E+02  0.51100000000E-03 0.  1.
        -12    1    3    3    0    0 -0.32191092297E+01 -0.28882180588E+00  0.56014890667E+01  0.64670520357E+01  0.00000000000E+00 0.  1.
</event>
<event>
 7    1  0.2425980E-008  0.4614232E+02  0.7816164E-02  0.1320468E+00
        -11   -1    0    0    0    0  0.00000000000E+00  0.00000000000E+00  0.45593999997E+02  0.45594000000E+02  0.51100000000E-03 0. -1.
         11   -1    0    0    0    0 -0.00000000000E+00 -0.00000000000E+00 -0.45593999997E+02  0.45594000000E+02  0.51100000000E-03 0.  1.
    9900012    2    1    2    0    0 -0.27498716897E+02 -0.80470328296E+01 -0.34758874866E+02  0.46142317074E+02  0.99999937329E+01 0.  0.
         12    1    1    2    0    0  0.27498716897E+02  0.80470328296E+01  0.34758874866E+02  0.45045682926E+02  0.00000000000E+00 0. -1.
         11    1    3    3    0    0 -0.14924231517E+01  0.12839928988E+01 -0.40902088189E+01  0.45393582224E+01  0.51100000000E-03 0. -1.
        -11    1    3    3    0    0 -0.11030237710E+01 -0.70696529019E+00 -0.35679907321E+01  0.38009235044E+01  0.51100000000E-03 0.  1.
        -12    1    3    3    0    0 -0.24903269975E+02 -0.86240604382E+01 -0.27100675315E+02  0.37802035347E+02  0.00000000000E+00 0.  1.
</event>
<event>
 7    1  0.2425980E-008  0.4614232E+02  0.7816164E-02  0.1320468E+00
        -11   -1    0    0    0    0  0.00000000000E+00  0.00000000000E+00  0.45593999997E+02  0.45594000000E+02  0.51100000000E-03 0.  1.
         11   -1    0    0    0    0 -0.00000000000E+00 -0.00000000000E+00 -0.45593999997E+02  0.45594000000E+02  0.51100000000E-03 0. -1.
    9900012    2    1    2    0    0  0.41792167488E+01 -0.44152805275E+02  0.78852693240E+01  0.46142317203E+02  0.99999949135E+01 0.  0.
         12    1    1    2    0    0 -0.41792167488E+01  0.44152805275E+02 -0.78852693240E+01  0.45045682797E+02  0.00000000000E+00 0. -1.
         11    1    3    3    0    0  0.47501475000E+00 -0.10963495321E+02  0.13657592148E+00  0.10974630832E+02  0.51100000000E-03 0. -1.
        -11    1    3    3    0    0 -0.21011484535E+01 -0.16447880714E+02  0.35356333806E+01  0.16954300589E+02  0.51100000000E-03 0.  1.
         12    1    3    3    0    0  0.58053504524E+01 -0.16741429240E+02  0.42130600219E+01  0.18213385781E+02  0.00000000000E+00 0. -1.
</event>
<event>
 7    1  0.2425980E-008  0.4614232E+02  0.7816164E-02  0.1320468E+00
        -11   -1    0    0    0    0  0.00000000000E+00  0.00000000000E+00  0.45593999997E+02  0.45594000000E+02  0.51100000000E-03 0.  1.
         11   -1    0    0    0    0 -0.00000000000E+00 -0.00000000000E+00 -0.45593999997E+02  0.45594000000E+02  0.51100000000E-03 0. -1.
    9900012    2    1    2    0    0  0.72861298717E+01  0.19779411386E+02  0.39809554401E+02  0.46142318466E+02  0.10000006426E+02 0.  0.
         12    1    1    2    0    0 -0.72861298717E+01 -0.19779411386E+02 -0.39809554401E+02  0.45045681534E+02  0.00000000000E+00 0. -1.
         11    1    3    3    0    0  0.20340522992E+01  0.15294296269E+01  0.17047718475E+01  0.30631309232E+01  0.51100000000E-03 0. -1.
        -11    1    3    3    0    0  0.20134888903E+01  0.12500848998E+02  0.18702912585E+02  0.22585931520E+02  0.51100000000E-03 0.  1.
        -12    1    3    3    0    0  0.32385886822E+01  0.57491327612E+01  0.19401869968E+02  0.20493256023E+02  0.00000000000E+00 0.  1.
</event>
<event>
 7    1  0.2425980E-008  0.4614232E+02  0.7816164E-02  0.1320468E+00
        -11   -1    0    0    0    0  0.00000000000E+00  0.00000000000E+00  0.45593999997E+02  0.45594000000E+02  0.51100000000E-03 0.  1.
         11   -1    0    0    0    0 -0.00000000000E+00 -0.00000000000E+00 -0.45593999997E+02  0.45594000000E+02  0.51100000000E-03 0. -1.
    9900012    2    1    2    0    0  0.16067816737E+01 -0.14495465800E+02  0.42619400961E+02  0.46142316363E+02  0.99999872493E+01 0.  0.
         12    1    1    2    0    0 -0.16067816737E+01  0.14495465800E+02 -0.42619400961E+02  0.45045683637E+02  0.00000000000E+00 0. -1.
         11    1    3    3    0    0  0.17909310039E+00 -0.31630689085E+01  0.32852379645E+01  0.45639750222E+01  0.51100000000E-03 0. -1.
        -11    1    3    3    0    0  0.85992262238E-02 -0.86500604988E+00  0.15195231388E-01  0.86518239071E+00  0.51100000000E-03 0.  1.
        -12    1    3    3    0    0  0.14190893471E+01 -0.10467390842E+02  0.39318967765E+02  0.40713158950E+02  0.00000000000E+00 0.  1.
</event>
<event>
 7    1  0.2425980E-008  0.4614232E+02  0.7816164E-02  0.1320468E+00
        -11   -1    0    0    0    0  0.00000000000E+00  0.00000000000E+00  0.45593999997E+02  0.45594000000E+02  0.51100000000E-03 0. -1.
         11   -1    0    0    0    0 -0.00000000000E+00 -0.00000000000E+00 -0.45593999997E+02  0.45594000000E+02  0.51100000000E-03 0.  1.
    9900012    2    1    2    0    0 -0.20564913522E+02  0.22376512813E+02 -0.33248897608E+02  0.46142321117E+02  0.10000030604E+02 0.  0.
         12    1    1    2    0    0  0.20564913522E+02 -0.22376512813E+02  0.33248897608E+02  0.45045678883E+02  0.00000000000E+00 0. -1.
         11    1    3    3    0    0 -0.45850317713E+01  0.76952279601E+01 -0.10553627481E+02  0.13842619079E+02  0.51100000000E-03 0. -1.
        -11    1    3    3    0    0 -0.71528568213E+01  0.84762775389E+01 -0.16429183845E+02  0.19822429813E+02  0.51100000000E-03 0.  1.
         12    1    3    3    0    0 -0.88270249296E+01  0.62050073140E+01 -0.62660862816E+01  0.12477272224E+02  0.00000000000E+00 0. -1.
</event>
<event>
 7    1  0.2425980E-008  0.4614232E+02  0.7816164E-02  0.1320468E+00
        -11   -1    0    0    0    0  0.00000000000E+00  0.00000000000E+00  0.45593999997E+02  0.45594000000E+02  0.51100000000E-03 0.  1.
         11   -1    0    0    0    0 -0.00000000000E+00 -0.00000000000E+00 -0.45593999997E+02  0.45594000000E+02  0.51100000000E-03 0. -1.
    9900012    2    1    2    0    0  0.34312119590E+02 -0.29104861304E+02 -0.21676996143E+01  0.46142318477E+02  0.10000006531E+02 0.  0.
         12    1    1    2    0    0 -0.34312119590E+02  0.29104861304E+02  0.21676996143E+01  0.45045681523E+02  0.00000000000E+00 0. -1.
         11    1    3    3    0    0  0.32028462536E+01 -0.27389929148E+01  0.74374669252E+00  0.42794235260E+01  0.51100000000E-03 0. -1.
        -11    1    3    3    0    0  0.21072514404E+02 -0.21839429245E+02 -0.46948299768E+01  0.30709167391E+02  0.51100000000E-03 0.  1.
         12    1    3    3    0    0  0.10036758932E+02 -0.45264391434E+01  0.17833836700E+01  0.11153727561E+02  0.00000000000E+00 0. -1.
</event>
<event>
 7    1  0.2425980E-008  0.4614232E+02  0.7816164E-02  0.1320468E+00
        -11   -1    0    0    0    0  0.00000000000E+00  0.00000000000E+00  0.45593999997E+02  0.45594000000E+02  0.51100000000E-03 0. -1.
         11   -1    0    0    0    0 -0.00000000000E+00 -0.00000000000E+00 -0.45593999997E+02  0.45594000000E+02  0.51100000000E-03 0.  1.
    9900012    2    1    2    0    0  0.31741001547E+02 -0.47287697552E+01 -0.31611090235E+02  0.46142317983E+02  0.10000002019E+02 0.  0.
         12    1    1    2    0    0 -0.31741001547E+02  0.47287697552E+01  0.31611090235E+02  0.45045682017E+02  0.00000000000E+00 0. -1.
         11    1    3    3    0    0  0.90018961843E+01  0.23134382224E+01 -0.11575953242E+02  0.14845498478E+02  0.51100000000E-03 0. -1.
        -11    1    3    3    0    0  0.11722932218E+02 -0.40459248904E+01 -0.12560620207E+02  0.17651227387E+02  0.51100000000E-03 0.  1.
         12    1    3    3    0    0  0.11016173144E+02 -0.29962830872E+01 -0.74745167858E+01  0.13645592118E+02  0.00000000000E+00 0. -1.
</event>
<event>
 7    1  0.2425980E-008  0.4614232E+02  0.7816164E-02  0.1320468E+00
        -11   -1    0    0    0    0  0.00000000000E+00  0.00000000000E+00  0.45593999997E+02  0.45594000000E+02  0.51100000000E-03 0. -1.
         11   -1    0    0    0    0 -0.00000000000E+00 -0.00000000000E+00 -0.45593999997E+02  0.45594000000E+02  0.51100000000E-03 0.  1.
    9900012    2    1    2    0    0 -0.13686521489E+02  0.83620799490E+01 -0.42093565228E+02  0.46142317797E+02  0.10000000325E+02 0.  0.
         12    1    1    2    0    0  0.13686521489E+02 -0.83620799490E+01  0.42093565228E+02  0.45045682203E+02  0.00000000000E+00 0. -1.
         11    1    3    3    0    0 -0.35774434225E+00 -0.27124397782E+00  0.55856418709E-02  0.44898304026E+00  0.51100000000E-03 0. -1.
        -11    1    3    3    0    0 -0.10526916034E+02  0.59177527185E+01 -0.20899747203E+02  0.24137837348E+02  0.51100000000E-03 0.  1.
        -12    1    3    3    0    0 -0.28018611118E+01  0.27155712083E+01 -0.21199403667E+02  0.21555497408E+02  0.00000000000E+00 0.  1.
</event>
<event>
 7    1  0.2425980E-008  0.4614233E+02  0.7816164E-02  0.1320468E+00
        -11   -1    0    0    0    0  0.00000000000E+00  0.00000000000E+00  0.45593999997E+02  0.45594000000E+02  0.51100000000E-03 0.  1.
         11   -1    0    0    0    0 -0.00000000000E+00 -0.00000000000E+00 -0.45593999997E+02  0.45594000000E+02  0.51100000000E-03 0. -1.
    9900012    2    1    2    0    0 -0.19847556333E+01  0.17916830647E+02  0.41281481620E+02  0.46142325401E+02  0.10000069663E+02 0.  0.
         12    1    1    2    0    0  0.19847556333E+01 -0.17916830647E+02 -0.41281481620E+02  0.45045674599E+02  0.00000000000E+00 0. -1.
         11    1    3    3    0    0 -0.20164995026E+01  0.54619547897E+01  0.53641855943E+01  0.79166727683E+01  0.51100000000E-03 0. -1.
        -11    1    3    3    0    0 -0.83243294272E+00  0.11890337163E+02  0.31260389525E+02  0.33455717239E+02  0.51100000000E-03 0.  1.
         12    1    3    3    0    0  0.86417681201E+00  0.56453869453E+00  0.46569065006E+01  0.47699353932E+01  0.00000000000E+00 0. -1.
</event>
<event>
 7    1  0.2425980E-008  0.4614232E+02  0.7816164E-02  0.1320468E+00
        -11   -1    0    0    0    0  0.00000000000E+00  0.00000000000E+00  0.45593999997E+02  0.45594000000E+02  0.51100000000E-03 0.  1.
         11   -1    0    0    0    0 -0.00000000000E+00 -0.00000000000E+00 -0.45593999997E+02  0.45594000000E+02  0.51100000000E-03 0. -1.
    9900012    2    1    2    0    0 -0.13578378540E+02  0.26687585177E+02  0.33652844678E+02  0.46142317395E+02  0.99999966646E+01 0.  0.
         12    1    1    2    0    0  0.13578378540E+02 -0.26687585177E+02 -0.33652844678E+02  0.45045682605E+02  0.00000000000E+00 0. -1.
         11    1    3    3    0    0  0.24680508152E+00  0.35389332077E+00  0.19046725221E+01  0.19529288027E+01  0.51100000000E-03 0. -1.
        -11    1    3    3    0    0 -0.32845769329E+01  0.11384655894E+02  0.16846581210E+02  0.20596265054E+02  0.51100000000E-03 0.  1.
        -12    1    3    3    0    0 -0.10540606689E+02  0.14949035962E+02  0.14901590946E+02  0.23593123539E+02  0.00000000000E+00 0.  1.
</event>
<event>
 7    1  0.2425980E-008  0.4614232E+02  0.7816164E-02  0.1320468E+00
        -11   -1    0    0    0    0  0.00000000000E+00  0.00000000000E+00  0.45593999997E+02  0.45594000000E+02  0.51100000000E-03 0.  1.
         11   -1    0    0    0    0 -0.00000000000E+00 -0.00000000000E+00 -0.45593999997E+02  0.45594000000E+02  0.51100000000E-03 0. -1.
    9900012    2    1    2    0    0  0.22741771630E+01  0.36882288998E+02  0.25761179383E+02  0.46142317780E+02  0.10000000170E+02 0.  0.
         12    1    1    2    0    0 -0.22741771630E+01 -0.36882288998E+02 -0.25761179383E+02  0.45045682220E+02  0.00000000000E+00 0. -1.
         11    1    3    3    0    0 -0.55678624783E-01  0.97013693533E-01  0.72932571413E+00  0.73785366056E+00  0.51100000000E-03 0. -1.
        -11    1    3    3    0    0  0.33229357126E+00  0.22062396289E+01 -0.60552073155E+00  0.23118321598E+01  0.51100000000E-03 0.  1.
        -12    1    3    3    0    0  0.19975622166E+01  0.34579035676E+02  0.25637374400E+02  0.43092631959E+02  0.00000000000E+00 0.  1.
</event>
<event>
 7    1  0.2425980E-008  0.4614232E+02  0.7816164E-02  0.1320468E+00
        -11   -1    0    0    0    0  0.00000000000E+00  0.00000000000E+00  0.45593999997E+02  0.45594000000E+02  0.51100000000E-03 0. -1.
         11   -1    0    0    0    0 -0.00000000000E+00 -0.00000000000E+00 -0.45593999997E+02  0.45594000000E+02  0.51100000000E-03 0.  1.
    9900012    2    1    2    0    0 -0.28689645650E+02 -0.12349387683E+02  0.32457825423E+02  0.46142316801E+02  0.99999912439E+01 0.  0.
         12    1    1    2    0    0  0.28689645650E+02  0.12349387683E+02 -0.32457825423E+02  0.45045683199E+02  0.00000000000E+00 0. -1.
         11    1    3    3    0    0 -0.12440632644E+02 -0.67471016324E+01  0.18127399689E+02  0.22997724687E+02  0.51100000000E-03 0.  1.
        -11    1    3    3    0    0 -0.91541068250E+01 -0.58670062914E+01  0.10318210081E+02  0.14989492791E+02  0.51100000000E-03 0. -1.
        -12    1    3    3    0    0 -0.70949061810E+01  0.26472024129E+00  0.40122156531E+01  0.81550993232E+01  0.00000000000E+00 0.  1.
</event>
<event>
 7    1  0.2425980E-008  0.4614232E+02  0.7816164E-02  0.1320468E+00
        -11   -1    0    0    0    0  0.00000000000E+00  0.00000000000E+00  0.45593999997E+02  0.45594000000E+02  0.51100000000E-03 0. -1.
         11   -1    0    0    0    0 -0.00000000000E+00 -0.00000000000E+00 -0.45593999997E+02  0.45594000000E+02  0.51100000000E-03 0.  1.
    9900012    2    1    2    0    0  0.17991200007E+02 -0.40112963127E+02 -0.98173418733E+01  0.46142319963E+02  0.10000020082E+02 0.  0.
         12    1    1    2    0    0 -0.17991200007E+02  0.40112963127E+02  0.98173418733E+01  0.45045680037E+02  0.00000000000E+00 0. -1.
         11    1    3    3    0    0  0.10754373718E+02 -0.19801411444E+02 -0.12227635657E+01  0.22566515022E+02  0.51100000000E-03 0. -1.
        -11    1    3    3    0    0  0.32783281227E+00 -0.58193754786E+00  0.44300128534E+00  0.80148366318E+00  0.51100000000E-03 0.  1.
        -12    1    3    3    0    0  0.69089934759E+01 -0.19729614135E+02 -0.90375795930E+01  0.22774321278E+02  0.00000000000E+00 0.  1.
</event>
<event>
 7    1  0.2425980E-008  0.4614232E+02  0.7816164E-02  0.1320468E+00
        -11   -1    0    0    0    0  0.00000000000E+00  0.00000000000E+00  0.45593999997E+02  0.45594000000E+02  0.51100000000E-03 0.  1.
         11   -1    0    0    0    0 -0.00000000000E+00 -0.00000000000E+00 -0.45593999997E+02  0.45594000000E+02  0.51100000000E-03 0. -1.
    9900012    2    1    2    0    0 -0.16556402651E+02 -0.39360758545E+02  0.14343281404E+02  0.46142317594E+02  0.99999984735E+01 0.  0.
         12    1    1    2    0    0  0.16556402651E+02  0.39360758545E+02 -0.14343281404E+02  0.45045682406E+02  0.00000000000E+00 0. -1.
         11    1    3    3    0    0  0.58058250071E+00 -0.40332322383E+01  0.65719425878E+00  0.41274620390E+01  0.51100000000E-03 0. -1.
        -11    1    3    3    0    0 -0.16022454461E+02 -0.28936233393E+02  0.10007732645E+02  0.34556900366E+02  0.51100000000E-03 0.  1.
        -12    1    3    3    0    0 -0.11145306908E+01 -0.63912929144E+01  0.36783544995E+01  0.74579551891E+01  0.00000000000E+00 0.  1.
</event>
<event>
 7    1  0.2425980E-008  0.4614232E+02  0.7816164E-02  0.1320468E+00
        -11   -1    0    0    0    0  0.00000000000E+00  0.00000000000E+00  0.45593999997E+02  0.45594000000E+02  0.51100000000E-03 0. -1.
         11   -1    0    0    0    0 -0.00000000000E+00 -0.00000000000E+00 -0.45593999997E+02  0.45594000000E+02  0.51100000000E-03 0.  1.
    9900012    2    1    2    0    0 -0.40787780032E+01 -0.19060697729E+02 -0.40609936871E+02  0.46142316516E+02  0.99999886422E+01 0.  0.
         12    1    1    2    0    0  0.40787780032E+01  0.19060697729E+02  0.40609936871E+02  0.45045683484E+02  0.00000000000E+00 0. -1.
         11    1    3    3    0    0 -0.17518148324E+01 -0.66916275657E+01 -0.67400332408E+01  0.96578870895E+01  0.51100000000E-03 0. -1.
        -11    1    3    3    0    0  0.14866347944E+01 -0.48833083843E+01 -0.11218335718E+02  0.12325089871E+02  0.51100000000E-03 0.  1.
        -12    1    3    3    0    0 -0.38135979652E+01 -0.74857617788E+01 -0.22651567912E+02  0.24159339555E+02  0.00000000000E+00 0.  1.
</event>
<event>
 7    1  0.2425980E-008  0.4614232E+02  0.7816164E-02  0.1320468E+00
        -11   -1    0    0    0    0  0.00000000000E+00  0.00000000000E+00  0.45593999997E+02  0.45594000000E+02  0.51100000000E-03 0. -1.
         11   -1    0    0    0    0 -0.00000000000E+00 -0.00000000000E+00 -0.45593999997E+02  0.45594000000E+02  0.51100000000E-03 0.  1.
    9900012    2    1    2    0    0  0.10653310186E+02  0.15528455221E+02 -0.40920503090E+02  0.46142317492E+02  0.99999975478E+01 0.  0.
         12    1    1    2    0    0 -0.10653310186E+02 -0.15528455221E+02  0.40920503090E+02  0.45045682508E+02  0.00000000000E+00 0. -1.
         11    1    3    3    0    0  0.51508911198E+01  0.62938945312E+01 -0.21526194941E+02  0.23011341912E+02  0.51100000000E-03 0.  1.
        -11    1    3    3    0    0 -0.68408236345E+00  0.55130195536E+00 -0.57419343564E+01  0.58087617390E+01  0.51100000000E-03 0. -1.
         12    1    3    3    0    0  0.61865014301E+01  0.86832587342E+01 -0.13652373793E+02  0.17322213841E+02  0.00000000000E+00 0. -1.
</event>
<event>
 7    1  0.2425980E-008  0.4614232E+02  0.7816164E-02  0.1320468E+00
        -11   -1    0    0    0    0  0.00000000000E+00  0.00000000000E+00  0.45593999997E+02  0.45594000000E+02  0.51100000000E-03 0.  1.
         11   -1    0    0    0    0 -0.00000000000E+00 -0.00000000000E+00 -0.45593999997E+02  0.45594000000E+02  0.51100000000E-03 0. -1.
    9900012    2    1    2    0    0  0.77879889041E+01  0.56318877970E+01  0.44008436359E+02  0.46142318719E+02  0.10000008732E+02 0.  0.
         12    1    1    2    0    0 -0.77879889041E+01 -0.56318877970E+01 -0.44008436359E+02  0.45045681281E+02  0.00000000000E+00 0. -1.
         11    1    3    3    0    0 -0.11159736808E+01 -0.18161846438E+01  0.51608866942E+01  0.55837868556E+01  0.51100000000E-03 0. -1.
        -11    1    3    3    0    0  0.18670270121E+00  0.20728110263E-01  0.94927977555E+00  0.96768791797E+00  0.51100000000E-03 0.  1.
        -12    1    3    3    0    0  0.87172598837E+01  0.74273443305E+01  0.37898269889E+02  0.39590843945E+02  0.00000000000E+00 0.  1.
</event>
<event>
 7    1  0.2425980E-008  0.4614232E+02  0.7816164E-02  0.1320468E+00
        -11   -1    0    0    0    0  0.00000000000E+00  0.00000000000E+00  0.45593999997E+02  0.45594000000E+02  0.51100000000E-03 0. -1.
         11   -1    0    0    0    0 -0.00000000000E+00 -0.00000000000E+00 -0.45593999997E+02  0.45594000000E+02  0.51100000000E-03 0.  1.
    9900012    2    1    2    0    0  0.23353453193E+02 -0.25893503519E+02 -0.28517647763E+02  0.46142317250E+02  0.99999953351E+01 0.  0.
         12    1    1    2    0    0 -0.23353453193E+02  0.25893503519E+02  0.28517647763E+02  0.45045682750E+02  0.00000000000E+00 0. -1.
         11    1    3    3    0    0  0.20101631149E+01 -0.12401945432E+01 -0.55279354149E+00  0.24257821861E+01  0.51100000000E-03 0. -1.
        -11    1    3    3    0    0  0.27596840901E+01 -0.46134847570E+01 -0.12946770325E+01  0.55295828740E+01  0.51100000000E-03 0.  1.
        -12    1    3    3    0    0  0.18583605988E+02 -0.20039824219E+02 -0.26670177189E+02  0.38186952190E+02  0.00000000000E+00 0.  1.
</event>
<event>
 7    1  0.2425980E-008  0.4614232E+02  0.7816164E-02  0.1320468E+00
        -11   -1    0    0    0    0  0.00000000000E+00  0.00000000000E+00  0.45593999997E+02  0.45594000000E+02  0.51100000000E-03 0. -1.
         11   -1    0    0    0    0 -0.00000000000E+00 -0.00000000000E+00 -0.45593999997E+02  0.45594000000E+02  0.51100000000E-03 0.  1.
    9900012    2    1    2    0    0 -0.59742809849E+01 -0.29741926595E+01 -0.44548574644E+02  0.46142319207E+02  0.10000013187E+02 0.  0.
         12    1    1    2    0    0  0.59742809849E+01  0.29741926595E+01  0.44548574644E+02  0.45045680793E+02  0.00000000000E+00 0. -1.
         11    1    3    3    0    0  0.94601776342E+00 -0.37361734925E+01 -0.10156948032E+02  0.10863587601E+02  0.51100000000E-03 0.  1.
        -11    1    3    3    0    0 -0.12583035056E+01  0.16800319121E+01 -0.10554539180E+02  0.10761232852E+02  0.51100000000E-03 0. -1.
        -12    1    3    3    0    0 -0.56619952427E+01 -0.91805107905E+00 -0.23837087432E+02  0.24517498754E+02  0.00000000000E+00 0.  1.
</event>
<event>
 7    1  0.2425980E-008  0.4614232E+02  0.7816164E-02  0.1320468E+00
        -11   -1    0    0    0    0  0.00000000000E+00  0.00000000000E+00  0.45593999997E+02  0.45594000000E+02  0.51100000000E-03 0. -1.
         11   -1    0    0    0    0 -0.00000000000E+00 -0.00000000000E+00 -0.45593999997E+02  0.45594000000E+02  0.51100000000E-03 0.  1.
    9900012    2    1    2    0    0 -0.89759914749E+00  0.25807640455E+02 -0.36908987663E+02  0.46142319182E+02  0.10000012954E+02 0.  0.
         12    1    1    2    0    0  0.89759914749E+00 -0.25807640455E+02  0.36908987663E+02  0.45045680818E+02  0.00000000000E+00 0. -1.
         11    1    3    3    0    0  0.55681373914E+00  0.14052943162E+00 -0.31221161130E+01  0.31744919822E+01  0.51100000000E-03 0.  1.
        -11    1    3    3    0    0  0.15416056481E+01  0.14264912355E+02 -0.22234261381E+02  0.26461796082E+02  0.51100000000E-03 0. -1.
         12    1    3    3    0    0 -0.29960185347E+01  0.11402198668E+02 -0.11552610169E+02  0.16506031118E+02  0.00000000000E+00 0. -1.
</event>
<event>
 7    1  0.2425980E-008  0.4614232E+02  0.7816164E-02  0.1320468E+00
        -11   -1    0    0    0    0  0.00000000000E+00  0.00000000000E+00  0.45593999997E+02  0.45594000000E+02  0.51100000000E-03 0.  1.
         11   -1    0    0    0    0 -0.00000000000E+00 -0.00000000000E+00 -0.45593999997E+02  0.45594000000E+02  0.51100000000E-03 0. -1.
    9900012    2    1    2    0    0 -0.15865669411E+02 -0.41643208031E+02  0.65755052334E+01  0.46142317520E+02  0.99999978033E+01 0.  0.
         12    1    1    2    0    0  0.15865669411E+02  0.41643208031E+02 -0.65755052334E+01  0.45045682480E+02  0.00000000000E+00 0. -1.
         11    1    3    3    0    0 -0.10791879821E+01 -0.85327229971E+00 -0.85231371267E+00  0.16183816744E+01  0.51100000000E-03 0. -1.
        -11    1    3    3    0    0  0.34295662152E+00 -0.29537228754E+01 -0.48766326237E+00  0.30132895293E+01  0.51100000000E-03 0.  1.
        -12    1    3    3    0    0 -0.15129438051E+02 -0.37836212856E+02  0.79154822084E+01  0.41510646317E+02  0.00000000000E+00 0.  1.
</event>
<event>
 7    1  0.2425980E-008  0.4614232E+02  0.7816164E-02  0.1320468E+00
        -11   -1    0    0    0    0  0.00000000000E+00  0.00000000000E+00  0.45593999997E+02  0.45594000000E+02  0.51100000000E-03 0.  1.
         11   -1    0    0    0    0 -0.00000000000E+00 -0.00000000000E+00 -0.45593999997E+02  0.45594000000E+02  0.51100000000E-03 0. -1.
    9900012    2    1    2    0    0 -0.25850854227E+02  0.69070559189E+01  0.36237265664E+02  0.46142317537E+02  0.99999979592E+01 0.  0.
         12    1    1    2    0    0  0.25850854227E+02 -0.69070559189E+01 -0.36237265664E+02  0.45045682463E+02  0.00000000000E+00 0. -1.
         11    1    3    3    0    0 -0.77942011573E+01  0.27316743731E+01  0.13580522622E+02  0.15894722756E+02  0.51100000000E-03 0.  1.
        -11    1    3    3    0    0 -0.54857018054E+01  0.48156344984E+01  0.65634477973E+01  0.98164202828E+01  0.51100000000E-03 0. -1.
         12    1    3    3    0    0 -0.12570951265E+02 -0.64025295262E+00  0.16093295245E+02  0.20431174498E+02  0.00000000000E+00 0. -1.
</event>
<event>
 7    1  0.2425980E-008  0.4614232E+02  0.7816164E-02  0.1320468E+00
        -11   -1    0    0    0    0  0.00000000000E+00  0.00000000000E+00  0.45593999997E+02  0.45594000000E+02  0.51100000000E-03 0.  1.
         11   -1    0    0    0    0 -0.00000000000E+00 -0.00000000000E+00 -0.45593999997E+02  0.45594000000E+02  0.51100000000E-03 0. -1.
    9900012    2    1    2    0    0 -0.36485322917E+02 -0.21664773661E+02  0.15118608577E+02  0.46142317283E+02  0.99999956393E+01 0.  0.
         12    1    1    2    0    0  0.36485322917E+02  0.21664773661E+02 -0.15118608577E+02  0.45045682717E+02  0.00000000000E+00 0. -1.
         11    1    3    3    0    0 -0.22256337189E+02 -0.14323713883E+02  0.11524089180E+02  0.28867247118E+02  0.51100000000E-03 0. -1.
        -11    1    3    3    0    0 -0.10498329477E+02 -0.69398472545E+01  0.82555638983E+00  0.12611817685E+02  0.51100000000E-03 0.  1.
         12    1    3    3    0    0 -0.37306562519E+01 -0.40121252338E+00  0.27689630063E+01  0.46632524796E+01  0.00000000000E+00 0. -1.
</event>
<event>
 7    1  0.2515278E-008  0.4614232E+02  0.7816164E-02  0.1320468E+00
        -11   -1    0    0    0    0  0.00000000000E+00  0.00000000000E+00  0.45593999997E+02  0.45594000000E+02  0.51100000000E-03 0. -1.
         11   -1    0    0    0    0 -0.00000000000E+00 -0.00000000000E+00 -0.45593999997E+02  0.45594000000E+02  0.51100000000E-03 0.  1.
    9900012    2    1    2    0    0  0.90751824809E+01  0.39373868019E+02 -0.19911128442E+02  0.46142318123E+02  0.10000003304E+02 0.  0.
         12    1    1    2    0    0 -0.90751824809E+01 -0.39373868019E+02  0.19911128442E+02  0.45045681877E+02  0.00000000000E+00 0. -1.
         11    1    3    3    0    0  0.32074536886E+01  0.12141671142E+02 -0.73284098161E+01  0.14540066299E+02  0.51100000000E-03 0. -1.
        -11    1    3    3    0    0  0.65974198370E+01  0.27002177285E+02 -0.13048230369E+02  0.30706674237E+02  0.51100000000E-03 0.  1.
         12    1    3    3    0    0 -0.72969104466E+00  0.23001959248E+00  0.46551174272E+00  0.89557758804E+00  0.00000000000E+00 0. -1.
</event>
<event>
 7    1  0.2425980E-008  0.4614232E+02  0.7816164E-02  0.1320468E+00
        -11   -1    0    0    0    0  0.00000000000E+00  0.00000000000E+00  0.45593999997E+02  0.45594000000E+02  0.51100000000E-03 0. -1.
         11   -1    0    0    0    0 -0.00000000000E+00 -0.00000000000E+00 -0.45593999997E+02  0.45594000000E+02  0.51100000000E-03 0.  1.
    9900012    2    1    2    0    0 -0.66151872504E+01  0.44411548330E+02 -0.36009696083E+01  0.46142319746E+02  0.10000018095E+02 0.  0.
         12    1    1    2    0    0  0.66151872504E+01 -0.44411548330E+02  0.36009696083E+01  0.45045680254E+02  0.00000000000E+00 0. -1.
         11    1    3    3    0    0  0.76014629975E+00  0.50867337030E+01 -0.22434336941E+01  0.56112099554E+01  0.51100000000E-03 0.  1.
        -11    1    3    3    0    0 -0.45575421849E+01  0.16932599562E+02  0.22387677961E+01  0.17677562055E+02  0.51100000000E-03 0. -1.
         12    1    3    3    0    0 -0.28177913653E+01  0.22392215066E+02 -0.35963037103E+01  0.22853547736E+02  0.00000000000E+00 0. -1.
</event>
<event>
 7    1  0.2425980E-008  0.4614232E+02  0.7816164E-02  0.1320468E+00
        -11   -1    0    0    0    0  0.00000000000E+00  0.00000000000E+00  0.45593999997E+02  0.45594000000E+02  0.51100000000E-03 0. -1.
         11   -1    0    0    0    0 -0.00000000000E+00 -0.00000000000E+00 -0.45593999997E+02  0.45594000000E+02  0.51100000000E-03 0.  1.
    9900012    2    1    2    0    0 -0.30391844840E+02 -0.32014547989E+02 -0.89731930017E+01  0.46142315319E+02  0.99999777329E+01 0.  0.
         12    1    1    2    0    0  0.30391844840E+02  0.32014547989E+02  0.89731930017E+01  0.45045684681E+02  0.00000000000E+00 0. -1.
         11    1    3    3    0    0 -0.11198432732E+02 -0.15048025717E+02 -0.78723758856E+01  0.20342622151E+02  0.51100000000E-03 0. -1.
        -11    1    3    3    0    0 -0.14477996263E+02 -0.14305652648E+02 -0.60171423286E+00  0.20362370533E+02  0.51100000000E-03 0.  1.
         12    1    3    3    0    0 -0.47154158446E+01 -0.26608696248E+01 -0.49910288325E+00  0.54373226349E+01  0.00000000000E+00 0. -1.
</event>
<event>
 7    1  0.2425980E-008  0.4614232E+02  0.7816164E-02  0.1320468E+00
        -11   -1    0    0    0    0  0.00000000000E+00  0.00000000000E+00  0.45593999997E+02  0.45594000000E+02  0.51100000000E-03 0.  1.
         11   -1    0    0    0    0 -0.00000000000E+00 -0.00000000000E+00 -0.45593999997E+02  0.45594000000E+02  0.51100000000E-03 0. -1.
    9900012    2    1    2    0    0 -0.18358718355E+02  0.38275780840E+02  0.15067698358E+02  0.46142317939E+02  0.10000001620E+02 0.  0.
         12    1    1    2    0    0  0.18358718355E+02 -0.38275780840E+02 -0.15067698358E+02  0.45045682061E+02  0.00000000000E+00 0. -1.
         11    1    3    3    0    0  0.63475847656E+00  0.42680476959E+00 -0.56230631334E+00  0.94935203484E+00  0.51100000000E-03 0. -1.
        -11    1    3    3    0    0 -0.87528738721E+01  0.17989980136E+02  0.85218998707E+01  0.21745688399E+02  0.51100000000E-03 0.  1.
         12    1    3    3    0    0 -0.10240602959E+02  0.19858995935E+02  0.71081048004E+01  0.23447277504E+02  0.00000000000E+00 0. -1.
</event>
<event>
 7    1  0.2425980E-008  0.4614232E+02  0.7816164E-02  0.1320468E+00
        -11   -1    0    0    0    0  0.00000000000E+00  0.00000000000E+00  0.45593999997E+02  0.45594000000E+02  0.51100000000E-03 0. -1.
         11   -1    0    0    0    0 -0.00000000000E+00 -0.00000000000E+00 -0.45593999997E+02  0.45594000000E+02  0.51100000000E-03 0.  1.
    9900012    2    1    2    0    0  0.40436249843E+02  0.99849390185E+01 -0.17155878765E+02  0.46142317801E+02  0.10000000365E+02 0.  0.
         12    1    1    2    0    0 -0.40436249843E+02 -0.99849390185E+01  0.17155878765E+02  0.45045682199E+02  0.00000000000E+00 0. -1.
         11    1    3    3    0    0  0.20944862776E+02  0.34280571256E+01 -0.38400297613E+01  0.21568140420E+02  0.51100000000E-03 0. -1.
        -11    1    3    3    0    0  0.51683615688E+01  0.26247253401E+01 -0.35178324445E+01  0.67805818177E+01  0.51100000000E-03 0.  1.
         12    1    3    3    0    0  0.14323025498E+02  0.39321565529E+01 -0.97980165593E+01  0.17793595564E+02  0.00000000000E+00 0. -1.
</event>
<event>
 7    1  0.2425980E-008  0.4614232E+02  0.7816164E-02  0.1320468E+00
        -11   -1    0    0    0    0  0.00000000000E+00  0.00000000000E+00  0.45593999997E+02  0.45594000000E+02  0.51100000000E-03 0.  1.
         11   -1    0    0    0    0 -0.00000000000E+00 -0.00000000000E+00 -0.45593999997E+02  0.45594000000E+02  0.51100000000E-03 0. -1.
    9900012    2    1    2    0    0  0.32558355577E+01 -0.21254506398E+02  0.39582306732E+02  0.46142317481E+02  0.99999974448E+01 0.  0.
         12    1    1    2    0    0 -0.32558355577E+01  0.21254506398E+02 -0.39582306732E+02  0.45045682519E+02  0.00000000000E+00 0. -1.
         11    1    3    3    0    0  0.12914587866E+01 -0.54948711772E+01  0.53625152172E+01  0.77857591003E+01  0.51100000000E-03 0. -1.
        -11    1    3    3    0    0 -0.13153832344E+01 -0.55456404219E+01  0.65645857295E+01  0.86935692787E+01  0.51100000000E-03 0.  1.
        -12    1    3    3    0    0  0.32797600055E+01 -0.10213994799E+02  0.27655205785E+02  0.29662989102E+02  0.00000000000E+00 0.  1.
</event>
<event>
 7    1  0.2425980E-008  0.4614232E+02  0.7816164E-02  0.1320468E+00
        -11   -1    0    0    0    0  0.00000000000E+00  0.00000000000E+00  0.45593999997E+02  0.45594000000E+02  0.51100000000E-03 0.  1.
         11   -1    0    0    0    0 -0.00000000000E+00 -0.00000000000E+00 -0.45593999997E+02  0.45594000000E+02  0.51100000000E-03 0. -1.
    9900012    2    1    2    0    0 -0.89995536879E+01 -0.36035496871E+02  0.25486552019E+02  0.46142319462E+02  0.10000015509E+02 0.  0.
         12    1    1    2    0    0  0.89995536879E+01  0.36035496871E+02 -0.25486552019E+02  0.45045680538E+02  0.00000000000E+00 0. -1.
         11    1    3    3    0    0 -0.29669059855E+01 -0.28624691643E+01  0.19148419287E+01  0.45456441476E+01  0.51100000000E-03 0. -1.
        -11    1    3    3    0    0 -0.61736417049E+01 -0.30523972029E+02  0.23371102126E+02  0.38936295859E+02  0.51100000000E-03 0.  1.
         12    1    3    3    0    0  0.14099400247E+00 -0.26490556779E+01  0.20060796370E+00  0.26603794558E+01  0.00000000000E+00 0. -1.
</event>
<event>
 7    1  0.2425980E-008  0.4614232E+02  0.7816164E-02  0.1320468E+00
        -11   -1    0    0    0    0  0.00000000000E+00  0.00000000000E+00  0.45593999997E+02  0.45594000000E+02  0.51100000000E-03 0.  1.
         11   -1    0    0    0    0 -0.00000000000E+00 -0.00000000000E+00 -0.45593999997E+02  0.45594000000E+02  0.51100000000E-03 0. -1.
    9900012    2    1    2    0    0  0.30273693829E+02  0.13911598970E+01  0.33326890304E+02  0.46142317840E+02  0.10000000718E+02 0.  0.
         12    1    1    2    0    0 -0.30273693829E+02 -0.13911598970E+01 -0.33326890304E+02  0.45045682160E+02  0.00000000000E+00 0. -1.
         11    1    3    3    0    0  0.18261098313E+02  0.12585583006E+01  0.17838362081E+02  0.25558928823E+02  0.51100000000E-03 0. -1.
        -11    1    3    3    0    0  0.46940260227E+01 -0.60510012598E+00  0.18381017596E+01  0.50772674545E+01  0.51100000000E-03 0.  1.
         12    1    3    3    0    0  0.73185694934E+01  0.73770172235E+00  0.13650426464E+02  0.15506121562E+02  0.00000000000E+00 0. -1.
</event>
<event>
 7    1  0.2425980E-008  0.4614232E+02  0.7816164E-02  0.1320468E+00
        -11   -1    0    0    0    0  0.00000000000E+00  0.00000000000E+00  0.45593999997E+02  0.45594000000E+02  0.51100000000E-03 0.  1.
         11   -1    0    0    0    0 -0.00000000000E+00 -0.00000000000E+00 -0.45593999997E+02  0.45594000000E+02  0.51100000000E-03 0. -1.
    9900012    2    1    2    0    0 -0.14584254751E+02 -0.24508335293E+02  0.34867670527E+02  0.46142318371E+02  0.10000005560E+02 0.  0.
         12    1    1    2    0    0  0.14584254751E+02  0.24508335293E+02 -0.34867670527E+02  0.45045681629E+02  0.00000000000E+00 0. -1.
         11    1    3    3    0    0 -0.14086104543E+02 -0.22063065519E+02  0.34362943935E+02  0.43197327666E+02  0.51100000000E-03 0.  1.
        -11    1    3    3    0    0 -0.33534818072E+00 -0.56589559923E+00 -0.48257903526E+00  0.81583026295E+00  0.51100000000E-03 0. -1.
        -12    1    3    3    0    0 -0.16280202747E+00 -0.18793741747E+01  0.98730562687E+00  0.21291604424E+01  0.00000000000E+00 0.  1.
</event>
<event>
 7    1  0.2425980E-008  0.4614232E+02  0.7816164E-02  0.1320468E+00
        -11   -1    0    0    0    0  0.00000000000E+00  0.00000000000E+00  0.45593999997E+02  0.45594000000E+02  0.51100000000E-03 0. -1.
         11   -1    0    0    0    0 -0.00000000000E+00 -0.00000000000E+00 -0.45593999997E+02  0.45594000000E+02  0.51100000000E-03 0.  1.
    9900012    2    1    2    0    0  0.10952926515E+02  0.33547544102E+02 -0.27994805736E+02  0.46142318046E+02  0.10000002595E+02 0.  0.
         12    1    1    2    0    0 -0.10952926515E+02 -0.33547544102E+02  0.27994805736E+02  0.45045681954E+02  0.00000000000E+00 0. -1.
         11    1    3    3    0    0  0.57696574954E+00  0.11617478725E+01 -0.36343104062E+00  0.13470820234E+01  0.51100000000E-03 0. -1.
        -11    1    3    3    0    0  0.88538580949E+01  0.23890403100E+02 -0.25184086003E+02  0.35824298339E+02  0.51100000000E-03 0.  1.
        -12    1    3    3    0    0  0.15221026706E+01  0.84953931301E+01 -0.24472886928E+01  0.89709376834E+01  0.00000000000E+00 0.  1.
</event>
<event>
 7    1  0.2425980E-008  0.4614232E+02  0.7816164E-02  0.1320468E+00
        -11   -1    0    0    0    0  0.00000000000E+00  0.00000000000E+00  0.45593999997E+02  0.45594000000E+02  0.51100000000E-03 0. -1.
         11   -1    0    0    0    0 -0.00000000000E+00 -0.00000000000E+00 -0.45593999997E+02  0.45594000000E+02  0.51100000000E-03 0.  1.
    9900012    2    1    2    0    0  0.24770407878E+02  0.33759906999E+02  0.16607499588E+02  0.46142317970E+02  0.10000001904E+02 0.  0.
         12    1    1    2    0    0 -0.24770407878E+02 -0.33759906999E+02 -0.16607499588E+02  0.45045682030E+02  0.00000000000E+00 0. -1.
         11    1    3    3    0    0  0.11521682667E+02  0.11410431503E+02  0.78742950524E+01  0.18026415101E+02  0.51100000000E-03 0. -1.
        -11    1    3    3    0    0  0.56127355206E+01  0.41249457057E+01  0.23086355015E+01  0.73381043355E+01  0.51100000000E-03 0.  1.
         12    1    3    3    0    0  0.76359896903E+01  0.18224529790E+02  0.64245690339E+01  0.20777798534E+02  0.00000000000E+00 0. -1.
</event>
<event>
 7    1  0.2425980E-008  0.4614232E+02  0.7816164E-02  0.1320468E+00
        -11   -1    0    0    0    0  0.00000000000E+00  0.00000000000E+00  0.45593999997E+02  0.45594000000E+02  0.51100000000E-03 0.  1.
         11   -1    0    0    0    0 -0.00000000000E+00 -0.00000000000E+00 -0.45593999997E+02  0.45594000000E+02  0.51100000000E-03 0. -1.
    9900012    2    1    2    0    0 -0.24039703040E+02  0.24974320560E+02  0.28766115750E+02  0.46142318464E+02  0.10000006411E+02 0.  0.
         12    1    1    2    0    0  0.24039703040E+02 -0.24974320560E+02 -0.28766115750E+02  0.45045681536E+02  0.00000000000E+00 0. -1.
         11    1    3    3    0    0 -0.70337383877E+01  0.96630062637E+01  0.14169733484E+02  0.18537219668E+02  0.51100000000E-03 0.  1.
        -11    1    3    3    0    0 -0.50161052120E+01  0.17240119549E+01  0.35536330850E+01  0.63844997519E+01  0.51100000000E-03 0. -1.
        -12    1    3    3    0    0 -0.11989859440E+02  0.13587302341E+02  0.11042749181E+02  0.21220599044E+02  0.00000000000E+00 0.  1.
</event>
<event>
 7    1  0.2425980E-008  0.4614232E+02  0.7816164E-02  0.1320468E+00
        -11   -1    0    0    0    0  0.00000000000E+00  0.00000000000E+00  0.45593999997E+02  0.45594000000E+02  0.51100000000E-03 0. -1.
         11   -1    0    0    0    0 -0.00000000000E+00 -0.00000000000E+00 -0.45593999997E+02  0.45594000000E+02  0.51100000000E-03 0.  1.
    9900012    2    1    2    0    0 -0.12716546729E+02 -0.39051464113E+02 -0.18503675432E+02  0.46142318580E+02  0.10000007469E+02 0.  0.
         12    1    1    2    0    0  0.12716546729E+02  0.39051464113E+02  0.18503675432E+02  0.45045681420E+02  0.00000000000E+00 0. -1.
         11    1    3    3    0    0 -0.68986323807E+00 -0.10729344151E+02 -0.33141490309E+01  0.11250703145E+02  0.51100000000E-03 0. -1.
        -11    1    3    3    0    0 -0.96295594033E+01 -0.16983962447E+02 -0.11819015931E+02  0.22822632025E+02  0.51100000000E-03 0.  1.
        -12    1    3    3    0    0 -0.23971240881E+01 -0.11338157515E+02 -0.33705104700E+01  0.12068983410E+02  0.00000000000E+00 0.  1.
</event>
<event>
 7    1  0.2425980E-008  0.4614232E+02  0.7816164E-02  0.1320468E+00
        -11   -1    0    0    0    0  0.00000000000E+00  0.00000000000E+00  0.45593999997E+02  0.45594000000E+02  0.51100000000E-03 0.  1.
         11   -1    0    0    0    0 -0.00000000000E+00 -0.00000000000E+00 -0.45593999997E+02  0.45594000000E+02  0.51100000000E-03 0. -1.
    9900012    2    1    2    0    0 -0.11514119586E+02 -0.38859926820E+02  0.19658196526E+02  0.46142317045E+02  0.99999934665E+01 0.  0.
         12    1    1    2    0    0  0.11514119586E+02  0.38859926820E+02 -0.19658196526E+02  0.45045682955E+02  0.00000000000E+00 0. -1.
         11    1    3    3    0    0 -0.56400365256E+00 -0.51201294810E+01 -0.42007691510E+00  0.51681999669E+01  0.51100000000E-03 0. -1.
        -11    1    3    3    0    0  0.11039248119E+00 -0.25253583553E+01  0.21383376910E+01  0.33109076798E+01  0.51100000000E-03 0.  1.
         12    1    3    3    0    0 -0.11060508415E+02 -0.31214438983E+02  0.17939935750E+02  0.37663209398E+02  0.00000000000E+00 0. -1.
</event>
<event>
 7    1  0.2425980E-008  0.4614232E+02  0.7816164E-02  0.1320468E+00
        -11   -1    0    0    0    0  0.00000000000E+00  0.00000000000E+00  0.45593999997E+02  0.45594000000E+02  0.51100000000E-03 0.  1.
         11   -1    0    0    0    0 -0.00000000000E+00 -0.00000000000E+00 -0.45593999997E+02  0.45594000000E+02  0.51100000000E-03 0. -1.
    9900012    2    1    2    0    0  0.96455672773E+01  0.70115905360E+01  0.43438624545E+02  0.46142317939E+02  0.10000001625E+02 0.  0.
         12    1    1    2    0    0 -0.96455672773E+01 -0.70115905360E+01 -0.43438624545E+02  0.45045682061E+02  0.00000000000E+00 0. -1.
         11    1    3    3    0    0  0.18135743214E+01  0.33354431275E+01  0.44578384689E+01  0.58554723765E+01  0.51100000000E-03 0. -1.
        -11    1    3    3    0    0  0.48227556454E+01  0.30277488320E+00  0.12110802684E+02  0.13039255598E+02  0.51100000000E-03 0.  1.
        -12    1    3    3    0    0  0.30092373105E+01  0.33733725253E+01  0.26869983392E+02  0.27247589965E+02  0.00000000000E+00 0.  1.
</event>
<event>
 7    1  0.2425980E-008  0.4614232E+02  0.7816164E-02  0.1320468E+00
        -11   -1    0    0    0    0  0.00000000000E+00  0.00000000000E+00  0.45593999997E+02  0.45594000000E+02  0.51100000000E-03 0.  1.
         11   -1    0    0    0    0 -0.00000000000E+00 -0.00000000000E+00 -0.45593999997E+02  0.45594000000E+02  0.51100000000E-03 0. -1.
    9900012    2    1    2    0    0 -0.25825548347E+02  0.25138812522E+02  0.27022113807E+02  0.46142317887E+02  0.10000001144E+02 0.  0.
         12    1    1    2    0    0  0.25825548347E+02 -0.25138812522E+02 -0.27022113807E+02  0.45045682113E+02  0.00000000000E+00 0. -1.
         11    1    3    3    0    0 -0.55496945790E+01  0.16955675961E+01  0.47118163355E+01  0.74749764437E+01  0.51100000000E-03 0. -1.
        -11    1    3    3    0    0 -0.44261338983E+01  0.33207290158E+01  0.66232343558E+01  0.86304771638E+01  0.51100000000E-03 0.  1.
         12    1    3    3    0    0 -0.15849719870E+02  0.20122515911E+02  0.15687063115E+02  0.30036864279E+02  0.00000000000E+00 0. -1.
</event>
<event>
 7    1  0.2425980E-008  0.4614232E+02  0.7816164E-02  0.1320468E+00
        -11   -1    0    0    0    0  0.00000000000E+00  0.00000000000E+00  0.45593999997E+02  0.45594000000E+02  0.51100000000E-03 0.  1.
         11   -1    0    0    0    0 -0.00000000000E+00 -0.00000000000E+00 -0.45593999997E+02  0.45594000000E+02  0.51100000000E-03 0. -1.
    9900012    2    1    2    0    0 -0.18568916378E+02 -0.16383631023E+02  0.37628253399E+02  0.46142317912E+02  0.10000001375E+02 0.  0.
         12    1    1    2    0    0  0.18568916378E+02  0.16383631023E+02 -0.37628253399E+02  0.45045682088E+02  0.00000000000E+00 0. -1.
         11    1    3    3    0    0  0.83871084385E+00  0.22648125158E+00  0.43504185254E+00  0.97159215285E+00  0.51100000000E-03 0. -1.
        -11    1    3    3    0    0 -0.10727513918E+02 -0.77852766037E+01  0.19283974311E+02  0.23400037439E+02  0.51100000000E-03 0.  1.
         12    1    3    3    0    0 -0.86801133034E+01 -0.88248356709E+01  0.17909237235E+02  0.21770688320E+02  0.00000000000E+00 0. -1.
</event>
<event>
 7    1  0.2425980E-008  0.4614232E+02  0.7816164E-02  0.1320468E+00
        -11   -1    0    0    0    0  0.00000000000E+00  0.00000000000E+00  0.45593999997E+02  0.45594000000E+02  0.51100000000E-03 0.  1.
         11   -1    0    0    0    0 -0.00000000000E+00 -0.00000000000E+00 -0.45593999997E+02  0.45594000000E+02  0.51100000000E-03 0. -1.
    9900012    2    1    2    0    0  0.34903378326E+01  0.33866802324E+02  0.29495265355E+02  0.46142318340E+02  0.10000005282E+02 0.  0.
         12    1    1    2    0    0 -0.34903378326E+01 -0.33866802324E+02 -0.29495265355E+02  0.45045681660E+02  0.00000000000E+00 0. -1.
         11    1    3    3    0    0 -0.80176957053E+00  0.87262156557E+01  0.41059014864E+01  0.96771949134E+01  0.51100000000E-03 0. -1.
        -11    1    3    3    0    0  0.25185594981E+01  0.36336919559E+01  0.60082090270E+01  0.74595867948E+01  0.51100000000E-03 0.  1.
        -12    1    3    3    0    0  0.17735479050E+01  0.21506894712E+02  0.19381154842E+02  0.29005536632E+02  0.00000000000E+00 0.  1.
</event>
<event>
 7    1  0.2425980E-008  0.4614232E+02  0.7816164E-02  0.1320468E+00
        -11   -1    0    0    0    0  0.00000000000E+00  0.00000000000E+00  0.45593999997E+02  0.45594000000E+02  0.51100000000E-03 0.  1.
         11   -1    0    0    0    0 -0.00000000000E+00 -0.00000000000E+00 -0.45593999997E+02  0.45594000000E+02  0.51100000000E-03 0. -1.
    9900012    2    1    2    0    0  0.38547013893E+02 -0.20223252894E+02  0.11587114274E+02  0.46142318133E+02  0.10000003389E+02 0.  0.
         12    1    1    2    0    0 -0.38547013893E+02  0.20223252894E+02 -0.11587114274E+02  0.45045681867E+02  0.00000000000E+00 0. -1.
         11    1    3    3    0    0  0.91878454694E-01 -0.18520156574E+01 -0.18400964316E-01  0.18543846695E+01  0.51100000000E-03 0. -1.
        -11    1    3    3    0    0  0.64689936989E+01 -0.30920209782E+01  0.32293286229E+01  0.78636528930E+01  0.51100000000E-03 0.  1.
        -12    1    3    3    0    0  0.31986141740E+02 -0.15279216258E+02  0.83761866153E+01  0.36424280570E+02  0.00000000000E+00 0.  1.
</event>
<event>
 7    1  0.2425980E-008  0.4614232E+02  0.7816164E-02  0.1320468E+00
        -11   -1    0    0    0    0  0.00000000000E+00  0.00000000000E+00  0.45593999997E+02  0.45594000000E+02  0.51100000000E-03 0.  1.
         11   -1    0    0    0    0 -0.00000000000E+00 -0.00000000000E+00 -0.45593999997E+02  0.45594000000E+02  0.51100000000E-03 0. -1.
    9900012    2    1    2    0    0 -0.43361014645E+02 -0.11067855210E+02 -0.51418363311E+01  0.46142317734E+02  0.99999997486E+01 0.  0.
         12    1    1    2    0    0  0.43361014645E+02  0.11067855210E+02  0.51418363311E+01  0.45045682266E+02  0.00000000000E+00 0. -1.
         11    1    3    3    0    0 -0.24246111927E+00 -0.27743804879E+00  0.91765307995E+00  0.98886131562E+00  0.51100000000E-03 0. -1.
        -11    1    3    3    0    0 -0.13668767207E+02 -0.15467488739E+01 -0.33108726449E+00  0.13759987212E+02  0.51100000000E-03 0.  1.
        -12    1    3    3    0    0 -0.29449786319E+02 -0.92436682875E+01 -0.57284021465E+01  0.31393469206E+02  0.00000000000E+00 0.  1.
</event>
<event>
 7    1  0.2425980E-008  0.4614232E+02  0.7816164E-02  0.1320468E+00
        -11   -1    0    0    0    0  0.00000000000E+00  0.00000000000E+00  0.45593999997E+02  0.45594000000E+02  0.51100000000E-03 0.  1.
         11   -1    0    0    0    0 -0.00000000000E+00 -0.00000000000E+00 -0.45593999997E+02  0.45594000000E+02  0.51100000000E-03 0. -1.
    9900012    2    1    2    0    0 -0.38325405476E+02  0.96422492280E+01  0.21617209838E+02  0.46142318339E+02  0.10000005272E+02 0.  0.
         12    1    1    2    0    0  0.38325405476E+02 -0.96422492280E+01 -0.21617209838E+02  0.45045681661E+02  0.00000000000E+00 0. -1.
         11    1    3    3    0    0 -0.25732008064E+02  0.26833960075E+01  0.12284916148E+02  0.28640112049E+02  0.51100000000E-03 0. -1.
        -11    1    3    3    0    0 -0.66613487220E+01  0.33930802486E+01  0.68787423135E+01  0.10158920043E+02  0.51100000000E-03 0.  1.
        -12    1    3    3    0    0 -0.59320486902E+01  0.35657729719E+01  0.24535513768E+01  0.73432862472E+01  0.00000000000E+00 0.  1.
</event>
<event>
 7    1  0.2425980E-008  0.4614230E+02  0.7816164E-02  0.1320468E+00
        -11   -1    0    0    0    0  0.00000000000E+00  0.00000000000E+00  0.45593999997E+02  0.45594000000E+02  0.51100000000E-03 0.  1.
         11   -1    0    0    0    0 -0.00000000000E+00 -0.00000000000E+00 -0.45593999997E+02  0.45594000000E+02  0.51100000000E-03 0. -1.
    9900012    2    1    2    0    0 -0.17286200092E+02  0.13725740805E+02  0.39267111161E+02  0.46142304387E+02  0.99998780477E+01 0.  0.
         12    1    1    2    0    0  0.17286200092E+02 -0.13725740805E+02 -0.39267111161E+02  0.45045695613E+02  0.00000000000E+00 0. -1.
         11    1    3    3    0    0 -0.17254898995E+02  0.98410407924E+01  0.29094214521E+02  0.35228552938E+02  0.51100000000E-03 0.  1.
        -11    1    3    3    0    0 -0.27401135461E+00  0.13716292599E+01  0.30156133065E+01  0.33242101203E+01  0.51100000000E-03 0. -1.
        -12    1    3    3    0    0  0.24271025744E+00  0.25130707532E+01  0.71572833331E+01  0.75895413293E+01  0.00000000000E+00 0.  1.
</event>
<event>
 7    1  0.2425980E-008  0.4614232E+02  0.7816164E-02  0.1320468E+00
        -11   -1    0    0    0    0  0.00000000000E+00  0.00000000000E+00  0.45593999997E+02  0.45594000000E+02  0.51100000000E-03 0. -1.
         11   -1    0    0    0    0 -0.00000000000E+00 -0.00000000000E+00 -0.45593999997E+02  0.45594000000E+02  0.51100000000E-03 0.  1.
    9900012    2    1    2    0    0  0.28132767162E+02  0.97990519300E+01 -0.33788155154E+02  0.46142318347E+02  0.10000005341E+02 0.  0.
         12    1    1    2    0    0 -0.28132767162E+02 -0.97990519300E+01  0.33788155154E+02  0.45045681653E+02  0.00000000000E+00 0. -1.
         11    1    3    3    0    0  0.15857847387E+02  0.86972044039E+01 -0.17854891120E+02  0.25414756055E+02  0.51100000000E-03 0. -1.
        -11    1    3    3    0    0  0.88279948378E+01 -0.12116945039E+01 -0.91296679021E+01  0.12757450086E+02  0.51100000000E-03 0.  1.
        -12    1    3    3    0    0  0.34469249370E+01  0.23135420301E+01 -0.68035961321E+01  0.79701122060E+01  0.00000000000E+00 0.  1.
</event>
<event>
 7    1  0.2425980E-008  0.4614232E+02  0.7816164E-02  0.1320468E+00
        -11   -1    0    0    0    0  0.00000000000E+00  0.00000000000E+00  0.45593999997E+02  0.45594000000E+02  0.51100000000E-03 0.  1.
         11   -1    0    0    0    0 -0.00000000000E+00 -0.00000000000E+00 -0.45593999997E+02  0.45594000000E+02  0.51100000000E-03 0. -1.
    9900012    2    1    2    0    0 -0.11508275982E+02  0.18725625038E+02  0.39319512029E+02  0.46142317905E+02  0.10000001315E+02 0.  0.
         12    1    1    2    0    0  0.11508275982E+02 -0.18725625038E+02 -0.39319512029E+02  0.45045682095E+02  0.00000000000E+00 0. -1.
         11    1    3    3    0    0 -0.16272130081E+00  0.45750336920E+01  0.29183470646E+01  0.54290110844E+01  0.51100000000E-03 0. -1.
        -11    1    3    3    0    0 -0.39591902522E+01  0.63672435571E+01  0.15541922163E+02  0.17255964845E+02  0.51100000000E-03 0.  1.
        -12    1    3    3    0    0 -0.73863644292E+01  0.77833477888E+01  0.20859242802E+02  0.23457341976E+02  0.00000000000E+00 0.  1.
</event>
<event>
 7    1  0.2425980E-008  0.4614232E+02  0.7816164E-02  0.1320468E+00
        -11   -1    0    0    0    0  0.00000000000E+00  0.00000000000E+00  0.45593999997E+02  0.45594000000E+02  0.51100000000E-03 0. -1.
         11   -1    0    0    0    0 -0.00000000000E+00 -0.00000000000E+00 -0.45593999997E+02  0.45594000000E+02  0.51100000000E-03 0.  1.
    9900012    2    1    2    0    0  0.40030257574E+02  0.63495802598E+00 -0.20646760789E+02  0.46142318473E+02  0.10000006490E+02 0.  0.
         12    1    1    2    0    0 -0.40030257574E+02 -0.63495802598E+00  0.20646760789E+02  0.45045681527E+02  0.00000000000E+00 0. -1.
         11    1    3    3    0    0  0.18251985700E+01  0.41363442698E+00 -0.12090484795E+01  0.22280578417E+01  0.51100000000E-03 0. -1.
        -11    1    3    3    0    0  0.18578524851E+02  0.22912280530E+01 -0.14199696699E+02  0.23495588910E+02  0.51100000000E-03 0.  1.
         12    1    3    3    0    0  0.19626534153E+02 -0.20699044540E+01 -0.52380156113E+01  0.20418671721E+02  0.00000000000E+00 0. -1.
</event>
<event>
 7    1  0.2425980E-008  0.4614232E+02  0.7816164E-02  0.1320468E+00
        -11   -1    0    0    0    0  0.00000000000E+00  0.00000000000E+00  0.45593999997E+02  0.45594000000E+02  0.51100000000E-03 0. -1.
         11   -1    0    0    0    0 -0.00000000000E+00 -0.00000000000E+00 -0.45593999997E+02  0.45594000000E+02  0.51100000000E-03 0.  1.
    9900012    2    1    2    0    0 -0.48744649713E+01 -0.43989852001E+02 -0.83812889799E+01  0.46142317712E+02  0.99999995550E+01 0.  0.
         12    1    1    2    0    0  0.48744649713E+01  0.43989852001E+02  0.83812889799E+01  0.45045682288E+02  0.00000000000E+00 0. -1.
         11    1    3    3    0    0 -0.15797513503E+01 -0.18485327613E+02 -0.99953294828E+00  0.18579612958E+02  0.51100000000E-03 0. -1.
        -11    1    3    3    0    0 -0.56621298615E+00 -0.19808896339E+02 -0.34268009699E+01  0.20111089887E+02  0.51100000000E-03 0.  1.
         12    1    3    3    0    0 -0.27285006349E+01 -0.56956280483E+01 -0.39549550617E+01  0.74516148666E+01  0.00000000000E+00 0. -1.
</event>
<event>
 7    1  0.2425980E-008  0.4614232E+02  0.7816164E-02  0.1320468E+00
        -11   -1    0    0    0    0  0.00000000000E+00  0.00000000000E+00  0.45593999997E+02  0.45594000000E+02  0.51100000000E-03 0.  1.
         11   -1    0    0    0    0 -0.00000000000E+00 -0.00000000000E+00 -0.45593999997E+02  0.45594000000E+02  0.51100000000E-03 0. -1.
    9900012    2    1    2    0    0  0.17258601224E+02  0.34711114942E+02  0.22943249396E+02  0.46142317526E+02  0.99999978529E+01 0.  0.
         12    1    1    2    0    0 -0.17258601224E+02 -0.34711114942E+02 -0.22943249396E+02  0.45045682474E+02  0.00000000000E+00 0. -1.
         11    1    3    3    0    0  0.41867720982E+01  0.84026773293E+01  0.32853044962E+01  0.99462190201E+01  0.51100000000E-03 0. -1.
        -11    1    3    3    0    0  0.13360858651E+02  0.20566775021E+02  0.14623370856E+02  0.28554294845E+02  0.51100000000E-03 0.  1.
         12    1    3    3    0    0 -0.28902952460E+00  0.57416625922E+01  0.50345740436E+01  0.76418036607E+01  0.00000000000E+00 0. -1.
</event>
<event>
 7    1  0.2425980E-008  0.4614232E+02  0.7816164E-02  0.1320468E+00
        -11   -1    0    0    0    0  0.00000000000E+00  0.00000000000E+00  0.45593999997E+02  0.45594000000E+02  0.51100000000E-03 0.  1.
         11   -1    0    0    0    0 -0.00000000000E+00 -0.00000000000E+00 -0.45593999997E+02  0.45594000000E+02  0.51100000000E-03 0. -1.
    9900012    2    1    2    0    0 -0.15059905994E+02 -0.42390153435E+02  0.23211050850E+01  0.46142318680E+02  0.10000008379E+02 0.  0.
         12    1    1    2    0    0  0.15059905994E+02  0.42390153435E+02 -0.23211050850E+01  0.45045681320E+02  0.00000000000E+00 0. -1.
         11    1    3    3    0    0 -0.84087358808E+01 -0.33145336644E+02 -0.22292278381E+00  0.34196050579E+02  0.51100000000E-03 0.  1.
        -11    1    3    3    0    0 -0.37973490806E+01 -0.53955898267E+01  0.17340308349E+00  0.66001756423E+01  0.51100000000E-03 0. -1.
         12    1    3    3    0    0 -0.28538210329E+01 -0.38492269641E+01  0.23706247853E+01  0.53460924591E+01  0.00000000000E+00 0. -1.
</event>
<event>
 7    1  0.2425980E-008  0.4614232E+02  0.7816164E-02  0.1320468E+00
        -11   -1    0    0    0    0  0.00000000000E+00  0.00000000000E+00  0.45593999997E+02  0.45594000000E+02  0.51100000000E-03 0.  1.
         11   -1    0    0    0    0 -0.00000000000E+00 -0.00000000000E+00 -0.45593999997E+02  0.45594000000E+02  0.51100000000E-03 0. -1.
    9900012    2    1    2    0    0 -0.89059206625E+01 -0.27032480653E+02  0.34914796651E+02  0.46142318095E+02  0.10000003044E+02 0.  0.
         12    1    1    2    0    0  0.89059206625E+01  0.27032480653E+02 -0.34914796651E+02  0.45045681905E+02  0.00000000000E+00 0. -1.
         11    1    3    3    0    0  0.93320874218E+00 -0.85490418822E-01  0.84078506017E+00  0.12590103045E+01  0.51100000000E-03 0. -1.
        -11    1    3    3    0    0 -0.72146080045E+01 -0.14315301597E+02  0.15750068969E+02  0.22473164024E+02  0.51100000000E-03 0.  1.
        -12    1    3    3    0    0 -0.26245214002E+01 -0.12631688637E+02  0.18323942622E+02  0.22410143766E+02  0.00000000000E+00 0.  1.
</event>
<event>
 7    1  0.2425980E-008  0.4614232E+02  0.7816164E-02  0.1320468E+00
        -11   -1    0    0    0    0  0.00000000000E+00  0.00000000000E+00  0.45593999997E+02  0.45594000000E+02  0.51100000000E-03 0.  1.
         11   -1    0    0    0    0 -0.00000000000E+00 -0.00000000000E+00 -0.45593999997E+02  0.45594000000E+02  0.51100000000E-03 0. -1.
    9900012    2    1    2    0    0 -0.35572691300E+02  0.13091328386E+02  0.24337500156E+02  0.46142321416E+02  0.10000033327E+02 0.  0.
         12    1    1    2    0    0  0.35572691300E+02 -0.13091328386E+02 -0.24337500156E+02  0.45045678584E+02  0.00000000000E+00 0. -1.
         11    1    3    3    0    0 -0.91687717849E+01  0.10573831929E+01  0.64402571564E+01  0.11254392376E+02  0.51100000000E-03 0.  1.
        -11    1    3    3    0    0 -0.22385014657E+02  0.97154072138E+01  0.11476979993E+02  0.26966629166E+02  0.51100000000E-03 0. -1.
         12    1    3    3    0    0 -0.40189048580E+01  0.23185379797E+01  0.64202630059E+01  0.79212998736E+01  0.00000000000E+00 0. -1.
</event>
<event>
 7    1  0.2425980E-008  0.4614232E+02  0.7816164E-02  0.1320468E+00
        -11   -1    0    0    0    0  0.00000000000E+00  0.00000000000E+00  0.45593999997E+02  0.45594000000E+02  0.51100000000E-03 0. -1.
         11   -1    0    0    0    0 -0.00000000000E+00 -0.00000000000E+00 -0.45593999997E+02  0.45594000000E+02  0.51100000000E-03 0.  1.
    9900012    2    1    2    0    0  0.26222124028E+02  0.33071868447E+02  0.15740554964E+02  0.46142319389E+02  0.10000014847E+02 0.  0.
         12    1    1    2    0    0 -0.26222124028E+02 -0.33071868447E+02 -0.15740554964E+02  0.45045680611E+02  0.00000000000E+00 0. -1.
         11    1    3    3    0    0  0.47509660217E+01  0.59081414225E+01  0.36510741454E+01  0.84147582190E+01  0.51100000000E-03 0. -1.
        -11    1    3    3    0    0  0.20144766993E+02  0.26035305587E+02  0.89114940630E+01  0.34103716819E+02  0.51100000000E-03 0.  1.
         12    1    3    3    0    0  0.13263910140E+01  0.11284214371E+01  0.31779867555E+01  0.36238443509E+01  0.00000000000E+00 0. -1.
</event>
<event>
 7    1  0.2425980E-008  0.4614232E+02  0.7816164E-02  0.1320468E+00
        -11   -1    0    0    0    0  0.00000000000E+00  0.00000000000E+00  0.45593999997E+02  0.45594000000E+02  0.51100000000E-03 0.  1.
         11   -1    0    0    0    0 -0.00000000000E+00 -0.00000000000E+00 -0.45593999997E+02  0.45594000000E+02  0.51100000000E-03 0. -1.
    9900012    2    1    2    0    0 -0.13128924307E+02  0.19639597960E+02  0.38354022515E+02  0.46142317581E+02  0.99999983610E+01 0.  0.
         12    1    1    2    0    0  0.13128924307E+02 -0.19639597960E+02 -0.38354022515E+02  0.45045682419E+02  0.00000000000E+00 0. -1.
         11    1    3    3    0    0 -0.46835857577E+01  0.97203092133E+01  0.20512227835E+02  0.23176968693E+02  0.51100000000E-03 0.  1.
        -11    1    3    3    0    0 -0.24044299018E+01 -0.34164437500E+00  0.42555269154E+01  0.48997462812E+01  0.51100000000E-03 0. -1.
         12    1    3    3    0    0 -0.60409086471E+01  0.10260933121E+02  0.13586267764E+02  0.18065602607E+02  0.00000000000E+00 0. -1.
</event>
<event>
 7    1  0.2425980E-008  0.4614232E+02  0.7816164E-02  0.1320468E+00
        -11   -1    0    0    0    0  0.00000000000E+00  0.00000000000E+00  0.45593999997E+02  0.45594000000E+02  0.51100000000E-03 0.  1.
         11   -1    0    0    0    0 -0.00000000000E+00 -0.00000000000E+00 -0.45593999997E+02  0.45594000000E+02  0.51100000000E-03 0. -1.
    9900012    2    1    2    0    0  0.10105088865E+02  0.22848417418E+02  0.37482669389E+02  0.46142317588E+02  0.99999984176E+01 0.  0.
         12    1    1    2    0    0 -0.10105088865E+02 -0.22848417418E+02 -0.37482669389E+02  0.45045682412E+02  0.00000000000E+00 0. -1.
         11    1    3    3    0    0  0.62803708610E+01  0.13459921464E+02  0.13638820453E+02  0.20165068003E+02  0.51100000000E-03 0. -1.
        -11    1    3    3    0    0  0.12632536833E+01  0.44962616040E+01  0.90030820762E+01  0.10142369812E+02  0.51100000000E-03 0.  1.
         12    1    3    3    0    0  0.25614643205E+01  0.48922343502E+01  0.14840766860E+02  0.15834879772E+02  0.00000000000E+00 0. -1.
</event>
<event>
 7    1  0.2425980E-008  0.4614232E+02  0.7816164E-02  0.1320468E+00
        -11   -1    0    0    0    0  0.00000000000E+00  0.00000000000E+00  0.45593999997E+02  0.45594000000E+02  0.51100000000E-03 0.  1.
         11   -1    0    0    0    0 -0.00000000000E+00 -0.00000000000E+00 -0.45593999997E+02  0.45594000000E+02  0.51100000000E-03 0. -1.
    9900012    2    1    2    0    0 -0.11834635411E+02  0.39727645616E+01  0.43281313292E+02  0.46142317256E+02  0.99999953982E+01 0.  0.
         12    1    1    2    0    0  0.11834635411E+02 -0.39727645616E+01 -0.43281313292E+02  0.45045682744E+02  0.00000000000E+00 0. -1.
         11    1    3    3    0    0 -0.58847744705E+01  0.30887579941E+01  0.31592763813E+02  0.32284264312E+02  0.51100000000E-03 0. -1.
        -11    1    3    3    0    0 -0.16905939445E+01 -0.13130441677E+01  0.62640766214E+01  0.66197317960E+01  0.51100000000E-03 0.  1.
         12    1    3    3    0    0 -0.42592669961E+01  0.21970507352E+01  0.54244728570E+01  0.72383211489E+01  0.00000000000E+00 0. -1.
</event>
<event>
 7    1  0.2425980E-008  0.4614232E+02  0.7816164E-02  0.1320468E+00
        -11   -1    0    0    0    0  0.00000000000E+00  0.00000000000E+00  0.45593999997E+02  0.45594000000E+02  0.51100000000E-03 0. -1.
         11   -1    0    0    0    0 -0.00000000000E+00 -0.00000000000E+00 -0.45593999997E+02  0.45594000000E+02  0.51100000000E-03 0.  1.
    9900012    2    1    2    0    0  0.25946607065E+02  0.26074736105E+02 -0.25999909306E+02  0.46142316910E+02  0.99999922380E+01 0.  0.
         12    1    1    2    0    0 -0.25946607065E+02 -0.26074736105E+02  0.25999909306E+02  0.45045683090E+02  0.00000000000E+00 0. -1.
         11    1    3    3    0    0  0.21770104820E+01  0.15224219923E+01 -0.97296176382E+00  0.28290984812E+01  0.51100000000E-03 0. -1.
        -11    1    3    3    0    0  0.18035221640E+02  0.18637487323E+02 -0.13770354663E+02  0.29364056620E+02  0.51100000000E-03 0.  1.
        -12    1    3    3    0    0  0.57343749428E+01  0.59148267887E+01 -0.11256592879E+02  0.13949161809E+02  0.00000000000E+00 0.  1.
</event>
<event>
 7    1  0.2425980E-008  0.4614232E+02  0.7816164E-02  0.1320468E+00
        -11   -1    0    0    0    0  0.00000000000E+00  0.00000000000E+00  0.45593999997E+02  0.45594000000E+02  0.51100000000E-03 0.  1.
         11   -1    0    0    0    0 -0.00000000000E+00 -0.00000000000E+00 -0.45593999997E+02  0.45594000000E+02  0.51100000000E-03 0. -1.
    9900012    2    1    2    0    0  0.79411391082E+01  0.11441486662E+02  0.42838583706E+02  0.46142316951E+02  0.99999926170E+01 0.  0.
         12    1    1    2    0    0 -0.79411391082E+01 -0.11441486662E+02 -0.42838583706E+02  0.45045683049E+02  0.00000000000E+00 0. -1.
         11    1    3    3    0    0  0.16256250013E+01  0.11596461839E+01  0.97412471119E+00  0.22217909737E+01  0.51100000000E-03 0. -1.
        -11    1    3    3    0    0  0.20143406595E+00  0.55059754307E+01  0.16439140646E+02  0.17337868571E+02  0.51100000000E-03 0.  1.
         12    1    3    3    0    0  0.61140800410E+01  0.47758650476E+01  0.25425318348E+02  0.26582657407E+02  0.00000000000E+00 0. -1.
</event>
<event>
 7    1  0.2425980E-008  0.4614232E+02  0.7816164E-02  0.1320468E+00
        -11   -1    0    0    0    0  0.00000000000E+00  0.00000000000E+00  0.45593999997E+02  0.45594000000E+02  0.51100000000E-03 0.  1.
         11   -1    0    0    0    0 -0.00000000000E+00 -0.00000000000E+00 -0.45593999997E+02  0.45594000000E+02  0.51100000000E-03 0. -1.
    9900012    2    1    2    0    0 -0.37357963377E+02  0.13050963949E+02  0.21521349016E+02  0.46142317064E+02  0.99999936459E+01 0.  0.
         12    1    1    2    0    0  0.37357963377E+02 -0.13050963949E+02 -0.21521349016E+02  0.45045682936E+02  0.00000000000E+00 0. -1.
         11    1    3    3    0    0 -0.42058955905E+01 -0.57775652248E+00  0.26604797762E+01  0.50101410378E+01  0.51100000000E-03 0. -1.
        -11    1    3    3    0    0 -0.27122539505E+02  0.81628247326E+01  0.15831183545E+02  0.32448270054E+02  0.51100000000E-03 0.  1.
         12    1    3    3    0    0 -0.60295282815E+01  0.54658957391E+01  0.30296856950E+01  0.86839059724E+01  0.00000000000E+00 0. -1.
</event>
<event>
 7    1  0.2425980E-008  0.4614232E+02  0.7816164E-02  0.1320468E+00
        -11   -1    0    0    0    0  0.00000000000E+00  0.00000000000E+00  0.45593999997E+02  0.45594000000E+02  0.51100000000E-03 0.  1.
         11   -1    0    0    0    0 -0.00000000000E+00 -0.00000000000E+00 -0.45593999997E+02  0.45594000000E+02  0.51100000000E-03 0. -1.
    9900012    2    1    2    0    0 -0.15315931213E+02  0.87385313790E+01  0.41450861031E+02  0.46142316968E+02  0.99999927672E+01 0.  0.
         12    1    1    2    0    0  0.15315931213E+02 -0.87385313790E+01 -0.41450861031E+02  0.45045683032E+02  0.00000000000E+00 0. -1.
         11    1    3    3    0    0  0.77268854495E+00  0.84921582802E+00  0.47990451443E+01  0.49344756225E+01  0.51100000000E-03 0. -1.
        -11    1    3    3    0    0 -0.65313075284E+01  0.62750800641E+01  0.19656805261E+02  0.21643119026E+02  0.51100000000E-03 0.  1.
         12    1    3    3    0    0 -0.95573122299E+01  0.16142354869E+01  0.16995010626E+02  0.19564722320E+02  0.00000000000E+00 0. -1.
</event>
<event>
 7    1  0.2425980E-008  0.4614232E+02  0.7816164E-02  0.1320468E+00
        -11   -1    0    0    0    0  0.00000000000E+00  0.00000000000E+00  0.45593999997E+02  0.45594000000E+02  0.51100000000E-03 0.  1.
         11   -1    0    0    0    0 -0.00000000000E+00 -0.00000000000E+00 -0.45593999997E+02  0.45594000000E+02  0.51100000000E-03 0. -1.
    9900012    2    1    2    0    0  0.14850602143E+02  0.26319763933E+02  0.33404238702E+02  0.46142317401E+02  0.99999967205E+01 0.  0.
         12    1    1    2    0    0 -0.14850602143E+02 -0.26319763933E+02 -0.33404238702E+02  0.45045682599E+02  0.00000000000E+00 0. -1.
         11    1    3    3    0    0  0.70371712060E+01  0.49222470561E+01  0.12164561622E+02  0.14890495438E+02  0.51100000000E-03 0. -1.
        -11    1    3    3    0    0  0.22822094747E+00  0.31918019281E+01  0.31205713988E+01  0.44696365026E+01  0.51100000000E-03 0.  1.
         12    1    3    3    0    0  0.75852099900E+01  0.18205714949E+02  0.18119105681E+02  0.26782185461E+02  0.00000000000E+00 0. -1.
</event>
<event>
 7    1  0.2425980E-008  0.4614232E+02  0.7816164E-02  0.1320468E+00
        -11   -1    0    0    0    0  0.00000000000E+00  0.00000000000E+00  0.45593999997E+02  0.45594000000E+02  0.51100000000E-03 0.  1.
         11   -1    0    0    0    0 -0.00000000000E+00 -0.00000000000E+00 -0.45593999997E+02  0.45594000000E+02  0.51100000000E-03 0. -1.
    9900012    2    1    2    0    0  0.44490320105E+02 -0.54709171277E+01 -0.44490377418E+01  0.46142318142E+02  0.10000003473E+02 0.  0.
         12    1    1    2    0    0 -0.44490320105E+02  0.54709171277E+01  0.44490377418E+01  0.45045681858E+02  0.00000000000E+00 0. -1.
         11    1    3    3    0    0  0.24498541848E+01 -0.12469545758E+01  0.96238282185E+00  0.29125353556E+01  0.51100000000E-03 0. -1.
        -11    1    3    3    0    0  0.23625771868E+02 -0.42789201407E+01 -0.62014445993E+01  0.24798067854E+02  0.51100000000E-03 0.  1.
        -12    1    3    3    0    0  0.18414694052E+02  0.54957588789E-01  0.79002403568E+00  0.18431714932E+02  0.00000000000E+00 0.  1.
</event>
<event>
 7    1  0.2425980E-008  0.4614232E+02  0.7816164E-02  0.1320468E+00
        -11   -1    0    0    0    0  0.00000000000E+00  0.00000000000E+00  0.45593999997E+02  0.45594000000E+02  0.51100000000E-03 0.  1.
         11   -1    0    0    0    0 -0.00000000000E+00 -0.00000000000E+00 -0.45593999997E+02  0.45594000000E+02  0.51100000000E-03 0. -1.
    9900012    2    1    2    0    0 -0.36030215557E+02  0.36633763412E+01  0.26786504359E+02  0.46142316799E+02  0.99999912230E+01 0.  0.
         12    1    1    2    0    0  0.36030215557E+02 -0.36633763412E+01 -0.26786504359E+02  0.45045683201E+02  0.00000000000E+00 0. -1.
         11    1    3    3    0    0 -0.85451779920E+01 -0.16573343483E+01  0.34094045971E+01  0.93483080835E+01  0.51100000000E-03 0. -1.
        -11    1    3    3    0    0 -0.68031128903E+01  0.30432000336E+01  0.79103308408E+01  0.10868152820E+02  0.51100000000E-03 0.  1.
         12    1    3    3    0    0 -0.20681924675E+02  0.22775106560E+01  0.15466768921E+02  0.25925855895E+02  0.00000000000E+00 0. -1.
</event>
<event>
 7    1  0.2425980E-008  0.4614232E+02  0.7816164E-02  0.1320468E+00
        -11   -1    0    0    0    0  0.00000000000E+00  0.00000000000E+00  0.45593999997E+02  0.45594000000E+02  0.51100000000E-03 0.  1.
         11   -1    0    0    0    0 -0.00000000000E+00 -0.00000000000E+00 -0.45593999997E+02  0.45594000000E+02  0.51100000000E-03 0. -1.
    9900012    2    1    2    0    0  0.23970467944E+02 -0.74006354653E+01  0.37413377289E+02  0.46142317200E+02  0.99999948827E+01 0.  0.
         12    1    1    2    0    0 -0.23970467944E+02  0.74006354653E+01 -0.37413377289E+02  0.45045682800E+02  0.00000000000E+00 0. -1.
         11    1    3    3    0    0  0.54776272360E+01 -0.18511923235E+01  0.55680113569E+01  0.80270831493E+01  0.51100000000E-03 0. -1.
        -11    1    3    3    0    0  0.14158124540E+02 -0.19848525719E+01  0.16814259298E+02  0.22070601401E+02  0.51100000000E-03 0.  1.
         12    1    3    3    0    0  0.43347161676E+01 -0.35645905700E+01  0.15031106635E+02  0.16044632649E+02  0.00000000000E+00 0. -1.
</event>
<event>
 7    1  0.2425980E-008  0.4614232E+02  0.7816164E-02  0.1320468E+00
        -11   -1    0    0    0    0  0.00000000000E+00  0.00000000000E+00  0.45593999997E+02  0.45594000000E+02  0.51100000000E-03 0.  1.
         11   -1    0    0    0    0 -0.00000000000E+00 -0.00000000000E+00 -0.45593999997E+02  0.45594000000E+02  0.51100000000E-03 0. -1.
    9900012    2    1    2    0    0  0.64726321693E+01 -0.13959111779E+02  0.42336292590E+02  0.46142318307E+02  0.10000004982E+02 0.  0.
         12    1    1    2    0    0 -0.64726321693E+01  0.13959111779E+02 -0.42336292590E+02  0.45045681693E+02  0.00000000000E+00 0. -1.
         11    1    3    3    0    0 -0.10921408588E+01 -0.39343463901E+01  0.72457306573E+01  0.83169986289E+01  0.51100000000E-03 0. -1.
        -11    1    3    3    0    0  0.20051155110E+01 -0.41751017995E+01  0.56873249359E+01  0.73346866625E+01  0.51100000000E-03 0.  1.
        -12    1    3    3    0    0  0.55596575170E+01 -0.58496635889E+01  0.29403236997E+02  0.30490633016E+02  0.00000000000E+00 0.  1.
</event>
<event>
 7    1  0.2425980E-008  0.4614232E+02  0.7816164E-02  0.1320468E+00
        -11   -1    0    0    0    0  0.00000000000E+00  0.00000000000E+00  0.45593999997E+02  0.45594000000E+02  0.51100000000E-03 0.  1.
         11   -1    0    0    0    0 -0.00000000000E+00 -0.00000000000E+00 -0.45593999997E+02  0.45594000000E+02  0.51100000000E-03 0. -1.
    9900012    2    1    2    0    0 -0.21360050375E+02  0.39160340040E+02  0.62713086727E+01  0.46142319891E+02  0.10000019419E+02 0.  0.
         12    1    1    2    0    0  0.21360050375E+02 -0.39160340040E+02 -0.62713086727E+01  0.45045680109E+02  0.00000000000E+00 0. -1.
         11    1    3    3    0    0 -0.21053513540E+01  0.53953739100E+01  0.27229822374E+00  0.57979919400E+01  0.51100000000E-03 0. -1.
        -11    1    3    3    0    0 -0.17146816842E+02  0.33670154608E+02  0.57451825401E+01  0.38219102054E+02  0.51100000000E-03 0.  1.
         12    1    3    3    0    0 -0.21078821789E+01  0.94811521867E-01  0.25382790884E+00  0.21252258967E+01  0.00000000000E+00 0. -1.
</event>
<event>
 7    1  0.2425980E-008  0.4614232E+02  0.7816164E-02  0.1320468E+00
        -11   -1    0    0    0    0  0.00000000000E+00  0.00000000000E+00  0.45593999997E+02  0.45594000000E+02  0.51100000000E-03 0. -1.
         11   -1    0    0    0    0 -0.00000000000E+00 -0.00000000000E+00 -0.45593999997E+02  0.45594000000E+02  0.51100000000E-03 0.  1.
    9900012    2    1    2    0    0  0.28886749464E+02 -0.34207720589E+02  0.49498537307E+01  0.46142317693E+02  0.99999993813E+01 0.  0.
         12    1    1    2    0    0 -0.28886749464E+02  0.34207720589E+02 -0.49498537307E+01  0.45045682307E+02  0.00000000000E+00 0. -1.
         11    1    3    3    0    0  0.16208579006E+02 -0.13566598755E+02  0.54187513758E+01  0.21820483540E+02  0.51100000000E-03 0. -1.
        -11    1    3    3    0    0  0.51157276296E+01 -0.71057046383E+01 -0.96809491536E+00  0.88090246687E+01  0.51100000000E-03 0.  1.
         12    1    3    3    0    0  0.75624428290E+01 -0.13535417196E+02  0.49919727029E+00  0.15512809485E+02  0.00000000000E+00 0. -1.
</event>
<event>
 7    1  0.2425980E-008  0.4614232E+02  0.7816164E-02  0.1320468E+00
        -11   -1    0    0    0    0  0.00000000000E+00  0.00000000000E+00  0.45593999997E+02  0.45594000000E+02  0.51100000000E-03 0. -1.
         11   -1    0    0    0    0 -0.00000000000E+00 -0.00000000000E+00 -0.45593999997E+02  0.45594000000E+02  0.51100000000E-03 0.  1.
    9900012    2    1    2    0    0 -0.22274315233E+02 -0.32644645374E+02 -0.21617016787E+02  0.46142318681E+02  0.10000008388E+02 0.  0.
         12    1    1    2    0    0  0.22274315233E+02  0.32644645374E+02  0.21617016787E+02  0.45045681319E+02  0.00000000000E+00 0. -1.
         11    1    3    3    0    0 -0.38762596253E+01 -0.94771012482E+01 -0.24809015703E+01  0.10535450138E+02  0.51100000000E-03 0. -1.
        -11    1    3    3    0    0 -0.16794465276E+02 -0.20956628719E+02 -0.15333119793E+02  0.30924729813E+02  0.51100000000E-03 0.  1.
        -12    1    3    3    0    0 -0.16035903315E+01 -0.22109154073E+01 -0.38029954239E+01  0.46821387297E+01  0.00000000000E+00 0.  1.
</event>
<event>
 7    1  0.2425980E-008  0.4614232E+02  0.7816164E-02  0.1320468E+00
        -11   -1    0    0    0    0  0.00000000000E+00  0.00000000000E+00  0.45593999997E+02  0.45594000000E+02  0.51100000000E-03 0.  1.
         11   -1    0    0    0    0 -0.00000000000E+00 -0.00000000000E+00 -0.45593999997E+02  0.45594000000E+02  0.51100000000E-03 0. -1.
    9900012    2    1    2    0    0  0.77592207435E+01  0.28486591997E+01  0.44280843903E+02  0.46142317604E+02  0.99999985653E+01 0.  0.
         12    1    1    2    0    0 -0.77592207435E+01 -0.28486591997E+01 -0.44280843903E+02  0.45045682396E+02  0.00000000000E+00 0. -1.
         11    1    3    3    0    0  0.15656462266E+01  0.11139805839E+01  0.13108612016E+01  0.23260606611E+01  0.51100000000E-03 0. -1.
        -11    1    3    3    0    0  0.31615157179E+01 -0.41312565188E+00  0.33374744364E+02  0.33526697065E+02  0.51100000000E-03 0.  1.
        -12    1    3    3    0    0  0.30320587990E+01  0.21478042676E+01  0.95952383375E+01  0.10289559878E+02  0.00000000000E+00 0.  1.
</event>
<event>
 7    1  0.2425980E-008  0.4614232E+02  0.7816164E-02  0.1320468E+00
        -11   -1    0    0    0    0  0.00000000000E+00  0.00000000000E+00  0.45593999997E+02  0.45594000000E+02  0.51100000000E-03 0.  1.
         11   -1    0    0    0    0 -0.00000000000E+00 -0.00000000000E+00 -0.45593999997E+02  0.45594000000E+02  0.51100000000E-03 0. -1.
    9900012    2    1    2    0    0  0.17183241550E+02  0.15920749751E+02  0.38475699432E+02  0.46142317526E+02  0.99999978523E+01 0.  0.
         12    1    1    2    0    0 -0.17183241550E+02 -0.15920749751E+02 -0.38475699432E+02  0.45045682474E+02  0.00000000000E+00 0. -1.
         11    1    3    3    0    0  0.61843932835E+01  0.31611497488E+01  0.55926007210E+01  0.89172176773E+01  0.51100000000E-03 0. -1.
        -11    1    3    3    0    0  0.51835697322E+01  0.37330568859E+01  0.15864449538E+02  0.17102218227E+02  0.51100000000E-03 0.  1.
        -12    1    3    3    0    0  0.58152785345E+01  0.90265431167E+01  0.17018649172E+02  0.20122881621E+02  0.00000000000E+00 0.  1.
</event>
<event>
 7    1  0.2425980E-008  0.4614232E+02  0.7816164E-02  0.1320468E+00
        -11   -1    0    0    0    0  0.00000000000E+00  0.00000000000E+00  0.45593999997E+02  0.45594000000E+02  0.51100000000E-03 0.  1.
         11   -1    0    0    0    0 -0.00000000000E+00 -0.00000000000E+00 -0.45593999997E+02  0.45594000000E+02  0.51100000000E-03 0. -1.
    9900012    2    1    2    0    0  0.19181866372E+02  0.38745362921E+01  0.40572865615E+02  0.46142318151E+02  0.10000003558E+02 0.  0.
         12    1    1    2    0    0 -0.19181866372E+02 -0.38745362921E+01 -0.40572865615E+02  0.45045681849E+02  0.00000000000E+00 0. -1.
         11    1    3    3    0    0  0.51064337470E+01  0.20764063737E+01  0.15889650977E+02  0.16818684178E+02  0.51100000000E-03 0. -1.
        -11    1    3    3    0    0  0.14741123496E+02  0.16303132929E+01  0.21846849018E+02  0.26405367932E+02  0.51100000000E-03 0.  1.
        -12    1    3    3    0    0 -0.66569087127E+00  0.16781662552E+00  0.28363656203E+01  0.29182660413E+01  0.00000000000E+00 0.  1.
</event>
<event>
 7    1  0.2425980E-008  0.4614232E+02  0.7816164E-02  0.1320468E+00
        -11   -1    0    0    0    0  0.00000000000E+00  0.00000000000E+00  0.45593999997E+02  0.45594000000E+02  0.51100000000E-03 0.  1.
         11   -1    0    0    0    0 -0.00000000000E+00 -0.00000000000E+00 -0.45593999997E+02  0.45594000000E+02  0.51100000000E-03 0. -1.
    9900012    2    1    2    0    0  0.13157215033E+02 -0.42207134340E+02  0.86347566983E+01  0.46142317411E+02  0.99999968101E+01 0.  0.
         12    1    1    2    0    0 -0.13157215033E+02  0.42207134340E+02 -0.86347566983E+01  0.45045682589E+02  0.00000000000E+00 0. -1.
         11    1    3    3    0    0  0.56817770399E+01 -0.20550228686E+02  0.16048473302E+01  0.21381534664E+02  0.51100000000E-03 0.  1.
        -11    1    3    3    0    0  0.55306571589E+01 -0.68322976447E+01  0.25986230261E+01  0.91663134142E+01  0.51100000000E-03 0. -1.
        -12    1    3    3    0    0  0.19447808341E+01 -0.14824608009E+02  0.44312863420E+01  0.15594469333E+02  0.00000000000E+00 0.  1.
</event>
<event>
 7    1  0.2425980E-008  0.4614232E+02  0.7816164E-02  0.1320468E+00
        -11   -1    0    0    0    0  0.00000000000E+00  0.00000000000E+00  0.45593999997E+02  0.45594000000E+02  0.51100000000E-03 0.  1.
         11   -1    0    0    0    0 -0.00000000000E+00 -0.00000000000E+00 -0.45593999997E+02  0.45594000000E+02  0.51100000000E-03 0. -1.
    9900012    2    1    2    0    0  0.40547650429E+02  0.15889160357E+02  0.11512432446E+02  0.46142317932E+02  0.10000001560E+02 0.  0.
         12    1    1    2    0    0 -0.40547650429E+02 -0.15889160357E+02 -0.11512432446E+02  0.45045682068E+02  0.00000000000E+00 0. -1.
         11    1    3    3    0    0  0.10590039917E+02  0.41953462896E+01  0.70551494880E+01  0.13398694358E+02  0.51100000000E-03 0. -1.
        -11    1    3    3    0    0  0.18992547940E+02  0.65089948621E+01  0.46689163795E+01  0.20612682304E+02  0.51100000000E-03 0.  1.
         12    1    3    3    0    0  0.10965062572E+02  0.51848192050E+01 -0.21163342136E+00  0.12130941270E+02  0.00000000000E+00 0. -1.
</event>
<event>
 7    1  0.2425980E-008  0.4614232E+02  0.7816164E-02  0.1320468E+00
        -11   -1    0    0    0    0  0.00000000000E+00  0.00000000000E+00  0.45593999997E+02  0.45594000000E+02  0.51100000000E-03 0.  1.
         11   -1    0    0    0    0 -0.00000000000E+00 -0.00000000000E+00 -0.45593999997E+02  0.45594000000E+02  0.51100000000E-03 0. -1.
    9900012    2    1    2    0    0  0.36080515025E+02  0.97245653547E+01  0.25154377430E+02  0.46142318301E+02  0.10000004924E+02 0.  0.
         12    1    1    2    0    0 -0.36080515025E+02 -0.97245653547E+01 -0.25154377430E+02  0.45045681699E+02  0.00000000000E+00 0. -1.
         11    1    3    3    0    0  0.12162877706E+02  0.53334904803E+01  0.10378141248E+02  0.16854896346E+02  0.51100000000E-03 0. -1.
        -11    1    3    3    0    0  0.15210884725E+02  0.77870692688E+00  0.12202181642E+02  0.19515907247E+02  0.51100000000E-03 0.  1.
        -12    1    3    3    0    0  0.87067525939E+01  0.36123679475E+01  0.25740545406E+01  0.97715147085E+01  0.00000000000E+00 0.  1.
</event>
<event>
 7    1  0.2425980E-008  0.4614232E+02  0.7816164E-02  0.1320468E+00
        -11   -1    0    0    0    0  0.00000000000E+00  0.00000000000E+00  0.45593999997E+02  0.45594000000E+02  0.51100000000E-03 0. -1.
         11   -1    0    0    0    0 -0.00000000000E+00 -0.00000000000E+00 -0.45593999997E+02  0.45594000000E+02  0.51100000000E-03 0.  1.
    9900012    2    1    2    0    0 -0.11256102058E+02 -0.43553770579E+02 -0.23415251554E+01  0.46142317574E+02  0.99999982900E+01 0.  0.
         12    1    1    2    0    0  0.11256102058E+02  0.43553770579E+02  0.23415251554E+01  0.45045682426E+02  0.00000000000E+00 0. -1.
         11    1    3    3    0    0 -0.37747374483E+01 -0.19602182466E+02  0.17984954589E+01  0.20043173063E+02  0.51100000000E-03 0.  1.
        -11    1    3    3    0    0 -0.48764947313E+01 -0.19503826977E+02 -0.53514987250E+01  0.20804278562E+02  0.51100000000E-03 0. -1.
        -12    1    3    3    0    0 -0.26048698783E+01 -0.44477611361E+01  0.12114781108E+01  0.52948659492E+01  0.00000000000E+00 0.  1.
</event>
<event>
 7    1  0.2425980E-008  0.4614232E+02  0.7816164E-02  0.1320468E+00
        -11   -1    0    0    0    0  0.00000000000E+00  0.00000000000E+00  0.45593999997E+02  0.45594000000E+02  0.51100000000E-03 0.  1.
         11   -1    0    0    0    0 -0.00000000000E+00 -0.00000000000E+00 -0.45593999997E+02  0.45594000000E+02  0.51100000000E-03 0. -1.
    9900012    2    1    2    0    0 -0.20828453246E+02  0.39510300849E+02 -0.58502409165E+01  0.46142315894E+02  0.99999829753E+01 0.  0.
         12    1    1    2    0    0  0.20828453246E+02 -0.39510300849E+02  0.58502409165E+01  0.45045684106E+02  0.00000000000E+00 0. -1.
         11    1    3    3    0    0 -0.23766349685E+01  0.84150446811E+01 -0.16649522138E+01  0.89013165820E+01  0.51100000000E-03 0. -1.
        -11    1    3    3    0    0 -0.12864574343E+02  0.27382444520E+02 -0.27315229297E+01  0.30376911606E+02  0.51100000000E-03 0.  1.
         12    1    3    3    0    0 -0.55872439350E+01  0.37128116473E+01 -0.14537657730E+01  0.68640877064E+01  0.00000000000E+00 0. -1.
</event>
<event>
 7    1  0.2425980E-008  0.4614232E+02  0.7816164E-02  0.1320468E+00
        -11   -1    0    0    0    0  0.00000000000E+00  0.00000000000E+00  0.45593999997E+02  0.45594000000E+02  0.51100000000E-03 0. -1.
         11   -1    0    0    0    0 -0.00000000000E+00 -0.00000000000E+00 -0.45593999997E+02  0.45594000000E+02  0.51100000000E-03 0.  1.
    9900012    2    1    2    0    0 -0.25398846738E+01  0.20624965303E+02 -0.39965902016E+02  0.46142317279E+02  0.99999955992E+01 0.  0.
         12    1    1    2    0    0  0.25398846738E+01 -0.20624965303E+02  0.39965902016E+02  0.45045682721E+02  0.00000000000E+00 0. -1.
         11    1    3    3    0    0 -0.18660644762E+01  0.12909655355E+01 -0.57441374926E+01  0.61760751645E+01  0.51100000000E-03 0. -1.
        -11    1    3    3    0    0 -0.22953422573E+01  0.37032662788E+01 -0.11860144699E+02  0.12635102285E+02  0.51100000000E-03 0.  1.
        -12    1    3    3    0    0  0.16215220597E+01  0.15630733489E+02 -0.22361619824E+02  0.27331139829E+02  0.00000000000E+00 0.  1.
</event>
<event>
 7    1  0.2425980E-008  0.4614232E+02  0.7816164E-02  0.1320468E+00
        -11   -1    0    0    0    0  0.00000000000E+00  0.00000000000E+00  0.45593999997E+02  0.45594000000E+02  0.51100000000E-03 0.  1.
         11   -1    0    0    0    0 -0.00000000000E+00 -0.00000000000E+00 -0.45593999997E+02  0.45594000000E+02  0.51100000000E-03 0. -1.
    9900012    2    1    2    0    0 -0.24107640951E+02  0.20240629411E+02  0.32221919267E+02  0.46142317494E+02  0.99999975613E+01 0.  0.
         12    1    1    2    0    0  0.24107640951E+02 -0.20240629411E+02 -0.32221919267E+02  0.45045682506E+02  0.00000000000E+00 0. -1.
         11    1    3    3    0    0  0.36289956310E+00 -0.42418704865E+00  0.40989271375E+00  0.69256266363E+00  0.51100000000E-03 0. -1.
        -11    1    3    3    0    0 -0.12370243856E+02  0.13722043076E+02  0.19165010790E+02  0.26619824156E+02  0.51100000000E-03 0.  1.
         12    1    3    3    0    0 -0.12100296659E+02  0.69427733842E+01  0.12647015763E+02  0.18829930674E+02  0.00000000000E+00 0. -1.
</event>
<event>
 7    1  0.2425980E-008  0.4614232E+02  0.7816164E-02  0.1320468E+00
        -11   -1    0    0    0    0  0.00000000000E+00  0.00000000000E+00  0.45593999997E+02  0.45594000000E+02  0.51100000000E-03 0.  1.
         11   -1    0    0    0    0 -0.00000000000E+00 -0.00000000000E+00 -0.45593999997E+02  0.45594000000E+02  0.51100000000E-03 0. -1.
    9900012    2    1    2    0    0  0.17377425213E+02  0.10038331953E+02  0.40328282953E+02  0.46142318505E+02  0.10000006785E+02 0.  0.
         12    1    1    2    0    0 -0.17377425213E+02 -0.10038331953E+02 -0.40328282953E+02  0.45045681495E+02  0.00000000000E+00 0. -1.
         11    1    3    3    0    0  0.20371269712E+01 -0.40899628843E+00  0.85014904518E+01  0.87517143706E+01  0.51100000000E-03 0. -1.
        -11    1    3    3    0    0  0.63002401154E+01  0.15858739590E+01  0.71801078760E+01  0.96830765306E+01  0.51100000000E-03 0.  1.
        -12    1    3    3    0    0  0.90400581263E+01  0.88614542825E+01  0.24646684625E+02  0.27707527604E+02  0.00000000000E+00 0.  1.
</event>
<event>
 7    1  0.2425980E-008  0.4614232E+02  0.7816164E-02  0.1320468E+00
        -11   -1    0    0    0    0  0.00000000000E+00  0.00000000000E+00  0.45593999997E+02  0.45594000000E+02  0.51100000000E-03 0.  1.
         11   -1    0    0    0    0 -0.00000000000E+00 -0.00000000000E+00 -0.45593999997E+02  0.45594000000E+02  0.51100000000E-03 0. -1.
    9900012    2    1    2    0    0  0.56453490226E+01 -0.23541822440E+02  0.37987182692E+02  0.46142318540E+02  0.10000007099E+02 0.  0.
         12    1    1    2    0    0 -0.56453490226E+01  0.23541822440E+02 -0.37987182692E+02  0.45045681460E+02  0.00000000000E+00 0. -1.
         11    1    3    3    0    0  0.15743316903E+01 -0.61434269768E+01  0.96348344208E+01  0.11534740997E+02  0.51100000000E-03 0.  1.
        -11    1    3    3    0    0 -0.29670983871E+00  0.79989660636E+00  0.33956019755E+00  0.91824435644E+00  0.51100000000E-03 0. -1.
         12    1    3    3    0    0  0.43677271710E+01 -0.18198292069E+02  0.28012788074E+02  0.33689333186E+02  0.00000000000E+00 0. -1.
</event>
<event>
 7    1  0.2425980E-008  0.4614232E+02  0.7816164E-02  0.1320468E+00
        -11   -1    0    0    0    0  0.00000000000E+00  0.00000000000E+00  0.45593999997E+02  0.45594000000E+02  0.51100000000E-03 0.  1.
         11   -1    0    0    0    0 -0.00000000000E+00 -0.00000000000E+00 -0.45593999997E+02  0.45594000000E+02  0.51100000000E-03 0. -1.
    9900012    2    1    2    0    0  0.39296430366E+02  0.75498433309E+01  0.20685833788E+02  0.46142319926E+02  0.10000019744E+02 0.  0.
         12    1    1    2    0    0 -0.39296430366E+02 -0.75498433309E+01 -0.20685833788E+02  0.45045680074E+02  0.00000000000E+00 0. -1.
         11    1    3    3    0    0  0.38038616259E+01  0.19083056661E+01  0.51827204566E+00  0.42871435664E+01  0.51100000000E-03 0. -1.
        -11    1    3    3    0    0  0.93720825331E+01  0.20922687734E+01  0.92177170962E+01  0.13310891343E+02  0.51100000000E-03 0.  1.
         12    1    3    3    0    0  0.26120486207E+02  0.35492688915E+01  0.10949844646E+02  0.28544285017E+02  0.00000000000E+00 0. -1.
</event>
<event>
 7    1  0.2425980E-008  0.4614232E+02  0.7816164E-02  0.1320468E+00
        -11   -1    0    0    0    0  0.00000000000E+00  0.00000000000E+00  0.45593999997E+02  0.45594000000E+02  0.51100000000E-03 0.  1.
         11   -1    0    0    0    0 -0.00000000000E+00 -0.00000000000E+00 -0.45593999997E+02  0.45594000000E+02  0.51100000000E-03 0. -1.
    9900012    2    1    2    0    0 -0.14610399143E+01  0.26064939249E+02  0.36709641564E+02  0.46142317860E+02  0.10000000903E+02 0.  0.
         12    1    1    2    0    0  0.14610399143E+01 -0.26064939249E+02 -0.36709641564E+02  0.45045682140E+02  0.00000000000E+00 0. -1.
         11    1    3    3    0    0 -0.33164302401E+01  0.74070377183E+01  0.12916905710E+02  0.15254814672E+02  0.51100000000E-03 0. -1.
        -11    1    3    3    0    0 -0.11444122616E+01  0.97612850975E+01  0.87695495045E+01  0.13171839847E+02  0.51100000000E-03 0.  1.
        -12    1    3    3    0    0  0.29998025873E+01  0.88966164333E+01  0.15023186350E+02  0.17715663341E+02  0.00000000000E+00 0.  1.
</event>
<event>
 7    1  0.2425980E-008  0.4614232E+02  0.7816164E-02  0.1320468E+00
        -11   -1    0    0    0    0  0.00000000000E+00  0.00000000000E+00  0.45593999997E+02  0.45594000000E+02  0.51100000000E-03 0.  1.
         11   -1    0    0    0    0 -0.00000000000E+00 -0.00000000000E+00 -0.45593999997E+02  0.45594000000E+02  0.51100000000E-03 0. -1.
    9900012    2    1    2    0    0  0.24942105937E+02  0.35822295521E+02  0.11125107170E+02  0.46142317471E+02  0.99999973540E+01 0.  0.
         12    1    1    2    0    0 -0.24942105937E+02 -0.35822295521E+02 -0.11125107170E+02  0.45045682529E+02  0.00000000000E+00 0. -1.
         11    1    3    3    0    0  0.25960004665E+01  0.12124425650E+01  0.13228620805E+01  0.31558199792E+01  0.51100000000E-03 0. -1.
        -11    1    3    3    0    0  0.81805562889E+01  0.17408741611E+02  0.18372641086E+01  0.19322560010E+02  0.51100000000E-03 0.  1.
        -12    1    3    3    0    0  0.14165549181E+02  0.17201111345E+02  0.79649809813E+01  0.23663937482E+02  0.00000000000E+00 0.  1.
</event>
<event>
 7    1  0.2425980E-008  0.4614232E+02  0.7816164E-02  0.1320468E+00
        -11   -1    0    0    0    0  0.00000000000E+00  0.00000000000E+00  0.45593999997E+02  0.45594000000E+02  0.51100000000E-03 0.  1.
         11   -1    0    0    0    0 -0.00000000000E+00 -0.00000000000E+00 -0.45593999997E+02  0.45594000000E+02  0.51100000000E-03 0. -1.
    9900012    2    1    2    0    0 -0.79108567316E+00  0.22085119079E+02  0.39252198998E+02  0.46142318438E+02  0.10000006169E+02 0.  0.
         12    1    1    2    0    0  0.79108567316E+00 -0.22085119079E+02 -0.39252198998E+02  0.45045681562E+02  0.00000000000E+00 0. -1.
         11    1    3    3    0    0 -0.47052993124E+00  0.68707038429E+00  0.68156951504E+00  0.10761047319E+01  0.51100000000E-03 0. -1.
        -11    1    3    3    0    0 -0.11500117270E+01  0.86579344825E+01  0.76388834068E+01  0.11603227846E+02  0.51100000000E-03 0.  1.
        -12    1    3    3    0    0  0.82945598512E+00  0.12740114212E+02  0.30931746076E+02  0.33462985860E+02  0.00000000000E+00 0.  1.
</event>
<event>
 7    1  0.2425980E-008  0.4614232E+02  0.7816164E-02  0.1320468E+00
        -11   -1    0    0    0    0  0.00000000000E+00  0.00000000000E+00  0.45593999997E+02  0.45594000000E+02  0.51100000000E-03 0.  1.
         11   -1    0    0    0    0 -0.00000000000E+00 -0.00000000000E+00 -0.45593999997E+02  0.45594000000E+02  0.51100000000E-03 0. -1.
    9900012    2    1    2    0    0 -0.33785958698E+02  0.21846953345E+02  0.20256685304E+02  0.46142315689E+02  0.99999811022E+01 0.  0.
         12    1    1    2    0    0  0.33785958698E+02 -0.21846953345E+02 -0.20256685304E+02  0.45045684311E+02  0.00000000000E+00 0. -1.
         11    1    3    3    0    0 -0.99995037846E+01  0.26045492158E+01  0.44191884090E+01  0.11238459815E+02  0.51100000000E-03 0. -1.
        -11    1    3    3    0    0 -0.14008512205E+00 -0.28669658190E+00  0.55178698370E+00  0.63740717598E+00  0.51100000000E-03 0.  1.
        -12    1    3    3    0    0 -0.23646369791E+02  0.19529100711E+02  0.15285709911E+02  0.34266448698E+02  0.00000000000E+00 0.  1.
</event>
<event>
 7    1  0.2425980E-008  0.4614232E+02  0.7816164E-02  0.1320468E+00
        -11   -1    0    0    0    0  0.00000000000E+00  0.00000000000E+00  0.45593999997E+02  0.45594000000E+02  0.51100000000E-03 0. -1.
         11   -1    0    0    0    0 -0.00000000000E+00 -0.00000000000E+00 -0.45593999997E+02  0.45594000000E+02  0.51100000000E-03 0.  1.
    9900012    2    1    2    0    0 -0.24666622217E+02 -0.36844748108E+02  0.79458006206E+01  0.46142318051E+02  0.10000002643E+02 0.  0.
         12    1    1    2    0    0  0.24666622217E+02  0.36844748108E+02 -0.79458006206E+01  0.45045681949E+02  0.00000000000E+00 0. -1.
         11    1    3    3    0    0 -0.24189610529E+00 -0.37751712829E+01  0.11582768918E+01  0.39562656079E+01  0.51100000000E-03 0. -1.
        -11    1    3    3    0    0 -0.16613714022E+02 -0.21974153732E+02  0.13898599349E+01  0.27582796028E+02  0.51100000000E-03 0.  1.
        -12    1    3    3    0    0 -0.78110120897E+01 -0.11095423093E+02  0.53976637938E+01  0.14603256415E+02  0.00000000000E+00 0.  1.
</event>
<event>
 7    1  0.2425980E-008  0.4614232E+02  0.7816164E-02  0.1320468E+00
        -11   -1    0    0    0    0  0.00000000000E+00  0.00000000000E+00  0.45593999997E+02  0.45594000000E+02  0.51100000000E-03 0. -1.
         11   -1    0    0    0    0 -0.00000000000E+00 -0.00000000000E+00 -0.45593999997E+02  0.45594000000E+02  0.51100000000E-03 0.  1.
    9900012    2    1    2    0    0  0.41709599838E+02 -0.10431796420E+02 -0.13438769616E+02  0.46142316256E+02  0.99999862726E+01 0.  0.
         12    1    1    2    0    0 -0.41709599838E+02  0.10431796420E+02  0.13438769616E+02  0.45045683744E+02  0.00000000000E+00 0. -1.
         11    1    3    3    0    0  0.28791440800E+02 -0.87308179898E+01 -0.69414843915E+01  0.30876503234E+02  0.51100000000E-03 0. -1.
        -11    1    3    3    0    0  0.12140153072E+02 -0.43834878590E+00 -0.49364627023E+01  0.13112746872E+02  0.51100000000E-03 0.  1.
         12    1    3    3    0    0  0.77800596666E+00 -0.12626296439E+01 -0.15608225219E+01  0.21530661501E+01  0.00000000000E+00 0. -1.
</event>
<event>
 7    1  0.2425980E-008  0.4614232E+02  0.7816164E-02  0.1320468E+00
        -11   -1    0    0    0    0  0.00000000000E+00  0.00000000000E+00  0.45593999997E+02  0.45594000000E+02  0.51100000000E-03 0.  1.
         11   -1    0    0    0    0 -0.00000000000E+00 -0.00000000000E+00 -0.45593999997E+02  0.45594000000E+02  0.51100000000E-03 0. -1.
    9900012    2    1    2    0    0 -0.23414875635E+02  0.12462756110E+02  0.36407923454E+02  0.46142316732E+02  0.99999906145E+01 0.  0.
         12    1    1    2    0    0  0.23414875635E+02 -0.12462756110E+02 -0.36407923454E+02  0.45045683268E+02  0.00000000000E+00 0. -1.
         11    1    3    3    0    0 -0.23353811738E+01  0.24646501553E+01  0.58923934527E+01  0.68006475043E+01  0.51100000000E-03 0. -1.
        -11    1    3    3    0    0 -0.14528506871E+02  0.10293902429E+02  0.25426081694E+02  0.31040740482E+02  0.51100000000E-03 0.  1.
         12    1    3    3    0    0 -0.65509875904E+01 -0.29579647412E+00  0.50894483072E+01  0.83009287453E+01  0.00000000000E+00 0. -1.
</event>
<event>
 7    1  0.2425980E-008  0.4614232E+02  0.7816164E-02  0.1320468E+00
        -11   -1    0    0    0    0  0.00000000000E+00  0.00000000000E+00  0.45593999997E+02  0.45594000000E+02  0.51100000000E-03 0.  1.
         11   -1    0    0    0    0 -0.00000000000E+00 -0.00000000000E+00 -0.45593999997E+02  0.45594000000E+02  0.51100000000E-03 0. -1.
    9900012    2    1    2    0    0 -0.37560987648E+02  0.20000608888E+02  0.14773670917E+02  0.46142317617E+02  0.99999986838E+01 0.  0.
         12    1    1    2    0    0  0.37560987648E+02 -0.20000608888E+02 -0.14773670917E+02  0.45045682383E+02  0.00000000000E+00 0. -1.
         11    1    3    3    0    0 -0.98615560298E+01  0.37124175065E+01  0.47518986012E+01  0.11559103410E+02  0.51100000000E-03 0. -1.
        -11    1    3    3    0    0 -0.22084044022E+02  0.11863833043E+02  0.10984065768E+02  0.27369786917E+02  0.51100000000E-03 0.  1.
         12    1    3    3    0    0 -0.56153875961E+01  0.44243583394E+01 -0.96229345236E+00  0.72134272893E+01  0.00000000000E+00 0. -1.
</event>
<event>
 7    1  0.2425980E-008  0.4614232E+02  0.7816164E-02  0.1320468E+00
        -11   -1    0    0    0    0  0.00000000000E+00  0.00000000000E+00  0.45593999997E+02  0.45594000000E+02  0.51100000000E-03 0.  1.
         11   -1    0    0    0    0 -0.00000000000E+00 -0.00000000000E+00 -0.45593999997E+02  0.45594000000E+02  0.51100000000E-03 0. -1.
    9900012    2    1    2    0    0  0.10557571350E+02  0.17486487773E+02  0.40148149868E+02  0.46142317574E+02  0.99999982895E+01 0.  0.
         12    1    1    2    0    0 -0.10557571350E+02 -0.17486487773E+02 -0.40148149868E+02  0.45045682426E+02  0.00000000000E+00 0. -1.
         11    1    3    3    0    0  0.26950421649E+01  0.10109658260E+02  0.13164366696E+02  0.16815736474E+02  0.51100000000E-03 0. -1.
        -11    1    3    3    0    0  0.16099193281E+01  0.14142562558E+01  0.10492872266E+02  0.10709450483E+02  0.51100000000E-03 0.  1.
        -12    1    3    3    0    0  0.62526098569E+01  0.59625732577E+01  0.16490910906E+02  0.18617130616E+02  0.00000000000E+00 0.  1.
</event>
<event>
 7    1  0.2425980E-008  0.4614232E+02  0.7816164E-02  0.1320468E+00
        -11   -1    0    0    0    0  0.00000000000E+00  0.00000000000E+00  0.45593999997E+02  0.45594000000E+02  0.51100000000E-03 0. -1.
         11   -1    0    0    0    0 -0.00000000000E+00 -0.00000000000E+00 -0.45593999997E+02  0.45594000000E+02  0.51100000000E-03 0.  1.
    9900012    2    1    2    0    0 -0.18503456547E+02 -0.23829322064E+02 -0.33449948274E+02  0.46142317258E+02  0.99999954089E+01 0.  0.
         12    1    1    2    0    0  0.18503456547E+02  0.23829322064E+02  0.33449948274E+02  0.45045682742E+02  0.00000000000E+00 0. -1.
         11    1    3    3    0    0 -0.16265143316E+01 -0.12645175796E+01 -0.63381245070E+01  0.66645612089E+01  0.51100000000E-03 0. -1.
        -11    1    3    3    0    0 -0.27414468317E+01 -0.13770084001E+01 -0.43219205347E+01  0.53000641727E+01  0.51100000000E-03 0.  1.
        -12    1    3    3    0    0 -0.14135495384E+02 -0.21187796084E+02 -0.22789903232E+02  0.34177691876E+02  0.00000000000E+00 0.  1.
</event>
<event>
 7    1  0.2425980E-008  0.4614232E+02  0.7816164E-02  0.1320468E+00
        -11   -1    0    0    0    0  0.00000000000E+00  0.00000000000E+00  0.45593999997E+02  0.45594000000E+02  0.51100000000E-03 0.  1.
         11   -1    0    0    0    0 -0.00000000000E+00 -0.00000000000E+00 -0.45593999997E+02  0.45594000000E+02  0.51100000000E-03 0. -1.
    9900012    2    1    2    0    0 -0.29309606372E+02  0.12454138927E+02  0.31858354436E+02  0.46142319303E+02  0.10000014057E+02 0.  0.
         12    1    1    2    0    0  0.29309606372E+02 -0.12454138927E+02 -0.31858354436E+02  0.45045680697E+02  0.00000000000E+00 0. -1.
         11    1    3    3    0    0 -0.48706860868E+01 -0.74038970794E+00  0.66159994131E+01  0.82488307276E+01  0.51100000000E-03 0.  1.
        -11    1    3    3    0    0 -0.51267521321E+01  0.13962899334E+01  0.72128784145E+01  0.89587291669E+01  0.51100000000E-03 0. -1.
         12    1    3    3    0    0 -0.19312168153E+02  0.11798238701E+02  0.18029476609E+02  0.28934759408E+02  0.00000000000E+00 0. -1.
</event>
<event>
 7    1  0.2425980E-008  0.4614232E+02  0.7816164E-02  0.1320468E+00
        -11   -1    0    0    0    0  0.00000000000E+00  0.00000000000E+00  0.45593999997E+02  0.45594000000E+02  0.51100000000E-03 0.  1.
         11   -1    0    0    0    0 -0.00000000000E+00 -0.00000000000E+00 -0.45593999997E+02  0.45594000000E+02  0.51100000000E-03 0. -1.
    9900012    2    1    2    0    0  0.13748081097E+02  0.35574164887E+02  0.23970451772E+02  0.46142317639E+02  0.99999988856E+01 0.  0.
         12    1    1    2    0    0 -0.13748081097E+02 -0.35574164887E+02 -0.23970451772E+02  0.45045682361E+02  0.00000000000E+00 0. -1.
         11    1    3    3    0    0  0.15451760704E+01  0.76369542315E+01  0.71924500482E+01  0.10603866134E+02  0.51100000000E-03 0.  1.
        -11    1    3    3    0    0  0.11180377262E+02  0.27456289790E+02  0.14512953436E+02  0.33007188648E+02  0.51100000000E-03 0. -1.
         12    1    3    3    0    0  0.10225277646E+01  0.48092086528E+00  0.22650482874E+01  0.25312628572E+01  0.00000000000E+00 0. -1.
</event>
<event>
 7    1  0.2425980E-008  0.4614232E+02  0.7816164E-02  0.1320468E+00
        -11   -1    0    0    0    0  0.00000000000E+00  0.00000000000E+00  0.45593999997E+02  0.45594000000E+02  0.51100000000E-03 0.  1.
         11   -1    0    0    0    0 -0.00000000000E+00 -0.00000000000E+00 -0.45593999997E+02  0.45594000000E+02  0.51100000000E-03 0. -1.
    9900012    2    1    2    0    0 -0.36877526108E+02 -0.24668064719E+02  0.77876892511E+01  0.46142318157E+02  0.10000003611E+02 0.  0.
         12    1    1    2    0    0  0.36877526108E+02  0.24668064719E+02 -0.77876892511E+01  0.45045681843E+02  0.00000000000E+00 0. -1.
         11    1    3    3    0    0 -0.47811761992E+01 -0.32685001996E+01  0.21687870252E+01  0.61843655151E+01  0.51100000000E-03 0. -1.
        -11    1    3    3    0    0 -0.22503595678E+02 -0.19497321038E+02  0.45358464446E+01  0.30118619645E+02  0.51100000000E-03 0.  1.
         12    1    3    3    0    0 -0.95927542309E+01 -0.19022434813E+01  0.10830557813E+01  0.98393329968E+01  0.00000000000E+00 0. -1.
</event>
<event>
 7    1  0.2425980E-008  0.4614231E+02  0.7816164E-02  0.1320468E+00
        -11   -1    0    0    0    0  0.00000000000E+00  0.00000000000E+00  0.45593999997E+02  0.45594000000E+02  0.51100000000E-03 0.  1.
         11   -1    0    0    0    0 -0.00000000000E+00 -0.00000000000E+00 -0.45593999997E+02  0.45594000000E+02  0.51100000000E-03 0. -1.
    9900012    2    1    2    0    0 -0.41183385645E+02  0.18219897274E+02  0.10382165894E+01  0.46142314262E+02  0.99999680945E+01 0.  0.
         12    1    1    2    0    0  0.41183385645E+02 -0.18219897274E+02 -0.10382165894E+01  0.45045685738E+02  0.00000000000E+00 0. -1.
         11    1    3    3    0    0 -0.97660171505E+00  0.24914311248E+01 -0.20852022914E+00  0.26841126851E+01  0.51100000000E-03 0. -1.
        -11    1    3    3    0    0 -0.25350878787E+02  0.11486702973E+02 -0.97919691269E+00  0.27849061516E+02  0.51100000000E-03 0.  1.
        -12    1    3    3    0    0 -0.14855905143E+02  0.42417631759E+01  0.22259337312E+01  0.15609140061E+02  0.00000000000E+00 0.  1.
</event>
<event>
 7    1  0.2425980E-008  0.4614232E+02  0.7816164E-02  0.1320468E+00
        -11   -1    0    0    0    0  0.00000000000E+00  0.00000000000E+00  0.45593999997E+02  0.45594000000E+02  0.51100000000E-03 0. -1.
         11   -1    0    0    0    0 -0.00000000000E+00 -0.00000000000E+00 -0.45593999997E+02  0.45594000000E+02  0.51100000000E-03 0.  1.
    9900012    2    1    2    0    0 -0.22017813961E+02  0.21452721450E+02 -0.32925824216E+02  0.46142319968E+02  0.10000020127E+02 0.  0.
         12    1    1    2    0    0  0.22017813961E+02 -0.21452721450E+02  0.32925824216E+02  0.45045680032E+02  0.00000000000E+00 0. -1.
         11    1    3    3    0    0 -0.36861757566E+01  0.37061999811E+01 -0.33638114060E+01  0.62160306824E+01  0.51100000000E-03 0. -1.
        -11    1    3    3    0    0 -0.13412432752E+02  0.17287742834E+02 -0.23582411279E+02  0.32169698889E+02  0.51100000000E-03 0.  1.
        -12    1    3    3    0    0 -0.49192054520E+01  0.45877863478E+00 -0.59796015310E+01  0.77565903968E+01  0.00000000000E+00 0.  1.
</event>
<event>
 7    1  0.2425980E-008  0.4614232E+02  0.7816164E-02  0.1320468E+00
        -11   -1    0    0    0    0  0.00000000000E+00  0.00000000000E+00  0.45593999997E+02  0.45594000000E+02  0.51100000000E-03 0. -1.
         11   -1    0    0    0    0 -0.00000000000E+00 -0.00000000000E+00 -0.45593999997E+02  0.45594000000E+02  0.51100000000E-03 0.  1.
    9900012    2    1    2    0    0  0.39944728002E+02 -0.48302094798E+01 -0.20253426961E+02  0.46142317383E+02  0.99999965503E+01 0.  0.
         12    1    1    2    0    0 -0.39944728002E+02  0.48302094798E+01  0.20253426961E+02  0.45045682617E+02  0.00000000000E+00 0. -1.
         11    1    3    3    0    0  0.19394780478E+02 -0.19664602052E+00 -0.58699332425E+01  0.20264557631E+02  0.51100000000E-03 0. -1.
        -11    1    3    3    0    0  0.79139043775E+01 -0.46114802467E-01 -0.68556700845E+01  0.10470540657E+02  0.51100000000E-03 0.  1.
         12    1    3    3    0    0  0.12636043146E+02 -0.45874486569E+01 -0.75278236344E+01  0.15407219095E+02  0.00000000000E+00 0. -1.
</event>
<event>
 7    1  0.2425980E-008  0.4614232E+02  0.7816164E-02  0.1320468E+00
        -11   -1    0    0    0    0  0.00000000000E+00  0.00000000000E+00  0.45593999997E+02  0.45594000000E+02  0.51100000000E-03 0.  1.
         11   -1    0    0    0    0 -0.00000000000E+00 -0.00000000000E+00 -0.45593999997E+02  0.45594000000E+02  0.51100000000E-03 0. -1.
    9900012    2    1    2    0    0  0.20622568691E+02  0.32311699024E+01  0.39917194275E+02  0.46142320994E+02  0.10000029478E+02 0.  0.
         12    1    1    2    0    0 -0.20622568691E+02 -0.32311699024E+01 -0.39917194275E+02  0.45045679006E+02  0.00000000000E+00 0. -1.
         11    1    3    3    0    0  0.10108440669E+02  0.11024512151E+01  0.23769422906E+02  0.25853074033E+02  0.51100000000E-03 0. -1.
        -11    1    3    3    0    0  0.40944309494E+01  0.48653453950E-02  0.11158294815E+02  0.11885786970E+02  0.51100000000E-03 0.  1.
         12    1    3    3    0    0  0.64196970724E+01  0.21238533420E+01  0.49894765546E+01  0.84034599903E+01  0.00000000000E+00 0. -1.
</event>
<event>
 7    1  0.2425980E-008  0.4614232E+02  0.7816164E-02  0.1320468E+00
        -11   -1    0    0    0    0  0.00000000000E+00  0.00000000000E+00  0.45593999997E+02  0.45594000000E+02  0.51100000000E-03 0. -1.
         11   -1    0    0    0    0 -0.00000000000E+00 -0.00000000000E+00 -0.45593999997E+02  0.45594000000E+02  0.51100000000E-03 0.  1.
    9900012    2    1    2    0    0 -0.26241816634E+02  0.29628602556E+02  0.21508754171E+02  0.46142317236E+02  0.99999952119E+01 0.  0.
         12    1    1    2    0    0  0.26241816634E+02 -0.29628602556E+02 -0.21508754171E+02  0.45045682764E+02  0.00000000000E+00 0. -1.
         11    1    3    3    0    0 -0.11034362627E+01  0.75261353343E+00  0.24157004503E+01  0.27603636795E+01  0.51100000000E-03 0. -1.
        -11    1    3    3    0    0 -0.53277969930E+01  0.47241329682E+01  0.75715258996E+00  0.71607355352E+01  0.51100000000E-03 0.  1.
        -12    1    3    3    0    0 -0.19810583378E+02  0.24151856055E+02  0.18335901131E+02  0.36221218021E+02  0.00000000000E+00 0.  1.
</event>
<event>
 7    1  0.2425980E-008  0.4614232E+02  0.7816164E-02  0.1320468E+00
        -11   -1    0    0    0    0  0.00000000000E+00  0.00000000000E+00  0.45593999997E+02  0.45594000000E+02  0.51100000000E-03 0. -1.
         11   -1    0    0    0    0 -0.00000000000E+00 -0.00000000000E+00 -0.45593999997E+02  0.45594000000E+02  0.51100000000E-03 0.  1.
    9900012    2    1    2    0    0  0.66958005770E+01 -0.37889776791E+02  0.23423163357E+02  0.46142317495E+02  0.99999975777E+01 0.  0.
         12    1    1    2    0    0 -0.66958005770E+01  0.37889776791E+02 -0.23423163357E+02  0.45045682505E+02  0.00000000000E+00 0. -1.
         11    1    3    3    0    0  0.70742403864E+01 -0.21184298186E+02  0.11239703718E+02  0.25003005951E+02  0.51100000000E-03 0.  1.
        -11    1    3    3    0    0 -0.13290595012E+00 -0.19137790955E+01  0.34841025747E+01  0.39773339601E+01  0.51100000000E-03 0. -1.
        -12    1    3    3    0    0 -0.24553385920E+00 -0.14791699509E+02  0.86993570649E+01  0.17161977584E+02  0.00000000000E+00 0.  1.
</event>
<event>
 7    1  0.2425980E-008  0.4614232E+02  0.7816164E-02  0.1320468E+00
        -11   -1    0    0    0    0  0.00000000000E+00  0.00000000000E+00  0.45593999997E+02  0.45594000000E+02  0.51100000000E-03 0.  1.
         11   -1    0    0    0    0 -0.00000000000E+00 -0.00000000000E+00 -0.45593999997E+02  0.45594000000E+02  0.51100000000E-03 0. -1.
    9900012    2    1    2    0    0  0.17124496391E+02  0.75686776691E+01  0.40970480344E+02  0.46142317433E+02  0.99999970072E+01 0.  0.
         12    1    1    2    0    0 -0.17124496391E+02 -0.75686776691E+01 -0.40970480344E+02  0.45045682567E+02  0.00000000000E+00 0. -1.
         11    1    3    3    0    0  0.10180820028E+02  0.44375699435E+01  0.20890751274E+02  0.23659345141E+02  0.51100000000E-03 0. -1.
        -11    1    3    3    0    0  0.37884433357E+01  0.23510858208E+01  0.18178954298E+02  0.18717753259E+02  0.51100000000E-03 0.  1.
         12    1    3    3    0    0  0.31552330274E+01  0.78002190493E+00  0.19007747720E+01  0.37652190325E+01  0.00000000000E+00 0. -1.
</event>
<event>
 7    1  0.2425980E-008  0.4614232E+02  0.7816164E-02  0.1320468E+00
        -11   -1    0    0    0    0  0.00000000000E+00  0.00000000000E+00  0.45593999997E+02  0.45594000000E+02  0.51100000000E-03 0.  1.
         11   -1    0    0    0    0 -0.00000000000E+00 -0.00000000000E+00 -0.45593999997E+02  0.45594000000E+02  0.51100000000E-03 0. -1.
    9900012    2    1    2    0    0 -0.47624606650E+01 -0.43828907982E+02 -0.92444271051E+01  0.46142316090E+02  0.99999847587E+01 0.  0.
         12    1    1    2    0    0  0.47624606650E+01  0.43828907982E+02  0.92444271051E+01  0.45045683910E+02  0.00000000000E+00 0. -1.
         11    1    3    3    0    0 -0.20403242050E+01 -0.57271672223E+01 -0.44528676908E+01  0.75360067798E+01  0.51100000000E-03 0. -1.
        -11    1    3    3    0    0 -0.21968217212E+01 -0.28385467663E+02 -0.48219227814E+01  0.28875798512E+02  0.51100000000E-03 0.  1.
        -12    1    3    3    0    0 -0.52531473888E+00 -0.97162730959E+01  0.30363367115E-01  0.97305107977E+01  0.00000000000E+00 0.  1.
</event>
<event>
 7    1  0.2425980E-008  0.4614232E+02  0.7816164E-02  0.1320468E+00
        -11   -1    0    0    0    0  0.00000000000E+00  0.00000000000E+00  0.45593999997E+02  0.45594000000E+02  0.51100000000E-03 0.  1.
         11   -1    0    0    0    0 -0.00000000000E+00 -0.00000000000E+00 -0.45593999997E+02  0.45594000000E+02  0.51100000000E-03 0. -1.
    9900012    2    1    2    0    0  0.16177207377E+02 -0.27659188491E+01  0.41949507221E+02  0.46142317614E+02  0.99999986554E+01 0.  0.
         12    1    1    2    0    0 -0.16177207377E+02  0.27659188491E+01 -0.41949507221E+02  0.45045682386E+02  0.00000000000E+00 0. -1.
         11    1    3    3    0    0  0.80664871763E+01  0.11119551060E+01  0.22181533909E+02  0.23628904045E+02  0.51100000000E-03 0.  1.
        -11    1    3    3    0    0  0.61042810281E+01 -0.54205170945E+01  0.16177288507E+02  0.18120400552E+02  0.51100000000E-03 0. -1.
         12    1    3    3    0    0  0.20064391722E+01  0.15426431395E+01  0.35906848041E+01  0.43930130173E+01  0.00000000000E+00 0. -1.
</event>
<event>
 7    1  0.2425980E-008  0.4614232E+02  0.7816164E-02  0.1320468E+00
        -11   -1    0    0    0    0  0.00000000000E+00  0.00000000000E+00  0.45593999997E+02  0.45594000000E+02  0.51100000000E-03 0.  1.
         11   -1    0    0    0    0 -0.00000000000E+00 -0.00000000000E+00 -0.45593999997E+02  0.45594000000E+02  0.51100000000E-03 0. -1.
    9900012    2    1    2    0    0  0.25175784759E+02  0.10001716072E+02  0.35989703701E+02  0.46142320572E+02  0.10000025631E+02 0.  0.
         12    1    1    2    0    0 -0.25175784759E+02 -0.10001716072E+02 -0.35989703701E+02  0.45045679428E+02  0.00000000000E+00 0. -1.
         11    1    3    3    0    0  0.65982402621E+01  0.43430622024E+00  0.57253528788E+01  0.87467172297E+01  0.51100000000E-03 0. -1.
        -11    1    3    3    0    0  0.94649829787E+01  0.16888943056E+01  0.16567525397E+02  0.19155186368E+02  0.51100000000E-03 0.  1.
        -12    1    3    3    0    0  0.91125615185E+01  0.78785155466E+01  0.13696825426E+02  0.18240416974E+02  0.00000000000E+00 0.  1.
</event>
<event>
 7    1  0.2425980E-008  0.4614232E+02  0.7816164E-02  0.1320468E+00
        -11   -1    0    0    0    0  0.00000000000E+00  0.00000000000E+00  0.45593999997E+02  0.45594000000E+02  0.51100000000E-03 0.  1.
         11   -1    0    0    0    0 -0.00000000000E+00 -0.00000000000E+00 -0.45593999997E+02  0.45594000000E+02  0.51100000000E-03 0. -1.
    9900012    2    1    2    0    0  0.20801654020E+00  0.21740039028E+02  0.39451754833E+02  0.46142317330E+02  0.99999960680E+01 0.  0.
         12    1    1    2    0    0 -0.20801654020E+00 -0.21740039028E+02 -0.39451754833E+02  0.45045682670E+02  0.00000000000E+00 0. -1.
         11    1    3    3    0    0  0.97490354068E+00  0.32502283020E+01  0.28566380917E+01  0.44356287465E+01  0.51100000000E-03 0. -1.
        -11    1    3    3    0    0 -0.82199881415E+00  0.19194956524E+02  0.34414201992E+02  0.39413948509E+02  0.51100000000E-03 0.  1.
        -12    1    3    3    0    0  0.55111813669E-01 -0.70514579809E+00  0.21809147491E+01  0.22927400750E+01  0.00000000000E+00 0.  1.
</event>
<event>
 7    1  0.2425980E-008  0.4614232E+02  0.7816164E-02  0.1320468E+00
        -11   -1    0    0    0    0  0.00000000000E+00  0.00000000000E+00  0.45593999997E+02  0.45594000000E+02  0.51100000000E-03 0. -1.
         11   -1    0    0    0    0 -0.00000000000E+00 -0.00000000000E+00 -0.45593999997E+02  0.45594000000E+02  0.51100000000E-03 0.  1.
    9900012    2    1    2    0    0 -0.35045081452E+02  0.11907839061E+02 -0.25674090375E+02  0.46142320056E+02  0.10000020926E+02 0.  0.
         12    1    1    2    0    0  0.35045081452E+02 -0.11907839061E+02  0.25674090375E+02  0.45045679944E+02  0.00000000000E+00 0. -1.
         11    1    3    3    0    0 -0.11907460114E+02  0.64971814709E+01 -0.13276201615E+02  0.18980476891E+02  0.51100000000E-03 0. -1.
        -11    1    3    3    0    0 -0.10087493937E+02  0.23764615872E+01 -0.78912281128E+01  0.13025996506E+02  0.51100000000E-03 0.  1.
         12    1    3    3    0    0 -0.13050127401E+02  0.30341960025E+01 -0.45066606474E+01  0.14135846659E+02  0.00000000000E+00 0. -1.
</event>
<event>
 7    1  0.2425980E-008  0.4614232E+02  0.7816164E-02  0.1320468E+00
        -11   -1    0    0    0    0  0.00000000000E+00  0.00000000000E+00  0.45593999997E+02  0.45594000000E+02  0.51100000000E-03 0. -1.
         11   -1    0    0    0    0 -0.00000000000E+00 -0.00000000000E+00 -0.45593999997E+02  0.45594000000E+02  0.51100000000E-03 0.  1.
    9900012    2    1    2    0    0 -0.21215456493E+02  0.34278476405E+02 -0.20099849626E+02  0.46142317700E+02  0.99999994462E+01 0.  0.
         12    1    1    2    0    0  0.21215456493E+02 -0.34278476405E+02  0.20099849626E+02  0.45045682300E+02  0.00000000000E+00 0. -1.
         11    1    3    3    0    0 -0.75755334645E+01  0.19789450554E+02 -0.13138884488E+02  0.24932736440E+02  0.51100000000E-03 0.  1.
        -11    1    3    3    0    0 -0.36624280328E+01  0.48938398470E+01 -0.12716425933E+01  0.62434063370E+01  0.51100000000E-03 0. -1.
        -12    1    3    3    0    0 -0.99774949953E+01  0.95951860038E+01 -0.56893225446E+01  0.14966174924E+02  0.00000000000E+00 0.  1.
</event>
<event>
 7    1  0.2425980E-008  0.4614232E+02  0.7816164E-02  0.1320468E+00
        -11   -1    0    0    0    0  0.00000000000E+00  0.00000000000E+00  0.45593999997E+02  0.45594000000E+02  0.51100000000E-03 0. -1.
         11   -1    0    0    0    0 -0.00000000000E+00 -0.00000000000E+00 -0.45593999997E+02  0.45594000000E+02  0.51100000000E-03 0.  1.
    9900012    2    1    2    0    0  0.18199840469E+02  0.16849125032E+02 -0.37603008771E+02  0.46142317898E+02  0.10000001250E+02 0.  0.
         12    1    1    2    0    0 -0.18199840469E+02 -0.16849125032E+02  0.37603008771E+02  0.45045682102E+02  0.00000000000E+00 0. -1.
         11    1    3    3    0    0 -0.17238799461E+00 -0.54939238729E+00 -0.58067488504E+00  0.81776108927E+00  0.51100000000E-03 0. -1.
        -11    1    3    3    0    0  0.10268108137E+02  0.98188831973E+01 -0.26311595789E+02  0.29902250504E+02  0.51100000000E-03 0.  1.
        -12    1    3    3    0    0  0.81041203264E+01  0.75796342217E+01 -0.10710738096E+02  0.15422306305E+02  0.00000000000E+00 0.  1.
</event>
<event>
 7    1  0.2425980E-008  0.4614232E+02  0.7816164E-02  0.1320468E+00
        -11   -1    0    0    0    0  0.00000000000E+00  0.00000000000E+00  0.45593999997E+02  0.45594000000E+02  0.51100000000E-03 0.  1.
         11   -1    0    0    0    0 -0.00000000000E+00 -0.00000000000E+00 -0.45593999997E+02  0.45594000000E+02  0.51100000000E-03 0. -1.
    9900012    2    1    2    0    0  0.92541497089E+01 -0.28243070060E+02 -0.33849715212E+02  0.46142317485E+02  0.99999974832E+01 0.  0.
         12    1    1    2    0    0 -0.92541497089E+01  0.28243070060E+02  0.33849715212E+02  0.45045682515E+02  0.00000000000E+00 0. -1.
         11    1    3    3    0    0  0.32036856092E+01 -0.64164076839E+01 -0.84885874869E+01  0.11112605762E+02  0.51100000000E-03 0. -1.
        -11    1    3    3    0    0  0.74039482766E+01 -0.11164411354E+02 -0.13366124444E+02  0.18923948157E+02  0.51100000000E-03 0.  1.
         12    1    3    3    0    0 -0.13534841768E+01 -0.10662251023E+02 -0.11995003282E+02  0.16105763565E+02  0.00000000000E+00 0. -1.
</event>
<event>
 7    1  0.2425980E-008  0.4614231E+02  0.7816164E-02  0.1320468E+00
        -11   -1    0    0    0    0  0.00000000000E+00  0.00000000000E+00  0.45593999997E+02  0.45594000000E+02  0.51100000000E-03 0.  1.
         11   -1    0    0    0    0 -0.00000000000E+00 -0.00000000000E+00 -0.45593999997E+02  0.45594000000E+02  0.51100000000E-03 0. -1.
    9900012    2    1    2    0    0  0.10637152288E+01  0.17697836386E+02  0.41409771980E+02  0.46142310769E+02  0.99999362399E+01 0.  0.
         12    1    1    2    0    0 -0.10637152288E+01 -0.17697836386E+02 -0.41409771980E+02  0.45045689231E+02  0.00000000000E+00 0. -1.
         11    1    3    3    0    0  0.13997026924E+01  0.57108850998E+01  0.13418806576E+02  0.14650520347E+02  0.51100000000E-03 0. -1.
        -11    1    3    3    0    0  0.19173117566E+01 -0.16270956995E+00  0.55436081011E+01  0.58680618449E+01  0.51100000000E-03 0.  1.
         12    1    3    3    0    0 -0.22532992201E+01  0.12149660856E+02  0.22447357304E+02  0.25623728578E+02  0.00000000000E+00 0. -1.
</event>
<event>
 7    1  0.2425980E-008  0.4614232E+02  0.7816164E-02  0.1320468E+00
        -11   -1    0    0    0    0  0.00000000000E+00  0.00000000000E+00  0.45593999997E+02  0.45594000000E+02  0.51100000000E-03 0.  1.
         11   -1    0    0    0    0 -0.00000000000E+00 -0.00000000000E+00 -0.45593999997E+02  0.45594000000E+02  0.51100000000E-03 0. -1.
    9900012    2    1    2    0    0 -0.19148727435E+02  0.79209908321E+01  0.39996221101E+02  0.46142316961E+02  0.99999927015E+01 0.  0.
         12    1    1    2    0    0  0.19148727435E+02 -0.79209908321E+01 -0.39996221101E+02  0.45045683039E+02  0.00000000000E+00 0. -1.
         11    1    3    3    0    0 -0.57048931673E+01 -0.88679059790E+00  0.95635232619E+01  0.11171086834E+02  0.51100000000E-03 0. -1.
        -11    1    3    3    0    0 -0.13789609277E+01  0.21703924548E+01  0.16255660903E+01  0.30421377390E+01  0.51100000000E-03 0.  1.
        -12    1    3    3    0    0 -0.12064873340E+02  0.66373889752E+01  0.28807131748E+02  0.31929092387E+02  0.00000000000E+00 0.  1.
</event>
<event>
 7    1  0.2425980E-008  0.4614232E+02  0.7816164E-02  0.1320468E+00
        -11   -1    0    0    0    0  0.00000000000E+00  0.00000000000E+00  0.45593999997E+02  0.45594000000E+02  0.51100000000E-03 0.  1.
         11   -1    0    0    0    0 -0.00000000000E+00 -0.00000000000E+00 -0.45593999997E+02  0.45594000000E+02  0.51100000000E-03 0. -1.
    9900012    2    1    2    0    0  0.16405807390E+02 -0.64454144900E+01  0.41453823177E+02  0.46142319407E+02  0.10000015008E+02 0.  0.
         12    1    1    2    0    0 -0.16405807390E+02  0.64454144900E+01 -0.41453823177E+02  0.45045680593E+02  0.00000000000E+00 0. -1.
         11    1    3    3    0    0  0.31935171099E+01 -0.26124382229E+01  0.14443917735E+02  0.15021655860E+02  0.51100000000E-03 0. -1.
        -11    1    3    3    0    0  0.72334655834E+01 -0.52107338652E+01  0.19362408070E+02  0.21316135163E+02  0.51100000000E-03 0.  1.
         12    1    3    3    0    0  0.59788246971E+01  0.13777575981E+01  0.76474973723E+01  0.98045283832E+01  0.00000000000E+00 0. -1.
</event>
<event>
 7    1  0.2425980E-008  0.4614232E+02  0.7816164E-02  0.1320468E+00
        -11   -1    0    0    0    0  0.00000000000E+00  0.00000000000E+00  0.45593999997E+02  0.45594000000E+02  0.51100000000E-03 0.  1.
         11   -1    0    0    0    0 -0.00000000000E+00 -0.00000000000E+00 -0.45593999997E+02  0.45594000000E+02  0.51100000000E-03 0. -1.
    9900012    2    1    2    0    0  0.39892815610E+01 -0.25790292776E+02  0.36715936250E+02  0.46142317149E+02  0.99999944188E+01 0.  0.
         12    1    1    2    0    0 -0.39892815610E+01  0.25790292776E+02 -0.36715936250E+02  0.45045682851E+02  0.00000000000E+00 0. -1.
         11    1    3    3    0    0 -0.12294879391E+01 -0.79083200191E+01  0.15132418433E+02  0.17118506185E+02  0.51100000000E-03 0. -1.
        -11    1    3    3    0    0  0.17320479807E+01 -0.54839600929E+01  0.32104909019E+01  0.65864300346E+01  0.51100000000E-03 0.  1.
        -12    1    3    3    0    0  0.34867215194E+01 -0.12398012664E+02  0.18373026914E+02  0.22437380929E+02  0.00000000000E+00 0.  1.
</event>
<event>
 7    1  0.2425980E-008  0.4614232E+02  0.7816164E-02  0.1320468E+00
        -11   -1    0    0    0    0  0.00000000000E+00  0.00000000000E+00  0.45593999997E+02  0.45594000000E+02  0.51100000000E-03 0.  1.
         11   -1    0    0    0    0 -0.00000000000E+00 -0.00000000000E+00 -0.45593999997E+02  0.45594000000E+02  0.51100000000E-03 0. -1.
    9900012    2    1    2    0    0 -0.15752794561E+02 -0.45420961745E+01  0.41956313950E+02  0.46142318138E+02  0.10000003438E+02 0.  0.
         12    1    1    2    0    0  0.15752794561E+02  0.45420961745E+01 -0.41956313950E+02  0.45045681862E+02  0.00000000000E+00 0. -1.
         11    1    3    3    0    0 -0.41209754850E+01 -0.10878999375E+01  0.60143204438E+01  0.73714324174E+01  0.51100000000E-03 0. -1.
        -11    1    3    3    0    0 -0.10209024542E+02 -0.13802780622E+01  0.18730855946E+02  0.21376957556E+02  0.51100000000E-03 0.  1.
        -12    1    3    3    0    0 -0.14227945340E+01 -0.20739181749E+01  0.17211137560E+02  0.17393928165E+02  0.00000000000E+00 0.  1.
</event>
<event>
 7    1  0.2425980E-008  0.4614232E+02  0.7816164E-02  0.1320468E+00
        -11   -1    0    0    0    0  0.00000000000E+00  0.00000000000E+00  0.45593999997E+02  0.45594000000E+02  0.51100000000E-03 0.  1.
         11   -1    0    0    0    0 -0.00000000000E+00 -0.00000000000E+00 -0.45593999997E+02  0.45594000000E+02  0.51100000000E-03 0. -1.
    9900012    2    1    2    0    0 -0.24435314215E+02 -0.23298348627E+02  0.29819723088E+02  0.46142317470E+02  0.99999973478E+01 0.  0.
         12    1    1    2    0    0  0.24435314215E+02  0.23298348627E+02 -0.29819723088E+02  0.45045682530E+02  0.00000000000E+00 0. -1.
         11    1    3    3    0    0 -0.83435349802E+01 -0.37985387313E+01  0.61511788483E+01  0.11039949001E+02  0.51100000000E-03 0. -1.
        -11    1    3    3    0    0 -0.14679835585E+02 -0.18989234624E+02  0.23501296431E+02  0.33591658765E+02  0.51100000000E-03 0.  1.
        -12    1    3    3    0    0 -0.14119436506E+01 -0.51057527139E+00  0.16724780823E+00  0.15107097039E+01  0.00000000000E+00 0.  1.
</event>
<event>
 7    1  0.2425980E-008  0.4614232E+02  0.7816164E-02  0.1320468E+00
        -11   -1    0    0    0    0  0.00000000000E+00  0.00000000000E+00  0.45593999997E+02  0.45594000000E+02  0.51100000000E-03 0.  1.
         11   -1    0    0    0    0 -0.00000000000E+00 -0.00000000000E+00 -0.45593999997E+02  0.45594000000E+02  0.51100000000E-03 0. -1.
    9900012    2    1    2    0    0 -0.30213686157E+02 -0.76065891169E+01  0.32532851838E+02  0.46142317877E+02  0.10000001058E+02 0.  0.
         12    1    1    2    0    0  0.30213686157E+02  0.76065891169E+01 -0.32532851838E+02  0.45045682123E+02  0.00000000000E+00 0. -1.
         11    1    3    3    0    0 -0.79248512407E+01 -0.18445083812E+00  0.10722767487E+02  0.13334730299E+02  0.51100000000E-03 0.  1.
        -11    1    3    3    0    0 -0.41009834428E+01  0.12679842353E+01  0.47262493188E+01  0.63846129172E+01  0.51100000000E-03 0. -1.
        -12    1    3    3    0    0 -0.18187851473E+02 -0.86901225140E+01  0.17083835033E+02  0.26422974661E+02  0.00000000000E+00 0.  1.
</event>
<event>
 7    1  0.2425980E-008  0.4614232E+02  0.7816164E-02  0.1320468E+00
        -11   -1    0    0    0    0  0.00000000000E+00  0.00000000000E+00  0.45593999997E+02  0.45594000000E+02  0.51100000000E-03 0.  1.
         11   -1    0    0    0    0 -0.00000000000E+00 -0.00000000000E+00 -0.45593999997E+02  0.45594000000E+02  0.51100000000E-03 0. -1.
    9900012    2    1    2    0    0  0.21984671038E+02 -0.38283296233E+01  0.39129677017E+02  0.46142317723E+02  0.99999996554E+01 0.  0.
         12    1    1    2    0    0 -0.21984671038E+02  0.38283296233E+01 -0.39129677017E+02  0.45045682277E+02  0.00000000000E+00 0. -1.
         11    1    3    3    0    0  0.15269582481E+01  0.31688488449E+00  0.26158889505E-01  0.15597121754E+01  0.51100000000E-03 0. -1.
        -11    1    3    3    0    0  0.71180253849E+00 -0.11034738102E+01  0.14444381091E+01  0.19521063024E+01  0.51100000000E-03 0.  1.
        -12    1    3    3    0    0  0.19745910251E+02 -0.30417406976E+01  0.37659080018E+02  0.42630499245E+02  0.00000000000E+00 0.  1.
</event>
<event>
 7    1  0.1993300E-007  0.4614232E+02  0.7816164E-02  0.1320468E+00
        -11   -1    0    0    0    0  0.00000000000E+00  0.00000000000E+00  0.45593999997E+02  0.45594000000E+02  0.51100000000E-03 0.  1.
         11   -1    0    0    0    0 -0.00000000000E+00 -0.00000000000E+00 -0.45593999997E+02  0.45594000000E+02  0.51100000000E-03 0. -1.
    9900012    2    1    2    0    0 -0.10789933720E+02  0.19396668908E+02  0.39197707435E+02  0.46142315384E+02  0.99999783239E+01 0.  0.
         12    1    1    2    0    0  0.10789933720E+02 -0.19396668908E+02 -0.39197707435E+02  0.45045684616E+02  0.00000000000E+00 0. -1.
         11    1    3    3    0    0 -0.26751135281E+00  0.24002848658E+01  0.48961785256E+01  0.54594408300E+01  0.51100000000E-03 0. -1.
        -11    1    3    3    0    0 -0.81856233855E+01  0.16441805611E+02  0.33401235635E+02  0.38117974031E+02  0.51100000000E-03 0.  1.
         12    1    3    3    0    0 -0.23367989816E+01  0.55457843042E+00  0.90029327358E+00  0.25649005233E+01  0.00000000000E+00 0. -1.
</event>
<event>
 7    1  0.2425980E-008  0.4614232E+02  0.7816164E-02  0.1320468E+00
        -11   -1    0    0    0    0  0.00000000000E+00  0.00000000000E+00  0.45593999997E+02  0.45594000000E+02  0.51100000000E-03 0.  1.
         11   -1    0    0    0    0 -0.00000000000E+00 -0.00000000000E+00 -0.45593999997E+02  0.45594000000E+02  0.51100000000E-03 0. -1.
    9900012    2    1    2    0    0  0.30181505704E+02  0.33330388215E+02 -0.26973057984E+01  0.46142317369E+02  0.99999964235E+01 0.  0.
         12    1    1    2    0    0 -0.30181505704E+02 -0.33330388215E+02  0.26973057984E+01  0.45045682631E+02  0.00000000000E+00 0. -1.
         11    1    3    3    0    0  0.62190336629E+01  0.12238329968E+02 -0.24329366343E+00  0.13729977865E+02  0.51100000000E-03 0. -1.
        -11    1    3    3    0    0  0.64499359577E+01  0.64504519987E+01  0.15033012879E+01  0.92449943142E+01  0.51100000000E-03 0.  1.
         12    1    3    3    0    0  0.17512536084E+02  0.14641606248E+02 -0.39573134229E+01  0.23167345189E+02  0.00000000000E+00 0. -1.
</event>
<event>
 7    1  0.2425980E-008  0.4614232E+02  0.7816164E-02  0.1320468E+00
        -11   -1    0    0    0    0  0.00000000000E+00  0.00000000000E+00  0.45593999997E+02  0.45594000000E+02  0.51100000000E-03 0.  1.
         11   -1    0    0    0    0 -0.00000000000E+00 -0.00000000000E+00 -0.45593999997E+02  0.45594000000E+02  0.51100000000E-03 0. -1.
    9900012    2    1    2    0    0  0.25825221018E+02  0.32791836575E+02  0.16937145631E+02  0.46142317757E+02  0.99999999664E+01 0.  0.
         12    1    1    2    0    0 -0.25825221018E+02 -0.32791836575E+02 -0.16937145631E+02  0.45045682243E+02  0.00000000000E+00 0. -1.
         11    1    3    3    0    0  0.12877003743E+02  0.21559135115E+02  0.10632718128E+02  0.27270281029E+02  0.51100000000E-03 0. -1.
        -11    1    3    3    0    0  0.77654496027E+01  0.95564514701E+01  0.38875278736E+01  0.12912817100E+02  0.51100000000E-03 0.  1.
         12    1    3    3    0    0  0.51827676718E+01  0.16762499898E+01  0.24168996289E+01  0.59592196287E+01  0.00000000000E+00 0. -1.
</event>
<event>
 7    1  0.2425980E-008  0.4614232E+02  0.7816164E-02  0.1320468E+00
        -11   -1    0    0    0    0  0.00000000000E+00  0.00000000000E+00  0.45593999997E+02  0.45594000000E+02  0.51100000000E-03 0.  1.
         11   -1    0    0    0    0 -0.00000000000E+00 -0.00000000000E+00 -0.45593999997E+02  0.45594000000E+02  0.51100000000E-03 0. -1.
    9900012    2    1    2    0    0  0.25334245167E+02 -0.34023729080E+02  0.15155044500E+02  0.46142317715E+02  0.99999995830E+01 0.  0.
         12    1    1    2    0    0 -0.25334245167E+02  0.34023729080E+02 -0.15155044500E+02  0.45045682285E+02  0.00000000000E+00 0. -1.
         11    1    3    3    0    0  0.20799484358E+01 -0.60471016032E+01  0.34681914734E+01  0.72747491814E+01  0.51100000000E-03 0.  1.
        -11    1    3    3    0    0  0.93534652251E-01 -0.16011524263E+01  0.17783312134E+01  0.23947651219E+01  0.51100000000E-03 0. -1.
        -12    1    3    3    0    0  0.23160762079E+02 -0.26375475051E+02  0.99085218136E+01  0.36472803412E+02  0.00000000000E+00 0.  1.
</event>
<event>
 7    1  0.2425980E-008  0.4614231E+02  0.7816164E-02  0.1320468E+00
        -11   -1    0    0    0    0  0.00000000000E+00  0.00000000000E+00  0.45593999997E+02  0.45594000000E+02  0.51100000000E-03 0.  1.
         11   -1    0    0    0    0 -0.00000000000E+00 -0.00000000000E+00 -0.45593999997E+02  0.45594000000E+02  0.51100000000E-03 0. -1.
    9900012    2    1    2    0    0 -0.39025124848E+02 -0.12239195665E+01  0.22464550764E+02  0.46142307759E+02  0.99999087900E+01 0.  0.
         12    1    1    2    0    0  0.39025124848E+02  0.12239195665E+01 -0.22464550764E+02  0.45045692241E+02  0.00000000000E+00 0. -1.
         11    1    3    3    0    0 -0.13152962043E+01 -0.20407861001E-01 -0.67469544867E+00  0.14783892571E+01  0.51100000000E-03 0. -1.
        -11    1    3    3    0    0 -0.23151813539E+02 -0.36498070072E+01  0.14458837767E+02  0.27538800830E+02  0.51100000000E-03 0.  1.
         12    1    3    3    0    0 -0.14558015105E+02  0.24462953017E+01  0.86804084454E+01  0.17125117672E+02  0.00000000000E+00 0. -1.
</event>
<event>
 7    1  0.2425980E-008  0.4614232E+02  0.7816164E-02  0.1320468E+00
        -11   -1    0    0    0    0  0.00000000000E+00  0.00000000000E+00  0.45593999997E+02  0.45594000000E+02  0.51100000000E-03 0.  1.
         11   -1    0    0    0    0 -0.00000000000E+00 -0.00000000000E+00 -0.45593999997E+02  0.45594000000E+02  0.51100000000E-03 0. -1.
    9900012    2    1    2    0    0 -0.34731305858E+00 -0.32197217571E+02  0.31501302686E+02  0.46142317448E+02  0.99999971417E+01 0.  0.
         12    1    1    2    0    0  0.34731305858E+00  0.32197217571E+02 -0.31501302686E+02  0.45045682552E+02  0.00000000000E+00 0. -1.
         11    1    3    3    0    0 -0.77562550653E+00 -0.44537978716E+00  0.18467000355E+01  0.20518916549E+01  0.51100000000E-03 0. -1.
        -11    1    3    3    0    0  0.35186875348E+01 -0.90922069503E+01  0.83919017255E+01  0.12863646607E+02  0.51100000000E-03 0.  1.
        -12    1    3    3    0    0 -0.30903750868E+01 -0.22659630833E+02  0.21262700925E+02  0.31226779186E+02  0.00000000000E+00 0.  1.
</event>
<event>
 7    1  0.2425980E-008  0.4614232E+02  0.7816164E-02  0.1320468E+00
        -11   -1    0    0    0    0  0.00000000000E+00  0.00000000000E+00  0.45593999997E+02  0.45594000000E+02  0.51100000000E-03 0. -1.
         11   -1    0    0    0    0 -0.00000000000E+00 -0.00000000000E+00 -0.45593999997E+02  0.45594000000E+02  0.51100000000E-03 0.  1.
    9900012    2    1    2    0    0  0.14546760818E+01 -0.30861383796E+02 -0.32780672262E+02  0.46142316897E+02  0.99999921206E+01 0.  0.
         12    1    1    2    0    0 -0.14546760818E+01  0.30861383796E+02  0.32780672262E+02  0.45045683103E+02  0.00000000000E+00 0. -1.
         11    1    3    3    0    0 -0.73009229707E+00 -0.17884604175E+01 -0.34357342418E+01  0.39415600298E+01  0.51100000000E-03 0. -1.
        -11    1    3    3    0    0  0.49982353925E+01 -0.15242102883E+02 -0.13352775718E+02  0.20871048776E+02  0.51100000000E-03 0.  1.
        -12    1    3    3    0    0 -0.28134670136E+01 -0.13830820495E+02 -0.15992162301E+02  0.21329708092E+02  0.00000000000E+00 0.  1.
</event>
<event>
 7    1  0.2425980E-008  0.4614232E+02  0.7816164E-02  0.1320468E+00
        -11   -1    0    0    0    0  0.00000000000E+00  0.00000000000E+00  0.45593999997E+02  0.45594000000E+02  0.51100000000E-03 0.  1.
         11   -1    0    0    0    0 -0.00000000000E+00 -0.00000000000E+00 -0.45593999997E+02  0.45594000000E+02  0.51100000000E-03 0. -1.
    9900012    2    1    2    0    0 -0.15301968615E+02 -0.12806461744E+02  0.40385118759E+02  0.46142317376E+02  0.99999964883E+01 0.  0.
         12    1    1    2    0    0  0.15301968615E+02  0.12806461744E+02 -0.40385118759E+02  0.45045682624E+02  0.00000000000E+00 0. -1.
         11    1    3    3    0    0 -0.38118743156E+01 -0.10145522159E+01  0.39670705563E+01  0.55944035479E+01  0.51100000000E-03 0. -1.
        -11    1    3    3    0    0 -0.54074099806E+01 -0.44456529584E+01  0.83086814181E+01  0.10864534049E+02  0.51100000000E-03 0.  1.
        -12    1    3    3    0    0 -0.60826843186E+01 -0.73462565698E+01  0.28109366784E+02  0.29683379780E+02  0.00000000000E+00 0.  1.
</event>
<event>
 7    1  0.2425980E-008  0.4614232E+02  0.7816164E-02  0.1320468E+00
        -11   -1    0    0    0    0  0.00000000000E+00  0.00000000000E+00  0.45593999997E+02  0.45594000000E+02  0.51100000000E-03 0.  1.
         11   -1    0    0    0    0 -0.00000000000E+00 -0.00000000000E+00 -0.45593999997E+02  0.45594000000E+02  0.51100000000E-03 0. -1.
    9900012    2    1    2    0    0 -0.43113329789E+02 -0.12989918189E+02  0.12713645510E+01  0.46142317101E+02  0.99999939788E+01 0.  0.
         12    1    1    2    0    0  0.43113329789E+02  0.12989918189E+02 -0.12713645510E+01  0.45045682899E+02  0.00000000000E+00 0. -1.
         11    1    3    3    0    0 -0.34985190243E+01  0.11603587082E+01  0.15082820560E+00  0.36890130257E+01  0.51100000000E-03 0. -1.
        -11    1    3    3    0    0 -0.32516723901E+02 -0.13516577948E+02  0.20113254254E+01  0.35271527368E+02  0.51100000000E-03 0.  1.
        -12    1    3    3    0    0 -0.70980868635E+01 -0.63369894942E+00 -0.89078908000E+00  0.71817767067E+01  0.00000000000E+00 0.  1.
</event>
<event>
 7    1  0.2425980E-008  0.4614232E+02  0.7816164E-02  0.1320468E+00
        -11   -1    0    0    0    0  0.00000000000E+00  0.00000000000E+00  0.45593999997E+02  0.45594000000E+02  0.51100000000E-03 0.  1.
         11   -1    0    0    0    0 -0.00000000000E+00 -0.00000000000E+00 -0.45593999997E+02  0.45594000000E+02  0.51100000000E-03 0. -1.
    9900012    2    1    2    0    0  0.28076501933E+02  0.21516182009E+02  0.27890452982E+02  0.46142318558E+02  0.10000007271E+02 0.  0.
         12    1    1    2    0    0 -0.28076501933E+02 -0.21516182009E+02 -0.27890452982E+02  0.45045681442E+02  0.00000000000E+00 0. -1.
         11    1    3    3    0    0  0.56659733720E+01  0.43697966568E+01  0.25472148134E+01  0.75951748262E+01  0.51100000000E-03 0. -1.
        -11    1    3    3    0    0  0.15872478526E+02  0.84694685451E+01  0.13628487910E+02  0.22569961342E+02  0.51100000000E-03 0.  1.
         12    1    3    3    0    0  0.65380500350E+01  0.86769168069E+01  0.11714750258E+02  0.15977182390E+02  0.00000000000E+00 0. -1.
</event>
<event>
 7    1  0.2425980E-008  0.4614232E+02  0.7816164E-02  0.1320468E+00
        -11   -1    0    0    0    0  0.00000000000E+00  0.00000000000E+00  0.45593999997E+02  0.45594000000E+02  0.51100000000E-03 0.  1.
         11   -1    0    0    0    0 -0.00000000000E+00 -0.00000000000E+00 -0.45593999997E+02  0.45594000000E+02  0.51100000000E-03 0. -1.
    9900012    2    1    2    0    0  0.28996505360E+02 -0.31952655952E+02  0.12936148692E+02  0.46142317760E+02  0.99999999883E+01 0.  0.
         12    1    1    2    0    0 -0.28996505360E+02  0.31952655952E+02 -0.12936148692E+02  0.45045682240E+02  0.00000000000E+00 0. -1.
         11    1    3    3    0    0  0.83717604312E+01 -0.91571693496E+01  0.33141767852E+01  0.12842269707E+02  0.51100000000E-03 0. -1.
        -11    1    3    3    0    0  0.17696406933E+02 -0.15528728451E+02  0.97037691547E+01  0.25465022319E+02  0.51100000000E-03 0.  1.
         12    1    3    3    0    0  0.29283379963E+01 -0.72667581517E+01 -0.81797247695E-01  0.78350257336E+01  0.00000000000E+00 0. -1.
</event>
<event>
 7    1  0.2425980E-008  0.4614232E+02  0.7816164E-02  0.1320468E+00
        -11   -1    0    0    0    0  0.00000000000E+00  0.00000000000E+00  0.45593999997E+02  0.45594000000E+02  0.51100000000E-03 0. -1.
         11   -1    0    0    0    0 -0.00000000000E+00 -0.00000000000E+00 -0.45593999997E+02  0.45594000000E+02  0.51100000000E-03 0.  1.
    9900012    2    1    2    0    0 -0.18855095516E+02 -0.26766276040E+02 -0.30938092554E+02  0.46142315070E+02  0.99999754584E+01 0.  0.
         12    1    1    2    0    0  0.18855095516E+02  0.26766276040E+02  0.30938092554E+02  0.45045684930E+02  0.00000000000E+00 0. -1.
         11    1    3    3    0    0  0.55929429430E-01  0.18517794000E+00 -0.94009329092E+00  0.95978884516E+00  0.51100000000E-03 0. -1.
        -11    1    3    3    0    0 -0.10318719867E+02 -0.10510849045E+02 -0.17203724360E+02  0.22647782661E+02  0.51100000000E-03 0.  1.
         12    1    3    3    0    0 -0.85923050790E+01 -0.16440604935E+02 -0.12794274902E+02  0.22534743564E+02  0.00000000000E+00 0. -1.
</event>
<event>
 7    1  0.2425980E-008  0.4614232E+02  0.7816164E-02  0.1320468E+00
        -11   -1    0    0    0    0  0.00000000000E+00  0.00000000000E+00  0.45593999997E+02  0.45594000000E+02  0.51100000000E-03 0.  1.
         11   -1    0    0    0    0 -0.00000000000E+00 -0.00000000000E+00 -0.45593999997E+02  0.45594000000E+02  0.51100000000E-03 0. -1.
    9900012    2    1    2    0    0 -0.25062263627E+00  0.28256128110E+02  0.35080505655E+02  0.46142318026E+02  0.10000002420E+02 0.  0.
         12    1    1    2    0    0  0.25062263627E+00 -0.28256128110E+02 -0.35080505655E+02  0.45045681974E+02  0.00000000000E+00 0. -1.
         11    1    3    3    0    0  0.20728305541E+01  0.13654965534E+02  0.23361440999E+02  0.27138747872E+02  0.51100000000E-03 0. -1.
        -11    1    3    3    0    0  0.89494502397E-01  0.16977493401E+00  0.58972495185E+00  0.62016818214E+00  0.51100000000E-03 0.  1.
         12    1    3    3    0    0 -0.24129476928E+01  0.14431387642E+02  0.11129339704E+02  0.18383401973E+02  0.00000000000E+00 0. -1.
</event>
<event>
 7    1  0.2425980E-008  0.4614232E+02  0.7816164E-02  0.1320468E+00
        -11   -1    0    0    0    0  0.00000000000E+00  0.00000000000E+00  0.45593999997E+02  0.45594000000E+02  0.51100000000E-03 0.  1.
         11   -1    0    0    0    0 -0.00000000000E+00 -0.00000000000E+00 -0.45593999997E+02  0.45594000000E+02  0.51100000000E-03 0. -1.
    9900012    2    1    2    0    0  0.19906763011E+02  0.95122440427E+00  0.40397146758E+02  0.46142317547E+02  0.99999980517E+01 0.  0.
         12    1    1    2    0    0 -0.19906763011E+02 -0.95122440427E+00 -0.40397146758E+02  0.45045682453E+02  0.00000000000E+00 0. -1.
         11    1    3    3    0    0  0.41144021401E+01 -0.55013564975E+00  0.32830159131E+01  0.52923669516E+01  0.51100000000E-03 0. -1.
        -11    1    3    3    0    0  0.13629893599E+02 -0.41589738760E+00  0.33832394727E+02  0.36477087376E+02  0.51100000000E-03 0.  1.
        -12    1    3    3    0    0  0.21624672717E+01  0.19172574416E+01  0.32817361175E+01  0.43728632203E+01  0.00000000000E+00 0.  1.
</event>
<event>
 7    1  0.2425980E-008  0.4614232E+02  0.7816164E-02  0.1320468E+00
        -11   -1    0    0    0    0  0.00000000000E+00  0.00000000000E+00  0.45593999997E+02  0.45594000000E+02  0.51100000000E-03 0. -1.
         11   -1    0    0    0    0 -0.00000000000E+00 -0.00000000000E+00 -0.45593999997E+02  0.45594000000E+02  0.51100000000E-03 0.  1.
    9900012    2    1    2    0    0 -0.23524503854E+01 -0.31477888158E+02  0.32135996145E+02  0.46142315258E+02  0.99999771720E+01 0.  0.
         12    1    1    2    0    0  0.23524503854E+01  0.31477888158E+02 -0.32135996145E+02  0.45045684742E+02  0.00000000000E+00 0. -1.
         11    1    3    3    0    0 -0.18781846253E+01 -0.21842769889E+01  0.33145673625E+01  0.43914690609E+01  0.51100000000E-03 0. -1.
        -11    1    3    3    0    0 -0.37780903093E+01 -0.12112607872E+02  0.12922970396E+02  0.18110560454E+02  0.51100000000E-03 0.  1.
        -12    1    3    3    0    0  0.33038245492E+01 -0.17181003297E+02  0.15898458386E+02  0.23640285743E+02  0.00000000000E+00 0.  1.
</event>
<event>
 7    1  0.2425980E-008  0.4614232E+02  0.7816164E-02  0.1320468E+00
        -11   -1    0    0    0    0  0.00000000000E+00  0.00000000000E+00  0.45593999997E+02  0.45594000000E+02  0.51100000000E-03 0.  1.
         11   -1    0    0    0    0 -0.00000000000E+00 -0.00000000000E+00 -0.45593999997E+02  0.45594000000E+02  0.51100000000E-03 0. -1.
    9900012    2    1    2    0    0  0.34663375489E+02  0.19764899640E+02  0.20902453485E+02  0.46142318522E+02  0.10000006942E+02 0.  0.
         12    1    1    2    0    0 -0.34663375489E+02 -0.19764899640E+02 -0.20902453485E+02  0.45045681478E+02  0.00000000000E+00 0. -1.
         11    1    3    3    0    0  0.14225696703E+01  0.77315833733E+00  0.17465545175E+01  0.23815816646E+01  0.51100000000E-03 0. -1.
        -11    1    3    3    0    0  0.66587731642E+01  0.83484852232E+01  0.44145286208E+01  0.11555281424E+02  0.51100000000E-03 0.  1.
         12    1    3    3    0    0  0.26582032654E+02  0.10643256080E+02  0.14741370347E+02  0.32205455434E+02  0.00000000000E+00 0. -1.
</event>
<event>
 7    1  0.2425980E-008  0.4614232E+02  0.7816164E-02  0.1320468E+00
        -11   -1    0    0    0    0  0.00000000000E+00  0.00000000000E+00  0.45593999997E+02  0.45594000000E+02  0.51100000000E-03 0.  1.
         11   -1    0    0    0    0 -0.00000000000E+00 -0.00000000000E+00 -0.45593999997E+02  0.45594000000E+02  0.51100000000E-03 0. -1.
    9900012    2    1    2    0    0 -0.10792197337E+02 -0.17703484182E+02  0.39990356847E+02  0.46142317451E+02  0.99999971749E+01 0.  0.
         12    1    1    2    0    0  0.10792197337E+02  0.17703484182E+02 -0.39990356847E+02  0.45045682549E+02  0.00000000000E+00 0. -1.
         11    1    3    3    0    0 -0.43916269306E+01 -0.58757774330E+01  0.11070789909E+02  0.13280569906E+02  0.51100000000E-03 0. -1.
        -11    1    3    3    0    0 -0.38510266793E+01 -0.38871469462E+00  0.65533890216E+01  0.76110717726E+01  0.51100000000E-03 0.  1.
         12    1    3    3    0    0 -0.25495437275E+01 -0.11438992054E+02  0.22366177916E+02  0.25250675773E+02  0.00000000000E+00 0. -1.
</event>
<event>
 7    1  0.2425980E-008  0.4614232E+02  0.7816164E-02  0.1320468E+00
        -11   -1    0    0    0    0  0.00000000000E+00  0.00000000000E+00  0.45593999997E+02  0.45594000000E+02  0.51100000000E-03 0.  1.
         11   -1    0    0    0    0 -0.00000000000E+00 -0.00000000000E+00 -0.45593999997E+02  0.45594000000E+02  0.51100000000E-03 0. -1.
    9900012    2    1    2    0    0  0.40781806804E+01 -0.21963584160E+02  0.39116266708E+02  0.46142324203E+02  0.10000058744E+02 0.  0.
         12    1    1    2    0    0 -0.40781806804E+01  0.21963584160E+02 -0.39116266708E+02  0.45045675797E+02  0.00000000000E+00 0. -1.
         11    1    3    3    0    0  0.49025390765E+00 -0.17492818400E+02  0.26707009073E+02  0.31929662986E+02  0.51100000000E-03 0. -1.
        -11    1    3    3    0    0  0.11575029488E+01 -0.28038462891E+01  0.98596825224E+01  0.10315750423E+02  0.51100000000E-03 0.  1.
         12    1    3    3    0    0  0.24304238240E+01 -0.16669194705E+01  0.25495751122E+01  0.38969107943E+01  0.00000000000E+00 0. -1.
</event>
<event>
 7    1  0.2425980E-008  0.4614232E+02  0.7816164E-02  0.1320468E+00
        -11   -1    0    0    0    0  0.00000000000E+00  0.00000000000E+00  0.45593999997E+02  0.45594000000E+02  0.51100000000E-03 0.  1.
         11   -1    0    0    0    0 -0.00000000000E+00 -0.00000000000E+00 -0.45593999997E+02  0.45594000000E+02  0.51100000000E-03 0. -1.
    9900012    2    1    2    0    0 -0.40332925060E+01 -0.25968040675E+02  0.36585609716E+02  0.46142318484E+02  0.10000006589E+02 0.  0.
         12    1    1    2    0    0  0.40332925060E+01  0.25968040675E+02 -0.36585609716E+02  0.45045681516E+02  0.00000000000E+00 0. -1.
         11    1    3    3    0    0 -0.46986789101E+01 -0.90317596332E+01  0.11990632772E+02  0.15729766054E+02  0.51100000000E-03 0. -1.
        -11    1    3    3    0    0 -0.19964067816E+01 -0.12653724370E+02  0.16755313331E+02  0.21091299286E+02  0.51100000000E-03 0.  1.
         12    1    3    3    0    0  0.26617931856E+01 -0.42825566714E+01  0.78396636126E+01  0.93212531435E+01  0.00000000000E+00 0. -1.
</event>
<event>
 7    1  0.2425980E-008  0.4614232E+02  0.7816164E-02  0.1320468E+00
        -11   -1    0    0    0    0  0.00000000000E+00  0.00000000000E+00  0.45593999997E+02  0.45594000000E+02  0.51100000000E-03 0.  1.
         11   -1    0    0    0    0 -0.00000000000E+00 -0.00000000000E+00 -0.45593999997E+02  0.45594000000E+02  0.51100000000E-03 0. -1.
    9900012    2    1    2    0    0  0.31556602500E+02 -0.15992221703E+01  0.32105090281E+02  0.46142317689E+02  0.99999993445E+01 0.  0.
         12    1    1    2    0    0 -0.31556602500E+02  0.15992221703E+01 -0.32105090281E+02  0.45045682311E+02  0.00000000000E+00 0. -1.
         11    1    3    3    0    0  0.14582457819E+01  0.12704784421E+01  0.34610600011E+01  0.39647866052E+01  0.51100000000E-03 0. -1.
        -11    1    3    3    0    0  0.10253520515E+02 -0.26859730760E+01  0.13767442696E+02  0.17375028431E+02  0.51100000000E-03 0.  1.
         12    1    3    3    0    0  0.19844836203E+02 -0.18372753637E+00  0.14876587584E+02  0.24802502653E+02  0.00000000000E+00 0. -1.
</event>
<event>
 7    1  0.2425980E-008  0.4614232E+02  0.7816164E-02  0.1320468E+00
        -11   -1    0    0    0    0  0.00000000000E+00  0.00000000000E+00  0.45593999997E+02  0.45594000000E+02  0.51100000000E-03 0.  1.
         11   -1    0    0    0    0 -0.00000000000E+00 -0.00000000000E+00 -0.45593999997E+02  0.45594000000E+02  0.51100000000E-03 0. -1.
    9900012    2    1    2    0    0 -0.17863994416E+02 -0.33961928289E+02  0.23591921898E+02  0.46142315985E+02  0.99999837998E+01 0.  0.
         12    1    1    2    0    0  0.17863994416E+02  0.33961928289E+02 -0.23591921898E+02  0.45045684015E+02  0.00000000000E+00 0. -1.
         11    1    3    3    0    0 -0.25839075948E+01 -0.26354773120E+01  0.36753345746E+01  0.52086854020E+01  0.51100000000E-03 0. -1.
        -11    1    3    3    0    0 -0.10440303790E+02 -0.12653770290E+02  0.79075186286E+01  0.18211169564E+02  0.51100000000E-03 0.  1.
         12    1    3    3    0    0 -0.48397830318E+01 -0.18672680686E+02  0.12009068695E+02  0.22722461018E+02  0.00000000000E+00 0. -1.
</event>
<event>
 7    1  0.2425980E-008  0.4614232E+02  0.7816164E-02  0.1320468E+00
        -11   -1    0    0    0    0  0.00000000000E+00  0.00000000000E+00  0.45593999997E+02  0.45594000000E+02  0.51100000000E-03 0.  1.
         11   -1    0    0    0    0 -0.00000000000E+00 -0.00000000000E+00 -0.45593999997E+02  0.45594000000E+02  0.51100000000E-03 0. -1.
    9900012    2    1    2    0    0 -0.12242761026E+02  0.42945634721E+02  0.59076701763E+01  0.46142319785E+02  0.10000018454E+02 0.  0.
         12    1    1    2    0    0  0.12242761026E+02 -0.42945634721E+02 -0.59076701763E+01  0.45045680215E+02  0.00000000000E+00 0. -1.
         11    1    3    3    0    0  0.49863479394E+00  0.32385161799E+01  0.27398780088E+01  0.42712475308E+01  0.51100000000E-03 0. -1.
        -11    1    3    3    0    0 -0.45145300359E+01  0.13141222971E+02  0.19771375536E+01  0.14035020334E+02  0.51100000000E-03 0.  1.
         12    1    3    3    0    0 -0.82268657840E+01  0.26565895570E+02  0.11906546140E+01  0.27836051920E+02  0.00000000000E+00 0. -1.
</event>
<event>
 7    1  0.2425980E-008  0.4614232E+02  0.7816164E-02  0.1320468E+00
        -11   -1    0    0    0    0  0.00000000000E+00  0.00000000000E+00  0.45593999997E+02  0.45594000000E+02  0.51100000000E-03 0. -1.
         11   -1    0    0    0    0 -0.00000000000E+00 -0.00000000000E+00 -0.45593999997E+02  0.45594000000E+02  0.51100000000E-03 0.  1.
    9900012    2    1    2    0    0 -0.49544488287E+01 -0.11704844409E+02 -0.43215315569E+02  0.46142318236E+02  0.10000004334E+02 0.  0.
         12    1    1    2    0    0  0.49544488287E+01  0.11704844409E+02  0.43215315569E+02  0.45045681764E+02  0.00000000000E+00 0. -1.
         11    1    3    3    0    0 -0.54432122502E+01 -0.38506213276E+01 -0.13459048767E+02  0.15020047875E+02  0.51100000000E-03 0. -1.
        -11    1    3    3    0    0 -0.15625973783E+01 -0.39344049083E+01 -0.96948597849E+01  0.10578825977E+02  0.51100000000E-03 0.  1.
        -12    1    3    3    0    0  0.20513607999E+01 -0.39198181733E+01 -0.20061407017E+02  0.20543444384E+02  0.00000000000E+00 0.  1.
</event>
<event>
 7    1  0.2425980E-008  0.4614232E+02  0.7816164E-02  0.1320468E+00
        -11   -1    0    0    0    0  0.00000000000E+00  0.00000000000E+00  0.45593999997E+02  0.45594000000E+02  0.51100000000E-03 0.  1.
         11   -1    0    0    0    0 -0.00000000000E+00 -0.00000000000E+00 -0.45593999997E+02  0.45594000000E+02  0.51100000000E-03 0. -1.
    9900012    2    1    2    0    0  0.83288986488E+01 -0.26235327493E+02  0.35657404670E+02  0.46142317975E+02  0.10000001947E+02 0.  0.
         12    1    1    2    0    0 -0.83288986488E+01  0.26235327493E+02 -0.35657404670E+02  0.45045682025E+02  0.00000000000E+00 0. -1.
         11    1    3    3    0    0  0.18293252797E+01  0.45625045141E-01  0.33193436541E+01  0.37903238884E+01  0.51100000000E-03 0. -1.
        -11    1    3    3    0    0  0.39629422126E+01 -0.15733521592E+02  0.22255035198E+02  0.27541517834E+02  0.51100000000E-03 0.  1.
        -12    1    3    3    0    0  0.25366311564E+01 -0.10547430946E+02  0.10083025818E+02  0.14810476253E+02  0.00000000000E+00 0.  1.
</event>
<event>
 7    1  0.2425980E-008  0.4614232E+02  0.7816164E-02  0.1320468E+00
        -11   -1    0    0    0    0  0.00000000000E+00  0.00000000000E+00  0.45593999997E+02  0.45594000000E+02  0.51100000000E-03 0.  1.
         11   -1    0    0    0    0 -0.00000000000E+00 -0.00000000000E+00 -0.45593999997E+02  0.45594000000E+02  0.51100000000E-03 0. -1.
    9900012    2    1    2    0    0 -0.30675910037E+02  0.21337100200E+02  0.25156116567E+02  0.46142317606E+02  0.99999985896E+01 0.  0.
         12    1    1    2    0    0  0.30675910037E+02 -0.21337100200E+02 -0.25156116567E+02  0.45045682394E+02  0.00000000000E+00 0. -1.
         11    1    3    3    0    0  0.35542514586E+00  0.13324505993E+01  0.99914468941E-01  0.13826549809E+01  0.51100000000E-03 0. -1.
        -11    1    3    3    0    0 -0.54992365423E+01  0.23060823361E+01  0.31288006195E+01  0.67341674961E+01  0.51100000000E-03 0.  1.
        -12    1    3    3    0    0 -0.25532098641E+02  0.17698567265E+02  0.21927401478E+02  0.38025495129E+02  0.00000000000E+00 0.  1.
</event>
<event>
 7    1  0.2425980E-008  0.4614232E+02  0.7816164E-02  0.1320468E+00
        -11   -1    0    0    0    0  0.00000000000E+00  0.00000000000E+00  0.45593999997E+02  0.45594000000E+02  0.51100000000E-03 0.  1.
         11   -1    0    0    0    0 -0.00000000000E+00 -0.00000000000E+00 -0.45593999997E+02  0.45594000000E+02  0.51100000000E-03 0. -1.
    9900012    2    1    2    0    0 -0.72547336161E+00 -0.11118715343E+02  0.43645863222E+02  0.46142317423E+02  0.99999969127E+01 0.  0.
         12    1    1    2    0    0  0.72547336161E+00  0.11118715343E+02 -0.43645863222E+02  0.45045682577E+02  0.00000000000E+00 0. -1.
         11    1    3    3    0    0  0.20322897197E+00 -0.68827455560E+01  0.14717712133E+02  0.16248831930E+02  0.51100000000E-03 0. -1.
        -11    1    3    3    0    0  0.10616309424E+01 -0.51561231707E+01  0.22262174986E+02  0.22876125147E+02  0.51100000000E-03 0.  1.
        -12    1    3    3    0    0 -0.19903332760E+01  0.92015338402E+00  0.66659761033E+01  0.70173603448E+01  0.00000000000E+00 0.  1.
</event>
<event>
 7    1  0.2425980E-008  0.4614232E+02  0.7816164E-02  0.1320468E+00
        -11   -1    0    0    0    0  0.00000000000E+00  0.00000000000E+00  0.45593999997E+02  0.45594000000E+02  0.51100000000E-03 0.  1.
         11   -1    0    0    0    0 -0.00000000000E+00 -0.00000000000E+00 -0.45593999997E+02  0.45594000000E+02  0.51100000000E-03 0. -1.
    9900012    2    1    2    0    0 -0.15483328774E+02 -0.30268652007E+02  0.29549770970E+02  0.46142315094E+02  0.99999756778E+01 0.  0.
         12    1    1    2    0    0  0.15483328774E+02  0.30268652007E+02 -0.29549770970E+02  0.45045684906E+02  0.00000000000E+00 0. -1.
         11    1    3    3    0    0 -0.45088335938E+00 -0.33302426788E+01  0.17402722293E+01  0.37844893707E+01  0.51100000000E-03 0. -1.
        -11    1    3    3    0    0 -0.64727905787E+01 -0.18642714305E+02  0.14486181269E+02  0.24480548657E+02  0.51100000000E-03 0.  1.
        -12    1    3    3    0    0 -0.85596548363E+01 -0.82956950234E+01  0.13323317472E+02  0.17877277066E+02  0.00000000000E+00 0.  1.
</event>
<event>
 7    1  0.2425980E-008  0.4614232E+02  0.7816164E-02  0.1320468E+00
        -11   -1    0    0    0    0  0.00000000000E+00  0.00000000000E+00  0.45593999997E+02  0.45594000000E+02  0.51100000000E-03 0.  1.
         11   -1    0    0    0    0 -0.00000000000E+00 -0.00000000000E+00 -0.45593999997E+02  0.45594000000E+02  0.51100000000E-03 0. -1.
    9900012    2    1    2    0    0  0.33334961730E+02  0.53850492977E+01  0.29814342251E+02  0.46142318372E+02  0.10000005572E+02 0.  0.
         12    1    1    2    0    0 -0.33334961730E+02 -0.53850492977E+01 -0.29814342251E+02  0.45045681628E+02  0.00000000000E+00 0. -1.
         11    1    3    3    0    0  0.17973762074E+02  0.59009302169E+01  0.12917099193E+02  0.22906954235E+02  0.51100000000E-03 0. -1.
        -11    1    3    3    0    0  0.11032196046E+02  0.13765375899E+01  0.13040778254E+02  0.17136688801E+02  0.51100000000E-03 0.  1.
        -12    1    3    3    0    0  0.43290036101E+01 -0.18924185091E+01  0.38564648040E+01  0.60986753361E+01  0.00000000000E+00 0.  1.
</event>
<event>
 7    1  0.2425980E-008  0.4614232E+02  0.7816164E-02  0.1320468E+00
        -11   -1    0    0    0    0  0.00000000000E+00  0.00000000000E+00  0.45593999997E+02  0.45594000000E+02  0.51100000000E-03 0.  1.
         11   -1    0    0    0    0 -0.00000000000E+00 -0.00000000000E+00 -0.45593999997E+02  0.45594000000E+02  0.51100000000E-03 0. -1.
    9900012    2    1    2    0    0  0.18567705449E+02 -0.38871135456E+02  0.13167707686E+02  0.46142318931E+02  0.10000010671E+02 0.  0.
         12    1    1    2    0    0 -0.18567705449E+02  0.38871135456E+02 -0.13167707686E+02  0.45045681069E+02  0.00000000000E+00 0. -1.
         11    1    3    3    0    0  0.91238040362E+01 -0.18084463592E+02  0.43507321057E+01  0.20717637260E+02  0.51100000000E-03 0. -1.
        -11    1    3    3    0    0  0.81377820710E+01 -0.20928619055E+02  0.78286249906E+01  0.23780621567E+02  0.51100000000E-03 0.  1.
        -12    1    3    3    0    0  0.13061193415E+01  0.14194719209E+00  0.98835058998E+00  0.16440601048E+01  0.00000000000E+00 0.  1.
</event>
<event>
 7    1  0.2425980E-008  0.4614232E+02  0.7816164E-02  0.1320468E+00
        -11   -1    0    0    0    0  0.00000000000E+00  0.00000000000E+00  0.45593999997E+02  0.45594000000E+02  0.51100000000E-03 0.  1.
         11   -1    0    0    0    0 -0.00000000000E+00 -0.00000000000E+00 -0.45593999997E+02  0.45594000000E+02  0.51100000000E-03 0. -1.
    9900012    2    1    2    0    0  0.13169728387E+02 -0.34285919137E+02  0.26079637611E+02  0.46142317690E+02  0.99999993498E+01 0.  0.
         12    1    1    2    0    0 -0.13169728387E+02  0.34285919137E+02 -0.26079637611E+02  0.45045682310E+02  0.00000000000E+00 0. -1.
         11    1    3    3    0    0  0.24336775203E+01 -0.74887262804E+01  0.75032509794E+01  0.10876699090E+02  0.51100000000E-03 0. -1.
        -11    1    3    3    0    0  0.74337722593E+01 -0.23384880955E+02  0.18103728529E+02  0.30493583164E+02  0.51100000000E-03 0.  1.
         12    1    3    3    0    0  0.33022786079E+01 -0.34123119018E+01  0.47265810317E+00  0.47720354359E+01  0.00000000000E+00 0. -1.
</event>
<event>
 7    1  0.2425980E-008  0.4614232E+02  0.7816164E-02  0.1320468E+00
        -11   -1    0    0    0    0  0.00000000000E+00  0.00000000000E+00  0.45593999997E+02  0.45594000000E+02  0.51100000000E-03 0.  1.
         11   -1    0    0    0    0 -0.00000000000E+00 -0.00000000000E+00 -0.45593999997E+02  0.45594000000E+02  0.51100000000E-03 0. -1.
    9900012    2    1    2    0    0  0.30345116638E+02 -0.29568931306E+02  0.15295936696E+02  0.46142317835E+02  0.10000000671E+02 0.  0.
         12    1    1    2    0    0 -0.30345116638E+02  0.29568931306E+02 -0.15295936696E+02  0.45045682165E+02  0.00000000000E+00 0. -1.
         11    1    3    3    0    0  0.75088002384E+01 -0.51178199896E+01  0.18272384260E+01  0.92689245866E+01  0.51100000000E-03 0. -1.
        -11    1    3    3    0    0 -0.36454583756E+00 -0.69014316591E+00 -0.40876325796E+00  0.88106692102E+00  0.51100000000E-03 0.  1.
        -12    1    3    3    0    0  0.23200862237E+02 -0.23760968150E+02  0.13877461528E+02  0.35992326327E+02  0.00000000000E+00 0.  1.
</event>
<event>
 7    1  0.2425980E-008  0.4614232E+02  0.7816164E-02  0.1320468E+00
        -11   -1    0    0    0    0  0.00000000000E+00  0.00000000000E+00  0.45593999997E+02  0.45594000000E+02  0.51100000000E-03 0.  1.
         11   -1    0    0    0    0 -0.00000000000E+00 -0.00000000000E+00 -0.45593999997E+02  0.45594000000E+02  0.51100000000E-03 0. -1.
    9900012    2    1    2    0    0  0.12849416203E+02  0.26168924762E+02  0.34339388477E+02  0.46142315180E+02  0.99999764654E+01 0.  0.
         12    1    1    2    0    0 -0.12849416203E+02 -0.26168924762E+02 -0.34339388477E+02  0.45045684820E+02  0.00000000000E+00 0. -1.
         11    1    3    3    0    0  0.93293463875E+00  0.31503521332E+01  0.79488217460E+01  0.86010960356E+01  0.51100000000E-03 0. -1.
        -11    1    3    3    0    0  0.27073756237E+01  0.11529951707E+02  0.99234728523E+01  0.15451374788E+02  0.51100000000E-03 0.  1.
         12    1    3    3    0    0  0.92091059402E+01  0.11488620922E+02  0.16467093878E+02  0.22089844357E+02  0.00000000000E+00 0. -1.
</event>
<event>
 7    1  0.2425980E-008  0.4614232E+02  0.7816164E-02  0.1320468E+00
        -11   -1    0    0    0    0  0.00000000000E+00  0.00000000000E+00  0.45593999997E+02  0.45594000000E+02  0.51100000000E-03 0.  1.
         11   -1    0    0    0    0 -0.00000000000E+00 -0.00000000000E+00 -0.45593999997E+02  0.45594000000E+02  0.51100000000E-03 0. -1.
    9900012    2    1    2    0    0  0.11120703047E+02  0.23645316514E+02  0.36692539572E+02  0.46142317747E+02  0.99999998758E+01 0.  0.
         12    1    1    2    0    0 -0.11120703047E+02 -0.23645316514E+02 -0.36692539572E+02  0.45045682253E+02  0.00000000000E+00 0. -1.
         11    1    3    3    0    0  0.40982186241E+01  0.21779068019E+01  0.41431504375E+01  0.62212836085E+01  0.51100000000E-03 0. -1.
        -11    1    3    3    0    0  0.41445690555E+01  0.99511960048E+01  0.11550611019E+02  0.15799378778E+02  0.51100000000E-03 0.  1.
        -12    1    3    3    0    0  0.28779153678E+01  0.11516213708E+02  0.20998778116E+02  0.24121655361E+02  0.00000000000E+00 0.  1.
</event>
<event>
 7    1  0.2425980E-008  0.4614232E+02  0.7816164E-02  0.1320468E+00
        -11   -1    0    0    0    0  0.00000000000E+00  0.00000000000E+00  0.45593999997E+02  0.45594000000E+02  0.51100000000E-03 0.  1.
         11   -1    0    0    0    0 -0.00000000000E+00 -0.00000000000E+00 -0.45593999997E+02  0.45594000000E+02  0.51100000000E-03 0. -1.
    9900012    2    1    2    0    0 -0.10434637429E+02 -0.10048899619E+02  0.42652682659E+02  0.46142318966E+02  0.10000010984E+02 0.  0.
         12    1    1    2    0    0  0.10434637429E+02  0.10048899619E+02 -0.42652682659E+02  0.45045681034E+02  0.00000000000E+00 0. -1.
         11    1    3    3    0    0 -0.13080537634E+01 -0.57956579997E+01  0.22443187383E+02  0.23216315739E+02  0.51100000000E-03 0. -1.
        -11    1    3    3    0    0 -0.12363208121E+01 -0.16363854479E+01  0.72081692381E+01  0.74942611717E+01  0.51100000000E-03 0.  1.
         12    1    3    3    0    0 -0.78902628536E+01 -0.26168561713E+01  0.13001326038E+02  0.15431742055E+02  0.00000000000E+00 0. -1.
</event>
<event>
 7    1  0.2425980E-008  0.4614232E+02  0.7816164E-02  0.1320468E+00
        -11   -1    0    0    0    0  0.00000000000E+00  0.00000000000E+00  0.45593999997E+02  0.45594000000E+02  0.51100000000E-03 0.  1.
         11   -1    0    0    0    0 -0.00000000000E+00 -0.00000000000E+00 -0.45593999997E+02  0.45594000000E+02  0.51100000000E-03 0. -1.
    9900012    2    1    2    0    0  0.28795416283E+02 -0.12072528201E+02  0.32468312892E+02  0.46142320095E+02  0.10000021280E+02 0.  0.
         12    1    1    2    0    0 -0.28795416283E+02  0.12072528201E+02 -0.32468312892E+02  0.45045679905E+02  0.00000000000E+00 0. -1.
         11    1    3    3    0    0  0.16371907648E+00 -0.16275822949E+01  0.12121506746E+00  0.16402808956E+01  0.51100000000E-03 0. -1.
        -11    1    3    3    0    0  0.21263846174E+01 -0.70028155259E+00  0.15835419146E+01  0.27421726880E+01  0.51100000000E-03 0.  1.
        -12    1    3    3    0    0  0.26505312589E+02 -0.97446643531E+01  0.30763555910E+02  0.41759866511E+02  0.00000000000E+00 0.  1.
</event>
<event>
 7    1  0.2425980E-008  0.4614232E+02  0.7816164E-02  0.1320468E+00
        -11   -1    0    0    0    0  0.00000000000E+00  0.00000000000E+00  0.45593999997E+02  0.45594000000E+02  0.51100000000E-03 0.  1.
         11   -1    0    0    0    0 -0.00000000000E+00 -0.00000000000E+00 -0.45593999997E+02  0.45594000000E+02  0.51100000000E-03 0. -1.
    9900012    2    1    2    0    0 -0.25522661340E+01  0.85839195677E+01  0.44146526964E+02  0.46142316738E+02  0.99999906718E+01 0.  0.
         12    1    1    2    0    0  0.25522661340E+01 -0.85839195677E+01 -0.44146526964E+02  0.45045683262E+02  0.00000000000E+00 0. -1.
         11    1    3    3    0    0 -0.12858809367E+01  0.22049998269E+01  0.21022493513E+02  0.21176891835E+02  0.51100000000E-03 0. -1.
        -11    1    3    3    0    0 -0.32535736055E+01  0.64408994516E+01  0.20004599199E+02  0.21266285908E+02  0.51100000000E-03 0.  1.
         12    1    3    3    0    0  0.19871884083E+01 -0.61979710731E-01  0.31194342520E+01  0.36991389953E+01  0.00000000000E+00 0. -1.
</event>
<event>
 7    1  0.2425980E-008  0.4614232E+02  0.7816164E-02  0.1320468E+00
        -11   -1    0    0    0    0  0.00000000000E+00  0.00000000000E+00  0.45593999997E+02  0.45594000000E+02  0.51100000000E-03 0.  1.
         11   -1    0    0    0    0 -0.00000000000E+00 -0.00000000000E+00 -0.45593999997E+02  0.45594000000E+02  0.51100000000E-03 0. -1.
    9900012    2    1    2    0    0  0.45836638929E+01 -0.26313659356E+02  0.36272507404E+02  0.46142318334E+02  0.10000005220E+02 0.  0.
         12    1    1    2    0    0 -0.45836638929E+01  0.26313659356E+02 -0.36272507404E+02  0.45045681666E+02  0.00000000000E+00 0. -1.
         11    1    3    3    0    0 -0.11125555693E+01 -0.54546457602E+01  0.11023379245E+02  0.12349325103E+02  0.51100000000E-03 0. -1.
        -11    1    3    3    0    0  0.11814407661E+01 -0.14711398270E+01  0.52351078905E+01  0.55647470347E+01  0.51100000000E-03 0.  1.
        -12    1    3    3    0    0  0.45147786961E+01 -0.19387873769E+02  0.20014020269E+02  0.28228246196E+02  0.00000000000E+00 0.  1.
</event>
<event>
 7    1  0.2425980E-008  0.4614232E+02  0.7816164E-02  0.1320468E+00
        -11   -1    0    0    0    0  0.00000000000E+00  0.00000000000E+00  0.45593999997E+02  0.45594000000E+02  0.51100000000E-03 0. -1.
         11   -1    0    0    0    0 -0.00000000000E+00 -0.00000000000E+00 -0.45593999997E+02  0.45594000000E+02  0.51100000000E-03 0.  1.
    9900012    2    1    2    0    0 -0.36211693742E+02  0.25541944530E+02 -0.80892384202E+01  0.46142317940E+02  0.10000001629E+02 0.  0.
         12    1    1    2    0    0  0.36211693742E+02 -0.25541944530E+02  0.80892384202E+01  0.45045682060E+02  0.00000000000E+00 0. -1.
         11    1    3    3    0    0 -0.43683310527E+01  0.61829766049E+01 -0.10151813067E+01  0.76382006539E+01  0.51100000000E-03 0. -1.
        -11    1    3    3    0    0 -0.19314728972E+02  0.96078618702E+01 -0.13033821092E+01  0.21611769251E+02  0.51100000000E-03 0.  1.
         12    1    3    3    0    0 -0.12528633718E+02  0.97511060553E+01 -0.57706750044E+01  0.16892348035E+02  0.00000000000E+00 0. -1.
</event>
<event>
 7    1  0.2425980E-008  0.4614232E+02  0.7816164E-02  0.1320468E+00
        -11   -1    0    0    0    0  0.00000000000E+00  0.00000000000E+00  0.45593999997E+02  0.45594000000E+02  0.51100000000E-03 0.  1.
         11   -1    0    0    0    0 -0.00000000000E+00 -0.00000000000E+00 -0.45593999997E+02  0.45594000000E+02  0.51100000000E-03 0. -1.
    9900012    2    1    2    0    0 -0.63586997601E+01  0.38615667073E+02  0.22304947568E+02  0.46142317720E+02  0.99999996223E+01 0.  0.
         12    1    1    2    0    0  0.63586997601E+01 -0.38615667073E+02 -0.22304947568E+02  0.45045682280E+02  0.00000000000E+00 0. -1.
         11    1    3    3    0    0 -0.32154919336E+00  0.11065736299E+01 -0.32393143785E-01  0.11528003552E+01  0.51100000000E-03 0. -1.
        -11    1    3    3    0    0 -0.63180031461E+01  0.31585242525E+02  0.22082437323E+02  0.39053536940E+02  0.51100000000E-03 0.  1.
        -12    1    3    3    0    0  0.28085257936E+00  0.59238509175E+01  0.25490338857E+00  0.59359804246E+01  0.00000000000E+00 0.  1.
</event>
<event>
 7    1  0.2425980E-008  0.4614232E+02  0.7816164E-02  0.1320468E+00
        -11   -1    0    0    0    0  0.00000000000E+00  0.00000000000E+00  0.45593999997E+02  0.45594000000E+02  0.51100000000E-03 0.  1.
         11   -1    0    0    0    0 -0.00000000000E+00 -0.00000000000E+00 -0.45593999997E+02  0.45594000000E+02  0.51100000000E-03 0. -1.
    9900012    2    1    2    0    0 -0.28147139321E+02 -0.46282726620E+01  0.34863034390E+02  0.46142317335E+02  0.99999961189E+01 0.  0.
         12    1    1    2    0    0  0.28147139321E+02  0.46282726620E+01 -0.34863034390E+02  0.45045682665E+02  0.00000000000E+00 0. -1.
         11    1    3    3    0    0 -0.17164297065E+02 -0.53414065737E+01  0.23544930167E+02  0.29622752316E+02  0.51100000000E-03 0. -1.
        -11    1    3    3    0    0 -0.10695964952E+02  0.41572515929E-01  0.11560973655E+02  0.15749968465E+02  0.51100000000E-03 0.  1.
         12    1    3    3    0    0 -0.28687730430E+00  0.67156139577E+00 -0.24286943213E+00  0.76959655475E+00  0.00000000000E+00 0. -1.
</event>
<event>
 7    1  0.2425980E-008  0.4614232E+02  0.7816164E-02  0.1320468E+00
        -11   -1    0    0    0    0  0.00000000000E+00  0.00000000000E+00  0.45593999997E+02  0.45594000000E+02  0.51100000000E-03 0.  1.
         11   -1    0    0    0    0 -0.00000000000E+00 -0.00000000000E+00 -0.45593999997E+02  0.45594000000E+02  0.51100000000E-03 0. -1.
    9900012    2    1    2    0    0 -0.19200896292E+02 -0.61147417937E+01  0.40287082672E+02  0.46142317456E+02  0.99999972211E+01 0.  0.
         12    1    1    2    0    0  0.19200896292E+02  0.61147417937E+01 -0.40287082672E+02  0.45045682544E+02  0.00000000000E+00 0. -1.
         11    1    3    3    0    0 -0.31568171197E+01  0.11855534687E+01  0.57938988159E+01  0.67037523153E+01  0.51100000000E-03 0. -1.
        -11    1    3    3    0    0 -0.15519511019E+02 -0.66408433073E+01  0.26624632752E+02  0.31525023260E+02  0.51100000000E-03 0.  1.
        -12    1    3    3    0    0 -0.52456815295E+00 -0.65945195510E+00  0.78685511036E+01  0.79135418807E+01  0.00000000000E+00 0.  1.
</event>
<event>
 7    1  0.2425980E-008  0.4614232E+02  0.7816164E-02  0.1320468E+00
        -11   -1    0    0    0    0  0.00000000000E+00  0.00000000000E+00  0.45593999997E+02  0.45594000000E+02  0.51100000000E-03 0.  1.
         11   -1    0    0    0    0 -0.00000000000E+00 -0.00000000000E+00 -0.45593999997E+02  0.45594000000E+02  0.51100000000E-03 0. -1.
    9900012    2    1    2    0    0 -0.38898036456E+02  0.17803947729E+02  0.14109416937E+02  0.46142318285E+02  0.10000004778E+02 0.  0.
         12    1    1    2    0    0  0.38898036456E+02 -0.17803947729E+02 -0.14109416937E+02  0.45045681715E+02  0.00000000000E+00 0. -1.
         11    1    3    3    0    0 -0.63710863550E+01  0.11989493212E+01  0.55010015441E+01  0.85023078671E+01  0.51100000000E-03 0. -1.
        -11    1    3    3    0    0 -0.67118657929E+01  0.22118399131E+01  0.11845932427E+01  0.71655174018E+01  0.51100000000E-03 0.  1.
         12    1    3    3    0    0 -0.25815084308E+02  0.14393158494E+02  0.74238221499E+01  0.30474493016E+02  0.00000000000E+00 0. -1.
</event>
<event>
 7    1  0.2425980E-008  0.4614232E+02  0.7816164E-02  0.1320468E+00
        -11   -1    0    0    0    0  0.00000000000E+00  0.00000000000E+00  0.45593999997E+02  0.45594000000E+02  0.51100000000E-03 0.  1.
         11   -1    0    0    0    0 -0.00000000000E+00 -0.00000000000E+00 -0.45593999997E+02  0.45594000000E+02  0.51100000000E-03 0. -1.
    9900012    2    1    2    0    0  0.29277304753E+02 -0.33457263772E+02  0.72501335226E+01  0.46142317534E+02  0.99999979271E+01 0.  0.
         12    1    1    2    0    0 -0.29277304753E+02  0.33457263772E+02 -0.72501335226E+01  0.45045682466E+02  0.00000000000E+00 0. -1.
         11    1    3    3    0    0  0.26952933412E+01 -0.45233435431E+01 -0.93489338857E+00  0.53478284297E+01  0.51100000000E-03 0. -1.
        -11    1    3    3    0    0  0.91172466853E+01 -0.11289274406E+02  0.65308581276E+01  0.15913013916E+02  0.51100000000E-03 0.  1.
        -12    1    3    3    0    0  0.17464764727E+02 -0.17644645823E+02  0.16541687836E+01  0.24881475188E+02  0.00000000000E+00 0.  1.
</event>
<event>
 7    1  0.2425980E-008  0.4614232E+02  0.7816164E-02  0.1320468E+00
        -11   -1    0    0    0    0  0.00000000000E+00  0.00000000000E+00  0.45593999997E+02  0.45594000000E+02  0.51100000000E-03 0. -1.
         11   -1    0    0    0    0 -0.00000000000E+00 -0.00000000000E+00 -0.45593999997E+02  0.45594000000E+02  0.51100000000E-03 0.  1.
    9900012    2    1    2    0    0 -0.18287209408E+02  0.27002238234E+02 -0.31073630423E+02  0.46142318684E+02  0.10000008415E+02 0.  0.
         12    1    1    2    0    0  0.18287209408E+02 -0.27002238234E+02  0.31073630423E+02  0.45045681316E+02  0.00000000000E+00 0. -1.
         11    1    3    3    0    0 -0.13865761408E+01  0.10213926860E+01 -0.36850055350E+01  0.40675671435E+01  0.51100000000E-03 0. -1.
        -11    1    3    3    0    0 -0.16653551237E+02  0.21883918662E+02 -0.25690120884E+02  0.37632817808E+02  0.51100000000E-03 0.  1.
         12    1    3    3    0    0 -0.24708203005E+00  0.40969268857E+01 -0.16985040033E+01  0.44419337327E+01  0.00000000000E+00 0. -1.
</event>
<event>
 7    1  0.2425980E-008  0.4614232E+02  0.7816164E-02  0.1320468E+00
        -11   -1    0    0    0    0  0.00000000000E+00  0.00000000000E+00  0.45593999997E+02  0.45594000000E+02  0.51100000000E-03 0.  1.
         11   -1    0    0    0    0 -0.00000000000E+00 -0.00000000000E+00 -0.45593999997E+02  0.45594000000E+02  0.51100000000E-03 0. -1.
    9900012    2    1    2    0    0 -0.53632556648E+01  0.31146665280E+02  0.32097260887E+02  0.46142318455E+02  0.10000006330E+02 0.  0.
         12    1    1    2    0    0  0.53632556648E+01 -0.31146665280E+02 -0.32097260887E+02  0.45045681545E+02  0.00000000000E+00 0. -1.
         11    1    3    3    0    0 -0.27253616896E+01  0.34334347353E+01  0.55756886357E+01  0.70925576800E+01  0.51100000000E-03 0. -1.
        -11    1    3    3    0    0 -0.39725863190E+01  0.84499610883E+01  0.92414261968E+01  0.13137246396E+02  0.51100000000E-03 0.  1.
         12    1    3    3    0    0  0.13346923438E+01  0.19263269456E+02  0.17280146055E+02  0.25912514379E+02  0.00000000000E+00 0. -1.
</event>
<event>
 7    1  0.2425980E-008  0.4614232E+02  0.7816164E-02  0.1320468E+00
        -11   -1    0    0    0    0  0.00000000000E+00  0.00000000000E+00  0.45593999997E+02  0.45594000000E+02  0.51100000000E-03 0. -1.
         11   -1    0    0    0    0 -0.00000000000E+00 -0.00000000000E+00 -0.45593999997E+02  0.45594000000E+02  0.51100000000E-03 0.  1.
    9900012    2    1    2    0    0 -0.21460991688E+02  0.23988308545E+01 -0.39532074771E+02  0.46142317750E+02  0.99999998963E+01 0.  0.
         12    1    1    2    0    0  0.21460991688E+02 -0.23988308545E+01  0.39532074771E+02  0.45045682250E+02  0.00000000000E+00 0. -1.
         11    1    3    3    0    0 -0.57377534441E+01  0.80630940382E+00 -0.61608622432E+01  0.84574330195E+01  0.51100000000E-03 0. -1.
        -11    1    3    3    0    0 -0.15865041139E+02  0.14806251257E+01 -0.27291548752E+02  0.31602538105E+02  0.51100000000E-03 0.  1.
        -12    1    3    3    0    0  0.14180289519E+00  0.11189632501E+00 -0.60796637754E+01  0.60823466253E+01  0.00000000000E+00 0.  1.
</event>
<event>
 7    1  0.2425980E-008  0.4614232E+02  0.7816164E-02  0.1320468E+00
        -11   -1    0    0    0    0  0.00000000000E+00  0.00000000000E+00  0.45593999997E+02  0.45594000000E+02  0.51100000000E-03 0.  1.
         11   -1    0    0    0    0 -0.00000000000E+00 -0.00000000000E+00 -0.45593999997E+02  0.45594000000E+02  0.51100000000E-03 0. -1.
    9900012    2    1    2    0    0  0.25235367899E+02  0.21627322739E+02  0.30406392240E+02  0.46142316845E+02  0.99999916489E+01 0.  0.
         12    1    1    2    0    0 -0.25235367899E+02 -0.21627322739E+02 -0.30406392240E+02  0.45045683155E+02  0.00000000000E+00 0. -1.
         11    1    3    3    0    0  0.74149317508E+01  0.23196579542E+01  0.92306770729E+01  0.12065132630E+02  0.51100000000E-03 0. -1.
        -11    1    3    3    0    0  0.67741331643E+01  0.10049986469E+02  0.77909370739E+01  0.14407977267E+02  0.51100000000E-03 0.  1.
        -12    1    3    3    0    0  0.11046302984E+02  0.92576783155E+01  0.13384778093E+02  0.19669206949E+02  0.00000000000E+00 0.  1.
</event>
<event>
 7    1  0.2425980E-008  0.4614232E+02  0.7816164E-02  0.1320468E+00
        -11   -1    0    0    0    0  0.00000000000E+00  0.00000000000E+00  0.45593999997E+02  0.45594000000E+02  0.51100000000E-03 0. -1.
         11   -1    0    0    0    0 -0.00000000000E+00 -0.00000000000E+00 -0.45593999997E+02  0.45594000000E+02  0.51100000000E-03 0.  1.
    9900012    2    1    2    0    0  0.13009444162E+02  0.24798809126E+02 -0.35282954268E+02  0.46142318372E+02  0.10000005568E+02 0.  0.
         12    1    1    2    0    0 -0.13009444162E+02 -0.24798809126E+02  0.35282954268E+02  0.45045681628E+02  0.00000000000E+00 0. -1.
         11    1    3    3    0    0  0.87022110196E+01  0.10727873958E+02 -0.18996656329E+02  0.23488054586E+02  0.51100000000E-03 0. -1.
        -11    1    3    3    0    0  0.56350415935E+01  0.11379929862E+02 -0.13836936956E+02  0.18780770006E+02  0.51100000000E-03 0.  1.
        -12    1    3    3    0    0 -0.13278084506E+01  0.26910053060E+01 -0.24493609832E+01  0.38734937801E+01  0.00000000000E+00 0.  1.
</event>
<event>
 7    1  0.2425980E-008  0.4614232E+02  0.7816164E-02  0.1320468E+00
        -11   -1    0    0    0    0  0.00000000000E+00  0.00000000000E+00  0.45593999997E+02  0.45594000000E+02  0.51100000000E-03 0.  1.
         11   -1    0    0    0    0 -0.00000000000E+00 -0.00000000000E+00 -0.45593999997E+02  0.45594000000E+02  0.51100000000E-03 0. -1.
    9900012    2    1    2    0    0 -0.72110613575E+01  0.20371569624E+02  0.39523577311E+02  0.46142318539E+02  0.10000007090E+02 0.  0.
         12    1    1    2    0    0  0.72110613575E+01 -0.20371569624E+02 -0.39523577311E+02  0.45045681461E+02  0.00000000000E+00 0. -1.
         11    1    3    3    0    0 -0.17384268202E+01  0.49171701826E+01  0.44389247019E+01  0.68487037594E+01  0.51100000000E-03 0. -1.
        -11    1    3    3    0    0 -0.46380551209E+01  0.37910654283E+01  0.12513727992E+02  0.13873612395E+02  0.51100000000E-03 0.  1.
        -12    1    3    3    0    0 -0.83457941634E+00  0.11663334013E+02  0.22570924617E+02  0.25420002384E+02  0.00000000000E+00 0.  1.
</event>
<event>
 7    1  0.2425980E-008  0.4614232E+02  0.7816164E-02  0.1320468E+00
        -11   -1    0    0    0    0  0.00000000000E+00  0.00000000000E+00  0.45593999997E+02  0.45594000000E+02  0.51100000000E-03 0.  1.
         11   -1    0    0    0    0 -0.00000000000E+00 -0.00000000000E+00 -0.45593999997E+02  0.45594000000E+02  0.51100000000E-03 0. -1.
    9900012    2    1    2    0    0 -0.10529858531E+02 -0.14411890058E+02  0.41358587649E+02  0.46142320207E+02  0.10000022305E+02 0.  0.
         12    1    1    2    0    0  0.10529858531E+02  0.14411890058E+02 -0.41358587649E+02  0.45045679793E+02  0.00000000000E+00 0. -1.
         11    1    3    3    0    0 -0.78975484686E+01 -0.65543138137E+01  0.16115034671E+02  0.19105618129E+02  0.51100000000E-03 0. -1.
        -11    1    3    3    0    0 -0.38526416665E+01 -0.73827062335E+01  0.20827812318E+02  0.22430893102E+02  0.51100000000E-03 0.  1.
        -12    1    3    3    0    0  0.12203316045E+01 -0.47487001086E+00  0.44157406592E+01  0.46058089758E+01  0.00000000000E+00 0.  1.
</event>
<event>
 7    1  0.2425980E-008  0.4614232E+02  0.7816164E-02  0.1320468E+00
        -11   -1    0    0    0    0  0.00000000000E+00  0.00000000000E+00  0.45593999997E+02  0.45594000000E+02  0.51100000000E-03 0.  1.
         11   -1    0    0    0    0 -0.00000000000E+00 -0.00000000000E+00 -0.45593999997E+02  0.45594000000E+02  0.51100000000E-03 0. -1.
    9900012    2    1    2    0    0  0.14878451286E+01 -0.32122338440E+02  0.31544496271E+02  0.46142317021E+02  0.99999932537E+01 0.  0.
         12    1    1    2    0    0 -0.14878451286E+01  0.32122338440E+02 -0.31544496271E+02  0.45045682979E+02  0.00000000000E+00 0. -1.
         11    1    3    3    0    0 -0.20061385321E+01 -0.27020766007E+01  0.15234476876E+01  0.36941444049E+01  0.51100000000E-03 0. -1.
        -11    1    3    3    0    0  0.19894808222E+00 -0.65552329509E+00 -0.71773148908E-01  0.68879806609E+00  0.51100000000E-03 0.  1.
        -12    1    3    3    0    0  0.32950355785E+01 -0.28764738544E+02  0.30092821733E+02  0.41759374550E+02  0.00000000000E+00 0.  1.
</event>
<event>
 7    1  0.2425980E-008  0.4614232E+02  0.7816164E-02  0.1320468E+00
        -11   -1    0    0    0    0  0.00000000000E+00  0.00000000000E+00  0.45593999997E+02  0.45594000000E+02  0.51100000000E-03 0.  1.
         11   -1    0    0    0    0 -0.00000000000E+00 -0.00000000000E+00 -0.45593999997E+02  0.45594000000E+02  0.51100000000E-03 0. -1.
    9900012    2    1    2    0    0  0.37799494807E+02 -0.24387939027E+02 -0.23537391126E+01  0.46142318015E+02  0.10000002318E+02 0.  0.
         12    1    1    2    0    0 -0.37799494807E+02  0.24387939027E+02  0.23537391126E+01  0.45045681985E+02  0.00000000000E+00 0. -1.
         11    1    3    3    0    0  0.13149335876E+02 -0.12010138732E+02 -0.42183004447E+01  0.18301435060E+02  0.51100000000E-03 0. -1.
        -11    1    3    3    0    0  0.80311860593E-01 -0.44191006930E+00 -0.79680970871E-01  0.45616205732E+00  0.51100000000E-03 0.  1.
        -12    1    3    3    0    0  0.24569847070E+02 -0.11935890227E+02  0.19442423030E+01  0.27384720898E+02  0.00000000000E+00 0.  1.
</event>
<event>
 7    1  0.2425980E-008  0.4614232E+02  0.7816164E-02  0.1320468E+00
        -11   -1    0    0    0    0  0.00000000000E+00  0.00000000000E+00  0.45593999997E+02  0.45594000000E+02  0.51100000000E-03 0.  1.
         11   -1    0    0    0    0 -0.00000000000E+00 -0.00000000000E+00 -0.45593999997E+02  0.45594000000E+02  0.51100000000E-03 0. -1.
    9900012    2    1    2    0    0 -0.21909524902E+01  0.22958644979E+02  0.38693846925E+02  0.46142318276E+02  0.10000004697E+02 0.  0.
         12    1    1    2    0    0  0.21909524902E+01 -0.22958644979E+02 -0.38693846925E+02  0.45045681724E+02  0.00000000000E+00 0. -1.
         11    1    3    3    0    0 -0.10667600789E+01  0.10128429188E+02  0.19795752867E+02  0.22261960532E+02  0.51100000000E-03 0.  1.
        -11    1    3    3    0    0  0.25498251012E+00  0.13010981477E+02  0.18047209885E+02  0.22249773931E+02  0.51100000000E-03 0. -1.
         12    1    3    3    0    0 -0.13791749214E+01 -0.18076568616E+00  0.85088417332E+00  0.16305838137E+01  0.00000000000E+00 0. -1.
</event>
<event>
 7    1  0.2425980E-008  0.4614232E+02  0.7816164E-02  0.1320468E+00
        -11   -1    0    0    0    0  0.00000000000E+00  0.00000000000E+00  0.45593999997E+02  0.45594000000E+02  0.51100000000E-03 0.  1.
         11   -1    0    0    0    0 -0.00000000000E+00 -0.00000000000E+00 -0.45593999997E+02  0.45594000000E+02  0.51100000000E-03 0. -1.
    9900012    2    1    2    0    0 -0.17612160833E+02 -0.33483558213E+02  0.24449466698E+02  0.46142319834E+02  0.10000018904E+02 0.  0.
         12    1    1    2    0    0  0.17612160833E+02  0.33483558213E+02 -0.24449466698E+02  0.45045680166E+02  0.00000000000E+00 0. -1.
         11    1    3    3    0    0 -0.32544230621E+01 -0.54385069243E+01  0.19255835310E+00  0.63407969541E+01  0.51100000000E-03 0. -1.
        -11    1    3    3    0    0 -0.95527399689E+01 -0.19395258490E+02  0.15690279436E+02  0.26713587588E+02  0.51100000000E-03 0.  1.
         12    1    3    3    0    0 -0.48049978021E+01 -0.86497927986E+01  0.85666289093E+01  0.13087935292E+02  0.00000000000E+00 0. -1.
</event>
<event>
 7    1  0.2425980E-008  0.4614231E+02  0.7816164E-02  0.1320468E+00
        -11   -1    0    0    0    0  0.00000000000E+00  0.00000000000E+00  0.45593999997E+02  0.45594000000E+02  0.51100000000E-03 0.  1.
         11   -1    0    0    0    0 -0.00000000000E+00 -0.00000000000E+00 -0.45593999997E+02  0.45594000000E+02  0.51100000000E-03 0. -1.
    9900012    2    1    2    0    0 -0.56825581197E+01 -0.42168568491E+02  0.14786286068E+02  0.46142313292E+02  0.99999592442E+01 0.  0.
         12    1    1    2    0    0  0.56825581197E+01  0.42168568491E+02 -0.14786286068E+02  0.45045686708E+02  0.00000000000E+00 0. -1.
         11    1    3    3    0    0 -0.25357576232E+01 -0.18796719916E+02  0.68639056958E+01  0.20170769642E+02  0.51100000000E-03 0. -1.
        -11    1    3    3    0    0 -0.31913309090E+01 -0.20536499560E+02  0.93585872024E+01  0.22792884017E+02  0.51100000000E-03 0.  1.
         12    1    3    3    0    0  0.44530412504E-01 -0.28353490152E+01 -0.14362068302E+01  0.31786596318E+01  0.00000000000E+00 0. -1.
</event>
<event>
 7    1  0.2425980E-008  0.4614232E+02  0.7816164E-02  0.1320468E+00
        -11   -1    0    0    0    0  0.00000000000E+00  0.00000000000E+00  0.45593999997E+02  0.45594000000E+02  0.51100000000E-03 0.  1.
         11   -1    0    0    0    0 -0.00000000000E+00 -0.00000000000E+00 -0.45593999997E+02  0.45594000000E+02  0.51100000000E-03 0. -1.
    9900012    2    1    2    0    0  0.12019094592E+02 -0.20828883503E+02  0.38089531906E+02  0.46142318036E+02  0.10000002507E+02 0.  0.
         12    1    1    2    0    0 -0.12019094592E+02  0.20828883503E+02 -0.38089531906E+02  0.45045681964E+02  0.00000000000E+00 0. -1.
         11    1    3    3    0    0 -0.14005423568E+00 -0.17547176036E+01  0.33290798650E+01  0.37658228936E+01  0.51100000000E-03 0. -1.
        -11    1    3    3    0    0  0.49055823403E+01 -0.14189177779E+02  0.25837308764E+02  0.29882503720E+02  0.51100000000E-03 0.  1.
         12    1    3    3    0    0  0.72535664875E+01 -0.48849881204E+01  0.89231432762E+01  0.12493991422E+02  0.00000000000E+00 0. -1.
</event>
<event>
 7    1  0.2425980E-008  0.4614232E+02  0.7816164E-02  0.1320468E+00
        -11   -1    0    0    0    0  0.00000000000E+00  0.00000000000E+00  0.45593999997E+02  0.45594000000E+02  0.51100000000E-03 0. -1.
         11   -1    0    0    0    0 -0.00000000000E+00 -0.00000000000E+00 -0.45593999997E+02  0.45594000000E+02  0.51100000000E-03 0.  1.
    9900012    2    1    2    0    0 -0.28681136149E+02  0.26890052535E+02 -0.21987068475E+02  0.46142315675E+02  0.99999809805E+01 0.  0.
         12    1    1    2    0    0  0.28681136149E+02 -0.26890052535E+02  0.21987068475E+02  0.45045684325E+02  0.00000000000E+00 0. -1.
         11    1    3    3    0    0 -0.14601811777E+02  0.16474274737E+02 -0.11048321770E+02  0.24630875938E+02  0.51100000000E-03 0. -1.
        -11    1    3    3    0    0 -0.80746326514E+01  0.78265129563E+01 -0.38959418816E+01  0.11900939497E+02  0.51100000000E-03 0.  1.
         12    1    3    3    0    0 -0.60046917205E+01  0.25892648418E+01 -0.70428048237E+01  0.96105002401E+01  0.00000000000E+00 0. -1.
</event>
<event>
 7    1  0.2425980E-008  0.4614232E+02  0.7816164E-02  0.1320468E+00
        -11   -1    0    0    0    0  0.00000000000E+00  0.00000000000E+00  0.45593999997E+02  0.45594000000E+02  0.51100000000E-03 0.  1.
         11   -1    0    0    0    0 -0.00000000000E+00 -0.00000000000E+00 -0.45593999997E+02  0.45594000000E+02  0.51100000000E-03 0. -1.
    9900012    2    1    2    0    0  0.44198546354E+02  0.69684418118E+01  0.52002690843E+01  0.46142317858E+02  0.10000000888E+02 0.  0.
         12    1    1    2    0    0 -0.44198546354E+02 -0.69684418118E+01 -0.52002690843E+01  0.45045682142E+02  0.00000000000E+00 0. -1.
         11    1    3    3    0    0  0.12856343553E+02  0.33623200979E+01 -0.20660435240E+01  0.13448394034E+02  0.51100000000E-03 0. -1.
        -11    1    3    3    0    0  0.14438147209E+02  0.11924161164E+00  0.15967480214E+01  0.14526662311E+02  0.51100000000E-03 0.  1.
        -12    1    3    3    0    0  0.16904055591E+02  0.34868801023E+01  0.56695645869E+01  0.18167261513E+02  0.00000000000E+00 0.  1.
</event>
<event>
 7    1  0.2425980E-008  0.4614232E+02  0.7816164E-02  0.1320468E+00
        -11   -1    0    0    0    0  0.00000000000E+00  0.00000000000E+00  0.45593999997E+02  0.45594000000E+02  0.51100000000E-03 0. -1.
         11   -1    0    0    0    0 -0.00000000000E+00 -0.00000000000E+00 -0.45593999997E+02  0.45594000000E+02  0.51100000000E-03 0.  1.
    9900012    2    1    2    0    0  0.24104100695E+01 -0.39901616088E+02 -0.20764498613E+02  0.46142318234E+02  0.10000004310E+02 0.  0.
         12    1    1    2    0    0 -0.24104100695E+01  0.39901616088E+02  0.20764498613E+02  0.45045681766E+02  0.00000000000E+00 0. -1.
         11    1    3    3    0    0  0.41002979829E+01 -0.29569691154E+02 -0.17454544912E+02  0.34580922730E+02  0.51100000000E-03 0.  1.
        -11    1    3    3    0    0 -0.18104024561E+01 -0.19775402519E+01 -0.38302982292E+00  0.27083084403E+01  0.51100000000E-03 0. -1.
         12    1    3    3    0    0  0.12051454272E+00 -0.83543846818E+01 -0.29269238780E+01  0.88530870635E+01  0.00000000000E+00 0. -1.
</event>
<event>
 7    1  0.2425980E-008  0.4614232E+02  0.7816164E-02  0.1320468E+00
        -11   -1    0    0    0    0  0.00000000000E+00  0.00000000000E+00  0.45593999997E+02  0.45594000000E+02  0.51100000000E-03 0.  1.
         11   -1    0    0    0    0 -0.00000000000E+00 -0.00000000000E+00 -0.45593999997E+02  0.45594000000E+02  0.51100000000E-03 0. -1.
    9900012    2    1    2    0    0 -0.37091446252E+02  0.25548781245E+02 -0.77323444657E+00  0.46142317635E+02  0.99999988537E+01 0.  0.
         12    1    1    2    0    0  0.37091446252E+02 -0.25548781245E+02  0.77323444657E+00  0.45045682365E+02  0.00000000000E+00 0. -1.
         11    1    3    3    0    0 -0.43795693184E+01  0.44398263135E+01 -0.11883192425E+01  0.63486052005E+01  0.51100000000E-03 0. -1.
        -11    1    3    3    0    0 -0.21796139967E+02  0.14524574037E+02  0.41293831167E+01  0.26515783481E+02  0.51100000000E-03 0.  1.
        -12    1    3    3    0    0 -0.10915736967E+02  0.65843808938E+01 -0.37142983208E+01  0.13277928954E+02  0.00000000000E+00 0.  1.
</event>
<event>
 7    1  0.2425980E-008  0.4614232E+02  0.7816164E-02  0.1320468E+00
        -11   -1    0    0    0    0  0.00000000000E+00  0.00000000000E+00  0.45593999997E+02  0.45594000000E+02  0.51100000000E-03 0.  1.
         11   -1    0    0    0    0 -0.00000000000E+00 -0.00000000000E+00 -0.45593999997E+02  0.45594000000E+02  0.51100000000E-03 0. -1.
    9900012    2    1    2    0    0  0.59994811895E+01  0.34003448425E+02  0.28928969411E+02  0.46142317071E+02  0.99999937096E+01 0.  0.
         12    1    1    2    0    0 -0.59994811895E+01 -0.34003448425E+02 -0.28928969411E+02  0.45045682929E+02  0.00000000000E+00 0. -1.
         11    1    3    3    0    0  0.32411878704E+01  0.81143520616E+01  0.27490361064E+01  0.91599786008E+01  0.51100000000E-03 0. -1.
        -11    1    3    3    0    0  0.25720723599E+01  0.15994880021E+02  0.15467269400E+02  0.22398396506E+02  0.51100000000E-03 0.  1.
         12    1    3    3    0    0  0.18622095922E+00  0.98942163419E+01  0.10712663905E+02  0.14583941964E+02  0.00000000000E+00 0. -1.
</event>
<event>
 7    1  0.2425980E-008  0.4614232E+02  0.7816164E-02  0.1320468E+00
        -11   -1    0    0    0    0  0.00000000000E+00  0.00000000000E+00  0.45593999997E+02  0.45594000000E+02  0.51100000000E-03 0.  1.
         11   -1    0    0    0    0 -0.00000000000E+00 -0.00000000000E+00 -0.45593999997E+02  0.45594000000E+02  0.51100000000E-03 0. -1.
    9900012    2    1    2    0    0  0.27448603376E+02 -0.23868606879E+01  0.35636926641E+02  0.46142317947E+02  0.10000001695E+02 0.  0.
         12    1    1    2    0    0 -0.27448603376E+02  0.23868606879E+01 -0.35636926641E+02  0.45045682053E+02  0.00000000000E+00 0. -1.
         11    1    3    3    0    0  0.11136645386E+02  0.18439265040E+01  0.11411972963E+02  0.16051730828E+02  0.51100000000E-03 0. -1.
        -11    1    3    3    0    0  0.13272274565E+02 -0.42343621943E+01  0.22832651051E+02  0.26747206389E+02  0.51100000000E-03 0.  1.
        -12    1    3    3    0    0  0.30396834251E+01  0.35750024477E-02  0.13923026270E+01  0.33433807308E+01  0.00000000000E+00 0.  1.
</event>
<event>
 7    1  0.2425980E-008  0.4614232E+02  0.7816164E-02  0.1320468E+00
        -11   -1    0    0    0    0  0.00000000000E+00  0.00000000000E+00  0.45593999997E+02  0.45594000000E+02  0.51100000000E-03 0.  1.
         11   -1    0    0    0    0 -0.00000000000E+00 -0.00000000000E+00 -0.45593999997E+02  0.45594000000E+02  0.51100000000E-03 0. -1.
    9900012    2    1    2    0    0 -0.15881864360E+02 -0.19119545899E+02  0.37567577334E+02  0.46142317435E+02  0.99999970299E+01 0.  0.
         12    1    1    2    0    0  0.15881864360E+02  0.19119545899E+02 -0.37567577334E+02  0.45045682565E+02  0.00000000000E+00 0. -1.
         11    1    3    3    0    0 -0.33003007622E-03 -0.99405126010E+00  0.12756028948E+00  0.10022025270E+01  0.51100000000E-03 0. -1.
        -11    1    3    3    0    0 -0.10127436781E+02 -0.15997795777E+02  0.26064033013E+02  0.32215342038E+02  0.51100000000E-03 0.  1.
        -12    1    3    3    0    0 -0.57540975488E+01 -0.21276988620E+01  0.11375984032E+02  0.12924772870E+02  0.00000000000E+00 0.  1.
</event>
<event>
 7    1  0.2425980E-008  0.4614232E+02  0.7816164E-02  0.1320468E+00
        -11   -1    0    0    0    0  0.00000000000E+00  0.00000000000E+00  0.45593999997E+02  0.45594000000E+02  0.51100000000E-03 0.  1.
         11   -1    0    0    0    0 -0.00000000000E+00 -0.00000000000E+00 -0.45593999997E+02  0.45594000000E+02  0.51100000000E-03 0. -1.
    9900012    2    1    2    0    0 -0.11130260380E+01 -0.36170881657E+02  0.26824279809E+02  0.46142317698E+02  0.99999994232E+01 0.  0.
         12    1    1    2    0    0  0.11130260380E+01  0.36170881657E+02 -0.26824279809E+02  0.45045682302E+02  0.00000000000E+00 0. -1.
         11    1    3    3    0    0  0.17151079524E+01 -0.13601450088E+02  0.91393653105E+01  0.16476317499E+02  0.51100000000E-03 0. -1.
        -11    1    3    3    0    0 -0.44482125491E+01 -0.21053237280E+02  0.16701018830E+02  0.27238748596E+02  0.51100000000E-03 0.  1.
         12    1    3    3    0    0  0.16200785587E+01 -0.15161942886E+01  0.98389566863E+00  0.24272516029E+01  0.00000000000E+00 0. -1.
</event>
<event>
 7    1  0.2425980E-008  0.4614232E+02  0.7816164E-02  0.1320468E+00
        -11   -1    0    0    0    0  0.00000000000E+00  0.00000000000E+00  0.45593999997E+02  0.45594000000E+02  0.51100000000E-03 0. -1.
         11   -1    0    0    0    0 -0.00000000000E+00 -0.00000000000E+00 -0.45593999997E+02  0.45594000000E+02  0.51100000000E-03 0.  1.
    9900012    2    1    2    0    0 -0.22473536781E+02  0.16264000305E+02 -0.35489940190E+02  0.46142318564E+02  0.10000007317E+02 0.  0.
         12    1    1    2    0    0  0.22473536781E+02 -0.16264000305E+02  0.35489940190E+02  0.45045681436E+02  0.00000000000E+00 0. -1.
         11    1    3    3    0    0 -0.14234893417E+00  0.27222104191E+00  0.18888043061E+00  0.36061557496E+00  0.51100000000E-03 0. -1.
        -11    1    3    3    0    0 -0.73598018436E+01  0.68699046554E+01 -0.73438575215E+01  0.12461722060E+02  0.51100000000E-03 0.  1.
        -12    1    3    3    0    0 -0.14971386003E+02  0.91218746072E+01 -0.28334963099E+02  0.33319980928E+02  0.00000000000E+00 0.  1.
</event>
<event>
 7    1  0.2425980E-008  0.4614232E+02  0.7816164E-02  0.1320468E+00
        -11   -1    0    0    0    0  0.00000000000E+00  0.00000000000E+00  0.45593999997E+02  0.45594000000E+02  0.51100000000E-03 0.  1.
         11   -1    0    0    0    0 -0.00000000000E+00 -0.00000000000E+00 -0.45593999997E+02  0.45594000000E+02  0.51100000000E-03 0. -1.
    9900012    2    1    2    0    0 -0.40360958643E+02  0.19958335103E+02  0.13309337039E+01  0.46142317552E+02  0.99999980921E+01 0.  0.
         12    1    1    2    0    0  0.40360958643E+02 -0.19958335103E+02 -0.13309337039E+01  0.45045682448E+02  0.00000000000E+00 0. -1.
         11    1    3    3    0    0 -0.57022345071E+01  0.48107800284E+00  0.79530590722E+00  0.57774930693E+01  0.51100000000E-03 0. -1.
        -11    1    3    3    0    0 -0.32236439774E+02  0.15779472082E+02  0.11021592144E+01  0.35908140354E+02  0.51100000000E-03 0.  1.
        -12    1    3    3    0    0 -0.24222843622E+01  0.36977850188E+01 -0.56653141780E+00  0.44566841288E+01  0.00000000000E+00 0.  1.
</event>
<event>
 7    1  0.2425980E-008  0.4614232E+02  0.7816164E-02  0.1320468E+00
        -11   -1    0    0    0    0  0.00000000000E+00  0.00000000000E+00  0.45593999997E+02  0.45594000000E+02  0.51100000000E-03 0.  1.
         11   -1    0    0    0    0 -0.00000000000E+00 -0.00000000000E+00 -0.45593999997E+02  0.45594000000E+02  0.51100000000E-03 0. -1.
    9900012    2    1    2    0    0  0.35120591573E+02  0.76405930346E+01  0.27152877683E+02  0.46142318955E+02  0.10000010882E+02 0.  0.
         12    1    1    2    0    0 -0.35120591573E+02 -0.76405930346E+01 -0.27152877683E+02  0.45045681045E+02  0.00000000000E+00 0. -1.
         11    1    3    3    0    0  0.15324228389E+02  0.56180488438E+01  0.86142100927E+01  0.18455326177E+02  0.51100000000E-03 0. -1.
        -11    1    3    3    0    0  0.12788400238E+02  0.29768478022E+01  0.14420751109E+02  0.19502893793E+02  0.51100000000E-03 0.  1.
         12    1    3    3    0    0  0.70079629461E+01 -0.95430361141E+00  0.41179164814E+01  0.81840989842E+01  0.00000000000E+00 0. -1.
</event>
<event>
 7    1  0.2425980E-008  0.4614232E+02  0.7816164E-02  0.1320468E+00
        -11   -1    0    0    0    0  0.00000000000E+00  0.00000000000E+00  0.45593999997E+02  0.45594000000E+02  0.51100000000E-03 0.  1.
         11   -1    0    0    0    0 -0.00000000000E+00 -0.00000000000E+00 -0.45593999997E+02  0.45594000000E+02  0.51100000000E-03 0. -1.
    9900012    2    1    2    0    0 -0.14195133302E+02 -0.93351546667E+01  0.41718901125E+02  0.46142316154E+02  0.99999853432E+01 0.  0.
         12    1    1    2    0    0  0.14195133302E+02  0.93351546667E+01 -0.41718901125E+02  0.45045683846E+02  0.00000000000E+00 0. -1.
         11    1    3    3    0    0 -0.37298486582E+01  0.34440752939E+00  0.41088116935E+01  0.55599209844E+01  0.51100000000E-03 0. -1.
        -11    1    3    3    0    0 -0.16693255714E+01 -0.46194330152E+01  0.94601702774E+01  0.10659297875E+02  0.51100000000E-03 0.  1.
        -12    1    3    3    0    0 -0.87959590726E+01 -0.50601291808E+01  0.28149919154E+02  0.29923097295E+02  0.00000000000E+00 0.  1.
</event>
<event>
 7    1  0.2425980E-008  0.4614232E+02  0.7816164E-02  0.1320468E+00
        -11   -1    0    0    0    0  0.00000000000E+00  0.00000000000E+00  0.45593999997E+02  0.45594000000E+02  0.51100000000E-03 0.  1.
         11   -1    0    0    0    0 -0.00000000000E+00 -0.00000000000E+00 -0.45593999997E+02  0.45594000000E+02  0.51100000000E-03 0. -1.
    9900012    2    1    2    0    0 -0.24389681526E+02  0.18363708881E+02  0.33121459795E+02  0.46142317990E+02  0.10000002084E+02 0.  0.
         12    1    1    2    0    0  0.24389681526E+02 -0.18363708881E+02 -0.33121459795E+02  0.45045682010E+02  0.00000000000E+00 0. -1.
         11    1    3    3    0    0 -0.14097024052E+01  0.20931894116E+01  0.81901484800E+00  0.26532034160E+01  0.51100000000E-03 0. -1.
        -11    1    3    3    0    0 -0.10185012534E+02  0.84847305141E+01  0.99168239783E+01  0.16555015261E+02  0.51100000000E-03 0.  1.
        -12    1    3    3    0    0 -0.12794966587E+02  0.77857889555E+01  0.22385620969E+02  0.26934099313E+02  0.00000000000E+00 0.  1.
</event>
<event>
 7    1  0.2425980E-008  0.4614232E+02  0.7816164E-02  0.1320468E+00
        -11   -1    0    0    0    0  0.00000000000E+00  0.00000000000E+00  0.45593999997E+02  0.45594000000E+02  0.51100000000E-03 0.  1.
         11   -1    0    0    0    0 -0.00000000000E+00 -0.00000000000E+00 -0.45593999997E+02  0.45594000000E+02  0.51100000000E-03 0. -1.
    9900012    2    1    2    0    0  0.48560686684E+01 -0.44162668719E+02  0.74290455642E+01  0.46142318416E+02  0.10000005975E+02 0.  0.
         12    1    1    2    0    0 -0.48560686684E+01  0.44162668719E+02 -0.74290455642E+01  0.45045681584E+02  0.00000000000E+00 0. -1.
         11    1    3    3    0    0  0.13893692149E+01 -0.25599970314E+02  0.63389503568E+01  0.26409678506E+02  0.51100000000E-03 0. -1.
        -11    1    3    3    0    0  0.24315972930E+01 -0.12196452491E+02  0.33812521191E+01  0.12887939514E+02  0.51100000000E-03 0.  1.
         12    1    3    3    0    0  0.10351021606E+01 -0.63662459140E+01 -0.22911569116E+01  0.68447003962E+01  0.00000000000E+00 0. -1.
</event>
<event>
 7    1  0.2425980E-008  0.4614232E+02  0.7816164E-02  0.1320468E+00
        -11   -1    0    0    0    0  0.00000000000E+00  0.00000000000E+00  0.45593999997E+02  0.45594000000E+02  0.51100000000E-03 0.  1.
         11   -1    0    0    0    0 -0.00000000000E+00 -0.00000000000E+00 -0.45593999997E+02  0.45594000000E+02  0.51100000000E-03 0. -1.
    9900012    2    1    2    0    0  0.36072337057E+01 -0.35660248120E+01  0.44759186352E+02  0.46142318400E+02  0.10000005823E+02 0.  0.
         12    1    1    2    0    0 -0.36072337057E+01  0.35660248120E+01 -0.44759186352E+02  0.45045681600E+02  0.00000000000E+00 0. -1.
         11    1    3    3    0    0 -0.52000726676E+00 -0.16289404763E+01  0.11780402707E+02  0.11903854117E+02  0.51100000000E-03 0. -1.
        -11    1    3    3    0    0 -0.20804717854E+01 -0.18793448712E+01  0.13731468896E+02  0.14014761443E+02  0.51100000000E-03 0.  1.
         12    1    3    3    0    0  0.62077127578E+01 -0.57739464490E-01  0.19247314748E+02  0.20223702840E+02  0.00000000000E+00 0. -1.
</event>
<event>
 7    1  0.2425980E-008  0.4614232E+02  0.7816164E-02  0.1320468E+00
        -11   -1    0    0    0    0  0.00000000000E+00  0.00000000000E+00  0.45593999997E+02  0.45594000000E+02  0.51100000000E-03 0.  1.
         11   -1    0    0    0    0 -0.00000000000E+00 -0.00000000000E+00 -0.45593999997E+02  0.45594000000E+02  0.51100000000E-03 0. -1.
    9900012    2    1    2    0    0 -0.27070962398E+02  0.25565045817E+02  0.25351625288E+02  0.46142317882E+02  0.10000001101E+02 0.  0.
         12    1    1    2    0    0  0.27070962398E+02 -0.25565045817E+02 -0.25351625288E+02  0.45045682118E+02  0.00000000000E+00 0. -1.
         11    1    3    3    0    0 -0.48125454577E+01  0.38120155353E+01  0.79215118258E+01  0.10022095893E+02  0.51100000000E-03 0.  1.
        -11    1    3    3    0    0 -0.93676257638E+00  0.29859964871E+01  0.90160653101E+00  0.32567765879E+01  0.51100000000E-03 0. -1.
         12    1    3    3    0    0 -0.21321654364E+02  0.18767033794E+02  0.16528506931E+02  0.32863445401E+02  0.00000000000E+00 0. -1.
</event>
<event>
 7    1  0.2425980E-008  0.4614232E+02  0.7816164E-02  0.1320468E+00
        -11   -1    0    0    0    0  0.00000000000E+00  0.00000000000E+00  0.45593999997E+02  0.45594000000E+02  0.51100000000E-03 0.  1.
         11   -1    0    0    0    0 -0.00000000000E+00 -0.00000000000E+00 -0.45593999997E+02  0.45594000000E+02  0.51100000000E-03 0. -1.
    9900012    2    1    2    0    0 -0.31483922841E+02 -0.20477914585E+02  0.24870285357E+02  0.46142317888E+02  0.10000001153E+02 0.  0.
         12    1    1    2    0    0  0.31483922841E+02  0.20477914585E+02 -0.24870285357E+02  0.45045682112E+02  0.00000000000E+00 0. -1.
         11    1    3    3    0    0 -0.12884994864E+02 -0.57511609076E+01  0.10789214181E+02  0.17762491023E+02  0.51100000000E-03 0.  1.
        -11    1    3    3    0    0 -0.53968792112E+01 -0.59466622841E+01  0.15688823916E+01  0.81823278938E+01  0.51100000000E-03 0. -1.
        -12    1    3    3    0    0 -0.13202048766E+02 -0.87800913928E+01  0.12512188785E+02  0.20197498971E+02  0.00000000000E+00 0.  1.
</event>
<event>
 7    1  0.2425980E-008  0.4614232E+02  0.7816164E-02  0.1320468E+00
        -11   -1    0    0    0    0  0.00000000000E+00  0.00000000000E+00  0.45593999997E+02  0.45594000000E+02  0.51100000000E-03 0.  1.
         11   -1    0    0    0    0 -0.00000000000E+00 -0.00000000000E+00 -0.45593999997E+02  0.45594000000E+02  0.51100000000E-03 0. -1.
    9900012    2    1    2    0    0  0.26797978134E+02  0.18863567759E+02  0.30905461793E+02  0.46142318861E+02  0.10000010028E+02 0.  0.
         12    1    1    2    0    0 -0.26797978134E+02 -0.18863567759E+02 -0.30905461793E+02  0.45045681139E+02  0.00000000000E+00 0. -1.
         11    1    3    3    0    0  0.13969536013E+02  0.13362949052E+02  0.14229963209E+02  0.24004337045E+02  0.51100000000E-03 0.  1.
        -11    1    3    3    0    0  0.41933345573E+00  0.12257326957E+00 -0.22570075364E+00  0.49173757719E+00  0.51100000000E-03 0. -1.
         12    1    3    3    0    0  0.12409108665E+02  0.53780454376E+01  0.16901199337E+02  0.21646244238E+02  0.00000000000E+00 0. -1.
</event>
<event>
 7    1  0.2425980E-008  0.4614231E+02  0.7816164E-02  0.1320468E+00
        -11   -1    0    0    0    0  0.00000000000E+00  0.00000000000E+00  0.45593999997E+02  0.45594000000E+02  0.51100000000E-03 0.  1.
         11   -1    0    0    0    0 -0.00000000000E+00 -0.00000000000E+00 -0.45593999997E+02  0.45594000000E+02  0.51100000000E-03 0. -1.
    9900012    2    1    2    0    0 -0.25439568023E+02  0.31931732468E+02  0.19034357595E+02  0.46142312874E+02  0.99999554341E+01 0.  0.
         12    1    1    2    0    0  0.25439568023E+02 -0.31931732468E+02 -0.19034357595E+02  0.45045687126E+02  0.00000000000E+00 0. -1.
         11    1    3    3    0    0 -0.13512676044E+00  0.14446261361E+00  0.48344983319E+00  0.52235303239E+00  0.51100000000E-03 0. -1.
        -11    1    3    3    0    0 -0.12476086446E+02  0.18161004427E+02  0.14773132613E+02  0.26527726293E+02  0.51100000000E-03 0.  1.
        -12    1    3    3    0    0 -0.12828354817E+02  0.13626265427E+02  0.37777751488E+01  0.19092233548E+02  0.00000000000E+00 0.  1.
</event>
<event>
 7    1  0.2425980E-008  0.4614232E+02  0.7816164E-02  0.1320468E+00
        -11   -1    0    0    0    0  0.00000000000E+00  0.00000000000E+00  0.45593999997E+02  0.45594000000E+02  0.51100000000E-03 0.  1.
         11   -1    0    0    0    0 -0.00000000000E+00 -0.00000000000E+00 -0.45593999997E+02  0.45594000000E+02  0.51100000000E-03 0. -1.
    9900012    2    1    2    0    0  0.28225493223E+02 -0.36700266926E+00  0.35104135122E+02  0.46142318062E+02  0.10000002742E+02 0.  0.
         12    1    1    2    0    0 -0.28225493223E+02  0.36700266926E+00 -0.35104135122E+02  0.45045681938E+02  0.00000000000E+00 0. -1.
         11    1    3    3    0    0  0.30538603104E+01 -0.78248376822E+00  0.19521034141E+01  0.37079713650E+01  0.51100000000E-03 0. -1.
        -11    1    3    3    0    0  0.17733693083E+02  0.40641336933E+01  0.22235239711E+02  0.28729896246E+02  0.51100000000E-03 0.  1.
        -12    1    3    3    0    0  0.74379398293E+01 -0.36486525943E+01  0.10916791997E+02  0.13704450451E+02  0.00000000000E+00 0.  1.
</event>
<event>
 7    1  0.2425980E-008  0.4614232E+02  0.7816164E-02  0.1320468E+00
        -11   -1    0    0    0    0  0.00000000000E+00  0.00000000000E+00  0.45593999997E+02  0.45594000000E+02  0.51100000000E-03 0.  1.
         11   -1    0    0    0    0 -0.00000000000E+00 -0.00000000000E+00 -0.45593999997E+02  0.45594000000E+02  0.51100000000E-03 0. -1.
    9900012    2    1    2    0    0 -0.15214784834E+01  0.33453453180E+02  0.30127478338E+02  0.46142318993E+02  0.10000011231E+02 0.  0.
         12    1    1    2    0    0  0.15214784834E+01 -0.33453453180E+02 -0.30127478338E+02  0.45045681007E+02  0.00000000000E+00 0. -1.
         11    1    3    3    0    0 -0.25434454151E+01  0.25319273274E+02  0.20451153658E+02  0.32646353547E+02  0.51100000000E-03 0. -1.
        -11    1    3    3    0    0  0.12531927017E+01  0.68728552889E+01  0.99761006968E+01  0.12179048286E+02  0.51100000000E-03 0.  1.
         12    1    3    3    0    0 -0.23122576995E+00  0.12613246167E+01 -0.29977601741E+00  0.13169171599E+01  0.00000000000E+00 0. -1.
</event>
<event>
 7    1  0.2425980E-008  0.4614232E+02  0.7816164E-02  0.1320468E+00
        -11   -1    0    0    0    0  0.00000000000E+00  0.00000000000E+00  0.45593999997E+02  0.45594000000E+02  0.51100000000E-03 0.  1.
         11   -1    0    0    0    0 -0.00000000000E+00 -0.00000000000E+00 -0.45593999997E+02  0.45594000000E+02  0.51100000000E-03 0. -1.
    9900012    2    1    2    0    0 -0.39217492094E+02 -0.21875582471E+02 -0.35441095807E+01  0.46142317551E+02  0.99999980822E+01 0.  0.
         12    1    1    2    0    0  0.39217492094E+02  0.21875582471E+02  0.35441095807E+01  0.45045682449E+02  0.00000000000E+00 0. -1.
         11    1    3    3    0    0 -0.70268676241E+01 -0.82044402955E+01 -0.13990178143E+01  0.10892518546E+02  0.51100000000E-03 0. -1.
        -11    1    3    3    0    0 -0.90201098518E+01 -0.48540331012E+01  0.84837593121E+00  0.10278315089E+02  0.51100000000E-03 0.  1.
         12    1    3    3    0    0 -0.23170514618E+02 -0.88171090739E+01 -0.29934676976E+01  0.24971483916E+02  0.00000000000E+00 0. -1.
</event>
<event>
 7    1  0.2425980E-008  0.4614233E+02  0.7816164E-02  0.1320468E+00
        -11   -1    0    0    0    0  0.00000000000E+00  0.00000000000E+00  0.45593999997E+02  0.45594000000E+02  0.51100000000E-03 0.  1.
         11   -1    0    0    0    0 -0.00000000000E+00 -0.00000000000E+00 -0.45593999997E+02  0.45594000000E+02  0.51100000000E-03 0. -1.
    9900012    2    1    2    0    0 -0.37290829593E+02  0.17358875626E+02  0.18362357055E+02  0.46142326608E+02  0.10000080675E+02 0.  0.
         12    1    1    2    0    0  0.37290829593E+02 -0.17358875626E+02 -0.18362357055E+02  0.45045673392E+02  0.00000000000E+00 0. -1.
         11    1    3    3    0    0 -0.13212810980E+02  0.55965494245E+01  0.26353705514E+01  0.14589205518E+02  0.51100000000E-03 0. -1.
        -11    1    3    3    0    0 -0.13068233514E+02  0.72006204461E+01  0.11742708267E+02  0.18987334192E+02  0.51100000000E-03 0.  1.
        -12    1    3    3    0    0 -0.11009785098E+02  0.45617057556E+01  0.39842782362E+01  0.12565786898E+02  0.00000000000E+00 0.  1.
</event>
<event>
 7    1  0.2425980E-008  0.4614232E+02  0.7816164E-02  0.1320468E+00
        -11   -1    0    0    0    0  0.00000000000E+00  0.00000000000E+00  0.45593999997E+02  0.45594000000E+02  0.51100000000E-03 0.  1.
         11   -1    0    0    0    0 -0.00000000000E+00 -0.00000000000E+00 -0.45593999997E+02  0.45594000000E+02  0.51100000000E-03 0. -1.
    9900012    2    1    2    0    0  0.20498955962E+02  0.81895779682E+01  0.39266230172E+02  0.46142320798E+02  0.10000027694E+02 0.  0.
         12    1    1    2    0    0 -0.20498955962E+02 -0.81895779682E+01 -0.39266230172E+02  0.45045679202E+02  0.00000000000E+00 0. -1.
         11    1    3    3    0    0  0.19475985485E+02  0.67356404352E+01  0.29992024642E+02  0.36389619468E+02  0.51100000000E-03 0. -1.
        -11    1    3    3    0    0  0.10288005354E+01  0.11860800597E+01  0.93446798151E+01  0.94756666022E+01  0.51100000000E-03 0.  1.
         12    1    3    3    0    0 -0.58300582524E-02  0.26785747327E+00 -0.70474284580E-01  0.27703472771E+00  0.00000000000E+00 0. -1.
</event>
<event>
 7    1  0.2425980E-008  0.4614232E+02  0.7816164E-02  0.1320468E+00
        -11   -1    0    0    0    0  0.00000000000E+00  0.00000000000E+00  0.45593999997E+02  0.45594000000E+02  0.51100000000E-03 0.  1.
         11   -1    0    0    0    0 -0.00000000000E+00 -0.00000000000E+00 -0.45593999997E+02  0.45594000000E+02  0.51100000000E-03 0. -1.
    9900012    2    1    2    0    0  0.38911651066E+02 -0.22196620613E+02  0.47230210025E+01  0.46142317824E+02  0.10000000572E+02 0.  0.
         12    1    1    2    0    0 -0.38911651066E+02  0.22196620613E+02 -0.47230210025E+01  0.45045682176E+02  0.00000000000E+00 0. -1.
         11    1    3    3    0    0  0.35298675713E+01 -0.24578783628E+01 -0.19151113124E+01  0.47083736808E+01  0.51100000000E-03 0. -1.
        -11    1    3    3    0    0  0.20351485846E+02 -0.91803044605E+01  0.15802037504E+01  0.22382091284E+02  0.51100000000E-03 0.  1.
        -12    1    3    3    0    0  0.15030297649E+02 -0.10558437790E+02  0.50579285645E+01  0.19051852859E+02  0.00000000000E+00 0.  1.
</event>
<event>
 7    1  0.2425980E-008  0.4614232E+02  0.7816164E-02  0.1320468E+00
        -11   -1    0    0    0    0  0.00000000000E+00  0.00000000000E+00  0.45593999997E+02  0.45594000000E+02  0.51100000000E-03 0. -1.
         11   -1    0    0    0    0 -0.00000000000E+00 -0.00000000000E+00 -0.45593999997E+02  0.45594000000E+02  0.51100000000E-03 0.  1.
    9900012    2    1    2    0    0  0.15977338863E+02  0.27404546251E+02 -0.31981697320E+02  0.46142317900E+02  0.10000001268E+02 0.  0.
         12    1    1    2    0    0 -0.15977338863E+02 -0.27404546251E+02  0.31981697320E+02  0.45045682100E+02  0.00000000000E+00 0. -1.
         11    1    3    3    0    0  0.63271541687E+01  0.41848842251E+01 -0.10373558382E+02  0.12851336492E+02  0.51100000000E-03 0. -1.
        -11    1    3    3    0    0  0.54159841448E+01  0.10683098049E+02 -0.86846170334E+01  0.14794730192E+02  0.51100000000E-03 0.  1.
         12    1    3    3    0    0  0.42342005491E+01  0.12536563977E+02 -0.12923521905E+02  0.18496251216E+02  0.00000000000E+00 0. -1.
</event>
<event>
 7    1  0.2425980E-008  0.4614232E+02  0.7816164E-02  0.1320468E+00
        -11   -1    0    0    0    0  0.00000000000E+00  0.00000000000E+00  0.45593999997E+02  0.45594000000E+02  0.51100000000E-03 0. -1.
         11   -1    0    0    0    0 -0.00000000000E+00 -0.00000000000E+00 -0.45593999997E+02  0.45594000000E+02  0.51100000000E-03 0.  1.
    9900012    2    1    2    0    0 -0.23242040117E+02 -0.13492588754E+02 -0.36150672049E+02  0.46142317968E+02  0.10000001890E+02 0.  0.
         12    1    1    2    0    0  0.23242040117E+02  0.13492588754E+02  0.36150672049E+02  0.45045682032E+02  0.00000000000E+00 0. -1.
         11    1    3    3    0    0 -0.76203642720E+01 -0.66525342410E+01 -0.20024325571E+02  0.22434343723E+02  0.51100000000E-03 0. -1.
        -11    1    3    3    0    0 -0.58161655945E+00 -0.67255667555E+00 -0.19344609182E+01  0.21290255070E+01  0.51100000000E-03 0.  1.
         12    1    3    3    0    0 -0.15040059285E+02 -0.61674978377E+01 -0.14191885560E+02  0.21578948738E+02  0.00000000000E+00 0. -1.
</event>
<event>
 7    1  0.2425980E-008  0.4614232E+02  0.7816164E-02  0.1320468E+00
        -11   -1    0    0    0    0  0.00000000000E+00  0.00000000000E+00  0.45593999997E+02  0.45594000000E+02  0.51100000000E-03 0.  1.
         11   -1    0    0    0    0 -0.00000000000E+00 -0.00000000000E+00 -0.45593999997E+02  0.45594000000E+02  0.51100000000E-03 0. -1.
    9900012    2    1    2    0    0 -0.27906911590E+02 -0.35162253566E+02  0.37327939418E+01  0.46142317177E+02  0.99999946778E+01 0.  0.
         12    1    1    2    0    0  0.27906911590E+02  0.35162253566E+02 -0.37327939418E+01  0.45045682823E+02  0.00000000000E+00 0. -1.
         11    1    3    3    0    0 -0.54819661864E+01 -0.39150296885E+01  0.27544007213E+01  0.72777836136E+01  0.51100000000E-03 0. -1.
        -11    1    3    3    0    0 -0.13298828355E+02 -0.17968665042E+02  0.32612577818E+01  0.22591316066E+02  0.51100000000E-03 0.  1.
        -12    1    3    3    0    0 -0.91261170485E+01 -0.13278558835E+02 -0.22828645613E+01  0.16273217498E+02  0.00000000000E+00 0.  1.
</event>
<event>
 7    1  0.2425980E-008  0.4614232E+02  0.7816164E-02  0.1320468E+00
        -11   -1    0    0    0    0  0.00000000000E+00  0.00000000000E+00  0.45593999997E+02  0.45594000000E+02  0.51100000000E-03 0. -1.
         11   -1    0    0    0    0 -0.00000000000E+00 -0.00000000000E+00 -0.45593999997E+02  0.45594000000E+02  0.51100000000E-03 0.  1.
    9900012    2    1    2    0    0  0.36937369033E+02  0.23033816803E+01 -0.25679537993E+02  0.46142317967E+02  0.10000001878E+02 0.  0.
         12    1    1    2    0    0 -0.36937369033E+02 -0.23033816803E+01  0.25679537993E+02  0.45045682033E+02  0.00000000000E+00 0. -1.
         11    1    3    3    0    0  0.21509590318E+02  0.11219590250E+01 -0.11767588901E+02  0.24543785700E+02  0.51100000000E-03 0. -1.
        -11    1    3    3    0    0 -0.39333423678E+00 -0.11614262591E+00 -0.11799897794E+01  0.12492305920E+01  0.51100000000E-03 0.  1.
        -12    1    3    3    0    0  0.15821112953E+02  0.12975652812E+01 -0.12731959313E+02  0.20349301675E+02  0.00000000000E+00 0.  1.
</event>
<event>
 7    1  0.2425980E-008  0.4614232E+02  0.7816164E-02  0.1320468E+00
        -11   -1    0    0    0    0  0.00000000000E+00  0.00000000000E+00  0.45593999997E+02  0.45594000000E+02  0.51100000000E-03 0.  1.
         11   -1    0    0    0    0 -0.00000000000E+00 -0.00000000000E+00 -0.45593999997E+02  0.45594000000E+02  0.51100000000E-03 0. -1.
    9900012    2    1    2    0    0 -0.40852210575E+02 -0.10205119382E+02  0.16002059964E+02  0.46142317703E+02  0.99999994731E+01 0.  0.
         12    1    1    2    0    0  0.40852210575E+02  0.10205119382E+02 -0.16002059964E+02  0.45045682297E+02  0.00000000000E+00 0. -1.
         11    1    3    3    0    0 -0.12810931570E+02 -0.56804851549E+01  0.70111488623E+01  0.15669846455E+02  0.51100000000E-03 0.  1.
        -11    1    3    3    0    0 -0.27931145267E+02 -0.50735214434E+01  0.82868845454E+01  0.29572993618E+02  0.51100000000E-03 0. -1.
        -12    1    3    3    0    0 -0.11013373779E+00  0.54888721607E+00  0.70402655662E+00  0.89947763096E+00  0.00000000000E+00 0.  1.
</event>
<event>
 7    1  0.2425980E-008  0.4614232E+02  0.7816164E-02  0.1320468E+00
        -11   -1    0    0    0    0  0.00000000000E+00  0.00000000000E+00  0.45593999997E+02  0.45594000000E+02  0.51100000000E-03 0.  1.
         11   -1    0    0    0    0 -0.00000000000E+00 -0.00000000000E+00 -0.45593999997E+02  0.45594000000E+02  0.51100000000E-03 0. -1.
    9900012    2    1    2    0    0  0.41409016024E+02  0.29172955889E+01  0.17489888816E+02  0.46142318382E+02  0.10000005661E+02 0.  0.
         12    1    1    2    0    0 -0.41409016024E+02 -0.29172955889E+01 -0.17489888816E+02  0.45045681618E+02  0.00000000000E+00 0. -1.
         11    1    3    3    0    0  0.33238233959E+01  0.62564120890E+00 -0.16737144655E+00  0.33863316954E+01  0.51100000000E-03 0. -1.
        -11    1    3    3    0    0  0.31678392334E+02  0.36602854591E+01  0.11908938412E+02  0.34040285617E+02  0.51100000000E-03 0.  1.
        -12    1    3    3    0    0  0.64068002938E+01 -0.13686310790E+01  0.57483218500E+01  0.87157010692E+01  0.00000000000E+00 0.  1.
</event>
<event>
 7    1  0.2425980E-008  0.4614232E+02  0.7816164E-02  0.1320468E+00
        -11   -1    0    0    0    0  0.00000000000E+00  0.00000000000E+00  0.45593999997E+02  0.45594000000E+02  0.51100000000E-03 0.  1.
         11   -1    0    0    0    0 -0.00000000000E+00 -0.00000000000E+00 -0.45593999997E+02  0.45594000000E+02  0.51100000000E-03 0. -1.
    9900012    2    1    2    0    0  0.28060148784E+02 -0.31978042850E+02  0.14803596963E+02  0.46142315886E+02  0.99999828977E+01 0.  0.
         12    1    1    2    0    0 -0.28060148784E+02  0.31978042850E+02 -0.14803596963E+02  0.45045684114E+02  0.00000000000E+00 0. -1.
         11    1    3    3    0    0  0.36609438526E+01 -0.89866838240E+01  0.31280025756E+01  0.10195459598E+02  0.51100000000E-03 0. -1.
        -11    1    3    3    0    0  0.90588664133E+01 -0.11724262127E+02  0.67800105464E+01  0.16293861617E+02  0.51100000000E-03 0.  1.
         12    1    3    3    0    0  0.15340338518E+02 -0.11267096899E+02  0.48955838407E+01  0.19652994671E+02  0.00000000000E+00 0. -1.
</event>
<event>
 7    1  0.2425980E-008  0.4614232E+02  0.7816164E-02  0.1320468E+00
        -11   -1    0    0    0    0  0.00000000000E+00  0.00000000000E+00  0.45593999997E+02  0.45594000000E+02  0.51100000000E-03 0. -1.
         11   -1    0    0    0    0 -0.00000000000E+00 -0.00000000000E+00 -0.45593999997E+02  0.45594000000E+02  0.51100000000E-03 0.  1.
    9900012    2    1    2    0    0  0.43531073446E+02  0.11491403159E+02 -0.14515032226E+01  0.46142316927E+02  0.99999923958E+01 0.  0.
         12    1    1    2    0    0 -0.43531073446E+02 -0.11491403159E+02  0.14515032226E+01  0.45045683073E+02  0.00000000000E+00 0. -1.
         11    1    3    3    0    0  0.11184331282E+02 -0.37208920310E+00 -0.12002393859E+01  0.11254700860E+02  0.51100000000E-03 0. -1.
        -11    1    3    3    0    0  0.20592666896E+02  0.48741651241E+01  0.75872876019E+00  0.21175246991E+02  0.51100000000E-03 0.  1.
        -12    1    3    3    0    0  0.11754075268E+02  0.69893272378E+01 -0.10099925969E+01  0.13712369076E+02  0.00000000000E+00 0.  1.
</event>
<event>
 7    1  0.2425980E-008  0.4614231E+02  0.7816164E-02  0.1320468E+00
        -11   -1    0    0    0    0  0.00000000000E+00  0.00000000000E+00  0.45593999997E+02  0.45594000000E+02  0.51100000000E-03 0.  1.
         11   -1    0    0    0    0 -0.00000000000E+00 -0.00000000000E+00 -0.45593999997E+02  0.45594000000E+02  0.51100000000E-03 0. -1.
    9900012    2    1    2    0    0 -0.89295013838E+01  0.31756766490E+02  0.30673857422E+02  0.46142314946E+02  0.99999743277E+01 0.  0.
         12    1    1    2    0    0  0.89295013838E+01 -0.31756766490E+02 -0.30673857422E+02  0.45045685054E+02  0.00000000000E+00 0. -1.
         11    1    3    3    0    0  0.13511463101E+01  0.59100455367E+01  0.62452239424E+01  0.87038529945E+01  0.51100000000E-03 0. -1.
        -11    1    3    3    0    0 -0.45840841300E+00  0.69529460410E-01 -0.15468339203E+00  0.48877380439E+00  0.51100000000E-03 0.  1.
        -12    1    3    3    0    0 -0.98222392809E+01  0.25777191493E+02  0.24583316872E+02  0.36949688147E+02  0.00000000000E+00 0.  1.
</event>
<event>
 7    1  0.2425980E-008  0.4614232E+02  0.7816164E-02  0.1320468E+00
        -11   -1    0    0    0    0  0.00000000000E+00  0.00000000000E+00  0.45593999997E+02  0.45594000000E+02  0.51100000000E-03 0.  1.
         11   -1    0    0    0    0 -0.00000000000E+00 -0.00000000000E+00 -0.45593999997E+02  0.45594000000E+02  0.51100000000E-03 0. -1.
    9900012    2    1    2    0    0 -0.16625992721E+01  0.63833837927E+01  0.44560089621E+02  0.46142318608E+02  0.10000007726E+02 0.  0.
         12    1    1    2    0    0  0.16625992721E+01 -0.63833837927E+01 -0.44560089621E+02  0.45045681392E+02  0.00000000000E+00 0. -1.
         11    1    3    3    0    0 -0.23832813964E+00  0.76621201698E+00  0.45478853794E-01  0.80370998773E+00  0.51100000000E-03 0. -1.
        -11    1    3    3    0    0 -0.34650259420E+01  0.51913849676E+01  0.27654386226E+02  0.28349990484E+02  0.51100000000E-03 0.  1.
         12    1    3    3    0    0  0.20407548096E+01  0.42578680815E+00  0.16860224542E+02  0.16988618137E+02  0.00000000000E+00 0. -1.
</event>
<event>
 7    1  0.2425980E-008  0.4614233E+02  0.7816164E-02  0.1320468E+00
        -11   -1    0    0    0    0  0.00000000000E+00  0.00000000000E+00  0.45593999997E+02  0.45594000000E+02  0.51100000000E-03 0.  1.
         11   -1    0    0    0    0 -0.00000000000E+00 -0.00000000000E+00 -0.45593999997E+02  0.45594000000E+02  0.51100000000E-03 0. -1.
    9900012    2    1    2    0    0 -0.44810199448E+02 -0.18064154050E+01 -0.42302829623E+01  0.46142329785E+02  0.10000109640E+02 0.  0.
         12    1    1    2    0    0  0.44810199448E+02  0.18064154050E+01  0.42302829623E+01  0.45045670215E+02  0.00000000000E+00 0. -1.
         11    1    3    3    0    0 -0.83672894916E+01 -0.19843708895E+01 -0.38677971011E+01  0.94291630561E+01  0.51100000000E-03 0. -1.
        -11    1    3    3    0    0 -0.10260034741E+02 -0.19442930983E+01 -0.10521736733E+00  0.10443163289E+02  0.51100000000E-03 0.  1.
        -12    1    3    3    0    0 -0.26182875216E+02  0.21222485828E+01 -0.25726849394E+00  0.26270003439E+02  0.00000000000E+00 0.  1.
</event>
<event>
 7    1  0.2425980E-008  0.4614232E+02  0.7816164E-02  0.1320468E+00
        -11   -1    0    0    0    0  0.00000000000E+00  0.00000000000E+00  0.45593999997E+02  0.45594000000E+02  0.51100000000E-03 0. -1.
         11   -1    0    0    0    0 -0.00000000000E+00 -0.00000000000E+00 -0.45593999997E+02  0.45594000000E+02  0.51100000000E-03 0.  1.
    9900012    2    1    2    0    0  0.19628641142E+02  0.37265960798E+02  0.15971163378E+02  0.46142318222E+02  0.10000004198E+02 0.  0.
         12    1    1    2    0    0 -0.19628641142E+02 -0.37265960798E+02 -0.15971163378E+02  0.45045681778E+02  0.00000000000E+00 0. -1.
         11    1    3    3    0    0 -0.47811962664E+00 -0.30827987334E+00  0.30549058866E+00  0.64572410406E+00  0.51100000000E-03 0. -1.
        -11    1    3    3    0    0  0.44964222419E+00  0.11043214980E+01 -0.30622276554E-01  0.11927456081E+01  0.51100000000E-03 0.  1.
        -12    1    3    3    0    0  0.19657118545E+02  0.36469919173E+02  0.15696295066E+02  0.44303848509E+02  0.00000000000E+00 0.  1.
</event>
<event>
 7    1  0.2425980E-008  0.4614232E+02  0.7816164E-02  0.1320468E+00
        -11   -1    0    0    0    0  0.00000000000E+00  0.00000000000E+00  0.45593999997E+02  0.45594000000E+02  0.51100000000E-03 0. -1.
         11   -1    0    0    0    0 -0.00000000000E+00 -0.00000000000E+00 -0.45593999997E+02  0.45594000000E+02  0.51100000000E-03 0.  1.
    9900012    2    1    2    0    0 -0.36430883973E+02 -0.19111640533E+02 -0.18348006088E+02  0.46142318316E+02  0.10000005063E+02 0.  0.
         12    1    1    2    0    0  0.36430883973E+02  0.19111640533E+02  0.18348006088E+02  0.45045681684E+02  0.00000000000E+00 0. -1.
         11    1    3    3    0    0 -0.15378850482E+02 -0.54214449253E+01 -0.64198226067E+01  0.17524703415E+02  0.51100000000E-03 0. -1.
        -11    1    3    3    0    0 -0.22885494603E+01 -0.33270323675E+01 -0.42144799137E+01  0.58368179867E+01  0.51100000000E-03 0.  1.
        -12    1    3    3    0    0 -0.18763484031E+02 -0.10363163240E+02 -0.77137035673E+01  0.22780796915E+02  0.00000000000E+00 0.  1.
</event>
<event>
 7    1  0.2425980E-008  0.4614232E+02  0.7816164E-02  0.1320468E+00
        -11   -1    0    0    0    0  0.00000000000E+00  0.00000000000E+00  0.45593999997E+02  0.45594000000E+02  0.51100000000E-03 0. -1.
         11   -1    0    0    0    0 -0.00000000000E+00 -0.00000000000E+00 -0.45593999997E+02  0.45594000000E+02  0.51100000000E-03 0.  1.
    9900012    2    1    2    0    0 -0.73777269802E+01  0.30050536404E+02 -0.32736034146E+02  0.46142317353E+02  0.99999962750E+01 0.  0.
         12    1    1    2    0    0  0.73777269802E+01 -0.30050536404E+02  0.32736034146E+02  0.45045682647E+02  0.00000000000E+00 0. -1.
         11    1    3    3    0    0  0.93131665033E+00  0.11029007824E+02 -0.10359561173E+02  0.15160041960E+02  0.51100000000E-03 0. -1.
        -11    1    3    3    0    0 -0.89486863283E+01  0.16281826341E+02 -0.20017832731E+02  0.27310995652E+02  0.51100000000E-03 0.  1.
        -12    1    3    3    0    0  0.63964269771E+00  0.27397022388E+01 -0.23586402425E+01  0.36712797403E+01  0.00000000000E+00 0.  1.
</event>
<event>
 7    1  0.2425980E-008  0.4614232E+02  0.7816164E-02  0.1320468E+00
        -11   -1    0    0    0    0  0.00000000000E+00  0.00000000000E+00  0.45593999997E+02  0.45594000000E+02  0.51100000000E-03 0. -1.
         11   -1    0    0    0    0 -0.00000000000E+00 -0.00000000000E+00 -0.45593999997E+02  0.45594000000E+02  0.51100000000E-03 0.  1.
    9900012    2    1    2    0    0  0.41614877052E+02 -0.13893939586E+02 -0.10211462170E+02  0.46142317533E+02  0.99999979206E+01 0.  0.
         12    1    1    2    0    0 -0.41614877052E+02  0.13893939586E+02  0.10211462170E+02  0.45045682467E+02  0.00000000000E+00 0. -1.
         11    1    3    3    0    0  0.13695485075E+01 -0.16114234951E+01 -0.11289314431E+01  0.23972557768E+01  0.51100000000E-03 0. -1.
        -11    1    3    3    0    0 -0.17067365964E+00  0.37391739924E-01 -0.63272009726E+00  0.65640126668E+00  0.51100000000E-03 0.  1.
        -12    1    3    3    0    0  0.40416002204E+02 -0.12319907831E+02 -0.84498106301E+01  0.43088660490E+02  0.00000000000E+00 0.  1.
</event>
<event>
 7    1  0.2425980E-008  0.4614232E+02  0.7816164E-02  0.1320468E+00
        -11   -1    0    0    0    0  0.00000000000E+00  0.00000000000E+00  0.45593999997E+02  0.45594000000E+02  0.51100000000E-03 0.  1.
         11   -1    0    0    0    0 -0.00000000000E+00 -0.00000000000E+00 -0.45593999997E+02  0.45594000000E+02  0.51100000000E-03 0. -1.
    9900012    2    1    2    0    0 -0.31294600307E+02  0.25506170680E+02 -0.19979903638E+02  0.46142319846E+02  0.10000019016E+02 0.  0.
         12    1    1    2    0    0  0.31294600307E+02 -0.25506170680E+02  0.19979903638E+02  0.45045680154E+02  0.00000000000E+00 0. -1.
         11    1    3    3    0    0 -0.19161441461E+02  0.10482230037E+02 -0.93002513303E+01  0.23738842863E+02  0.51100000000E-03 0. -1.
        -11    1    3    3    0    0 -0.21677307405E+01  0.11373159532E+01 -0.46576700057E+00  0.24918834845E+01  0.51100000000E-03 0.  1.
        -12    1    3    3    0    0 -0.99654281055E+01  0.13886624690E+02 -0.10213885308E+02  0.19911593499E+02  0.00000000000E+00 0.  1.
</event>
<event>
 7    1  0.2425980E-008  0.4614230E+02  0.7816164E-02  0.1320468E+00
        -11   -1    0    0    0    0  0.00000000000E+00  0.00000000000E+00  0.45593999997E+02  0.45594000000E+02  0.51100000000E-03 0.  1.
         11   -1    0    0    0    0 -0.00000000000E+00 -0.00000000000E+00 -0.45593999997E+02  0.45594000000E+02  0.51100000000E-03 0. -1.
    9900012    2    1    2    0    0 -0.43138487978E+02  0.38739889867E+01 -0.12376510173E+02  0.46142301651E+02  0.99998530925E+01 0.  0.
         12    1    1    2    0    0  0.43138487978E+02 -0.38739889867E+01  0.12376510173E+02  0.45045698349E+02  0.00000000000E+00 0. -1.
         11    1    3    3    0    0 -0.47443003768E+01  0.62110995209E+00  0.53092881974E+00  0.48141509439E+01  0.51100000000E-03 0. -1.
        -11    1    3    3    0    0 -0.18222668025E+02 -0.22154750501E+01 -0.63445086392E+01  0.19422326065E+02  0.51100000000E-03 0.  1.
        -12    1    3    3    0    0 -0.20171519576E+02  0.54683540847E+01 -0.65629303539E+01  0.21905824642E+02  0.00000000000E+00 0.  1.
</event>
<event>
 7    1  0.2425980E-008  0.4614232E+02  0.7816164E-02  0.1320468E+00
        -11   -1    0    0    0    0  0.00000000000E+00  0.00000000000E+00  0.45593999997E+02  0.45594000000E+02  0.51100000000E-03 0.  1.
         11   -1    0    0    0    0 -0.00000000000E+00 -0.00000000000E+00 -0.45593999997E+02  0.45594000000E+02  0.51100000000E-03 0. -1.
    9900012    2    1    2    0    0 -0.41588076750E+02  0.11295313556E+02  0.13113398424E+02  0.46142318139E+02  0.10000003443E+02 0.  0.
         12    1    1    2    0    0  0.41588076750E+02 -0.11295313556E+02 -0.13113398424E+02  0.45045681861E+02  0.00000000000E+00 0. -1.
         11    1    3    3    0    0 -0.86480973909E+00  0.11239134400E+01  0.15152649559E+01  0.20753567050E+01  0.51100000000E-03 0. -1.
        -11    1    3    3    0    0 -0.12271083031E+02  0.18068427133E+01  0.53676161085E+00  0.12415001918E+02  0.51100000000E-03 0.  1.
        -12    1    3    3    0    0 -0.28452183980E+02  0.83645574030E+01  0.11061371857E+02  0.31651959515E+02  0.00000000000E+00 0.  1.
</event>
<event>
 7    1  0.2425980E-008  0.4614232E+02  0.7816164E-02  0.1320468E+00
        -11   -1    0    0    0    0  0.00000000000E+00  0.00000000000E+00  0.45593999997E+02  0.45594000000E+02  0.51100000000E-03 0. -1.
         11   -1    0    0    0    0 -0.00000000000E+00 -0.00000000000E+00 -0.45593999997E+02  0.45594000000E+02  0.51100000000E-03 0.  1.
    9900012    2    1    2    0    0 -0.34195437966E+01 -0.32156018629E+02 -0.31359378323E+02  0.46142318490E+02  0.10000006650E+02 0.  0.
         12    1    1    2    0    0  0.34195437966E+01  0.32156018629E+02  0.31359378323E+02  0.45045681510E+02  0.00000000000E+00 0. -1.
         11    1    3    3    0    0  0.90093712395E-01  0.48284511745E+00 -0.13004972299E+00  0.50810380438E+00  0.51100000000E-03 0. -1.
        -11    1    3    3    0    0 -0.27366229126E-01 -0.44763663968E+01 -0.70593937692E+01  0.83590457397E+01  0.51100000000E-03 0.  1.
        -12    1    3    3    0    0 -0.34822712798E+01 -0.28162497350E+02 -0.24169934831E+02  0.37275168946E+02  0.00000000000E+00 0.  1.
</event>
<event>
 7    1  0.2425980E-008  0.4614232E+02  0.7816164E-02  0.1320468E+00
        -11   -1    0    0    0    0  0.00000000000E+00  0.00000000000E+00  0.45593999997E+02  0.45594000000E+02  0.51100000000E-03 0.  1.
         11   -1    0    0    0    0 -0.00000000000E+00 -0.00000000000E+00 -0.45593999997E+02  0.45594000000E+02  0.51100000000E-03 0. -1.
    9900012    2    1    2    0    0  0.17963918052E+02  0.40467116876E+02  0.82959887015E+01  0.46142319535E+02  0.10000016175E+02 0.  0.
         12    1    1    2    0    0 -0.17963918052E+02 -0.40467116876E+02 -0.82959887015E+01  0.45045680465E+02  0.00000000000E+00 0. -1.
         11    1    3    3    0    0  0.34901902887E+00  0.39361975612E+01  0.29011880599E+01  0.49022808920E+01  0.51100000000E-03 0. -1.
        -11    1    3    3    0    0  0.10037448917E+02  0.25020748507E+02  0.19147187629E+01  0.27026919632E+02  0.51100000000E-03 0.  1.
        -12    1    3    3    0    0  0.75774501059E+01  0.11510170808E+02  0.34800818786E+01  0.14213119011E+02  0.00000000000E+00 0.  1.
</event>
<event>
 7    1  0.2425980E-008  0.4614232E+02  0.7816164E-02  0.1320468E+00
        -11   -1    0    0    0    0  0.00000000000E+00  0.00000000000E+00  0.45593999997E+02  0.45594000000E+02  0.51100000000E-03 0.  1.
         11   -1    0    0    0    0 -0.00000000000E+00 -0.00000000000E+00 -0.45593999997E+02  0.45594000000E+02  0.51100000000E-03 0. -1.
    9900012    2    1    2    0    0 -0.22692503929E+02  0.32224563337E+02  0.21811491722E+02  0.46142318876E+02  0.10000010165E+02 0.  0.
         12    1    1    2    0    0  0.22692503929E+02 -0.32224563337E+02 -0.21811491722E+02  0.45045681124E+02  0.00000000000E+00 0. -1.
         11    1    3    3    0    0 -0.84493595488E+01  0.10461633874E+02  0.12571397722E+02  0.18408625724E+02  0.51100000000E-03 0. -1.
        -11    1    3    3    0    0 -0.89310021223E+01  0.11842600045E+02  0.42954349606E+01  0.15442173956E+02  0.51100000000E-03 0.  1.
         12    1    3    3    0    0 -0.53121422582E+01  0.99203294177E+01  0.49446590396E+01  0.12291519196E+02  0.00000000000E+00 0. -1.
</event>
<event>
 7    1  0.2425980E-008  0.4614232E+02  0.7816164E-02  0.1320468E+00
        -11   -1    0    0    0    0  0.00000000000E+00  0.00000000000E+00  0.45593999997E+02  0.45594000000E+02  0.51100000000E-03 0.  1.
         11   -1    0    0    0    0 -0.00000000000E+00 -0.00000000000E+00 -0.45593999997E+02  0.45594000000E+02  0.51100000000E-03 0. -1.
    9900012    2    1    2    0    0  0.35577638521E+02  0.23669727893E+02  0.14250931671E+02  0.46142318356E+02  0.10000005427E+02 0.  0.
         12    1    1    2    0    0 -0.35577638521E+02 -0.23669727893E+02 -0.14250931671E+02  0.45045681644E+02  0.00000000000E+00 0. -1.
         11    1    3    3    0    0  0.56544477136E+01  0.86064688216E+00  0.78105258965E+00  0.57726541045E+01  0.51100000000E-03 0. -1.
        -11    1    3    3    0    0  0.16686898948E+01  0.25825100308E+01 -0.73273630547E-01  0.30755899126E+01  0.51100000000E-03 0.  1.
        -12    1    3    3    0    0  0.28254500913E+02  0.20226570980E+02  0.13543152712E+02  0.37294074339E+02  0.00000000000E+00 0.  1.
</event>
<event>
 7    1  0.2425980E-008  0.4614232E+02  0.7816164E-02  0.1320468E+00
        -11   -1    0    0    0    0  0.00000000000E+00  0.00000000000E+00  0.45593999997E+02  0.45594000000E+02  0.51100000000E-03 0.  1.
         11   -1    0    0    0    0 -0.00000000000E+00 -0.00000000000E+00 -0.45593999997E+02  0.45594000000E+02  0.51100000000E-03 0. -1.
    9900012    2    1    2    0    0 -0.44614103073E+02 -0.29436370519E-01  0.62204839231E+01  0.46142317857E+02  0.10000000876E+02 0.  0.
         12    1    1    2    0    0  0.44614103073E+02  0.29436370519E-01 -0.62204839231E+01  0.45045682143E+02  0.00000000000E+00 0. -1.
         11    1    3    3    0    0  0.12324948211E+00 -0.36917407452E+00 -0.60480336772E-01  0.39387569663E+00  0.51100000000E-03 0. -1.
        -11    1    3    3    0    0 -0.17514857978E+02  0.36333177704E+01  0.28578033548E+01  0.18114587721E+02  0.51100000000E-03 0.  1.
         12    1    3    3    0    0 -0.27222494576E+02 -0.32935800664E+01  0.34231609051E+01  0.27633854440E+02  0.00000000000E+00 0. -1.
</event>
<event>
 7    1  0.2425980E-008  0.4614232E+02  0.7816164E-02  0.1320468E+00
        -11   -1    0    0    0    0  0.00000000000E+00  0.00000000000E+00  0.45593999997E+02  0.45594000000E+02  0.51100000000E-03 0.  1.
         11   -1    0    0    0    0 -0.00000000000E+00 -0.00000000000E+00 -0.45593999997E+02  0.45594000000E+02  0.51100000000E-03 0. -1.
    9900012    2    1    2    0    0  0.26879463189E+02 -0.34087642903E+02  0.12026668038E+02  0.46142315588E+02  0.99999801832E+01 0.  0.
         12    1    1    2    0    0 -0.26879463189E+02  0.34087642903E+02 -0.12026668038E+02  0.45045684412E+02  0.00000000000E+00 0. -1.
         11    1    3    3    0    0  0.45051594191E+01 -0.91982614317E+01  0.45110417269E+01  0.11191692119E+02  0.51100000000E-03 0. -1.
        -11    1    3    3    0    0  0.21856569325E+02 -0.24809464345E+02  0.63436779150E+01  0.33666918384E+02  0.51100000000E-03 0.  1.
        -12    1    3    3    0    0  0.51773444497E+00 -0.79917127018E-01  0.11719483957E+01  0.12837050849E+01  0.00000000000E+00 0.  1.
</event>
<event>
 7    1  0.2425980E-008  0.4614232E+02  0.7816164E-02  0.1320468E+00
        -11   -1    0    0    0    0  0.00000000000E+00  0.00000000000E+00  0.45593999997E+02  0.45594000000E+02  0.51100000000E-03 0.  1.
         11   -1    0    0    0    0 -0.00000000000E+00 -0.00000000000E+00 -0.45593999997E+02  0.45594000000E+02  0.51100000000E-03 0. -1.
    9900012    2    1    2    0    0  0.42104702559E+02  0.88541470305E+01  0.13338348936E+02  0.46142318192E+02  0.10000003925E+02 0.  0.
         12    1    1    2    0    0 -0.42104702559E+02 -0.88541470305E+01 -0.13338348936E+02  0.45045681808E+02  0.00000000000E+00 0. -1.
         11    1    3    3    0    0  0.17297398513E+01  0.13898090564E+01 -0.27786552111E+00  0.22362420878E+01  0.51100000000E-03 0. -1.
        -11    1    3    3    0    0  0.37468335128E+02  0.47644015912E+01  0.12138089643E+02  0.39672520467E+02  0.51100000000E-03 0.  1.
        -12    1    3    3    0    0  0.29066275801E+01  0.26999363830E+01  0.14781248137E+01  0.42335556364E+01  0.00000000000E+00 0.  1.
</event>
<event>
 7    1  0.2425980E-008  0.4614232E+02  0.7816164E-02  0.1320468E+00
        -11   -1    0    0    0    0  0.00000000000E+00  0.00000000000E+00  0.45593999997E+02  0.45594000000E+02  0.51100000000E-03 0.  1.
         11   -1    0    0    0    0 -0.00000000000E+00 -0.00000000000E+00 -0.45593999997E+02  0.45594000000E+02  0.51100000000E-03 0. -1.
    9900012    2    1    2    0    0 -0.14101486762E+02 -0.36596932089E+02  0.22156852861E+02  0.46142317677E+02  0.99999992374E+01 0.  0.
         12    1    1    2    0    0  0.14101486762E+02  0.36596932089E+02 -0.22156852861E+02  0.45045682323E+02  0.00000000000E+00 0. -1.
         11    1    3    3    0    0 -0.15964582596E+01 -0.44086984656E+01  0.18188188686E+01  0.50292547631E+01  0.51100000000E-03 0. -1.
        -11    1    3    3    0    0 -0.10873517634E+02 -0.27427616593E+02  0.13062446526E+02  0.32266624354E+02  0.51100000000E-03 0.  1.
        -12    1    3    3    0    0 -0.16315108684E+01 -0.47606170302E+01  0.72755874660E+01  0.88464385601E+01  0.00000000000E+00 0.  1.
</event>
<event>
 7    1  0.2425980E-008  0.4614232E+02  0.7816164E-02  0.1320468E+00
        -11   -1    0    0    0    0  0.00000000000E+00  0.00000000000E+00  0.45593999997E+02  0.45594000000E+02  0.51100000000E-03 0. -1.
         11   -1    0    0    0    0 -0.00000000000E+00 -0.00000000000E+00 -0.45593999997E+02  0.45594000000E+02  0.51100000000E-03 0.  1.
    9900012    2    1    2    0    0  0.26577597466E+02  0.36111408288E+02  0.43256228000E+01  0.46142317541E+02  0.99999979931E+01 0.  0.
         12    1    1    2    0    0 -0.26577597466E+02 -0.36111408288E+02 -0.43256228000E+01  0.45045682459E+02  0.00000000000E+00 0. -1.
         11    1    3    3    0    0  0.20347435844E+02  0.28485034087E+02  0.35442617481E+01  0.35184898806E+02  0.51100000000E-03 0. -1.
        -11    1    3    3    0    0  0.65684532981E+01  0.78147399277E+01  0.14152100959E+00  0.10209542954E+02  0.51100000000E-03 0.  1.
         12    1    3    3    0    0 -0.33829167640E+00 -0.18836572661E+00  0.63984004225E+00  0.74787578177E+00  0.00000000000E+00 0. -1.
</event>
<event>
 7    1  0.2425980E-008  0.4614232E+02  0.7816164E-02  0.1320468E+00
        -11   -1    0    0    0    0  0.00000000000E+00  0.00000000000E+00  0.45593999997E+02  0.45594000000E+02  0.51100000000E-03 0.  1.
         11   -1    0    0    0    0 -0.00000000000E+00 -0.00000000000E+00 -0.45593999997E+02  0.45594000000E+02  0.51100000000E-03 0. -1.
    9900012    2    1    2    0    0 -0.23819509808E+02 -0.72137551267E+01  0.37546052899E+02  0.46142318755E+02  0.10000009064E+02 0.  0.
         12    1    1    2    0    0  0.23819509808E+02  0.72137551267E+01 -0.37546052899E+02  0.45045681245E+02  0.00000000000E+00 0. -1.
         11    1    3    3    0    0 -0.14166705549E+02 -0.22245707436E+01  0.18670660773E+02  0.23542256371E+02  0.51100000000E-03 0. -1.
        -11    1    3    3    0    0 -0.36658628841E+01 -0.36141346422E+01  0.40421841459E+01  0.65452099147E+01  0.51100000000E-03 0.  1.
         12    1    3    3    0    0 -0.59869413750E+01 -0.13750497409E+01  0.14833207980E+02  0.16054852469E+02  0.00000000000E+00 0. -1.
</event>
<event>
 7    1  0.2425980E-008  0.4614232E+02  0.7816164E-02  0.1320468E+00
        -11   -1    0    0    0    0  0.00000000000E+00  0.00000000000E+00  0.45593999997E+02  0.45594000000E+02  0.51100000000E-03 0. -1.
         11   -1    0    0    0    0 -0.00000000000E+00 -0.00000000000E+00 -0.45593999997E+02  0.45594000000E+02  0.51100000000E-03 0.  1.
    9900012    2    1    2    0    0 -0.29379929258E+02  0.29408133111E+02 -0.17352085764E+02  0.46142318557E+02  0.10000007261E+02 0.  0.
         12    1    1    2    0    0  0.29379929258E+02 -0.29408133111E+02  0.17352085764E+02  0.45045681443E+02  0.00000000000E+00 0. -1.
         11    1    3    3    0    0 -0.14714319655E+02  0.92529055164E+01 -0.86678535547E+01  0.19423160117E+02  0.51100000000E-03 0. -1.
        -11    1    3    3    0    0 -0.44889810134E+01  0.76489186398E+01 -0.12228056879E+01  0.89527739225E+01  0.51100000000E-03 0.  1.
        -12    1    3    3    0    0 -0.10176628589E+02  0.12506308955E+02 -0.74614265213E+01  0.17766384518E+02  0.00000000000E+00 0.  1.
</event>
<event>
 7    1  0.2425980E-008  0.4614232E+02  0.7816164E-02  0.1320468E+00
        -11   -1    0    0    0    0  0.00000000000E+00  0.00000000000E+00  0.45593999997E+02  0.45594000000E+02  0.51100000000E-03 0. -1.
         11   -1    0    0    0    0 -0.00000000000E+00 -0.00000000000E+00 -0.45593999997E+02  0.45594000000E+02  0.51100000000E-03 0.  1.
    9900012    2    1    2    0    0  0.32208768121E+02 -0.12640651991E+02  0.28843070599E+02  0.46142317097E+02  0.99999939431E+01 0.  0.
         12    1    1    2    0    0 -0.32208768121E+02  0.12640651991E+02 -0.28843070599E+02  0.45045682903E+02  0.00000000000E+00 0. -1.
         11    1    3    3    0    0  0.11398868854E+02 -0.34458703940E+01  0.42751250776E+01  0.12652467293E+02  0.51100000000E-03 0. -1.
        -11    1    3    3    0    0  0.36548095432E+01 -0.13604922993E+01  0.41582013300E+01  0.57008078950E+01  0.51100000000E-03 0.  1.
         12    1    3    3    0    0  0.17155089724E+02 -0.78342892977E+01  0.20409744191E+02  0.27789041908E+02  0.00000000000E+00 0. -1.
</event>
<event>
 7    1  0.2425980E-008  0.4614232E+02  0.7816164E-02  0.1320468E+00
        -11   -1    0    0    0    0  0.00000000000E+00  0.00000000000E+00  0.45593999997E+02  0.45594000000E+02  0.51100000000E-03 0. -1.
         11   -1    0    0    0    0 -0.00000000000E+00 -0.00000000000E+00 -0.45593999997E+02  0.45594000000E+02  0.51100000000E-03 0.  1.
    9900012    2    1    2    0    0 -0.80609042981E+01 -0.36335148962E+02 -0.25375032010E+02  0.46142317880E+02  0.10000001080E+02 0.  0.
         12    1    1    2    0    0  0.80609042981E+01  0.36335148962E+02  0.25375032010E+02  0.45045682120E+02  0.00000000000E+00 0. -1.
         11    1    3    3    0    0 -0.25928936550E+01 -0.90447609958E+01 -0.90564406780E+01  0.13059476138E+02  0.51100000000E-03 0. -1.
        -11    1    3    3    0    0 -0.11319140574E+01 -0.14467702795E+02 -0.12129378943E+02  0.18913420828E+02  0.51100000000E-03 0.  1.
         12    1    3    3    0    0 -0.43360965856E+01 -0.12822685171E+02 -0.41892123885E+01  0.14169420914E+02  0.00000000000E+00 0. -1.
</event>
<event>
 7    1  0.2425980E-008  0.4614232E+02  0.7816164E-02  0.1320468E+00
        -11   -1    0    0    0    0  0.00000000000E+00  0.00000000000E+00  0.45593999997E+02  0.45594000000E+02  0.51100000000E-03 0.  1.
         11   -1    0    0    0    0 -0.00000000000E+00 -0.00000000000E+00 -0.45593999997E+02  0.45594000000E+02  0.51100000000E-03 0. -1.
    9900012    2    1    2    0    0 -0.21409641884E+02  0.21047285932E+02  0.33582026292E+02  0.46142317626E+02  0.99999987642E+01 0.  0.
         12    1    1    2    0    0  0.21409641884E+02 -0.21047285932E+02 -0.33582026292E+02  0.45045682374E+02  0.00000000000E+00 0. -1.
         11    1    3    3    0    0 -0.11644607719E+01  0.77935600375E+00  0.25342205744E+01  0.28957967557E+01  0.51100000000E-03 0. -1.
        -11    1    3    3    0    0 -0.20247154134E+02  0.18620320938E+02  0.31196887804E+02  0.41592179689E+02  0.51100000000E-03 0.  1.
        -12    1    3    3    0    0  0.19730218382E-02  0.16476089895E+01 -0.14908208579E+00  0.16543411811E+01  0.00000000000E+00 0.  1.
</event>
<event>
 7    1  0.2425980E-008  0.4614232E+02  0.7816164E-02  0.1320468E+00
        -11   -1    0    0    0    0  0.00000000000E+00  0.00000000000E+00  0.45593999997E+02  0.45594000000E+02  0.51100000000E-03 0. -1.
         11   -1    0    0    0    0 -0.00000000000E+00 -0.00000000000E+00 -0.45593999997E+02  0.45594000000E+02  0.51100000000E-03 0.  1.
    9900012    2    1    2    0    0 -0.14284604982E+02  0.41078473784E+02 -0.11731258418E+02  0.46142319053E+02  0.10000011781E+02 0.  0.
         12    1    1    2    0    0  0.14284604982E+02 -0.41078473784E+02  0.11731258418E+02  0.45045680947E+02  0.00000000000E+00 0. -1.
         11    1    3    3    0    0 -0.18702620551E+01  0.48791698212E+01 -0.15313411738E+01  0.54451064591E+01  0.51100000000E-03 0. -1.
        -11    1    3    3    0    0 -0.82104973906E+01  0.33258697845E+02 -0.85474463052E+01  0.35307394245E+02  0.51100000000E-03 0.  1.
         12    1    3    3    0    0 -0.42038455365E+01  0.29406061175E+01 -0.16524709392E+01  0.53898183492E+01  0.00000000000E+00 0. -1.
</event>
<event>
 7    1  0.2425980E-008  0.4614232E+02  0.7816164E-02  0.1320468E+00
        -11   -1    0    0    0    0  0.00000000000E+00  0.00000000000E+00  0.45593999997E+02  0.45594000000E+02  0.51100000000E-03 0.  1.
         11   -1    0    0    0    0 -0.00000000000E+00 -0.00000000000E+00 -0.45593999997E+02  0.45594000000E+02  0.51100000000E-03 0. -1.
    9900012    2    1    2    0    0  0.61133121901E+01  0.40830934313E+02  0.18015985254E+02  0.46142317548E+02  0.99999980612E+01 0.  0.
         12    1    1    2    0    0 -0.61133121901E+01 -0.40830934313E+02 -0.18015985254E+02  0.45045682452E+02  0.00000000000E+00 0. -1.
         11    1    3    3    0    0  0.60782532766E+01  0.23328080699E+02  0.94477168976E+01  0.25892158404E+02  0.51100000000E-03 0.  1.
        -11    1    3    3    0    0  0.10794662494E+01  0.11991919584E+02  0.31367144232E+01  0.12442281154E+02  0.51100000000E-03 0. -1.
        -12    1    3    3    0    0 -0.10444073358E+01  0.55109340304E+01  0.54315539334E+01  0.78078779897E+01  0.00000000000E+00 0.  1.
</event>
<event>
 7    1  0.2425980E-008  0.4614232E+02  0.7816164E-02  0.1320468E+00
        -11   -1    0    0    0    0  0.00000000000E+00  0.00000000000E+00  0.45593999997E+02  0.45594000000E+02  0.51100000000E-03 0.  1.
         11   -1    0    0    0    0 -0.00000000000E+00 -0.00000000000E+00 -0.45593999997E+02  0.45594000000E+02  0.51100000000E-03 0. -1.
    9900012    2    1    2    0    0 -0.14357859146E+02 -0.12194635122E+01  0.42678780258E+02  0.46142317689E+02  0.99999993449E+01 0.  0.
         12    1    1    2    0    0  0.14357859146E+02  0.12194635122E+01 -0.42678780258E+02  0.45045682311E+02  0.00000000000E+00 0. -1.
         11    1    3    3    0    0 -0.77096027769E+00 -0.18905286905E+01  0.14534080187E+02  0.14676783217E+02  0.51100000000E-03 0. -1.
        -11    1    3    3    0    0 -0.13287848546E+01 -0.94400114415E+00  0.23406400474E+01  0.28522628635E+01  0.51100000000E-03 0.  1.
         12    1    3    3    0    0 -0.12258114014E+02  0.16150663225E+01  0.25804060024E+02  0.28613271608E+02  0.00000000000E+00 0. -1.
</event>
<event>
 7    1  0.2425980E-008  0.4614232E+02  0.7816164E-02  0.1320468E+00
        -11   -1    0    0    0    0  0.00000000000E+00  0.00000000000E+00  0.45593999997E+02  0.45594000000E+02  0.51100000000E-03 0. -1.
         11   -1    0    0    0    0 -0.00000000000E+00 -0.00000000000E+00 -0.45593999997E+02  0.45594000000E+02  0.51100000000E-03 0.  1.
    9900012    2    1    2    0    0 -0.29196686604E+02  0.34224883043E+02 -0.23074513190E+01  0.46142318081E+02  0.10000002916E+02 0.  0.
         12    1    1    2    0    0  0.29196686604E+02 -0.34224883043E+02  0.23074513190E+01  0.45045681919E+02  0.00000000000E+00 0. -1.
         11    1    3    3    0    0 -0.45937607649E+01  0.28058872182E+01  0.14486518214E+01  0.55744267335E+01  0.51100000000E-03 0. -1.
        -11    1    3    3    0    0  0.24132045129E+00  0.12280714662E+01 -0.44765800201E+00  0.13292076716E+01  0.51100000000E-03 0.  1.
        -12    1    3    3    0    0 -0.24844246291E+02  0.30190924358E+02 -0.33084451383E+01  0.39238683676E+02  0.00000000000E+00 0.  1.
</event>
<event>
 7    1  0.2425980E-008  0.4614232E+02  0.7816164E-02  0.1320468E+00
        -11   -1    0    0    0    0  0.00000000000E+00  0.00000000000E+00  0.45593999997E+02  0.45594000000E+02  0.51100000000E-03 0.  1.
         11   -1    0    0    0    0 -0.00000000000E+00 -0.00000000000E+00 -0.45593999997E+02  0.45594000000E+02  0.51100000000E-03 0. -1.
    9900012    2    1    2    0    0  0.83669605985E+01 -0.12477196807E+02  0.42466776481E+02  0.46142316805E+02  0.99999912789E+01 0.  0.
         12    1    1    2    0    0 -0.83669605985E+01  0.12477196807E+02 -0.42466776481E+02  0.45045683195E+02  0.00000000000E+00 0. -1.
         11    1    3    3    0    0  0.15044291790E+01  0.25301163348E+00  0.36373364593E+00  0.15683189942E+01  0.51100000000E-03 0. -1.
        -11    1    3    3    0    0  0.31628128001E+00 -0.14885225738E+01  0.62900936284E+01  0.64715540186E+01  0.51100000000E-03 0.  1.
         12    1    3    3    0    0  0.65462501394E+01 -0.11241685866E+02  0.35812949207E+02  0.38102443792E+02  0.00000000000E+00 0. -1.
</event>
<event>
 7    1  0.2425980E-008  0.4614232E+02  0.7816164E-02  0.1320468E+00
        -11   -1    0    0    0    0  0.00000000000E+00  0.00000000000E+00  0.45593999997E+02  0.45594000000E+02  0.51100000000E-03 0.  1.
         11   -1    0    0    0    0 -0.00000000000E+00 -0.00000000000E+00 -0.45593999997E+02  0.45594000000E+02  0.51100000000E-03 0. -1.
    9900012    2    1    2    0    0  0.31285343150E+02 -0.31557638162E+02 -0.73794482834E+01  0.46142317862E+02  0.10000000916E+02 0.  0.
         12    1    1    2    0    0 -0.31285343150E+02  0.31557638162E+02  0.73794482834E+01  0.45045682138E+02  0.00000000000E+00 0. -1.
         11    1    3    3    0    0  0.15111298652E+02 -0.13818649153E+02 -0.45597165372E+01  0.20978499149E+02  0.51100000000E-03 0. -1.
        -11    1    3    3    0    0  0.85639738922E+00 -0.48793648956E+01 -0.12071670757E+01  0.50989087933E+01  0.51100000000E-03 0.  1.
        -12    1    3    3    0    0  0.15317647108E+02 -0.12859624113E+02 -0.16125646705E+01  0.20064909920E+02  0.00000000000E+00 0.  1.
</event>
<event>
 7    1  0.2425980E-008  0.4614232E+02  0.7816164E-02  0.1320468E+00
        -11   -1    0    0    0    0  0.00000000000E+00  0.00000000000E+00  0.45593999997E+02  0.45594000000E+02  0.51100000000E-03 0.  1.
         11   -1    0    0    0    0 -0.00000000000E+00 -0.00000000000E+00 -0.45593999997E+02  0.45594000000E+02  0.51100000000E-03 0. -1.
    9900012    2    1    2    0    0  0.29945254369E+01  0.23862674187E+02  0.38088304100E+02  0.46142319728E+02  0.10000017932E+02 0.  0.
         12    1    1    2    0    0 -0.29945254369E+01 -0.23862674187E+02 -0.38088304100E+02  0.45045680272E+02  0.00000000000E+00 0. -1.
         11    1    3    3    0    0 -0.30022536320E+00  0.12440688640E+01  0.46090966572E+00  0.13602501932E+01  0.51100000000E-03 0. -1.
        -11    1    3    3    0    0  0.10641387577E+01  0.20729186128E+02  0.35651628634E+02  0.41253729205E+02  0.51100000000E-03 0.  1.
        -12    1    3    3    0    0  0.22306120425E+01  0.18894191959E+01  0.19757658010E+01  0.35283403297E+01  0.00000000000E+00 0.  1.
</event>
<event>
 7    1  0.2425980E-008  0.4614232E+02  0.7816164E-02  0.1320468E+00
        -11   -1    0    0    0    0  0.00000000000E+00  0.00000000000E+00  0.45593999997E+02  0.45594000000E+02  0.51100000000E-03 0.  1.
         11   -1    0    0    0    0 -0.00000000000E+00 -0.00000000000E+00 -0.45593999997E+02  0.45594000000E+02  0.51100000000E-03 0. -1.
    9900012    2    1    2    0    0 -0.37749839829E+02 -0.10822817572E+02  0.22066482251E+02  0.46142318451E+02  0.10000006287E+02 0.  0.
         12    1    1    2    0    0  0.37749839829E+02  0.10822817572E+02 -0.22066482251E+02  0.45045681549E+02  0.00000000000E+00 0. -1.
         11    1    3    3    0    0 -0.15958408303E+02 -0.68387692470E+01  0.11117830162E+02  0.20616636683E+02  0.51100000000E-03 0. -1.
        -11    1    3    3    0    0 -0.20947575081E+02 -0.26129483466E+01  0.11198667558E+02  0.23896413040E+02  0.51100000000E-03 0.  1.
         12    1    3    3    0    0 -0.84385644579E+00 -0.13710999784E+01 -0.25001546878E+00  0.16292687275E+01  0.00000000000E+00 0. -1.
</event>
<event>
 7    1  0.2425980E-008  0.4614232E+02  0.7816164E-02  0.1320468E+00
        -11   -1    0    0    0    0  0.00000000000E+00  0.00000000000E+00  0.45593999997E+02  0.45594000000E+02  0.51100000000E-03 0.  1.
         11   -1    0    0    0    0 -0.00000000000E+00 -0.00000000000E+00 -0.45593999997E+02  0.45594000000E+02  0.51100000000E-03 0. -1.
    9900012    2    1    2    0    0 -0.21140747781E+02 -0.28394113748E+00  0.39775643372E+02  0.46142316023E+02  0.99999841505E+01 0.  0.
         12    1    1    2    0    0  0.21140747781E+02  0.28394113748E+00 -0.39775643372E+02  0.45045683977E+02  0.00000000000E+00 0. -1.
         11    1    3    3    0    0 -0.67001460566E+01  0.80258776633E+00  0.12219167591E+02  0.13958659003E+02  0.51100000000E-03 0. -1.
        -11    1    3    3    0    0 -0.14309958240E+02 -0.25804524803E+01  0.21578673367E+02  0.26020622290E+02  0.51100000000E-03 0.  1.
        -12    1    3    3    0    0 -0.13064348455E+00  0.14939235765E+01  0.59778024146E+01  0.61630347298E+01  0.00000000000E+00 0.  1.
</event>
<event>
 7    1  0.2425980E-008  0.4614232E+02  0.7816164E-02  0.1320468E+00
        -11   -1    0    0    0    0  0.00000000000E+00  0.00000000000E+00  0.45593999997E+02  0.45594000000E+02  0.51100000000E-03 0.  1.
         11   -1    0    0    0    0 -0.00000000000E+00 -0.00000000000E+00 -0.45593999997E+02  0.45594000000E+02  0.51100000000E-03 0. -1.
    9900012    2    1    2    0    0  0.28437874594E+02  0.45474258592E+01  0.34636999505E+02  0.46142317320E+02  0.99999959763E+01 0.  0.
         12    1    1    2    0    0 -0.28437874594E+02 -0.45474258592E+01 -0.34636999505E+02  0.45045682680E+02  0.00000000000E+00 0. -1.
         11    1    3    3    0    0  0.19142169728E+02  0.45802382240E+01  0.18251751242E+02  0.26842646438E+02  0.51100000000E-03 0. -1.
        -11    1    3    3    0    0  0.55167738270E+01 -0.16564070238E-01  0.55546942301E+01  0.78287735999E+01  0.51100000000E-03 0.  1.
        -12    1    3    3    0    0  0.37789310389E+01 -0.16248294573E-01  0.10830554033E+02  0.11470897282E+02  0.00000000000E+00 0.  1.
</event>
<event>
 7    1  0.2425980E-008  0.4614232E+02  0.7816164E-02  0.1320468E+00
        -11   -1    0    0    0    0  0.00000000000E+00  0.00000000000E+00  0.45593999997E+02  0.45594000000E+02  0.51100000000E-03 0.  1.
         11   -1    0    0    0    0 -0.00000000000E+00 -0.00000000000E+00 -0.45593999997E+02  0.45594000000E+02  0.51100000000E-03 0. -1.
    9900012    2    1    2    0    0  0.42934062532E+02  0.11993710062E+02  0.64753695023E+01  0.46142320776E+02  0.10000027495E+02 0.  0.
         12    1    1    2    0    0 -0.42934062532E+02 -0.11993710062E+02 -0.64753695023E+01  0.45045679224E+02  0.00000000000E+00 0. -1.
         11    1    3    3    0    0  0.11475291571E+02 -0.99211503722E+00  0.12418665715E+01  0.11584853980E+02  0.51100000000E-03 0.  1.
        -11    1    3    3    0    0  0.63069558837E+01  0.21491722514E+01  0.21297326260E+01  0.69951694192E+01  0.51100000000E-03 0. -1.
        -12    1    3    3    0    0  0.25151815077E+02  0.10836652848E+02  0.31037703048E+01  0.27562297377E+02  0.00000000000E+00 0.  1.
</event>
<event>
 7    1  0.2425980E-008  0.4614232E+02  0.7816164E-02  0.1320468E+00
        -11   -1    0    0    0    0  0.00000000000E+00  0.00000000000E+00  0.45593999997E+02  0.45594000000E+02  0.51100000000E-03 0.  1.
         11   -1    0    0    0    0 -0.00000000000E+00 -0.00000000000E+00 -0.45593999997E+02  0.45594000000E+02  0.51100000000E-03 0. -1.
    9900012    2    1    2    0    0 -0.17955749468E+02 -0.17361267069E+02  0.37487206444E+02  0.46142321182E+02  0.10000031196E+02 0.  0.
         12    1    1    2    0    0  0.17955749468E+02  0.17361267069E+02 -0.37487206444E+02  0.45045678818E+02  0.00000000000E+00 0. -1.
         11    1    3    3    0    0 -0.12407894948E+01  0.21791708811E-01  0.35088214265E+01  0.37218089034E+01  0.51100000000E-03 0. -1.
        -11    1    3    3    0    0 -0.31832983245E+01 -0.37459913908E+01  0.13376262776E+02  0.14250973505E+02  0.51100000000E-03 0.  1.
         12    1    3    3    0    0 -0.13531661649E+02 -0.13637067387E+02  0.20602122241E+02  0.28169538774E+02  0.00000000000E+00 0. -1.
</event>
<event>
 7    1  0.2425980E-008  0.4614232E+02  0.7816164E-02  0.1320468E+00
        -11   -1    0    0    0    0  0.00000000000E+00  0.00000000000E+00  0.45593999997E+02  0.45594000000E+02  0.51100000000E-03 0.  1.
         11   -1    0    0    0    0 -0.00000000000E+00 -0.00000000000E+00 -0.45593999997E+02  0.45594000000E+02  0.51100000000E-03 0. -1.
    9900012    2    1    2    0    0  0.90400918834E+01  0.29285542165E+01  0.44031956985E+02  0.46142323992E+02  0.10000056820E+02 0.  0.
         12    1    1    2    0    0 -0.90400918834E+01 -0.29285542165E+01 -0.44031956985E+02  0.45045676008E+02  0.00000000000E+00 0. -1.
         11    1    3    3    0    0 -0.52325630740E+00 -0.16638552617E+01  0.31015402817E+01  0.35583372346E+01  0.51100000000E-03 0. -1.
        -11    1    3    3    0    0  0.78488162689E+01  0.14712344171E+01  0.24368959550E+02  0.25643998077E+02  0.51100000000E-03 0.  1.
         12    1    3    3    0    0  0.17145319219E+01  0.31211750611E+01  0.16561457153E+02  0.16939988681E+02  0.00000000000E+00 0. -1.
</event>
<event>
 7    1  0.2425980E-008  0.4614232E+02  0.7816164E-02  0.1320468E+00
        -11   -1    0    0    0    0  0.00000000000E+00  0.00000000000E+00  0.45593999997E+02  0.45594000000E+02  0.51100000000E-03 0.  1.
         11   -1    0    0    0    0 -0.00000000000E+00 -0.00000000000E+00 -0.45593999997E+02  0.45594000000E+02  0.51100000000E-03 0. -1.
    9900012    2    1    2    0    0  0.39911414361E+02 -0.20576767291E+02 -0.35761943469E+01  0.46142317471E+02  0.99999973580E+01 0.  0.
         12    1    1    2    0    0 -0.39911414361E+02  0.20576767291E+02  0.35761943469E+01  0.45045682529E+02  0.00000000000E+00 0. -1.
         11    1    3    3    0    0  0.31540097425E+01 -0.39678406598E+01  0.87125328815E+00  0.51430165770E+01  0.51100000000E-03 0. -1.
        -11    1    3    3    0    0  0.96132938672E+01 -0.72583840925E+01 -0.11229722429E+01  0.12097959561E+02  0.51100000000E-03 0.  1.
        -12    1    3    3    0    0  0.27144110752E+02 -0.93505425388E+01 -0.33244753921E+01  0.28901341334E+02  0.00000000000E+00 0.  1.
</event>
<event>
 7    1  0.2425980E-008  0.4614232E+02  0.7816164E-02  0.1320468E+00
        -11   -1    0    0    0    0  0.00000000000E+00  0.00000000000E+00  0.45593999997E+02  0.45594000000E+02  0.51100000000E-03 0. -1.
         11   -1    0    0    0    0 -0.00000000000E+00 -0.00000000000E+00 -0.45593999997E+02  0.45594000000E+02  0.51100000000E-03 0.  1.
    9900012    2    1    2    0    0  0.20249740248E+02 -0.40152668866E+02  0.26123906142E+01  0.46142318943E+02  0.10000010781E+02 0.  0.
         12    1    1    2    0    0 -0.20249740248E+02  0.40152668866E+02 -0.26123906142E+01  0.45045681057E+02  0.00000000000E+00 0. -1.
         11    1    3    3    0    0  0.79157399258E+01 -0.17829268443E+02 -0.73878703193E+00  0.19521464042E+02  0.51100000000E-03 0. -1.
        -11    1    3    3    0    0  0.13054218286E+02 -0.21971084402E+02  0.35303300186E+01  0.25799309975E+02  0.51100000000E-03 0.  1.
         12    1    3    3    0    0 -0.72021796433E+00 -0.35231602002E+00 -0.17915237247E+00  0.82154492675E+00  0.00000000000E+00 0. -1.
</event>
<event>
 7    1  0.2425980E-008  0.4614232E+02  0.7816164E-02  0.1320468E+00
        -11   -1    0    0    0    0  0.00000000000E+00  0.00000000000E+00  0.45593999997E+02  0.45594000000E+02  0.51100000000E-03 0. -1.
         11   -1    0    0    0    0 -0.00000000000E+00 -0.00000000000E+00 -0.45593999997E+02  0.45594000000E+02  0.51100000000E-03 0.  1.
    9900012    2    1    2    0    0 -0.11726225857E+02 -0.18338080763E+02 -0.39437594987E+02  0.46142317884E+02  0.10000001123E+02 0.  0.
         12    1    1    2    0    0  0.11726225857E+02  0.18338080763E+02  0.39437594987E+02  0.45045682116E+02  0.00000000000E+00 0. -1.
         11    1    3    3    0    0 -0.53320984465E+00 -0.87328182594E+01 -0.13592092224E+02  0.16164510471E+02  0.51100000000E-03 0. -1.
        -11    1    3    3    0    0 -0.40845857563E+01 -0.55473524585E+01 -0.13655141277E+02  0.15294438325E+02  0.51100000000E-03 0.  1.
         12    1    3    3    0    0 -0.71084302559E+01 -0.40579100457E+01 -0.12190361485E+02  0.14683369088E+02  0.00000000000E+00 0. -1.
</event>
<event>
 7    1  0.2425980E-008  0.4614232E+02  0.7816164E-02  0.1320468E+00
        -11   -1    0    0    0    0  0.00000000000E+00  0.00000000000E+00  0.45593999997E+02  0.45594000000E+02  0.51100000000E-03 0. -1.
         11   -1    0    0    0    0 -0.00000000000E+00 -0.00000000000E+00 -0.45593999997E+02  0.45594000000E+02  0.51100000000E-03 0.  1.
    9900012    2    1    2    0    0 -0.20259245362E+02 -0.39406390830E+02  0.81125110809E+01  0.46142317666E+02  0.99999991316E+01 0.  0.
         12    1    1    2    0    0  0.20259245362E+02  0.39406390830E+02 -0.81125110809E+01  0.45045682334E+02  0.00000000000E+00 0. -1.
         11    1    3    3    0    0 -0.17641662300E+02 -0.29622229635E+02  0.68245126819E+01  0.35146531989E+02  0.51100000000E-03 0. -1.
        -11    1    3    3    0    0 -0.26857106880E+01 -0.32740635798E+01 -0.44673552201E+00  0.42581811976E+01  0.51100000000E-03 0.  1.
         12    1    3    3    0    0  0.68127626431E-01 -0.65100976158E+01  0.17347339210E+01  0.67376044792E+01  0.00000000000E+00 0. -1.
</event>
<event>
 7    1  0.2425980E-008  0.4614232E+02  0.7816164E-02  0.1320468E+00
        -11   -1    0    0    0    0  0.00000000000E+00  0.00000000000E+00  0.45593999997E+02  0.45594000000E+02  0.51100000000E-03 0. -1.
         11   -1    0    0    0    0 -0.00000000000E+00 -0.00000000000E+00 -0.45593999997E+02  0.45594000000E+02  0.51100000000E-03 0.  1.
    9900012    2    1    2    0    0 -0.19238571461E+02 -0.37633169971E+02 -0.15579970025E+02  0.46142316745E+02  0.99999907353E+01 0.  0.
         12    1    1    2    0    0  0.19238571461E+02  0.37633169971E+02  0.15579970025E+02  0.45045683255E+02  0.00000000000E+00 0. -1.
         11    1    3    3    0    0 -0.30333207974E+01 -0.75652501289E+01 -0.45496410808E+00  0.81633961789E+01  0.51100000000E-03 0. -1.
        -11    1    3    3    0    0 -0.16573772740E+02 -0.28771030997E+02 -0.13438540924E+02  0.35819778753E+02  0.51100000000E-03 0.  1.
        -12    1    3    3    0    0  0.36852207676E+00 -0.12968888451E+01 -0.16864649931E+01  0.21591418135E+01  0.00000000000E+00 0.  1.
</event>
<event>
 7    1  0.2425980E-008  0.4614232E+02  0.7816164E-02  0.1320468E+00
        -11   -1    0    0    0    0  0.00000000000E+00  0.00000000000E+00  0.45593999997E+02  0.45594000000E+02  0.51100000000E-03 0.  1.
         11   -1    0    0    0    0 -0.00000000000E+00 -0.00000000000E+00 -0.45593999997E+02  0.45594000000E+02  0.51100000000E-03 0. -1.
    9900012    2    1    2    0    0 -0.12183047758E+02  0.28645157335E+01  0.43272177893E+02  0.46142317825E+02  0.10000000579E+02 0.  0.
         12    1    1    2    0    0  0.12183047758E+02 -0.28645157335E+01 -0.43272177893E+02  0.45045682175E+02  0.00000000000E+00 0. -1.
         11    1    3    3    0    0 -0.40109522535E+01  0.29517731314E+01  0.97216809637E+01  0.10922993345E+02  0.51100000000E-03 0. -1.
        -11    1    3    3    0    0 -0.83036074639E+01  0.15865927194E+01  0.22381943502E+02  0.23925270501E+02  0.51100000000E-03 0.  1.
         12    1    3    3    0    0  0.13151195894E+00 -0.16738501173E+01  0.11168553427E+02  0.11294053979E+02  0.00000000000E+00 0. -1.
</event>
<event>
 7    1  0.2425980E-008  0.4614231E+02  0.7816164E-02  0.1320468E+00
        -11   -1    0    0    0    0  0.00000000000E+00  0.00000000000E+00  0.45593999997E+02  0.45594000000E+02  0.51100000000E-03 0.  1.
         11   -1    0    0    0    0 -0.00000000000E+00 -0.00000000000E+00 -0.45593999997E+02  0.45594000000E+02  0.51100000000E-03 0. -1.
    9900012    2    1    2    0    0 -0.22893449311E+02 -0.85433121115E+00  0.38784977065E+02  0.46142308207E+02  0.99999128769E+01 0.  0.
         12    1    1    2    0    0  0.22893449311E+02  0.85433121115E+00 -0.38784977065E+02  0.45045691793E+02  0.00000000000E+00 0. -1.
         11    1    3    3    0    0 -0.50885563382E+00  0.12747489302E+01  0.22931311815E+01  0.26725212381E+01  0.51100000000E-03 0. -1.
        -11    1    3    3    0    0 -0.19644892014E+02 -0.83968051740E+00  0.26300510598E+02  0.32838144034E+02  0.51100000000E-03 0.  1.
         12    1    3    3    0    0 -0.27397016632E+01 -0.12893996240E+01  0.10191335285E+02  0.10631642934E+02  0.00000000000E+00 0. -1.
</event>
<event>
 7    1  0.2425980E-008  0.4614232E+02  0.7816164E-02  0.1320468E+00
        -11   -1    0    0    0    0  0.00000000000E+00  0.00000000000E+00  0.45593999997E+02  0.45594000000E+02  0.51100000000E-03 0.  1.
         11   -1    0    0    0    0 -0.00000000000E+00 -0.00000000000E+00 -0.45593999997E+02  0.45594000000E+02  0.51100000000E-03 0. -1.
    9900012    2    1    2    0    0 -0.15227705467E+02  0.28753560877E+02  0.31152259689E+02  0.46142316959E+02  0.99999926870E+01 0.  0.
         12    1    1    2    0    0  0.15227705467E+02 -0.28753560877E+02 -0.31152259689E+02  0.45045683041E+02  0.00000000000E+00 0. -1.
         11    1    3    3    0    0 -0.45552379960E+00  0.45399691075E+01  0.64990078195E+01  0.79407760533E+01  0.51100000000E-03 0. -1.
        -11    1    3    3    0    0 -0.81916408906E+01  0.18095205630E+02  0.14197780181E+02  0.24415495276E+02  0.51100000000E-03 0.  1.
        -12    1    3    3    0    0 -0.65805407767E+01  0.61183861397E+01  0.10455471689E+02  0.13786045630E+02  0.00000000000E+00 0.  1.
</event>
<event>
 7    1  0.2425980E-008  0.4614232E+02  0.7816164E-02  0.1320468E+00
        -11   -1    0    0    0    0  0.00000000000E+00  0.00000000000E+00  0.45593999997E+02  0.45594000000E+02  0.51100000000E-03 0. -1.
         11   -1    0    0    0    0 -0.00000000000E+00 -0.00000000000E+00 -0.45593999997E+02  0.45594000000E+02  0.51100000000E-03 0.  1.
    9900012    2    1    2    0    0 -0.29888206851E+02  0.31424540443E+02 -0.12178126977E+02  0.46142318437E+02  0.10000006165E+02 0.  0.
         12    1    1    2    0    0  0.29888206851E+02 -0.31424540443E+02  0.12178126977E+02  0.45045681563E+02  0.00000000000E+00 0. -1.
         11    1    3    3    0    0 -0.43667411338E+01  0.17875969892E+01  0.40416128604E+00  0.47357446861E+01  0.51100000000E-03 0. -1.
        -11    1    3    3    0    0 -0.58046189737E+01  0.91440486264E+01 -0.17289083381E+01  0.10967969320E+02  0.51100000000E-03 0.  1.
        -12    1    3    3    0    0 -0.19716846743E+02  0.20492894827E+02 -0.10853379925E+02  0.30438604431E+02  0.00000000000E+00 0.  1.
</event>
<event>
 7    1  0.2425980E-008  0.4614232E+02  0.7816164E-02  0.1320468E+00
        -11   -1    0    0    0    0  0.00000000000E+00  0.00000000000E+00  0.45593999997E+02  0.45594000000E+02  0.51100000000E-03 0. -1.
         11   -1    0    0    0    0 -0.00000000000E+00 -0.00000000000E+00 -0.45593999997E+02  0.45594000000E+02  0.51100000000E-03 0.  1.
    9900012    2    1    2    0    0 -0.30785625537E+02 -0.32193944132E+02  0.67014004042E+01  0.46142317123E+02  0.99999941789E+01 0.  0.
         12    1    1    2    0    0  0.30785625537E+02  0.32193944132E+02 -0.67014004042E+01  0.45045682877E+02  0.00000000000E+00 0. -1.
         11    1    3    3    0    0 -0.82430725263E+01 -0.84781736721E+01 -0.21604628157E+01  0.12020618675E+02  0.51100000000E-03 0. -1.
        -11    1    3    3    0    0 -0.12759765253E+01 -0.25966732316E+01  0.96428701494E-01  0.28948448525E+01  0.51100000000E-03 0.  1.
        -12    1    3    3    0    0 -0.21266576486E+02 -0.21119097228E+02  0.87654345185E+01  0.31226853595E+02  0.00000000000E+00 0.  1.
</event>
<event>
 7    1  0.2425980E-008  0.4614232E+02  0.7816164E-02  0.1320468E+00
        -11   -1    0    0    0    0  0.00000000000E+00  0.00000000000E+00  0.45593999997E+02  0.45594000000E+02  0.51100000000E-03 0.  1.
         11   -1    0    0    0    0 -0.00000000000E+00 -0.00000000000E+00 -0.45593999997E+02  0.45594000000E+02  0.51100000000E-03 0. -1.
    9900012    2    1    2    0    0  0.26493841640E+02  0.25179563501E+02  0.26328301538E+02  0.46142317357E+02  0.99999963137E+01 0.  0.
         12    1    1    2    0    0 -0.26493841640E+02 -0.25179563501E+02 -0.26328301538E+02  0.45045682643E+02  0.00000000000E+00 0. -1.
         11    1    3    3    0    0  0.83519635425E+01  0.96103731657E+01  0.52358398730E+01  0.13766938179E+02  0.51100000000E-03 0.  1.
        -11    1    3    3    0    0  0.50241622607E+01  0.43712154632E+01  0.94714097802E+01  0.11578313113E+02  0.51100000000E-03 0. -1.
         12    1    3    3    0    0  0.13117715837E+02  0.11197974872E+02  0.11621051885E+02  0.20797066065E+02  0.00000000000E+00 0. -1.
</event>
<event>
 7    1  0.2425980E-008  0.4614232E+02  0.7816164E-02  0.1320468E+00
        -11   -1    0    0    0    0  0.00000000000E+00  0.00000000000E+00  0.45593999997E+02  0.45594000000E+02  0.51100000000E-03 0.  1.
         11   -1    0    0    0    0 -0.00000000000E+00 -0.00000000000E+00 -0.45593999997E+02  0.45594000000E+02  0.51100000000E-03 0. -1.
    9900012    2    1    2    0    0 -0.12058966706E+02  0.20769956166E+02  0.38109104029E+02  0.46142316888E+02  0.99999920370E+01 0.  0.
         12    1    1    2    0    0  0.12058966706E+02 -0.20769956166E+02 -0.38109104029E+02  0.45045683112E+02  0.00000000000E+00 0. -1.
         11    1    3    3    0    0 -0.86079591180E+01  0.10174425635E+02  0.17342133743E+02  0.21871568307E+02  0.51100000000E-03 0. -1.
        -11    1    3    3    0    0 -0.34734423757E+01  0.10889451216E+02  0.16958044257E+02  0.20450433125E+02  0.51100000000E-03 0.  1.
        -12    1    3    3    0    0  0.22434787404E-01 -0.29392068502E+00  0.38089260292E+01  0.38203154561E+01  0.00000000000E+00 0.  1.
</event>
<event>
 7    1  0.2425980E-008  0.4614232E+02  0.7816164E-02  0.1320468E+00
        -11   -1    0    0    0    0  0.00000000000E+00  0.00000000000E+00  0.45593999997E+02  0.45594000000E+02  0.51100000000E-03 0. -1.
         11   -1    0    0    0    0 -0.00000000000E+00 -0.00000000000E+00 -0.45593999997E+02  0.45594000000E+02  0.51100000000E-03 0.  1.
    9900012    2    1    2    0    0  0.19250803275E+02  0.40486345291E+02 -0.44017996919E+01  0.46142318495E+02  0.10000006688E+02 0.  0.
         12    1    1    2    0    0 -0.19250803275E+02 -0.40486345291E+02  0.44017996919E+01  0.45045681505E+02  0.00000000000E+00 0. -1.
         11    1    3    3    0    0  0.13040180241E+02  0.24387459254E+02 -0.52981051692E+01  0.28157847720E+02  0.51100000000E-03 0.  1.
        -11    1    3    3    0    0  0.53284146249E+01  0.69045205603E+01  0.24472131418E+00  0.87249238028E+01  0.51100000000E-03 0. -1.
         12    1    3    3    0    0  0.88220840934E+00  0.91943654767E+01  0.65158416309E+00  0.92595469715E+01  0.00000000000E+00 0. -1.
</event>
<event>
 7    1  0.2425980E-008  0.4614232E+02  0.7816164E-02  0.1320468E+00
        -11   -1    0    0    0    0  0.00000000000E+00  0.00000000000E+00  0.45593999997E+02  0.45594000000E+02  0.51100000000E-03 0.  1.
         11   -1    0    0    0    0 -0.00000000000E+00 -0.00000000000E+00 -0.45593999997E+02  0.45594000000E+02  0.51100000000E-03 0. -1.
    9900012    2    1    2    0    0  0.66328404364E+00 -0.11392297536E+02  0.43576244836E+02  0.46142317600E+02  0.99999985297E+01 0.  0.
         12    1    1    2    0    0 -0.66328404364E+00  0.11392297536E+02 -0.43576244836E+02  0.45045682400E+02  0.00000000000E+00 0. -1.
         11    1    3    3    0    0  0.37070416161E+01 -0.53893897377E+01  0.11268270827E+02  0.13029259648E+02  0.51100000000E-03 0. -1.
        -11    1    3    3    0    0 -0.91977542083E+00 -0.31586918094E+01  0.10076359793E+02  0.10599827721E+02  0.51100000000E-03 0.  1.
         12    1    3    3    0    0 -0.21239821517E+01 -0.28442159893E+01  0.22231614216E+02  0.22513230231E+02  0.00000000000E+00 0. -1.
</event>
<event>
 7    1  0.2425980E-008  0.4614232E+02  0.7816164E-02  0.1320468E+00
        -11   -1    0    0    0    0  0.00000000000E+00  0.00000000000E+00  0.45593999997E+02  0.45594000000E+02  0.51100000000E-03 0. -1.
         11   -1    0    0    0    0 -0.00000000000E+00 -0.00000000000E+00 -0.45593999997E+02  0.45594000000E+02  0.51100000000E-03 0.  1.
    9900012    2    1    2    0    0 -0.82567269306E+01  0.42106071807E+02 -0.13711991226E+02  0.46142317343E+02  0.99999961863E+01 0.  0.
         12    1    1    2    0    0  0.82567269306E+01 -0.42106071807E+02  0.13711991226E+02  0.45045682657E+02  0.00000000000E+00 0. -1.
         11    1    3    3    0    0  0.66855703920E+00  0.37131403525E+01 -0.13992353482E+01  0.40239582022E+01  0.51100000000E-03 0. -1.
        -11    1    3    3    0    0 -0.12297981882E+01  0.22708372307E+02 -0.57653520341E+01  0.23461071176E+02  0.51100000000E-03 0.  1.
        -12    1    3    3    0    0 -0.76954857816E+01  0.15684559148E+02 -0.65474038441E+01  0.18657287964E+02  0.00000000000E+00 0.  1.
</event>
<event>
 7    1  0.2425980E-008  0.4614232E+02  0.7816164E-02  0.1320468E+00
        -11   -1    0    0    0    0  0.00000000000E+00  0.00000000000E+00  0.45593999997E+02  0.45594000000E+02  0.51100000000E-03 0. -1.
         11   -1    0    0    0    0 -0.00000000000E+00 -0.00000000000E+00 -0.45593999997E+02  0.45594000000E+02  0.51100000000E-03 0.  1.
    9900012    2    1    2    0    0  0.33647484090E+02  0.20758776615E+02 -0.21587804911E+02  0.46142319708E+02  0.10000017749E+02 0.  0.
         12    1    1    2    0    0 -0.33647484090E+02 -0.20758776615E+02  0.21587804911E+02  0.45045680292E+02  0.00000000000E+00 0. -1.
         11    1    3    3    0    0  0.58133650077E+00  0.44876134737E+00  0.95291655402E+00  0.12030748497E+01  0.51100000000E-03 0. -1.
        -11    1    3    3    0    0  0.64268136846E+01  0.29552309735E+01 -0.44979897776E+01  0.83826747846E+01  0.51100000000E-03 0.  1.
        -12    1    3    3    0    0  0.26639333905E+02  0.17354784294E+02 -0.18042731688E+02  0.36556570073E+02  0.00000000000E+00 0.  1.
</event>
<event>
 7    1  0.2425980E-008  0.4614232E+02  0.7816164E-02  0.1320468E+00
        -11   -1    0    0    0    0  0.00000000000E+00  0.00000000000E+00  0.45593999997E+02  0.45594000000E+02  0.51100000000E-03 0.  1.
         11   -1    0    0    0    0 -0.00000000000E+00 -0.00000000000E+00 -0.45593999997E+02  0.45594000000E+02  0.51100000000E-03 0. -1.
    9900012    2    1    2    0    0  0.15686653438E+02 -0.31196658988E+02  0.28457172562E+02  0.46142319871E+02  0.10000019237E+02 0.  0.
         12    1    1    2    0    0 -0.15686653438E+02  0.31196658988E+02 -0.28457172562E+02  0.45045680129E+02  0.00000000000E+00 0. -1.
         11    1    3    3    0    0  0.37482856605E+01 -0.87617943568E+01  0.10281898046E+02  0.14019133833E+02  0.51100000000E-03 0. -1.
        -11    1    3    3    0    0  0.11913166895E+02 -0.22265476302E+02  0.18795795030E+02  0.31479467777E+02  0.51100000000E-03 0.  1.
         12    1    3    3    0    0  0.25200882736E-01 -0.16938832893E+00 -0.62052051441E+00  0.64371826079E+00  0.00000000000E+00 0. -1.
</event>
<event>
 7    1  0.2425980E-008  0.4614232E+02  0.7816164E-02  0.1320468E+00
        -11   -1    0    0    0    0  0.00000000000E+00  0.00000000000E+00  0.45593999997E+02  0.45594000000E+02  0.51100000000E-03 0.  1.
         11   -1    0    0    0    0 -0.00000000000E+00 -0.00000000000E+00 -0.45593999997E+02  0.45594000000E+02  0.51100000000E-03 0. -1.
    9900012    2    1    2    0    0  0.22905297235E+02 -0.50783055068E+01  0.38453499253E+02  0.46142318376E+02  0.10000005604E+02 0.  0.
         12    1    1    2    0    0 -0.22905297235E+02  0.50783055068E+01 -0.38453499253E+02  0.45045681624E+02  0.00000000000E+00 0. -1.
         11    1    3    3    0    0  0.91551356741E+00  0.69357023976E+00  0.63405251047E+00  0.13119556459E+01  0.51100000000E-03 0. -1.
        -11    1    3    3    0    0  0.32122320866E+01  0.15269220527E+01  0.32447689671E+01  0.48144004658E+01  0.51100000000E-03 0.  1.
        -12    1    3    3    0    0  0.18777551581E+02 -0.72987977993E+01  0.34574677775E+02  0.40015962264E+02  0.00000000000E+00 0.  1.
</event>
<event>
 7    1  0.2425980E-008  0.4614232E+02  0.7816164E-02  0.1320468E+00
        -11   -1    0    0    0    0  0.00000000000E+00  0.00000000000E+00  0.45593999997E+02  0.45594000000E+02  0.51100000000E-03 0.  1.
         11   -1    0    0    0    0 -0.00000000000E+00 -0.00000000000E+00 -0.45593999997E+02  0.45594000000E+02  0.51100000000E-03 0. -1.
    9900012    2    1    2    0    0  0.76760042753E+01  0.31481057539E+02  0.31291140974E+02  0.46142317312E+02  0.99999959023E+01 0.  0.
         12    1    1    2    0    0 -0.76760042753E+01 -0.31481057539E+02 -0.31291140974E+02  0.45045682688E+02  0.00000000000E+00 0. -1.
         11    1    3    3    0    0  0.75141227465E+01  0.12105555027E+02  0.13401287910E+02  0.19560189699E+02  0.51100000000E-03 0.  1.
        -11    1    3    3    0    0  0.14800912467E+01  0.15143525938E+02  0.14251368338E+02  0.20847506990E+02  0.51100000000E-03 0. -1.
         12    1    3    3    0    0 -0.13182097180E+01  0.42319765744E+01  0.36384847258E+01  0.57346206227E+01  0.00000000000E+00 0. -1.
</event>
<event>
 7    1  0.2425980E-008  0.4614232E+02  0.7816164E-02  0.1320468E+00
        -11   -1    0    0    0    0  0.00000000000E+00  0.00000000000E+00  0.45593999997E+02  0.45594000000E+02  0.51100000000E-03 0.  1.
         11   -1    0    0    0    0 -0.00000000000E+00 -0.00000000000E+00 -0.45593999997E+02  0.45594000000E+02  0.51100000000E-03 0. -1.
    9900012    2    1    2    0    0  0.42759107813E+02  0.11213021750E+02  0.86625811434E+01  0.46142317967E+02  0.10000001879E+02 0.  0.
         12    1    1    2    0    0 -0.42759107813E+02 -0.11213021750E+02 -0.86625811434E+01  0.45045682033E+02  0.00000000000E+00 0. -1.
         11    1    3    3    0    0  0.10178722904E+01 -0.97512630986E+00 -0.15779395765E+00  0.14183915235E+01  0.51100000000E-03 0. -1.
        -11    1    3    3    0    0  0.26336539198E+02  0.49563102912E+01  0.46017376634E+01  0.27191070196E+02  0.51100000000E-03 0.  1.
         12    1    3    3    0    0  0.15404696325E+02  0.72318377682E+01  0.42186374376E+01  0.17532856247E+02  0.00000000000E+00 0. -1.
</event>
<event>
 7    1  0.2425980E-008  0.4614232E+02  0.7816164E-02  0.1320468E+00
        -11   -1    0    0    0    0  0.00000000000E+00  0.00000000000E+00  0.45593999997E+02  0.45594000000E+02  0.51100000000E-03 0.  1.
         11   -1    0    0    0    0 -0.00000000000E+00 -0.00000000000E+00 -0.45593999997E+02  0.45594000000E+02  0.51100000000E-03 0. -1.
    9900012    2    1    2    0    0 -0.19095321061E+01  0.28285955036E+02  0.35005313723E+02  0.46142317033E+02  0.99999933568E+01 0.  0.
         12    1    1    2    0    0  0.19095321061E+01 -0.28285955036E+02 -0.35005313723E+02  0.45045682967E+02  0.00000000000E+00 0. -1.
         11    1    3    3    0    0 -0.24240350761E+01  0.10102006641E+02  0.11273079422E+02  0.15329996874E+02  0.51100000000E-03 0. -1.
        -11    1    3    3    0    0 -0.22943027165E+01  0.15144341686E+02  0.20332320904E+02  0.25456201281E+02  0.51100000000E-03 0.  1.
         12    1    3    3    0    0  0.28088056865E+01  0.30396067095E+01  0.33999133969E+01  0.53561188784E+01  0.00000000000E+00 0. -1.
</event>
<event>
 7    1  0.2425980E-008  0.4614233E+02  0.7816164E-02  0.1320468E+00
        -11   -1    0    0    0    0  0.00000000000E+00  0.00000000000E+00  0.45593999997E+02  0.45594000000E+02  0.51100000000E-03 0.  1.
         11   -1    0    0    0    0 -0.00000000000E+00 -0.00000000000E+00 -0.45593999997E+02  0.45594000000E+02  0.51100000000E-03 0. -1.
    9900012    2    1    2    0    0 -0.39318552068E+02  0.94385008714E+01  0.19851412853E+02  0.46142329534E+02  0.10000107356E+02 0.  0.
         12    1    1    2    0    0  0.39318552068E+02 -0.94385008714E+01 -0.19851412853E+02  0.45045670466E+02  0.00000000000E+00 0. -1.
         11    1    3    3    0    0 -0.16902569996E+02  0.31266886657E+01  0.12500034174E+02  0.21253797522E+02  0.51100000000E-03 0. -1.
        -11    1    3    3    0    0 -0.75398964674E+01  0.50710550154E+00  0.69696839200E+00  0.75890025648E+01  0.51100000000E-03 0.  1.
        -12    1    3    3    0    0 -0.14876085604E+02  0.58047067042E+01  0.66544102874E+01  0.17299529447E+02  0.00000000000E+00 0.  1.
</event>
<event>
 7    1  0.2425980E-008  0.4614232E+02  0.7816164E-02  0.1320468E+00
        -11   -1    0    0    0    0  0.00000000000E+00  0.00000000000E+00  0.45593999997E+02  0.45594000000E+02  0.51100000000E-03 0.  1.
         11   -1    0    0    0    0 -0.00000000000E+00 -0.00000000000E+00 -0.45593999997E+02  0.45594000000E+02  0.51100000000E-03 0. -1.
    9900012    2    1    2    0    0 -0.33140451658E+02  0.13820094519E+02  0.27199796088E+02  0.46142318122E+02  0.10000003291E+02 0.  0.
         12    1    1    2    0    0  0.33140451658E+02 -0.13820094519E+02 -0.27199796088E+02  0.45045681878E+02  0.00000000000E+00 0. -1.
         11    1    3    3    0    0 -0.26702960174E+02  0.83384330097E+01  0.22730103785E+02  0.36044904847E+02  0.51100000000E-03 0. -1.
        -11    1    3    3    0    0 -0.66285461568E+01  0.45747372170E+01  0.43756763887E+01  0.91658272337E+01  0.51100000000E-03 0.  1.
         12    1    3    3    0    0  0.19105467259E+00  0.90692429226E+00  0.94015914560E-01  0.93158604111E+00  0.00000000000E+00 0. -1.
</event>
<event>
 7    1  0.2425980E-008  0.4614232E+02  0.7816164E-02  0.1320468E+00
        -11   -1    0    0    0    0  0.00000000000E+00  0.00000000000E+00  0.45593999997E+02  0.45594000000E+02  0.51100000000E-03 0.  1.
         11   -1    0    0    0    0 -0.00000000000E+00 -0.00000000000E+00 -0.45593999997E+02  0.45594000000E+02  0.51100000000E-03 0. -1.
    9900012    2    1    2    0    0 -0.13619941694E+02 -0.73563277980E+01  0.42302425005E+02  0.46142317280E+02  0.99999956124E+01 0.  0.
         12    1    1    2    0    0  0.13619941694E+02  0.73563277980E+01 -0.42302425005E+02  0.45045682720E+02  0.00000000000E+00 0. -1.
         11    1    3    3    0    0 -0.13115376777E+01 -0.11262423740E+01  0.79528236343E+00  0.19028996988E+01  0.51100000000E-03 0. -1.
        -11    1    3    3    0    0 -0.78263449855E+01 -0.10426540968E+01  0.16222165397E+02  0.18041547988E+02  0.51100000000E-03 0.  1.
         12    1    3    3    0    0 -0.44820590307E+01 -0.51874313272E+01  0.25284977245E+02  0.26197869593E+02  0.00000000000E+00 0. -1.
</event>
<event>
 7    1  0.2425980E-008  0.4614232E+02  0.7816164E-02  0.1320468E+00
        -11   -1    0    0    0    0  0.00000000000E+00  0.00000000000E+00  0.45593999997E+02  0.45594000000E+02  0.51100000000E-03 0.  1.
         11   -1    0    0    0    0 -0.00000000000E+00 -0.00000000000E+00 -0.45593999997E+02  0.45594000000E+02  0.51100000000E-03 0. -1.
    9900012    2    1    2    0    0 -0.23442524287E+01 -0.24951496425E+02  0.37430477358E+02  0.46142319535E+02  0.10000016173E+02 0.  0.
         12    1    1    2    0    0  0.23442524287E+01  0.24951496425E+02 -0.37430477358E+02  0.45045680465E+02  0.00000000000E+00 0. -1.
         11    1    3    3    0    0 -0.22670114756E+01 -0.99659152797E+00  0.54152260929E+01  0.59545956708E+01  0.51100000000E-03 0. -1.
        -11    1    3    3    0    0  0.85015487708E+00 -0.10468285709E+02  0.17008453629E+02  0.19989879042E+02  0.51100000000E-03 0.  1.
         12    1    3    3    0    0 -0.92739583021E+00 -0.13486619188E+02  0.15006797636E+02  0.20197844822E+02  0.00000000000E+00 0. -1.
</event>
<event>
 7    1  0.2425980E-008  0.4614232E+02  0.7816164E-02  0.1320468E+00
        -11   -1    0    0    0    0  0.00000000000E+00  0.00000000000E+00  0.45593999997E+02  0.45594000000E+02  0.51100000000E-03 0. -1.
         11   -1    0    0    0    0 -0.00000000000E+00 -0.00000000000E+00 -0.45593999997E+02  0.45594000000E+02  0.51100000000E-03 0.  1.
    9900012    2    1    2    0    0 -0.23890076302E+02 -0.20119710826E+02 -0.32458819960E+02  0.46142317603E+02  0.99999985542E+01 0.  0.
         12    1    1    2    0    0  0.23890076302E+02  0.20119710826E+02  0.32458819960E+02  0.45045682397E+02  0.00000000000E+00 0. -1.
         11    1    3    3    0    0 -0.76167015985E+01 -0.86363727872E+01 -0.16472116341E+02  0.20098052024E+02  0.51100000000E-03 0. -1.
        -11    1    3    3    0    0 -0.84275878650E+01 -0.82328152367E+01 -0.11392304400E+02  0.16388657167E+02  0.51100000000E-03 0.  1.
         12    1    3    3    0    0 -0.78457868382E+01 -0.32505228021E+01 -0.45943992196E+01  0.96556084110E+01  0.00000000000E+00 0. -1.
</event>
<event>
 7    1  0.2425980E-008  0.4614232E+02  0.7816164E-02  0.1320468E+00
        -11   -1    0    0    0    0  0.00000000000E+00  0.00000000000E+00  0.45593999997E+02  0.45594000000E+02  0.51100000000E-03 0.  1.
         11   -1    0    0    0    0 -0.00000000000E+00 -0.00000000000E+00 -0.45593999997E+02  0.45594000000E+02  0.51100000000E-03 0. -1.
    9900012    2    1    2    0    0  0.23968633538E+01  0.35607968391E+02  0.27485289993E+02  0.46142317267E+02  0.99999954946E+01 0.  0.
         12    1    1    2    0    0 -0.23968633538E+01 -0.35607968391E+02 -0.27485289993E+02  0.45045682733E+02  0.00000000000E+00 0. -1.
         11    1    3    3    0    0  0.20584722313E+00 -0.18113964023E+00  0.17312576190E+01  0.17528370868E+01  0.51100000000E-03 0. -1.
        -11    1    3    3    0    0  0.15817794419E+01  0.85053640895E+01  0.42167551892E+01  0.96241503046E+01  0.51100000000E-03 0.  1.
        -12    1    3    3    0    0  0.60923668881E+00  0.27283743942E+02  0.21537277185E+02  0.34765329876E+02  0.00000000000E+00 0.  1.
</event>
<event>
 7    1  0.2425980E-008  0.4614232E+02  0.7816164E-02  0.1320468E+00
        -11   -1    0    0    0    0  0.00000000000E+00  0.00000000000E+00  0.45593999997E+02  0.45594000000E+02  0.51100000000E-03 0.  1.
         11   -1    0    0    0    0 -0.00000000000E+00 -0.00000000000E+00 -0.45593999997E+02  0.45594000000E+02  0.51100000000E-03 0. -1.
    9900012    2    1    2    0    0 -0.96843424311E+01  0.21436614804E+02  0.38416123806E+02  0.46142317512E+02  0.99999977248E+01 0.  0.
         12    1    1    2    0    0  0.96843424311E+01 -0.21436614804E+02 -0.38416123806E+02  0.45045682488E+02  0.00000000000E+00 0. -1.
         11    1    3    3    0    0 -0.73041706120E+01  0.12975427564E+02  0.15742046884E+02  0.21668517927E+02  0.51100000000E-03 0. -1.
        -11    1    3    3    0    0 -0.28408023102E+01  0.56638468349E+01  0.16683896540E+02  0.17846616563E+02  0.51100000000E-03 0.  1.
        -12    1    3    3    0    0  0.46063049110E+00  0.27973404049E+01  0.59901803815E+01  0.66271830210E+01  0.00000000000E+00 0.  1.
</event>
<event>
 7    1  0.2425980E-008  0.4614232E+02  0.7816164E-02  0.1320468E+00
        -11   -1    0    0    0    0  0.00000000000E+00  0.00000000000E+00  0.45593999997E+02  0.45594000000E+02  0.51100000000E-03 0. -1.
         11   -1    0    0    0    0 -0.00000000000E+00 -0.00000000000E+00 -0.45593999997E+02  0.45594000000E+02  0.51100000000E-03 0.  1.
    9900012    2    1    2    0    0 -0.22818133643E+02  0.29505602869E+02  0.25256005196E+02  0.46142316277E+02  0.99999864686E+01 0.  0.
         12    1    1    2    0    0  0.22818133643E+02 -0.29505602869E+02 -0.25256005196E+02  0.45045683723E+02  0.00000000000E+00 0. -1.
         11    1    3    3    0    0 -0.95178081044E+01  0.15910619438E+02  0.10700693348E+02  0.21406571897E+02  0.51100000000E-03 0. -1.
        -11    1    3    3    0    0 -0.13300729283E+02  0.10773304953E+02  0.11783440579E+02  0.20780350603E+02  0.51100000000E-03 0.  1.
        -12    1    3    3    0    0  0.40374387482E-03  0.28216784780E+01  0.27718712686E+01  0.39553937763E+01  0.00000000000E+00 0.  1.
</event>
<event>
 7    1  0.2425980E-008  0.4614232E+02  0.7816164E-02  0.1320468E+00
        -11   -1    0    0    0    0  0.00000000000E+00  0.00000000000E+00  0.45593999997E+02  0.45594000000E+02  0.51100000000E-03 0.  1.
         11   -1    0    0    0    0 -0.00000000000E+00 -0.00000000000E+00 -0.45593999997E+02  0.45594000000E+02  0.51100000000E-03 0. -1.
    9900012    2    1    2    0    0 -0.18646768673E+02 -0.39987159655E+02 -0.90795569986E+01  0.46142320135E+02  0.10000021643E+02 0.  0.
         12    1    1    2    0    0  0.18646768673E+02  0.39987159655E+02  0.90795569986E+01  0.45045679865E+02  0.00000000000E+00 0. -1.
         11    1    3    3    0    0 -0.45721651305E+01 -0.11464011572E+02 -0.19709005580E+01  0.12498508094E+02  0.51100000000E-03 0. -1.
        -11    1    3    3    0    0 -0.80071104946E+01 -0.16884328107E+02  0.63102927551E-01  0.18686849289E+02  0.51100000000E-03 0.  1.
         12    1    3    3    0    0 -0.60674930480E+01 -0.11638819976E+02 -0.71717593682E+01  0.14956962752E+02  0.00000000000E+00 0. -1.
</event>
<event>
 7    1  0.2425980E-008  0.4614232E+02  0.7816164E-02  0.1320468E+00
        -11   -1    0    0    0    0  0.00000000000E+00  0.00000000000E+00  0.45593999997E+02  0.45594000000E+02  0.51100000000E-03 0. -1.
         11   -1    0    0    0    0 -0.00000000000E+00 -0.00000000000E+00 -0.45593999997E+02  0.45594000000E+02  0.51100000000E-03 0.  1.
    9900012    2    1    2    0    0  0.23087009795E+02  0.22213687534E+01 -0.38615656073E+02  0.46142318805E+02  0.10000009517E+02 0.  0.
         12    1    1    2    0    0 -0.23087009795E+02 -0.22213687534E+01  0.38615656073E+02  0.45045681195E+02  0.00000000000E+00 0. -1.
         11    1    3    3    0    0  0.10863700824E+02  0.82310048612E+00 -0.10209475539E+02  0.14930870070E+02  0.51100000000E-03 0. -1.
        -11    1    3    3    0    0  0.60841508598E+01  0.22767744388E+01 -0.11563867819E+02  0.13263620649E+02  0.51100000000E-03 0.  1.
        -12    1    3    3    0    0  0.61391581111E+01 -0.87850617153E+00 -0.16842312715E+02  0.17947828085E+02  0.00000000000E+00 0.  1.
</event>
<event>
 7    1  0.2425980E-008  0.4614232E+02  0.7816164E-02  0.1320468E+00
        -11   -1    0    0    0    0  0.00000000000E+00  0.00000000000E+00  0.45593999997E+02  0.45594000000E+02  0.51100000000E-03 0.  1.
         11   -1    0    0    0    0 -0.00000000000E+00 -0.00000000000E+00 -0.45593999997E+02  0.45594000000E+02  0.51100000000E-03 0. -1.
    9900012    2    1    2    0    0 -0.43083023294E+02 -0.12946117457E+02 -0.23161896422E+01  0.46142316657E+02  0.99999899303E+01 0.  0.
         12    1    1    2    0    0  0.43083023294E+02  0.12946117457E+02  0.23161896422E+01  0.45045683343E+02  0.00000000000E+00 0. -1.
         11    1    3    3    0    0 -0.13899331599E-01 -0.10958423128E+00  0.69702680016E+00  0.70572552485E+00  0.51100000000E-03 0. -1.
        -11    1    3    3    0    0 -0.18952151300E+01 -0.23113650355E+00 -0.13608943017E+01  0.23446317480E+01  0.51100000000E-03 0.  1.
        -12    1    3    3    0    0 -0.41173908833E+02 -0.12605396722E+02 -0.16523221407E+01  0.43091959384E+02  0.00000000000E+00 0.  1.
</event>
<event>
 7    1  0.2425980E-008  0.4614231E+02  0.7816164E-02  0.1320468E+00
        -11   -1    0    0    0    0  0.00000000000E+00  0.00000000000E+00  0.45593999997E+02  0.45594000000E+02  0.51100000000E-03 0.  1.
         11   -1    0    0    0    0 -0.00000000000E+00 -0.00000000000E+00 -0.45593999997E+02  0.45594000000E+02  0.51100000000E-03 0. -1.
    9900012    2    1    2    0    0  0.13876402999E+02  0.36554157747E+02  0.22368569788E+02  0.46142312935E+02  0.99999559914E+01 0.  0.
         12    1    1    2    0    0 -0.13876402999E+02 -0.36554157747E+02 -0.22368569788E+02  0.45045687065E+02  0.00000000000E+00 0. -1.
         11    1    3    3    0    0  0.36551978489E+01  0.45507226707E+01  0.30659592761E+01  0.65931521053E+01  0.51100000000E-03 0. -1.
        -11    1    3    3    0    0  0.15089007923E+01  0.20292467701E+00  0.11675368399E+01  0.19186199621E+01  0.51100000000E-03 0.  1.
        -12    1    3    3    0    0  0.87123043576E+01  0.31800510399E+02  0.18135073673E+02  0.37630540868E+02  0.00000000000E+00 0.  1.
</event>
<event>
 7    1  0.2425980E-008  0.4614232E+02  0.7816164E-02  0.1320468E+00
        -11   -1    0    0    0    0  0.00000000000E+00  0.00000000000E+00  0.45593999997E+02  0.45594000000E+02  0.51100000000E-03 0.  1.
         11   -1    0    0    0    0 -0.00000000000E+00 -0.00000000000E+00 -0.45593999997E+02  0.45594000000E+02  0.51100000000E-03 0. -1.
    9900012    2    1    2    0    0 -0.24621547870E+02 -0.35934669829E+02  0.11471373095E+02  0.46142317456E+02  0.99999972163E+01 0.  0.
         12    1    1    2    0    0  0.24621547870E+02  0.35934669829E+02 -0.11471373095E+02  0.45045682544E+02  0.00000000000E+00 0. -1.
         11    1    3    3    0    0 -0.17411099091E+02 -0.24878127731E+02  0.95930027984E+01  0.31844831824E+02  0.51100000000E-03 0. -1.
        -11    1    3    3    0    0 -0.64654055236E+01 -0.62201440006E+01 -0.21688400469E+00  0.89743355690E+01  0.51100000000E-03 0.  1.
         12    1    3    3    0    0 -0.74504325534E+00 -0.48363980972E+01  0.20952543008E+01  0.53231500629E+01  0.00000000000E+00 0. -1.
</event>
<event>
 7    1  0.2425980E-008  0.4614232E+02  0.7816164E-02  0.1320468E+00
        -11   -1    0    0    0    0  0.00000000000E+00  0.00000000000E+00  0.45593999997E+02  0.45594000000E+02  0.51100000000E-03 0.  1.
         11   -1    0    0    0    0 -0.00000000000E+00 -0.00000000000E+00 -0.45593999997E+02  0.45594000000E+02  0.51100000000E-03 0. -1.
    9900012    2    1    2    0    0 -0.34530081041E+02  0.13560454133E+02  0.25551929945E+02  0.46142317222E+02  0.99999950837E+01 0.  0.
         12    1    1    2    0    0  0.34530081041E+02 -0.13560454133E+02 -0.25551929945E+02  0.45045682778E+02  0.00000000000E+00 0. -1.
         11    1    3    3    0    0 -0.22783191026E+02  0.93945290199E+01  0.19063982538E+02  0.31157124375E+02  0.51100000000E-03 0. -1.
        -11    1    3    3    0    0 -0.95278048281E+01  0.47106149267E+01  0.68880484496E+01  0.12665471548E+02  0.51100000000E-03 0.  1.
         12    1    3    3    0    0 -0.22190851871E+01 -0.54468981400E+00 -0.40010104226E+00  0.23197212990E+01  0.00000000000E+00 0. -1.
</event>
<event>
 7    1  0.2425980E-008  0.4614232E+02  0.7816164E-02  0.1320468E+00
        -11   -1    0    0    0    0  0.00000000000E+00  0.00000000000E+00  0.45593999997E+02  0.45594000000E+02  0.51100000000E-03 0.  1.
         11   -1    0    0    0    0 -0.00000000000E+00 -0.00000000000E+00 -0.45593999997E+02  0.45594000000E+02  0.51100000000E-03 0. -1.
    9900012    2    1    2    0    0  0.16734663789E+02  0.62486176362E+01  0.41352379374E+02  0.46142317916E+02  0.10000001416E+02 0.  0.
         12    1    1    2    0    0 -0.16734663789E+02 -0.62486176362E+01 -0.41352379374E+02  0.45045682084E+02  0.00000000000E+00 0. -1.
         11    1    3    3    0    0  0.60884743858E+01  0.13029694950E+00  0.16288770856E+02  0.17389955547E+02  0.51100000000E-03 0. -1.
        -11    1    3    3    0    0  0.16405646171E+01  0.23186149774E+01  0.12583987359E+02  0.12900549050E+02  0.51100000000E-03 0.  1.
         12    1    3    3    0    0  0.90056247863E+01  0.37997057093E+01  0.12479621158E+02  0.15851813320E+02  0.00000000000E+00 0. -1.
</event>
<event>
 7    1  0.2425980E-008  0.4614232E+02  0.7816164E-02  0.1320468E+00
        -11   -1    0    0    0    0  0.00000000000E+00  0.00000000000E+00  0.45593999997E+02  0.45594000000E+02  0.51100000000E-03 0.  1.
         11   -1    0    0    0    0 -0.00000000000E+00 -0.00000000000E+00 -0.45593999997E+02  0.45594000000E+02  0.51100000000E-03 0. -1.
    9900012    2    1    2    0    0  0.13728740472E+02 -0.40801937127E+02  0.13260356773E+02  0.46142318187E+02  0.10000003884E+02 0.  0.
         12    1    1    2    0    0 -0.13728740472E+02  0.40801937127E+02 -0.13260356773E+02  0.45045681813E+02  0.00000000000E+00 0. -1.
         11    1    3    3    0    0  0.87127423988E+01 -0.25794097066E+02  0.53938330093E+01  0.27755013212E+02  0.51100000000E-03 0. -1.
        -11    1    3    3    0    0  0.28908660323E+01 -0.13759443742E+02  0.73651491250E+01  0.15872139755E+02  0.51100000000E-03 0.  1.
         12    1    3    3    0    0  0.21251320406E+01 -0.12483963180E+01  0.50137463894E+00  0.25151652203E+01  0.00000000000E+00 0. -1.
</event>
<event>
 7    1  0.2425980E-008  0.4614232E+02  0.7816164E-02  0.1320468E+00
        -11   -1    0    0    0    0  0.00000000000E+00  0.00000000000E+00  0.45593999997E+02  0.45594000000E+02  0.51100000000E-03 0.  1.
         11   -1    0    0    0    0 -0.00000000000E+00 -0.00000000000E+00 -0.45593999997E+02  0.45594000000E+02  0.51100000000E-03 0. -1.
    9900012    2    1    2    0    0  0.43547604557E+02 -0.84462329042E+00  0.11489394169E+02  0.46142318414E+02  0.10000005956E+02 0.  0.
         12    1    1    2    0    0 -0.43547604557E+02  0.84462329042E+00 -0.11489394169E+02  0.45045681586E+02  0.00000000000E+00 0. -1.
         11    1    3    3    0    0  0.18245746389E+02 -0.26986146518E+01  0.30257593059E+01  0.18690773177E+02  0.51100000000E-03 0. -1.
        -11    1    3    3    0    0  0.18586772017E+02 -0.14214334017E+01  0.58929961542E+01  0.19550344520E+02  0.51100000000E-03 0.  1.
         12    1    3    3    0    0  0.67150861512E+01  0.32754247631E+01  0.25706387091E+01  0.79012007170E+01  0.00000000000E+00 0. -1.
</event>
<event>
 7    1  0.2425980E-008  0.4614232E+02  0.7816164E-02  0.1320468E+00
        -11   -1    0    0    0    0  0.00000000000E+00  0.00000000000E+00  0.45593999997E+02  0.45594000000E+02  0.51100000000E-03 0.  1.
         11   -1    0    0    0    0 -0.00000000000E+00 -0.00000000000E+00 -0.45593999997E+02  0.45594000000E+02  0.51100000000E-03 0. -1.
    9900012    2    1    2    0    0  0.26309041435E+02 -0.23554597000E+01  0.36488348703E+02  0.46142318268E+02  0.10000004619E+02 0.  0.
         12    1    1    2    0    0 -0.26309041435E+02  0.23554597000E+01 -0.36488348703E+02  0.45045681732E+02  0.00000000000E+00 0. -1.
         11    1    3    3    0    0  0.41545380512E+01  0.21560305734E+01  0.39139168949E+01  0.61014260606E+01  0.51100000000E-03 0. -1.
        -11    1    3    3    0    0  0.82176788461E+01 -0.35957087652E+01  0.94763698289E+01  0.13048408046E+02  0.51100000000E-03 0.  1.
         12    1    3    3    0    0  0.13936824538E+02 -0.91578150828E+00  0.23098061980E+02  0.26992484161E+02  0.00000000000E+00 0. -1.
</event>
<event>
 7    1  0.2425980E-008  0.4614232E+02  0.7816164E-02  0.1320468E+00
        -11   -1    0    0    0    0  0.00000000000E+00  0.00000000000E+00  0.45593999997E+02  0.45594000000E+02  0.51100000000E-03 0.  1.
         11   -1    0    0    0    0 -0.00000000000E+00 -0.00000000000E+00 -0.45593999997E+02  0.45594000000E+02  0.51100000000E-03 0. -1.
    9900012    2    1    2    0    0  0.41341391293E+02 -0.17315134025E+02  0.44932041184E+01  0.46142318924E+02  0.10000010609E+02 0.  0.
         12    1    1    2    0    0 -0.41341391293E+02  0.17315134025E+02 -0.44932041184E+01  0.45045681076E+02  0.00000000000E+00 0. -1.
         11    1    3    3    0    0  0.52930179349E+01 -0.57193910572E+01  0.23579680701E+01  0.81417127562E+01  0.51100000000E-03 0. -1.
        -11    1    3    3    0    0  0.16575122876E+02 -0.51386228009E+01  0.21389304215E+01  0.17484712358E+02  0.51100000000E-03 0.  1.
         12    1    3    3    0    0  0.19473250482E+02 -0.64571201671E+01 -0.36943732643E-02  0.20515893810E+02  0.00000000000E+00 0. -1.
</event>
<event>
 7    1  0.2425980E-008  0.4614232E+02  0.7816164E-02  0.1320468E+00
        -11   -1    0    0    0    0  0.00000000000E+00  0.00000000000E+00  0.45593999997E+02  0.45594000000E+02  0.51100000000E-03 0.  1.
         11   -1    0    0    0    0 -0.00000000000E+00 -0.00000000000E+00 -0.45593999997E+02  0.45594000000E+02  0.51100000000E-03 0. -1.
    9900012    2    1    2    0    0 -0.39721861033E+01 -0.25592068457E+01  0.44797161921E+02  0.46142317429E+02  0.99999969696E+01 0.  0.
         12    1    1    2    0    0  0.39721861033E+01  0.25592068457E+01 -0.44797161921E+02  0.45045682571E+02  0.00000000000E+00 0. -1.
         11    1    3    3    0    0  0.31441856000E+00 -0.32218106316E+01  0.44136618387E+01  0.54735120229E+01  0.51100000000E-03 0. -1.
        -11    1    3    3    0    0 -0.14243195215E+01 -0.54980776505E+00  0.86771541256E+01  0.88104471316E+01  0.51100000000E-03 0.  1.
         12    1    3    3    0    0 -0.28622851418E+01  0.12124115510E+01  0.31706345957E+02  0.31858358274E+02  0.00000000000E+00 0. -1.
</event>
<event>
 7    1  0.2425980E-008  0.4614232E+02  0.7816164E-02  0.1320468E+00
        -11   -1    0    0    0    0  0.00000000000E+00  0.00000000000E+00  0.45593999997E+02  0.45594000000E+02  0.51100000000E-03 0.  1.
         11   -1    0    0    0    0 -0.00000000000E+00 -0.00000000000E+00 -0.45593999997E+02  0.45594000000E+02  0.51100000000E-03 0. -1.
    9900012    2    1    2    0    0  0.22159132259E+02  0.32894008932E+02  0.21355808146E+02  0.46142317547E+02  0.99999980490E+01 0.  0.
         12    1    1    2    0    0 -0.22159132259E+02 -0.32894008932E+02 -0.21355808146E+02  0.45045682453E+02  0.00000000000E+00 0. -1.
         11    1    3    3    0    0  0.20160009545E+02  0.25650838011E+02  0.19924531266E+02  0.38227979570E+02  0.51100000000E-03 0.  1.
        -11    1    3    3    0    0  0.20009107869E+01  0.34862399506E+01  0.56888447063E+00  0.40596973745E+01  0.51100000000E-03 0. -1.
        -12    1    3    3    0    0 -0.17880735011E-02  0.37569309698E+01  0.86239240935E+00  0.38546406028E+01  0.00000000000E+00 0.  1.
</event>
<event>
 7    1  0.2425980E-008  0.4614232E+02  0.7816164E-02  0.1320468E+00
        -11   -1    0    0    0    0  0.00000000000E+00  0.00000000000E+00  0.45593999997E+02  0.45594000000E+02  0.51100000000E-03 0.  1.
         11   -1    0    0    0    0 -0.00000000000E+00 -0.00000000000E+00 -0.45593999997E+02  0.45594000000E+02  0.51100000000E-03 0. -1.
    9900012    2    1    2    0    0  0.15611256763E+02  0.16554100340E+02  0.38876262327E+02  0.46142319316E+02  0.10000014176E+02 0.  0.
         12    1    1    2    0    0 -0.15611256763E+02 -0.16554100340E+02 -0.38876262327E+02  0.45045680684E+02  0.00000000000E+00 0. -1.
         11    1    3    3    0    0  0.86543817851E+00  0.39716220818E+01  0.10875681410E+02  0.11610478525E+02  0.51100000000E-03 0.  1.
        -11    1    3    3    0    0  0.12188369277E+02  0.10911393879E+02  0.26464358032E+02  0.31112330487E+02  0.51100000000E-03 0. -1.
        -12    1    3    3    0    0  0.25574493076E+01  0.16710843784E+01  0.15362228855E+01  0.34195103033E+01  0.00000000000E+00 0.  1.
</event>
<event>
 7    1  0.2425980E-008  0.4614232E+02  0.7816164E-02  0.1320468E+00
        -11   -1    0    0    0    0  0.00000000000E+00  0.00000000000E+00  0.45593999997E+02  0.45594000000E+02  0.51100000000E-03 0.  1.
         11   -1    0    0    0    0 -0.00000000000E+00 -0.00000000000E+00 -0.45593999997E+02  0.45594000000E+02  0.51100000000E-03 0. -1.
    9900012    2    1    2    0    0 -0.65778304072E+01 -0.33806330675E+02  0.29034071903E+02  0.46142321208E+02  0.10000031433E+02 0.  0.
         12    1    1    2    0    0  0.65778304072E+01  0.33806330675E+02 -0.29034071903E+02  0.45045678792E+02  0.00000000000E+00 0. -1.
         11    1    3    3    0    0 -0.43579265705E+01 -0.14381389807E+02  0.16970542573E+02  0.22667492413E+02  0.51100000000E-03 0. -1.
        -11    1    3    3    0    0  0.69382306783E+00 -0.73228820115E+01  0.24708613881E+01  0.77595842456E+01  0.51100000000E-03 0.  1.
        -12    1    3    3    0    0 -0.29137269045E+01 -0.12102058856E+02  0.95926679418E+01  0.15715244550E+02  0.00000000000E+00 0.  1.
</event>
<event>
 7    1  0.2425980E-008  0.4614232E+02  0.7816164E-02  0.1320468E+00
        -11   -1    0    0    0    0  0.00000000000E+00  0.00000000000E+00  0.45593999997E+02  0.45594000000E+02  0.51100000000E-03 0.  1.
         11   -1    0    0    0    0 -0.00000000000E+00 -0.00000000000E+00 -0.45593999997E+02  0.45594000000E+02  0.51100000000E-03 0. -1.
    9900012    2    1    2    0    0 -0.17033134545E+02 -0.37781737403E+02  0.17650104180E+02  0.46142317286E+02  0.99999956652E+01 0.  0.
         12    1    1    2    0    0  0.17033134545E+02  0.37781737403E+02 -0.17650104180E+02  0.45045682714E+02  0.00000000000E+00 0. -1.
         11    1    3    3    0    0 -0.20219005734E+01 -0.10397624329E+02  0.30461811741E+01  0.11021701031E+02  0.51100000000E-03 0. -1.
        -11    1    3    3    0    0 -0.94446046325E+01 -0.15858356662E+02  0.50130424383E+01  0.19126385634E+02  0.51100000000E-03 0.  1.
        -12    1    3    3    0    0 -0.55666293395E+01 -0.11525756412E+02  0.95908805675E+01  0.15994230620E+02  0.00000000000E+00 0.  1.
</event>
<event>
 7    1  0.2425980E-008  0.4614232E+02  0.7816164E-02  0.1320468E+00
        -11   -1    0    0    0    0  0.00000000000E+00  0.00000000000E+00  0.45593999997E+02  0.45594000000E+02  0.51100000000E-03 0.  1.
         11   -1    0    0    0    0 -0.00000000000E+00 -0.00000000000E+00 -0.45593999997E+02  0.45594000000E+02  0.51100000000E-03 0. -1.
    9900012    2    1    2    0    0 -0.20081228312E+02 -0.60539579650E+01  0.39864863054E+02  0.46142318255E+02  0.10000004500E+02 0.  0.
         12    1    1    2    0    0  0.20081228312E+02  0.60539579650E+01 -0.39864863054E+02  0.45045681745E+02  0.00000000000E+00 0. -1.
         11    1    3    3    0    0 -0.53737454059E+01 -0.20734351287E+00  0.13465861605E+02  0.14499984830E+02  0.51100000000E-03 0. -1.
        -11    1    3    3    0    0 -0.14363248765E+02 -0.38037334689E+01  0.19992937483E+02  0.24909613663E+02  0.51100000000E-03 0.  1.
        -12    1    3    3    0    0 -0.34423414099E+00 -0.20428809832E+01  0.64060639660E+01  0.67327197619E+01  0.00000000000E+00 0.  1.
</event>
<event>
 7    1  0.2425980E-008  0.4614232E+02  0.7816164E-02  0.1320468E+00
        -11   -1    0    0    0    0  0.00000000000E+00  0.00000000000E+00  0.45593999997E+02  0.45594000000E+02  0.51100000000E-03 0.  1.
         11   -1    0    0    0    0 -0.00000000000E+00 -0.00000000000E+00 -0.45593999997E+02  0.45594000000E+02  0.51100000000E-03 0. -1.
    9900012    2    1    2    0    0  0.20283299572E+02  0.33439486097E+02  0.22349541824E+02  0.46142317724E+02  0.99999996653E+01 0.  0.
         12    1    1    2    0    0 -0.20283299572E+02 -0.33439486097E+02 -0.22349541824E+02  0.45045682276E+02  0.00000000000E+00 0. -1.
         11    1    3    3    0    0  0.21866870585E+01  0.87683159162E+00  0.16199848117E+01  0.28591580900E+01  0.51100000000E-03 0. -1.
        -11    1    3    3    0    0  0.17185131798E+02  0.25241128648E+02  0.17796870094E+02  0.35343626239E+02  0.51100000000E-03 0.  1.
         12    1    3    3    0    0  0.91148071519E+00  0.73215258575E+01  0.29326869183E+01  0.79395333954E+01  0.00000000000E+00 0. -1.
</event>
<event>
 7    1  0.2425980E-008  0.4614232E+02  0.7816164E-02  0.1320468E+00
        -11   -1    0    0    0    0  0.00000000000E+00  0.00000000000E+00  0.45593999997E+02  0.45594000000E+02  0.51100000000E-03 0.  1.
         11   -1    0    0    0    0 -0.00000000000E+00 -0.00000000000E+00 -0.45593999997E+02  0.45594000000E+02  0.51100000000E-03 0. -1.
    9900012    2    1    2    0    0  0.34339864816E+02 -0.19619781295E+02  0.21562730631E+02  0.46142317788E+02  0.10000000248E+02 0.  0.
         12    1    1    2    0    0 -0.34339864816E+02  0.19619781295E+02 -0.21562730631E+02  0.45045682212E+02  0.00000000000E+00 0. -1.
         11    1    3    3    0    0 -0.25651154280E+00 -0.27923027009E+00  0.24020522423E+00  0.44885022690E+00  0.51100000000E-03 0. -1.
        -11    1    3    3    0    0  0.68055745957E+01 -0.14861289442E+01  0.63528239292E+01  0.94277673366E+01  0.51100000000E-03 0.  1.
         12    1    3    3    0    0  0.27790801763E+02 -0.17854422081E+02  0.14969701478E+02  0.36265700225E+02  0.00000000000E+00 0. -1.
</event>
<event>
 7    1  0.2425980E-008  0.4614232E+02  0.7816164E-02  0.1320468E+00
        -11   -1    0    0    0    0  0.00000000000E+00  0.00000000000E+00  0.45593999997E+02  0.45594000000E+02  0.51100000000E-03 0.  1.
         11   -1    0    0    0    0 -0.00000000000E+00 -0.00000000000E+00 -0.45593999997E+02  0.45594000000E+02  0.51100000000E-03 0. -1.
    9900012    2    1    2    0    0 -0.13944854481E+02  0.42759737740E+02  0.25018485707E+01  0.46142318916E+02  0.10000010528E+02 0.  0.
         12    1    1    2    0    0  0.13944854481E+02 -0.42759737740E+02 -0.25018485707E+01  0.45045681084E+02  0.00000000000E+00 0. -1.
         11    1    3    3    0    0 -0.47139848685E+00  0.12654360455E+01 -0.13084512119E+01  0.18803163972E+01  0.51100000000E-03 0. -1.
        -11    1    3    3    0    0 -0.29221449564E+01  0.19327316730E+02  0.15685260578E+01  0.19609803094E+02  0.51100000000E-03 0.  1.
        -12    1    3    3    0    0 -0.10551311038E+02  0.22166984964E+02  0.22417737247E+01  0.24652199424E+02  0.00000000000E+00 0.  1.
</event>
<event>
 7    1  0.2425980E-008  0.4614232E+02  0.7816164E-02  0.1320468E+00
        -11   -1    0    0    0    0  0.00000000000E+00  0.00000000000E+00  0.45593999997E+02  0.45594000000E+02  0.51100000000E-03 0.  1.
         11   -1    0    0    0    0 -0.00000000000E+00 -0.00000000000E+00 -0.45593999997E+02  0.45594000000E+02  0.51100000000E-03 0. -1.
    9900012    2    1    2    0    0  0.92465776369E+01 -0.32358358264E+02  0.29942460091E+02  0.46142318034E+02  0.10000002484E+02 0.  0.
         12    1    1    2    0    0 -0.92465776369E+01  0.32358358264E+02 -0.29942460091E+02  0.45045681966E+02  0.00000000000E+00 0. -1.
         11    1    3    3    0    0  0.59370070442E+00 -0.94076958013E+01  0.53698672771E+01  0.10848626441E+02  0.51100000000E-03 0. -1.
        -11    1    3    3    0    0  0.61112766975E+01 -0.20064828737E+02  0.23030775669E+02  0.31150628939E+02  0.51100000000E-03 0.  1.
        -12    1    3    3    0    0  0.25416002350E+01 -0.28858337254E+01  0.15418171451E+01  0.41430626539E+01  0.00000000000E+00 0.  1.
</event>
<event>
 7    1  0.2425980E-008  0.4614232E+02  0.7816164E-02  0.1320468E+00
        -11   -1    0    0    0    0  0.00000000000E+00  0.00000000000E+00  0.45593999997E+02  0.45594000000E+02  0.51100000000E-03 0.  1.
         11   -1    0    0    0    0 -0.00000000000E+00 -0.00000000000E+00 -0.45593999997E+02  0.45594000000E+02  0.51100000000E-03 0. -1.
    9900012    2    1    2    0    0 -0.22314428781E+02  0.39095513684E+02 -0.16493823852E+01  0.46142318916E+02  0.10000010529E+02 0.  0.
         12    1    1    2    0    0  0.22314428781E+02 -0.39095513684E+02  0.16493823852E+01  0.45045681084E+02  0.00000000000E+00 0. -1.
         11    1    3    3    0    0 -0.68832629370E+01  0.13206080527E+02  0.19267532581E+01  0.15016399366E+02  0.51100000000E-03 0. -1.
        -11    1    3    3    0    0 -0.15059202477E+02  0.23814518684E+02 -0.15766814641E+01  0.28220503257E+02  0.51100000000E-03 0.  1.
        -12    1    3    3    0    0 -0.37196336784E+00  0.20749144737E+01 -0.19994541792E+01  0.29054162928E+01  0.00000000000E+00 0.  1.
</event>
<event>
 7    1  0.2425980E-008  0.4614232E+02  0.7816164E-02  0.1320468E+00
        -11   -1    0    0    0    0  0.00000000000E+00  0.00000000000E+00  0.45593999997E+02  0.45594000000E+02  0.51100000000E-03 0. -1.
         11   -1    0    0    0    0 -0.00000000000E+00 -0.00000000000E+00 -0.45593999997E+02  0.45594000000E+02  0.51100000000E-03 0.  1.
    9900012    2    1    2    0    0 -0.42346382247E+02 -0.13554352623E+02  0.72233530962E+01  0.46142318804E+02  0.10000009508E+02 0.  0.
         12    1    1    2    0    0  0.42346382247E+02  0.13554352623E+02 -0.72233530962E+01  0.45045681196E+02  0.00000000000E+00 0. -1.
         11    1    3    3    0    0 -0.21125053246E+02 -0.91412794950E+01  0.48671733129E+01  0.23527010897E+02  0.51100000000E-03 0. -1.
        -11    1    3    3    0    0  0.35986120621E+00  0.19963201280E+00  0.14433993636E+00  0.43610469686E+00  0.51100000000E-03 0.  1.
        -12    1    3    3    0    0 -0.21581190208E+02 -0.46127051411E+01  0.22118398469E+01  0.22179203209E+02  0.00000000000E+00 0.  1.
</event>
<event>
 7    1  0.2425980E-008  0.4614232E+02  0.7816164E-02  0.1320468E+00
        -11   -1    0    0    0    0  0.00000000000E+00  0.00000000000E+00  0.45593999997E+02  0.45594000000E+02  0.51100000000E-03 0. -1.
         11   -1    0    0    0    0 -0.00000000000E+00 -0.00000000000E+00 -0.45593999997E+02  0.45594000000E+02  0.51100000000E-03 0.  1.
    9900012    2    1    2    0    0  0.19596677346E+01  0.13532637520E+02 -0.42920170939E+02  0.46142315974E+02  0.99999837068E+01 0.  0.
         12    1    1    2    0    0 -0.19596677346E+01 -0.13532637520E+02  0.42920170939E+02  0.45045684026E+02  0.00000000000E+00 0. -1.
         11    1    3    3    0    0  0.32817711290E+01  0.43584539935E+01 -0.10249028673E+02  0.11610716255E+02  0.51100000000E-03 0. -1.
        -11    1    3    3    0    0  0.11960591810E+01  0.72930426332E+01 -0.16823219422E+02  0.18374975929E+02  0.51100000000E-03 0.  1.
        -12    1    3    3    0    0 -0.25181625754E+01  0.18811408937E+01 -0.15847922844E+02  0.16156623790E+02  0.00000000000E+00 0.  1.
</event>
<event>
 7    1  0.2425980E-008  0.4614232E+02  0.7816164E-02  0.1320468E+00
        -11   -1    0    0    0    0  0.00000000000E+00  0.00000000000E+00  0.45593999997E+02  0.45594000000E+02  0.51100000000E-03 0. -1.
         11   -1    0    0    0    0 -0.00000000000E+00 -0.00000000000E+00 -0.45593999997E+02  0.45594000000E+02  0.51100000000E-03 0.  1.
    9900012    2    1    2    0    0  0.39386292839E+02  0.66938426013E+01 -0.20809274238E+02  0.46142317780E+02  0.10000000172E+02 0.  0.
         12    1    1    2    0    0 -0.39386292839E+02 -0.66938426013E+01  0.20809274238E+02  0.45045682220E+02  0.00000000000E+00 0. -1.
         11    1    3    3    0    0  0.22827785185E+02 -0.37593362719E+00 -0.97007099054E+01  0.24806307171E+02  0.51100000000E-03 0. -1.
        -11    1    3    3    0    0  0.99828018398E+00  0.12208146694E+01 -0.12213515608E+01  0.19946557796E+01  0.51100000000E-03 0.  1.
        -12    1    3    3    0    0  0.15560227470E+02  0.58489615590E+01 -0.98872127714E+01  0.19341354829E+02  0.00000000000E+00 0.  1.
</event>
<event>
 7    1  0.2425980E-008  0.4614232E+02  0.7816164E-02  0.1320468E+00
        -11   -1    0    0    0    0  0.00000000000E+00  0.00000000000E+00  0.45593999997E+02  0.45594000000E+02  0.51100000000E-03 0. -1.
         11   -1    0    0    0    0 -0.00000000000E+00 -0.00000000000E+00 -0.45593999997E+02  0.45594000000E+02  0.51100000000E-03 0.  1.
    9900012    2    1    2    0    0 -0.40022864564E+02 -0.18346300716E+02  0.95234974543E+01  0.46142318280E+02  0.10000004730E+02 0.  0.
         12    1    1    2    0    0  0.40022864564E+02  0.18346300716E+02 -0.95234974543E+01  0.45045681720E+02  0.00000000000E+00 0. -1.
         11    1    3    3    0    0 -0.20445046881E+02 -0.58931907573E+01  0.16153747887E+01  0.21338675573E+02  0.51100000000E-03 0.  1.
        -11    1    3    3    0    0 -0.40687436821E+01 -0.13805637994E+01  0.37593669950E+00  0.43129989819E+01  0.51100000000E-03 0. -1.
         12    1    3    3    0    0 -0.15509074002E+02 -0.11072546159E+02  0.75321859660E+01  0.20490643725E+02  0.00000000000E+00 0. -1.
</event>
<event>
 7    1  0.2425980E-008  0.4614232E+02  0.7816164E-02  0.1320468E+00
        -11   -1    0    0    0    0  0.00000000000E+00  0.00000000000E+00  0.45593999997E+02  0.45594000000E+02  0.51100000000E-03 0.  1.
         11   -1    0    0    0    0 -0.00000000000E+00 -0.00000000000E+00 -0.45593999997E+02  0.45594000000E+02  0.51100000000E-03 0. -1.
    9900012    2    1    2    0    0  0.21091982930E+02 -0.39798980685E+02 -0.53191522399E+00  0.46142317174E+02  0.99999946437E+01 0.  0.
         12    1    1    2    0    0 -0.21091982930E+02  0.39798980685E+02  0.53191522399E+00  0.45045682826E+02  0.00000000000E+00 0. -1.
         11    1    3    3    0    0  0.11845624899E+01 -0.13913640836E+01  0.11818971806E+01  0.21762268981E+01  0.51100000000E-03 0. -1.
        -11    1    3    3    0    0  0.10564369294E+02 -0.27620133357E+02 -0.24736116243E+01  0.29674844902E+02  0.51100000000E-03 0.  1.
        -12    1    3    3    0    0  0.93430511463E+01 -0.10787483244E+02  0.75979921975E+00  0.14291245373E+02  0.00000000000E+00 0.  1.
</event>
<event>
 7    1  0.2425980E-008  0.4614232E+02  0.7816164E-02  0.1320468E+00
        -11   -1    0    0    0    0  0.00000000000E+00  0.00000000000E+00  0.45593999997E+02  0.45594000000E+02  0.51100000000E-03 0. -1.
         11   -1    0    0    0    0 -0.00000000000E+00 -0.00000000000E+00 -0.45593999997E+02  0.45594000000E+02  0.51100000000E-03 0.  1.
    9900012    2    1    2    0    0  0.36490877932E+02 -0.22829662778E+02 -0.13279147073E+02  0.46142318499E+02  0.10000006733E+02 0.  0.
         12    1    1    2    0    0 -0.36490877932E+02  0.22829662778E+02  0.13279147073E+02  0.45045681501E+02  0.00000000000E+00 0. -1.
         11    1    3    3    0    0  0.21045921765E+01 -0.25865827632E+01  0.62142780891E+00  0.33920335203E+01  0.51100000000E-03 0. -1.
        -11    1    3    3    0    0  0.21098685341E+02 -0.12708813512E+02 -0.52083425159E+01  0.25175291379E+02  0.51100000000E-03 0.  1.
         12    1    3    3    0    0  0.13287600415E+02 -0.75342665026E+01 -0.86922323664E+01  0.17574993600E+02  0.00000000000E+00 0. -1.
</event>
<event>
 7    1  0.2425980E-008  0.4614232E+02  0.7816164E-02  0.1320468E+00
        -11   -1    0    0    0    0  0.00000000000E+00  0.00000000000E+00  0.45593999997E+02  0.45594000000E+02  0.51100000000E-03 0.  1.
         11   -1    0    0    0    0 -0.00000000000E+00 -0.00000000000E+00 -0.45593999997E+02  0.45594000000E+02  0.51100000000E-03 0. -1.
    9900012    2    1    2    0    0 -0.68189297375E+01  0.27455940470E+02  0.35054055210E+02  0.46142320335E+02  0.10000023469E+02 0.  0.
         12    1    1    2    0    0  0.68189297375E+01 -0.27455940470E+02 -0.35054055210E+02  0.45045679665E+02  0.00000000000E+00 0. -1.
         11    1    3    3    0    0 -0.10726787140E+01  0.19614706820E+01  0.61752306247E+01  0.65674561582E+01  0.51100000000E-03 0. -1.
        -11    1    3    3    0    0 -0.54190017781E+01  0.15504893009E+02  0.21942954335E+02  0.27409132286E+02  0.51100000000E-03 0.  1.
         12    1    3    3    0    0 -0.32724924531E+00  0.99895767795E+01  0.69358702499E+01  0.12165731890E+02  0.00000000000E+00 0. -1.
</event>
<event>
 7    1  0.2425980E-008  0.4614232E+02  0.7816164E-02  0.1320468E+00
        -11   -1    0    0    0    0  0.00000000000E+00  0.00000000000E+00  0.45593999997E+02  0.45594000000E+02  0.51100000000E-03 0.  1.
         11   -1    0    0    0    0 -0.00000000000E+00 -0.00000000000E+00 -0.45593999997E+02  0.45594000000E+02  0.51100000000E-03 0. -1.
    9900012    2    1    2    0    0  0.39513879200E+02 -0.15471208491E+02  0.15113190844E+02  0.46142317864E+02  0.10000000935E+02 0.  0.
         12    1    1    2    0    0 -0.39513879200E+02  0.15471208491E+02 -0.15113190844E+02  0.45045682136E+02  0.00000000000E+00 0. -1.
         11    1    3    3    0    0  0.57908367079E+01 -0.10582495548E+01  0.37714228808E+01  0.69912311294E+01  0.51100000000E-03 0. -1.
        -11    1    3    3    0    0  0.25654194532E+02 -0.72009358799E+01  0.83384635900E+01  0.27919905980E+02  0.51100000000E-03 0.  1.
        -12    1    3    3    0    0  0.80688479604E+01 -0.72120230564E+01  0.30033043736E+01  0.11231180754E+02  0.00000000000E+00 0.  1.
</event>
<event>
 7    1  0.2425980E-008  0.4614232E+02  0.7816164E-02  0.1320468E+00
        -11   -1    0    0    0    0  0.00000000000E+00  0.00000000000E+00  0.45593999997E+02  0.45594000000E+02  0.51100000000E-03 0. -1.
         11   -1    0    0    0    0 -0.00000000000E+00 -0.00000000000E+00 -0.45593999997E+02  0.45594000000E+02  0.51100000000E-03 0.  1.
    9900012    2    1    2    0    0  0.16162066271E+01  0.16493702078E+02 -0.41886265142E+02  0.46142317192E+02  0.99999948102E+01 0.  0.
         12    1    1    2    0    0 -0.16162066271E+01 -0.16493702078E+02  0.41886265142E+02  0.45045682808E+02  0.00000000000E+00 0. -1.
         11    1    3    3    0    0  0.20193969759E+00  0.22387643582E+01 -0.17373084824E+01  0.28409657719E+01  0.51100000000E-03 0. -1.
        -11    1    3    3    0    0 -0.56945888682E+00  0.95286229136E+01 -0.16141343912E+02  0.18752651055E+02  0.51100000000E-03 0.  1.
         12    1    3    3    0    0  0.19837258163E+01  0.47263148057E+01 -0.24007612748E+02  0.24548700365E+02  0.00000000000E+00 0. -1.
</event>
<event>
 7    1  0.2425980E-008  0.4614232E+02  0.7816164E-02  0.1320468E+00
        -11   -1    0    0    0    0  0.00000000000E+00  0.00000000000E+00  0.45593999997E+02  0.45594000000E+02  0.51100000000E-03 0.  1.
         11   -1    0    0    0    0 -0.00000000000E+00 -0.00000000000E+00 -0.45593999997E+02  0.45594000000E+02  0.51100000000E-03 0. -1.
    9900012    2    1    2    0    0 -0.33446806695E+02  0.76608110109E+01  0.29184527681E+02  0.46142316972E+02  0.99999928071E+01 0.  0.
         12    1    1    2    0    0  0.33446806695E+02 -0.76608110109E+01 -0.29184527681E+02  0.45045683028E+02  0.00000000000E+00 0. -1.
         11    1    3    3    0    0 -0.11465369170E+02  0.36546292028E+00  0.11821451687E+02  0.16472248590E+02  0.51100000000E-03 0. -1.
        -11    1    3    3    0    0 -0.13316027825E+02  0.27839048390E+01  0.65543241060E+01  0.15100526081E+02  0.51100000000E-03 0.  1.
         12    1    3    3    0    0 -0.86654097002E+01  0.45114432516E+01  0.10808751888E+02  0.14569542301E+02  0.00000000000E+00 0. -1.
</event>
<event>
 7    1  0.2425980E-008  0.4614232E+02  0.7816164E-02  0.1320468E+00
        -11   -1    0    0    0    0  0.00000000000E+00  0.00000000000E+00  0.45593999997E+02  0.45594000000E+02  0.51100000000E-03 0. -1.
         11   -1    0    0    0    0 -0.00000000000E+00 -0.00000000000E+00 -0.45593999997E+02  0.45594000000E+02  0.51100000000E-03 0.  1.
    9900012    2    1    2    0    0 -0.52367469008E+01  0.39848536155E+01 -0.44562438287E+02  0.46142317826E+02  0.10000000596E+02 0.  0.
         12    1    1    2    0    0  0.52367469008E+01 -0.39848536155E+01  0.44562438287E+02  0.45045682174E+02  0.00000000000E+00 0. -1.
         11    1    3    3    0    0 -0.27730321480E+01 -0.29432953606E+00 -0.11002627984E+02  0.11350513644E+02  0.51100000000E-03 0. -1.
        -11    1    3    3    0    0 -0.21915853487E+01  0.67124489455E+00 -0.28385835357E+02  0.28478224404E+02  0.51100000000E-03 0.  1.
        -12    1    3    3    0    0 -0.27212940408E+00  0.36079382570E+01 -0.51739749465E+01  0.63135797790E+01  0.00000000000E+00 0.  1.
</event>
<event>
 7    1  0.2425980E-008  0.4614232E+02  0.7816164E-02  0.1320468E+00
        -11   -1    0    0    0    0  0.00000000000E+00  0.00000000000E+00  0.45593999997E+02  0.45594000000E+02  0.51100000000E-03 0. -1.
         11   -1    0    0    0    0 -0.00000000000E+00 -0.00000000000E+00 -0.45593999997E+02  0.45594000000E+02  0.51100000000E-03 0.  1.
    9900012    2    1    2    0    0 -0.43096885321E+02 -0.95723253229E+00 -0.13071177188E+02  0.46142317726E+02  0.99999996775E+01 0.  0.
         12    1    1    2    0    0  0.43096885321E+02  0.95723253229E+00  0.13071177188E+02  0.45045682274E+02  0.00000000000E+00 0. -1.
         11    1    3    3    0    0 -0.38187432384E+01 -0.12688004704E+01  0.64607784496E+00  0.40755455337E+01  0.51100000000E-03 0. -1.
        -11    1    3    3    0    0 -0.48563419087E+01 -0.10754005697E+01  0.33467720812E-01  0.49740992621E+01  0.51100000000E-03 0.  1.
        -12    1    3    3    0    0 -0.34421800174E+02  0.13869685078E+01 -0.13750722754E+02  0.37092672930E+02  0.00000000000E+00 0.  1.
</event>
<event>
 7    1  0.2425980E-008  0.4614232E+02  0.7816164E-02  0.1320468E+00
        -11   -1    0    0    0    0  0.00000000000E+00  0.00000000000E+00  0.45593999997E+02  0.45594000000E+02  0.51100000000E-03 0. -1.
         11   -1    0    0    0    0 -0.00000000000E+00 -0.00000000000E+00 -0.45593999997E+02  0.45594000000E+02  0.51100000000E-03 0.  1.
    9900012    2    1    2    0    0 -0.12303375979E+02 -0.10011618848E+02 -0.42160503792E+02  0.46142315940E+02  0.99999833952E+01 0.  0.
         12    1    1    2    0    0  0.12303375979E+02  0.10011618848E+02  0.42160503792E+02  0.45045684060E+02  0.00000000000E+00 0. -1.
         11    1    3    3    0    0 -0.37282738734E+01 -0.26438821190E+01 -0.67313786388E+01  0.81364364051E+01  0.51100000000E-03 0. -1.
        -11    1    3    3    0    0  0.12586075239E+01 -0.22839808436E+01 -0.84719189014E+01  0.88642016857E+01  0.51100000000E-03 0.  1.
        -12    1    3    3    0    0 -0.98337096300E+01 -0.50837558854E+01 -0.26957206251E+02  0.29141677849E+02  0.00000000000E+00 0.  1.
</event>
<event>
 7    1  0.2425980E-008  0.4614232E+02  0.7816164E-02  0.1320468E+00
        -11   -1    0    0    0    0  0.00000000000E+00  0.00000000000E+00  0.45593999997E+02  0.45594000000E+02  0.51100000000E-03 0.  1.
         11   -1    0    0    0    0 -0.00000000000E+00 -0.00000000000E+00 -0.45593999997E+02  0.45594000000E+02  0.51100000000E-03 0. -1.
    9900012    2    1    2    0    0  0.52272091353E+01  0.36752726046E+02  0.25515225679E+02  0.46142319535E+02  0.10000016173E+02 0.  0.
         12    1    1    2    0    0 -0.52272091353E+01 -0.36752726046E+02 -0.25515225679E+02  0.45045680465E+02  0.00000000000E+00 0. -1.
         11    1    3    3    0    0  0.56850159355E+01  0.25822254402E+02  0.18926385191E+02  0.32516400250E+02  0.51100000000E-03 0. -1.
        -11    1    3    3    0    0  0.22691525203E+00  0.11166653018E+02  0.64183904147E+01  0.12881823082E+02  0.51100000000E-03 0.  1.
         12    1    3    3    0    0 -0.68472205225E+00 -0.23618137390E+00  0.17045007305E+00  0.74409620186E+00  0.00000000000E+00 0. -1.
</event>
<event>
 7    1  0.2425980E-008  0.4614232E+02  0.7816164E-02  0.1320468E+00
        -11   -1    0    0    0    0  0.00000000000E+00  0.00000000000E+00  0.45593999997E+02  0.45594000000E+02  0.51100000000E-03 0. -1.
         11   -1    0    0    0    0 -0.00000000000E+00 -0.00000000000E+00 -0.45593999997E+02  0.45594000000E+02  0.51100000000E-03 0.  1.
    9900012    2    1    2    0    0 -0.35032939872E+02 -0.17548847240E+02 -0.22222616286E+02  0.46142316632E+02  0.99999897043E+01 0.  0.
         12    1    1    2    0    0  0.35032939872E+02  0.17548847240E+02  0.22222616286E+02  0.45045683368E+02  0.00000000000E+00 0. -1.
         11    1    3    3    0    0 -0.18888719605E+02 -0.80934805654E+01 -0.79475811904E+01  0.22032979894E+02  0.51100000000E-03 0. -1.
        -11    1    3    3    0    0 -0.74611677972E+01 -0.52611210677E+01 -0.38493895328E+01  0.99078867486E+01  0.51100000000E-03 0.  1.
        -12    1    3    3    0    0 -0.86830524691E+01 -0.41942456067E+01 -0.10425645563E+02  0.14201449989E+02  0.00000000000E+00 0.  1.
</event>
<event>
 7    1  0.2425980E-008  0.4614232E+02  0.7816164E-02  0.1320468E+00
        -11   -1    0    0    0    0  0.00000000000E+00  0.00000000000E+00  0.45593999997E+02  0.45594000000E+02  0.51100000000E-03 0.  1.
         11   -1    0    0    0    0 -0.00000000000E+00 -0.00000000000E+00 -0.45593999997E+02  0.45594000000E+02  0.51100000000E-03 0. -1.
    9900012    2    1    2    0    0 -0.21345128336E+01 -0.12869955447E+01  0.44976673482E+02  0.46142315855E+02  0.99999826157E+01 0.  0.
         12    1    1    2    0    0  0.21345128336E+01  0.12869955447E+01 -0.44976673482E+02  0.45045684145E+02  0.00000000000E+00 0. -1.
         11    1    3    3    0    0  0.23659592766E+01 -0.16957365574E+01  0.23586595429E+02  0.23765537443E+02  0.51100000000E-03 0. -1.
        -11    1    3    3    0    0 -0.10767483933E+01  0.32845373164E+00  0.15666335300E+02  0.15706728843E+02  0.51100000000E-03 0.  1.
         12    1    3    3    0    0 -0.34237237169E+01  0.80287281049E-01  0.57237427535E+01  0.66700495685E+01  0.00000000000E+00 0. -1.
</event>
<event>
 7    1  0.2425980E-008  0.4614232E+02  0.7816164E-02  0.1320468E+00
        -11   -1    0    0    0    0  0.00000000000E+00  0.00000000000E+00  0.45593999997E+02  0.45594000000E+02  0.51100000000E-03 0. -1.
         11   -1    0    0    0    0 -0.00000000000E+00 -0.00000000000E+00 -0.45593999997E+02  0.45594000000E+02  0.51100000000E-03 0.  1.
    9900012    2    1    2    0    0 -0.28955271675E+01  0.55186475443E+01 -0.44612486386E+02  0.46142317745E+02  0.99999998502E+01 0.  0.
         12    1    1    2    0    0  0.28955271675E+01 -0.55186475443E+01  0.44612486386E+02  0.45045682255E+02  0.00000000000E+00 0. -1.
         11    1    3    3    0    0 -0.63401642014E+00  0.26774515989E+01 -0.69681269637E+01  0.74916965722E+01  0.51100000000E-03 0. -1.
        -11    1    3    3    0    0  0.67198852789E+00  0.71725811751E-01  0.10707777198E+00  0.68423613181E+00  0.51100000000E-03 0.  1.
        -12    1    3    3    0    0 -0.29334992752E+01  0.27694701336E+01 -0.37751437194E+02  0.37966385041E+02  0.00000000000E+00 0.  1.
</event>
<event>
 7    1  0.2425980E-008  0.4614231E+02  0.7816164E-02  0.1320468E+00
        -11   -1    0    0    0    0  0.00000000000E+00  0.00000000000E+00  0.45593999997E+02  0.45594000000E+02  0.51100000000E-03 0.  1.
         11   -1    0    0    0    0 -0.00000000000E+00 -0.00000000000E+00 -0.45593999997E+02  0.45594000000E+02  0.51100000000E-03 0. -1.
    9900012    2    1    2    0    0  0.31542883200E+00 -0.24829904452E+02  0.37583109278E+02  0.46142314818E+02  0.99999731661E+01 0.  0.
         12    1    1    2    0    0 -0.31542883200E+00  0.24829904452E+02 -0.37583109278E+02  0.45045685182E+02  0.00000000000E+00 0. -1.
         11    1    3    3    0    0 -0.27034360232E+01 -0.82914025750E+01  0.10230999751E+02  0.13443559021E+02  0.51100000000E-03 0. -1.
        -11    1    3    3    0    0  0.40488106251E-01 -0.67227029741E+01  0.16236935195E+02  0.17573685992E+02  0.51100000000E-03 0.  1.
         12    1    3    3    0    0  0.29783767489E+01 -0.98157989032E+01  0.11115174332E+02  0.15125069805E+02  0.00000000000E+00 0. -1.
</event>
<event>
 7    1  0.2425980E-008  0.4614232E+02  0.7816164E-02  0.1320468E+00
        -11   -1    0    0    0    0  0.00000000000E+00  0.00000000000E+00  0.45593999997E+02  0.45594000000E+02  0.51100000000E-03 0.  1.
         11   -1    0    0    0    0 -0.00000000000E+00 -0.00000000000E+00 -0.45593999997E+02  0.45594000000E+02  0.51100000000E-03 0. -1.
    9900012    2    1    2    0    0  0.74690937654E+01 -0.43625623114E+02  0.83744363834E+01  0.46142317204E+02  0.99999949215E+01 0.  0.
         12    1    1    2    0    0 -0.74690937654E+01  0.43625623114E+02 -0.83744363834E+01  0.45045682796E+02  0.00000000000E+00 0. -1.
         11    1    3    3    0    0  0.16015071374E+01 -0.64372184095E+01  0.49534513572E+01  0.82788457270E+01  0.51100000000E-03 0. -1.
        -11    1    3    3    0    0  0.16605471847E+01 -0.56357384483E+01  0.65253153573E+00  0.59114095169E+01  0.51100000000E-03 0.  1.
         12    1    3    3    0    0  0.42070394433E+01 -0.31552666257E+02  0.27684534904E+01  0.31952061960E+02  0.00000000000E+00 0. -1.
</event>
<event>
 7    1  0.2425980E-008  0.4614232E+02  0.7816164E-02  0.1320468E+00
        -11   -1    0    0    0    0  0.00000000000E+00  0.00000000000E+00  0.45593999997E+02  0.45594000000E+02  0.51100000000E-03 0. -1.
         11   -1    0    0    0    0 -0.00000000000E+00 -0.00000000000E+00 -0.45593999997E+02  0.45594000000E+02  0.51100000000E-03 0.  1.
    9900012    2    1    2    0    0  0.44458843590E+02 -0.28792940318E+01  0.66508933829E+01  0.46142317740E+02  0.99999998116E+01 0.  0.
         12    1    1    2    0    0 -0.44458843590E+02  0.28792940318E+01 -0.66508933829E+01  0.45045682260E+02  0.00000000000E+00 0. -1.
         11    1    3    3    0    0  0.30267697558E+02 -0.33914441336E+01  0.64800977492E+01  0.31138835493E+02  0.51100000000E-03 0. -1.
        -11    1    3    3    0    0  0.14485901612E+02  0.11881613172E+00  0.31965357057E+00  0.14489915164E+02  0.51100000000E-03 0.  1.
        -12    1    3    3    0    0 -0.29475558027E+00  0.39333397008E+00 -0.14885793685E+00  0.51356708372E+00  0.00000000000E+00 0.  1.
</event>
<event>
 7    1  0.2425980E-008  0.4614232E+02  0.7816164E-02  0.1320468E+00
        -11   -1    0    0    0    0  0.00000000000E+00  0.00000000000E+00  0.45593999997E+02  0.45594000000E+02  0.51100000000E-03 0. -1.
         11   -1    0    0    0    0 -0.00000000000E+00 -0.00000000000E+00 -0.45593999997E+02  0.45594000000E+02  0.51100000000E-03 0.  1.
    9900012    2    1    2    0    0  0.41410690887E+02  0.11696970813E+02  0.13321002959E+02  0.46142316902E+02  0.99999921660E+01 0.  0.
         12    1    1    2    0    0 -0.41410690887E+02 -0.11696970813E+02 -0.13321002959E+02  0.45045683098E+02  0.00000000000E+00 0. -1.
         11    1    3    3    0    0  0.15577178247E+02  0.17851158441E+01  0.34576592018E+01  0.16055856506E+02  0.51100000000E-03 0. -1.
        -11    1    3    3    0    0  0.18940081140E+02  0.51801263583E+01  0.44740934078E+01  0.20138964590E+02  0.51100000000E-03 0.  1.
         12    1    3    3    0    0  0.68934315000E+01  0.47317286103E+01  0.53892503492E+01  0.99474958061E+01  0.00000000000E+00 0. -1.
</event>
<event>
 7    1  0.2425980E-008  0.4614232E+02  0.7816164E-02  0.1320468E+00
        -11   -1    0    0    0    0  0.00000000000E+00  0.00000000000E+00  0.45593999997E+02  0.45594000000E+02  0.51100000000E-03 0. -1.
         11   -1    0    0    0    0 -0.00000000000E+00 -0.00000000000E+00 -0.45593999997E+02  0.45594000000E+02  0.51100000000E-03 0.  1.
    9900012    2    1    2    0    0  0.11857652561E+02 -0.23565464227E+02 -0.36512716455E+02  0.46142317727E+02  0.99999996913E+01 0.  0.
         12    1    1    2    0    0 -0.11857652561E+02  0.23565464227E+02  0.36512716455E+02  0.45045682273E+02  0.00000000000E+00 0. -1.
         11    1    3    3    0    0  0.48314485840E+01 -0.62302155873E+01 -0.57880652159E+01  0.97806022763E+01  0.51100000000E-03 0. -1.
        -11    1    3    3    0    0  0.40916565603E+01 -0.37960357810E+01 -0.82618164773E+01  0.99704138742E+01  0.51100000000E-03 0.  1.
         12    1    3    3    0    0  0.29345474170E+01 -0.13539212859E+02 -0.22462834762E+02  0.26391301577E+02  0.00000000000E+00 0. -1.
</event>
<event>
 7    1  0.2425980E-008  0.4614232E+02  0.7816164E-02  0.1320468E+00
        -11   -1    0    0    0    0  0.00000000000E+00  0.00000000000E+00  0.45593999997E+02  0.45594000000E+02  0.51100000000E-03 0. -1.
         11   -1    0    0    0    0 -0.00000000000E+00 -0.00000000000E+00 -0.45593999997E+02  0.45594000000E+02  0.51100000000E-03 0.  1.
    9900012    2    1    2    0    0  0.16153593844E+02 -0.39628398784E+02 -0.14062890095E+02  0.46142318053E+02  0.10000002663E+02 0.  0.
         12    1    1    2    0    0 -0.16153593844E+02  0.39628398784E+02  0.14062890095E+02  0.45045681947E+02  0.00000000000E+00 0. -1.
         11    1    3    3    0    0  0.12251392499E+02 -0.26124137129E+02 -0.13990650535E+02  0.32067202271E+02  0.51100000000E-03 0. -1.
        -11    1    3    3    0    0  0.19225074521E+01 -0.55030431061E+01 -0.17873977263E+00  0.58319350561E+01  0.51100000000E-03 0.  1.
         12    1    3    3    0    0  0.19796938931E+01 -0.80012185492E+01  0.10650021263E+00  0.82431807258E+01  0.00000000000E+00 0. -1.
</event>
<event>
 7    1  0.2425980E-008  0.4614232E+02  0.7816164E-02  0.1320468E+00
        -11   -1    0    0    0    0  0.00000000000E+00  0.00000000000E+00  0.45593999997E+02  0.45594000000E+02  0.51100000000E-03 0.  1.
         11   -1    0    0    0    0 -0.00000000000E+00 -0.00000000000E+00 -0.45593999997E+02  0.45594000000E+02  0.51100000000E-03 0. -1.
    9900012    2    1    2    0    0 -0.28627022638E+02 -0.33682547165E+02  0.86656048506E+01  0.46142321894E+02  0.10000037685E+02 0.  0.
         12    1    1    2    0    0  0.28627022638E+02  0.33682547165E+02 -0.86656048506E+01  0.45045678106E+02  0.00000000000E+00 0. -1.
         11    1    3    3    0    0 -0.55647073508E+01 -0.40886173480E+01  0.21110447955E+00  0.69084965861E+01  0.51100000000E-03 0. -1.
        -11    1    3    3    0    0 -0.92676224858E+01 -0.16622478208E+02  0.68650134163E+01  0.20231757654E+02  0.51100000000E-03 0.  1.
        -12    1    3    3    0    0 -0.13794692801E+02 -0.12971451609E+02  0.15894869547E+01  0.19002067653E+02  0.00000000000E+00 0.  1.
</event>
<event>
 7    1  0.2425980E-008  0.4614232E+02  0.7816164E-02  0.1320468E+00
        -11   -1    0    0    0    0  0.00000000000E+00  0.00000000000E+00  0.45593999997E+02  0.45594000000E+02  0.51100000000E-03 0.  1.
         11   -1    0    0    0    0 -0.00000000000E+00 -0.00000000000E+00 -0.45593999997E+02  0.45594000000E+02  0.51100000000E-03 0. -1.
    9900012    2    1    2    0    0 -0.15229257418E+02 -0.34723976257E+02  0.24319306685E+02  0.46142317785E+02  0.10000000217E+02 0.  0.
         12    1    1    2    0    0  0.15229257418E+02  0.34723976257E+02 -0.24319306685E+02  0.45045682215E+02  0.00000000000E+00 0. -1.
         11    1    3    3    0    0 -0.72836450920E+01 -0.14213749995E+02  0.70803724791E+01  0.17470370615E+02  0.51100000000E-03 0. -1.
        -11    1    3    3    0    0 -0.52462947135E+01 -0.13997617517E+02  0.77129670507E+01  0.16821021531E+02  0.51100000000E-03 0.  1.
         12    1    3    3    0    0 -0.26993176126E+01 -0.65126087453E+01  0.95259671548E+01  0.11850925638E+02  0.00000000000E+00 0. -1.
</event>
<event>
 7    1  0.2425980E-008  0.4614232E+02  0.7816164E-02  0.1320468E+00
        -11   -1    0    0    0    0  0.00000000000E+00  0.00000000000E+00  0.45593999997E+02  0.45594000000E+02  0.51100000000E-03 0.  1.
         11   -1    0    0    0    0 -0.00000000000E+00 -0.00000000000E+00 -0.45593999997E+02  0.45594000000E+02  0.51100000000E-03 0. -1.
    9900012    2    1    2    0    0  0.71428762989E+01 -0.41908251554E+02 -0.14892649930E+02  0.46142320384E+02  0.10000023915E+02 0.  0.
         12    1    1    2    0    0 -0.71428762989E+01  0.41908251554E+02  0.14892649930E+02  0.45045679616E+02  0.00000000000E+00 0. -1.
         11    1    3    3    0    0 -0.68877464806E+00 -0.54594241811E+00 -0.81537546016E+00  0.11988749067E+01  0.51100000000E-03 0. -1.
        -11    1    3    3    0    0 -0.12586159653E+01 -0.51525352388E+01 -0.10842431435E+01  0.54137156362E+01  0.51100000000E-03 0.  1.
         12    1    3    3    0    0  0.90902669123E+01 -0.36209773897E+02 -0.12993031326E+02  0.39529729841E+02  0.00000000000E+00 0. -1.
</event>
<event>
 7    1  0.2425980E-008  0.4614232E+02  0.7816164E-02  0.1320468E+00
        -11   -1    0    0    0    0  0.00000000000E+00  0.00000000000E+00  0.45593999997E+02  0.45594000000E+02  0.51100000000E-03 0.  1.
         11   -1    0    0    0    0 -0.00000000000E+00 -0.00000000000E+00 -0.45593999997E+02  0.45594000000E+02  0.51100000000E-03 0. -1.
    9900012    2    1    2    0    0 -0.93969194176E+01  0.21030149648E+01  0.44004418941E+02  0.46142315935E+02  0.99999833505E+01 0.  0.
         12    1    1    2    0    0  0.93969194176E+01 -0.21030149648E+01 -0.44004418941E+02  0.45045684065E+02  0.00000000000E+00 0. -1.
         11    1    3    3    0    0 -0.47447574568E+01  0.36667004603E+01  0.34352555913E+02  0.34871987520E+02  0.51100000000E-03 0. -1.
        -11    1    3    3    0    0 -0.26585150228E+01  0.25691514217E-02  0.74577471391E+01  0.79174302257E+01  0.51100000000E-03 0.  1.
        -12    1    3    3    0    0 -0.19936469380E+01 -0.15662546470E+01  0.21941158894E+01  0.33528981894E+01  0.00000000000E+00 0.  1.
</event>
<event>
 7    1  0.2425980E-008  0.4614232E+02  0.7816164E-02  0.1320468E+00
        -11   -1    0    0    0    0  0.00000000000E+00  0.00000000000E+00  0.45593999997E+02  0.45594000000E+02  0.51100000000E-03 0. -1.
         11   -1    0    0    0    0 -0.00000000000E+00 -0.00000000000E+00 -0.45593999997E+02  0.45594000000E+02  0.51100000000E-03 0.  1.
    9900012    2    1    2    0    0  0.30394051281E+02 -0.25011644981E+02 -0.21902802756E+02  0.46142317560E+02  0.99999981655E+01 0.  0.
         12    1    1    2    0    0 -0.30394051281E+02  0.25011644981E+02  0.21902802756E+02  0.45045682440E+02  0.00000000000E+00 0. -1.
         11    1    3    3    0    0  0.25854971380E+01 -0.45462761569E+01 -0.61337624723E+01  0.80607980171E+01  0.51100000000E-03 0. -1.
        -11    1    3    3    0    0  0.62676459645E+01 -0.57663398781E+01 -0.49282015995E+01  0.98397780866E+01  0.51100000000E-03 0.  1.
         12    1    3    3    0    0  0.21540908178E+02 -0.14699028946E+02 -0.10840838685E+02  0.28241741456E+02  0.00000000000E+00 0. -1.
</event>
<event>
 7    1  0.2425980E-008  0.4614233E+02  0.7816164E-02  0.1320468E+00
        -11   -1    0    0    0    0  0.00000000000E+00  0.00000000000E+00  0.45593999997E+02  0.45594000000E+02  0.51100000000E-03 0. -1.
         11   -1    0    0    0    0 -0.00000000000E+00 -0.00000000000E+00 -0.45593999997E+02  0.45594000000E+02  0.51100000000E-03 0.  1.
    9900012    2    1    2    0    0  0.42790416207E+02 -0.13998065933E+02 -0.14652412080E+01  0.46142328723E+02  0.10000099960E+02 0.  0.
         12    1    1    2    0    0 -0.42790416207E+02  0.13998065933E+02  0.14652412080E+01  0.45045671277E+02  0.00000000000E+00 0. -1.
         11    1    3    3    0    0  0.11663402012E+01 -0.54757567814E+00 -0.12235253344E+01  0.17768520178E+01  0.51100000000E-03 0. -1.
        -11    1    3    3    0    0  0.37151987436E+02 -0.93923730397E+01 -0.43978347444E+00  0.38323364304E+02  0.51100000000E-03 0.  1.
        -12    1    3    3    0    0  0.44720885690E+01 -0.40581172148E+01  0.19806760085E+00  0.60421124015E+01  0.00000000000E+00 0.  1.
</event>
<event>
 7    1  0.2425980E-008  0.4614232E+02  0.7816164E-02  0.1320468E+00
        -11   -1    0    0    0    0  0.00000000000E+00  0.00000000000E+00  0.45593999997E+02  0.45594000000E+02  0.51100000000E-03 0.  1.
         11   -1    0    0    0    0 -0.00000000000E+00 -0.00000000000E+00 -0.45593999997E+02  0.45594000000E+02  0.51100000000E-03 0. -1.
    9900012    2    1    2    0    0  0.23653914125E+02  0.38277682668E+02  0.21035487551E+01  0.46142316952E+02  0.99999926234E+01 0.  0.
         12    1    1    2    0    0 -0.23653914125E+02 -0.38277682668E+02 -0.21035487551E+01  0.45045683048E+02  0.00000000000E+00 0. -1.
         11    1    3    3    0    0  0.75369043084E+01  0.65296867077E+01  0.16275424924E+01  0.10103990790E+02  0.51100000000E-03 0. -1.
        -11    1    3    3    0    0  0.48957678096E+01  0.10512598253E+02 -0.24199364320E+01  0.11846491340E+02  0.51100000000E-03 0.  1.
        -12    1    3    3    0    0  0.11221242007E+02  0.21235397707E+02  0.28959426947E+01  0.24191834822E+02  0.00000000000E+00 0.  1.
</event>
<event>
 7    1  0.2425980E-008  0.4614232E+02  0.7816164E-02  0.1320468E+00
        -11   -1    0    0    0    0  0.00000000000E+00  0.00000000000E+00  0.45593999997E+02  0.45594000000E+02  0.51100000000E-03 0. -1.
         11   -1    0    0    0    0 -0.00000000000E+00 -0.00000000000E+00 -0.45593999997E+02  0.45594000000E+02  0.51100000000E-03 0.  1.
    9900012    2    1    2    0    0 -0.27140686748E+02  0.31149276311E+02 -0.17950468497E+02  0.46142316399E+02  0.99999875816E+01 0.  0.
         12    1    1    2    0    0  0.27140686748E+02 -0.31149276311E+02  0.17950468497E+02  0.45045683601E+02  0.00000000000E+00 0. -1.
         11    1    3    3    0    0 -0.20006650047E+02  0.19563938951E+02 -0.83784315481E+01  0.29209790633E+02  0.51100000000E-03 0. -1.
        -11    1    3    3    0    0 -0.34435854528E+01  0.34807876845E+01 -0.21828827729E+01  0.53608899575E+01  0.51100000000E-03 0.  1.
         12    1    3    3    0    0 -0.36904512478E+01  0.81045496752E+01 -0.73891541756E+01  0.11571635808E+02  0.00000000000E+00 0. -1.
</event>
<event>
 7    1  0.2425980E-008  0.4614232E+02  0.7816164E-02  0.1320468E+00
        -11   -1    0    0    0    0  0.00000000000E+00  0.00000000000E+00  0.45593999997E+02  0.45594000000E+02  0.51100000000E-03 0.  1.
         11   -1    0    0    0    0 -0.00000000000E+00 -0.00000000000E+00 -0.45593999997E+02  0.45594000000E+02  0.51100000000E-03 0. -1.
    9900012    2    1    2    0    0  0.16169873878E+02  0.38128639391E+01  0.41870164994E+02  0.46142317973E+02  0.10000001930E+02 0.  0.
         12    1    1    2    0    0 -0.16169873878E+02 -0.38128639391E+01 -0.41870164994E+02  0.45045682027E+02  0.00000000000E+00 0. -1.
         11    1    3    3    0    0  0.94334626052E+00 -0.95325562510E+00  0.52513487263E+01  0.54198950322E+01  0.51100000000E-03 0. -1.
        -11    1    3    3    0    0  0.15046461337E+02  0.44130760028E+01  0.27977137225E+02  0.32071661106E+02  0.51100000000E-03 0.  1.
        -12    1    3    3    0    0  0.18006628061E+00  0.35304356134E+00  0.86416790434E+01  0.86507618341E+01  0.00000000000E+00 0.  1.
</event>
<event>
 7    1  0.2425980E-008  0.4614232E+02  0.7816164E-02  0.1320468E+00
        -11   -1    0    0    0    0  0.00000000000E+00  0.00000000000E+00  0.45593999997E+02  0.45594000000E+02  0.51100000000E-03 0.  1.
         11   -1    0    0    0    0 -0.00000000000E+00 -0.00000000000E+00 -0.45593999997E+02  0.45594000000E+02  0.51100000000E-03 0. -1.
    9900012    2    1    2    0    0  0.36725361159E+02 -0.10161182887E+02  0.24023141709E+02  0.46142321767E+02  0.10000036529E+02 0.  0.
         12    1    1    2    0    0 -0.36725361159E+02  0.10161182887E+02 -0.24023141709E+02  0.45045678233E+02  0.00000000000E+00 0. -1.
         11    1    3    3    0    0  0.17124010066E+02 -0.59421126976E+01  0.88648129547E+01  0.20177347027E+02  0.51100000000E-03 0. -1.
        -11    1    3    3    0    0  0.32577269567E+00 -0.15898678995E+01  0.10355291911E+01  0.19251308407E+01  0.51100000000E-03 0.  1.
        -12    1    3    3    0    0  0.19275578397E+02 -0.26292022896E+01  0.14122799564E+02  0.24039843900E+02  0.00000000000E+00 0.  1.
</event>
<event>
 7    1  0.2425980E-008  0.4614232E+02  0.7816164E-02  0.1320468E+00
        -11   -1    0    0    0    0  0.00000000000E+00  0.00000000000E+00  0.45593999997E+02  0.45594000000E+02  0.51100000000E-03 0.  1.
         11   -1    0    0    0    0 -0.00000000000E+00 -0.00000000000E+00 -0.45593999997E+02  0.45594000000E+02  0.51100000000E-03 0. -1.
    9900012    2    1    2    0    0 -0.14212957591E+02  0.20007977129E+02  0.37772825630E+02  0.46142315763E+02  0.99999817822E+01 0.  0.
         12    1    1    2    0    0  0.14212957591E+02 -0.20007977129E+02 -0.37772825630E+02  0.45045684237E+02  0.00000000000E+00 0. -1.
         11    1    3    3    0    0 -0.21047875706E+01  0.52349696540E+01  0.12066823810E+02  0.13320783577E+02  0.51100000000E-03 0.  1.
        -11    1    3    3    0    0 -0.43586786507E+01  0.18042164203E+01  0.31460163923E+01  0.56701583640E+01  0.51100000000E-03 0. -1.
         12    1    3    3    0    0 -0.77494913693E+01  0.12968791055E+02  0.22559985428E+02  0.27151373822E+02  0.00000000000E+00 0. -1.
</event>
<event>
 7    1  0.2425980E-008  0.4614232E+02  0.7816164E-02  0.1320468E+00
        -11   -1    0    0    0    0  0.00000000000E+00  0.00000000000E+00  0.45593999997E+02  0.45594000000E+02  0.51100000000E-03 0.  1.
         11   -1    0    0    0    0 -0.00000000000E+00 -0.00000000000E+00 -0.45593999997E+02  0.45594000000E+02  0.51100000000E-03 0. -1.
    9900012    2    1    2    0    0  0.42584012657E+02 -0.14463681507E+02  0.25529018231E+01  0.46142317361E+02  0.99999963520E+01 0.  0.
         12    1    1    2    0    0 -0.42584012657E+02  0.14463681507E+02 -0.25529018231E+01  0.45045682639E+02  0.00000000000E+00 0. -1.
         11    1    3    3    0    0  0.62583489219E+00 -0.84241901491E+00  0.13097163095E+01  0.16783015765E+01  0.51100000000E-03 0. -1.
        -11    1    3    3    0    0  0.62863205756E+01 -0.42168943859E+00 -0.91823891983E+00  0.63670096071E+01  0.51100000000E-03 0.  1.
        -12    1    3    3    0    0  0.35671857189E+02 -0.13199573053E+02  0.21614244334E+01  0.38097006177E+02  0.00000000000E+00 0.  1.
</event>
<event>
 7    1  0.2425980E-008  0.4614232E+02  0.7816164E-02  0.1320468E+00
        -11   -1    0    0    0    0  0.00000000000E+00  0.00000000000E+00  0.45593999997E+02  0.45594000000E+02  0.51100000000E-03 0. -1.
         11   -1    0    0    0    0 -0.00000000000E+00 -0.00000000000E+00 -0.45593999997E+02  0.45594000000E+02  0.51100000000E-03 0.  1.
    9900012    2    1    2    0    0 -0.16201814258E+02 -0.27631985152E+02 -0.31671567015E+02  0.46142317123E+02  0.99999941815E+01 0.  0.
         12    1    1    2    0    0  0.16201814258E+02  0.27631985152E+02  0.31671567015E+02  0.45045682877E+02  0.00000000000E+00 0. -1.
         11    1    3    3    0    0 -0.39816857317E+01 -0.63033362141E+01 -0.13469347451E+02  0.15395102783E+02  0.51100000000E-03 0.  1.
        -11    1    3    3    0    0 -0.54924892344E+01 -0.68491521728E+01 -0.72459362707E+01  0.11383405298E+02  0.51100000000E-03 0. -1.
        -12    1    3    3    0    0 -0.67276392923E+01 -0.14479496765E+02 -0.10956283293E+02  0.19363809042E+02  0.00000000000E+00 0.  1.
</event>
<event>
 7    1  0.2425980E-008  0.4614232E+02  0.7816164E-02  0.1320468E+00
        -11   -1    0    0    0    0  0.00000000000E+00  0.00000000000E+00  0.45593999997E+02  0.45594000000E+02  0.51100000000E-03 0.  1.
         11   -1    0    0    0    0 -0.00000000000E+00 -0.00000000000E+00 -0.45593999997E+02  0.45594000000E+02  0.51100000000E-03 0. -1.
    9900012    2    1    2    0    0 -0.14785989944E+02 -0.42520506515E+02 -0.15793586306E+01  0.46142319335E+02  0.10000014352E+02 0.  0.
         12    1    1    2    0    0  0.14785989944E+02  0.42520506515E+02  0.15793586306E+01  0.45045680665E+02  0.00000000000E+00 0. -1.
         11    1    3    3    0    0 -0.52069923817E+01 -0.12105673080E+02 -0.24505382774E+00  0.13180293700E+02  0.51100000000E-03 0.  1.
        -11    1    3    3    0    0 -0.75598635908E+01 -0.25523294638E+02  0.20211816820E+01  0.26695978768E+02  0.51100000000E-03 0. -1.
         12    1    3    3    0    0 -0.20191339711E+01 -0.48915387965E+01 -0.33554864849E+01  0.62660468671E+01  0.00000000000E+00 0. -1.
</event>
<event>
 7    1  0.2425980E-008  0.4614231E+02  0.7816164E-02  0.1320468E+00
        -11   -1    0    0    0    0  0.00000000000E+00  0.00000000000E+00  0.45593999997E+02  0.45594000000E+02  0.51100000000E-03 0.  1.
         11   -1    0    0    0    0 -0.00000000000E+00 -0.00000000000E+00 -0.45593999997E+02  0.45594000000E+02  0.51100000000E-03 0. -1.
    9900012    2    1    2    0    0  0.38577526716E+02 -0.17125727260E+02  0.15735247403E+02  0.46142310832E+02  0.99999368173E+01 0.  0.
         12    1    1    2    0    0 -0.38577526716E+02  0.17125727260E+02 -0.15735247403E+02  0.45045689168E+02  0.00000000000E+00 0. -1.
         11    1    3    3    0    0  0.15184288280E+02 -0.78773224294E+01  0.10785338532E+02  0.20222224080E+02  0.51100000000E-03 0. -1.
        -11    1    3    3    0    0  0.16343300486E+02 -0.64412583240E+01  0.52232346653E+01  0.18326905363E+02  0.51100000000E-03 0.  1.
         12    1    3    3    0    0  0.70499379508E+01 -0.28071465068E+01 -0.27332579381E+00  0.75931813893E+01  0.00000000000E+00 0. -1.
</event>
<event>
 7    1  0.2425980E-008  0.4614232E+02  0.7816164E-02  0.1320468E+00
        -11   -1    0    0    0    0  0.00000000000E+00  0.00000000000E+00  0.45593999997E+02  0.45594000000E+02  0.51100000000E-03 0.  1.
         11   -1    0    0    0    0 -0.00000000000E+00 -0.00000000000E+00 -0.45593999997E+02  0.45594000000E+02  0.51100000000E-03 0. -1.
    9900012    2    1    2    0    0 -0.31319176275E+02  0.16143331831E+02  0.28064489904E+02  0.46142316980E+02  0.99999928786E+01 0.  0.
         12    1    1    2    0    0  0.31319176275E+02 -0.16143331831E+02 -0.28064489904E+02  0.45045683020E+02  0.00000000000E+00 0. -1.
         11    1    3    3    0    0 -0.10465794334E+02  0.58918491542E+01  0.60796949108E+01  0.13461405126E+02  0.51100000000E-03 0. -1.
        -11    1    3    3    0    0 -0.21175805569E+02  0.10008537592E+02  0.20447756786E+02  0.31091740448E+02  0.51100000000E-03 0.  1.
         12    1    3    3    0    0  0.32242362744E+00  0.24294508402E+00  0.15370382069E+01  0.15891714064E+01  0.00000000000E+00 0. -1.
</event>
<event>
 7    1  0.2425980E-008  0.4614232E+02  0.7816164E-02  0.1320468E+00
        -11   -1    0    0    0    0  0.00000000000E+00  0.00000000000E+00  0.45593999997E+02  0.45594000000E+02  0.51100000000E-03 0.  1.
         11   -1    0    0    0    0 -0.00000000000E+00 -0.00000000000E+00 -0.45593999997E+02  0.45594000000E+02  0.51100000000E-03 0. -1.
    9900012    2    1    2    0    0  0.58303740817E+01  0.38049102553E+02  0.23396283310E+02  0.46142317191E+02  0.99999948023E+01 0.  0.
         12    1    1    2    0    0 -0.58303740817E+01 -0.38049102553E+02 -0.23396283310E+02  0.45045682809E+02  0.00000000000E+00 0. -1.
         11    1    3    3    0    0  0.49667385319E+00  0.10009786557E+02  0.25677532875E+01  0.10345814083E+02  0.51100000000E-03 0. -1.
        -11    1    3    3    0    0  0.40913243418E+01  0.10037965676E+02  0.10028269191E+02  0.14767053633E+02  0.51100000000E-03 0.  1.
        -12    1    3    3    0    0  0.12423758867E+01  0.18001350320E+02  0.10800260831E+02  0.21029449475E+02  0.00000000000E+00 0.  1.
</event>
<event>
 7    1  0.2425980E-008  0.4614232E+02  0.7816164E-02  0.1320468E+00
        -11   -1    0    0    0    0  0.00000000000E+00  0.00000000000E+00  0.45593999997E+02  0.45594000000E+02  0.51100000000E-03 0.  1.
         11   -1    0    0    0    0 -0.00000000000E+00 -0.00000000000E+00 -0.45593999997E+02  0.45594000000E+02  0.51100000000E-03 0. -1.
    9900012    2    1    2    0    0 -0.24046559986E+02 -0.20449426112E+02  0.32135609197E+02  0.46142318143E+02  0.10000003483E+02 0.  0.
         12    1    1    2    0    0  0.24046559986E+02  0.20449426112E+02 -0.32135609197E+02  0.45045681857E+02  0.00000000000E+00 0. -1.
         11    1    3    3    0    0 -0.41630059450E+01 -0.52890120533E+01  0.36839587888E+01  0.76730580356E+01  0.51100000000E-03 0. -1.
        -11    1    3    3    0    0 -0.67621016980E+01 -0.19019344470E+01  0.56857876326E+01  0.90372316159E+01  0.51100000000E-03 0.  1.
        -12    1    3    3    0    0 -0.13121452343E+02 -0.13258479612E+02  0.22765862776E+02  0.29432028492E+02  0.00000000000E+00 0.  1.
</event>
<event>
 7    1  0.2425980E-008  0.4614232E+02  0.7816164E-02  0.1320468E+00
        -11   -1    0    0    0    0  0.00000000000E+00  0.00000000000E+00  0.45593999997E+02  0.45594000000E+02  0.51100000000E-03 0.  1.
         11   -1    0    0    0    0 -0.00000000000E+00 -0.00000000000E+00 -0.45593999997E+02  0.45594000000E+02  0.51100000000E-03 0. -1.
    9900012    2    1    2    0    0  0.43314407178E+02 -0.11060469758E+02 -0.55354875256E+01  0.46142317825E+02  0.10000000585E+02 0.  0.
         12    1    1    2    0    0 -0.43314407178E+02  0.11060469758E+02  0.55354875256E+01  0.45045682175E+02  0.00000000000E+00 0. -1.
         11    1    3    3    0    0  0.29006172438E+01 -0.30644040731E+01 -0.18916369914E+01  0.46241154275E+01  0.51100000000E-03 0. -1.
        -11    1    3    3    0    0  0.20533457958E+02 -0.32769635291E+01 -0.18099876735E+00  0.20794089220E+02  0.51100000000E-03 0.  1.
        -12    1    3    3    0    0  0.19880331977E+02 -0.47191021555E+01 -0.34628517668E+01  0.20724113178E+02  0.00000000000E+00 0.  1.
</event>
<event>
 7    1  0.2425980E-008  0.4614232E+02  0.7816164E-02  0.1320468E+00
        -11   -1    0    0    0    0  0.00000000000E+00  0.00000000000E+00  0.45593999997E+02  0.45594000000E+02  0.51100000000E-03 0.  1.
         11   -1    0    0    0    0 -0.00000000000E+00 -0.00000000000E+00 -0.45593999997E+02  0.45594000000E+02  0.51100000000E-03 0. -1.
    9900012    2    1    2    0    0  0.37731518146E+02  0.50065752282E+01  0.24091081850E+02  0.46142317834E+02  0.10000000665E+02 0.  0.
         12    1    1    2    0    0 -0.37731518146E+02 -0.50065752282E+01 -0.24091081850E+02  0.45045682166E+02  0.00000000000E+00 0. -1.
         11    1    3    3    0    0  0.14404766822E+02  0.62505793551E+01  0.92842853425E+01  0.18241847605E+02  0.51100000000E-03 0. -1.
        -11    1    3    3    0    0  0.19697567664E+02 -0.90468452730E+00  0.13956079026E+02  0.24157499209E+02  0.51100000000E-03 0.  1.
        -12    1    3    3    0    0  0.36291836592E+01 -0.33931959962E+00  0.85071748175E+00  0.37429710200E+01  0.00000000000E+00 0.  1.
</event>
<event>
 7    1  0.2425980E-008  0.4614232E+02  0.7816164E-02  0.1320468E+00
        -11   -1    0    0    0    0  0.00000000000E+00  0.00000000000E+00  0.45593999997E+02  0.45594000000E+02  0.51100000000E-03 0.  1.
         11   -1    0    0    0    0 -0.00000000000E+00 -0.00000000000E+00 -0.45593999997E+02  0.45594000000E+02  0.51100000000E-03 0. -1.
    9900012    2    1    2    0    0 -0.27150013638E+02  0.16017302348E+00  0.35943909955E+02  0.46142316979E+02  0.99999928712E+01 0.  0.
         12    1    1    2    0    0  0.27150013638E+02 -0.16017302348E+00 -0.35943909955E+02  0.45045683021E+02  0.00000000000E+00 0. -1.
         11    1    3    3    0    0 -0.80355610250E+00  0.11333468888E+01  0.45861663800E+01  0.47919828784E+01  0.51100000000E-03 0. -1.
        -11    1    3    3    0    0 -0.12326325003E+02  0.81576202076E-01  0.10478310003E+02  0.16178378273E+02  0.51100000000E-03 0.  1.
        -12    1    3    3    0    0 -0.14020132533E+02 -0.10547500674E+01  0.20879433572E+02  0.25171955828E+02  0.00000000000E+00 0.  1.
</event>
<event>
 7    1  0.2425980E-008  0.4614231E+02  0.7816164E-02  0.1320468E+00
        -11   -1    0    0    0    0  0.00000000000E+00  0.00000000000E+00  0.45593999997E+02  0.45594000000E+02  0.51100000000E-03 0. -1.
         11   -1    0    0    0    0 -0.00000000000E+00 -0.00000000000E+00 -0.45593999997E+02  0.45594000000E+02  0.51100000000E-03 0.  1.
    9900012    2    1    2    0    0 -0.31396434473E+02 -0.18515646647E+02 -0.26467877367E+02  0.46142314295E+02  0.99999683904E+01 0.  0.
         12    1    1    2    0    0  0.31396434473E+02  0.18515646647E+02  0.26467877367E+02  0.45045685705E+02  0.00000000000E+00 0. -1.
         11    1    3    3    0    0 -0.10379351431E+02 -0.38798594734E+01 -0.74335318447E+01  0.13343224558E+02  0.51100000000E-03 0. -1.
        -11    1    3    3    0    0 -0.15878461663E+02 -0.69101945218E+01 -0.10916006003E+02  0.20470357115E+02  0.51100000000E-03 0.  1.
        -12    1    3    3    0    0 -0.51386213785E+01 -0.77255926514E+01 -0.81183395197E+01  0.12328732621E+02  0.00000000000E+00 0.  1.
</event>
<event>
 7    1  0.2425980E-008  0.4614232E+02  0.7816164E-02  0.1320468E+00
        -11   -1    0    0    0    0  0.00000000000E+00  0.00000000000E+00  0.45593999997E+02  0.45594000000E+02  0.51100000000E-03 0. -1.
         11   -1    0    0    0    0 -0.00000000000E+00 -0.00000000000E+00 -0.45593999997E+02  0.45594000000E+02  0.51100000000E-03 0.  1.
    9900012    2    1    2    0    0  0.25383307449E+02  0.30496103263E+02 -0.21325779185E+02  0.46142317975E+02  0.10000001949E+02 0.  0.
         12    1    1    2    0    0 -0.25383307449E+02 -0.30496103263E+02  0.21325779185E+02  0.45045682025E+02  0.00000000000E+00 0. -1.
         11    1    3    3    0    0  0.44713335438E+00 -0.10797915235E+00 -0.15641450161E+01  0.16303795958E+01  0.51100000000E-03 0. -1.
        -11    1    3    3    0    0  0.28362696773E+01  0.18927926685E+01 -0.40539126815E+00  0.34338654764E+01  0.51100000000E-03 0.  1.
         12    1    3    3    0    0  0.22099904418E+02  0.28711289747E+02 -0.19356242901E+02  0.41078072903E+02  0.00000000000E+00 0. -1.
</event>
<event>
 7    1  0.2425980E-008  0.4614232E+02  0.7816164E-02  0.1320468E+00
        -11   -1    0    0    0    0  0.00000000000E+00  0.00000000000E+00  0.45593999997E+02  0.45594000000E+02  0.51100000000E-03 0. -1.
         11   -1    0    0    0    0 -0.00000000000E+00 -0.00000000000E+00 -0.45593999997E+02  0.45594000000E+02  0.51100000000E-03 0.  1.
    9900012    2    1    2    0    0 -0.15056805371E+02  0.33554986054E+02 -0.26009018402E+02  0.46142317462E+02  0.99999972760E+01 0.  0.
         12    1    1    2    0    0  0.15056805371E+02 -0.33554986054E+02  0.26009018402E+02  0.45045682538E+02  0.00000000000E+00 0. -1.
         11    1    3    3    0    0 -0.44126179899E+01  0.71047295388E+01 -0.20814556856E+01  0.86186331501E+01  0.51100000000E-03 0. -1.
        -11    1    3    3    0    0 -0.11674869597E+01  0.59985816847E+01 -0.31842986341E+01  0.68909916616E+01  0.51100000000E-03 0.  1.
        -12    1    3    3    0    0 -0.94767004211E+01  0.20451674830E+02 -0.20743264082E+02  0.30632692651E+02  0.00000000000E+00 0.  1.
</event>
<event>
 7    1  0.2425980E-008  0.4614232E+02  0.7816164E-02  0.1320468E+00
        -11   -1    0    0    0    0  0.00000000000E+00  0.00000000000E+00  0.45593999997E+02  0.45594000000E+02  0.51100000000E-03 0. -1.
         11   -1    0    0    0    0 -0.00000000000E+00 -0.00000000000E+00 -0.45593999997E+02  0.45594000000E+02  0.51100000000E-03 0.  1.
    9900012    2    1    2    0    0  0.21688166654E+02 -0.32859890099E+02 -0.21885258443E+02  0.46142317773E+02  0.10000000109E+02 0.  0.
         12    1    1    2    0    0 -0.21688166654E+02  0.32859890099E+02  0.21885258443E+02  0.45045682227E+02  0.00000000000E+00 0. -1.
         11    1    3    3    0    0  0.61696104487E+01 -0.14359444579E+02 -0.77819199452E+01  0.17458981070E+02  0.51100000000E-03 0. -1.
        -11    1    3    3    0    0  0.35376377729E+01 -0.63326804731E+01 -0.73311498420E+01  0.10313267244E+02  0.51100000000E-03 0.  1.
        -12    1    3    3    0    0  0.11980918432E+02 -0.12167765048E+02 -0.67721886561E+01  0.18370069459E+02  0.00000000000E+00 0.  1.
</event>
<event>
 7    1  0.2425980E-008  0.4614232E+02  0.7816164E-02  0.1320468E+00
        -11   -1    0    0    0    0  0.00000000000E+00  0.00000000000E+00  0.45593999997E+02  0.45594000000E+02  0.51100000000E-03 0. -1.
         11   -1    0    0    0    0 -0.00000000000E+00 -0.00000000000E+00 -0.45593999997E+02  0.45594000000E+02  0.51100000000E-03 0.  1.
    9900012    2    1    2    0    0 -0.19085565701E+01 -0.44791624901E+02 -0.43796418733E+01  0.46142317494E+02  0.99999975671E+01 0.  0.
         12    1    1    2    0    0  0.19085565701E+01  0.44791624901E+02  0.43796418733E+01  0.45045682506E+02  0.00000000000E+00 0. -1.
         11    1    3    3    0    0  0.10188682190E+01 -0.18155231196E+02 -0.35127134260E+01  0.18519980240E+02  0.51100000000E-03 0. -1.
        -11    1    3    3    0    0  0.10115481923E+01 -0.17013063670E+02 -0.20108979441E+01  0.17161330834E+02  0.51100000000E-03 0.  1.
         12    1    3    3    0    0 -0.39389729814E+01 -0.96233300354E+01  0.11439694968E+01  0.10461006420E+02  0.00000000000E+00 0. -1.
</event>
<event>
 7    1  0.2425980E-008  0.4614232E+02  0.7816164E-02  0.1320468E+00
        -11   -1    0    0    0    0  0.00000000000E+00  0.00000000000E+00  0.45593999997E+02  0.45594000000E+02  0.51100000000E-03 0.  1.
         11   -1    0    0    0    0 -0.00000000000E+00 -0.00000000000E+00 -0.45593999997E+02  0.45594000000E+02  0.51100000000E-03 0. -1.
    9900012    2    1    2    0    0  0.42800167410E+02 -0.11804382928E+02  0.76102256543E+01  0.46142319618E+02  0.10000016930E+02 0.  0.
         12    1    1    2    0    0 -0.42800167410E+02  0.11804382928E+02 -0.76102256543E+01  0.45045680382E+02  0.00000000000E+00 0. -1.
         11    1    3    3    0    0  0.26549581038E+01 -0.26436020755E+01 -0.31136142303E+00  0.37595718723E+01  0.51100000000E-03 0. -1.
        -11    1    3    3    0    0  0.16071166716E+02 -0.59848902493E+01  0.53490643756E+01  0.17964236718E+02  0.51100000000E-03 0.  1.
        -12    1    3    3    0    0  0.24074042590E+02 -0.31758906032E+01  0.25725227018E+01  0.24418511027E+02  0.00000000000E+00 0.  1.
</event>
<event>
 7    1  0.2425980E-008  0.4614232E+02  0.7816164E-02  0.1320468E+00
        -11   -1    0    0    0    0  0.00000000000E+00  0.00000000000E+00  0.45593999997E+02  0.45594000000E+02  0.51100000000E-03 0. -1.
         11   -1    0    0    0    0 -0.00000000000E+00 -0.00000000000E+00 -0.45593999997E+02  0.45594000000E+02  0.51100000000E-03 0.  1.
    9900012    2    1    2    0    0  0.14293269673E+02  0.36922649273E+02 -0.21483339799E+02  0.46142317897E+02  0.10000001236E+02 0.  0.
         12    1    1    2    0    0 -0.14293269673E+02 -0.36922649273E+02  0.21483339799E+02  0.45045682103E+02  0.00000000000E+00 0. -1.
         11    1    3    3    0    0  0.12043688864E+01  0.25557326424E+01 -0.41968535033E+01  0.50592344621E+01  0.51100000000E-03 0.  1.
        -11    1    3    3    0    0  0.49871800055E+00  0.41488108271E+00 -0.13946036952E+01  0.15381045753E+01  0.51100000000E-03 0. -1.
         12    1    3    3    0    0  0.12590182786E+02  0.33952035547E+02 -0.15891882600E+02  0.39544978859E+02  0.00000000000E+00 0. -1.
</event>
<event>
 7    1  0.2425980E-008  0.4614232E+02  0.7816164E-02  0.1320468E+00
        -11   -1    0    0    0    0  0.00000000000E+00  0.00000000000E+00  0.45593999997E+02  0.45594000000E+02  0.51100000000E-03 0. -1.
         11   -1    0    0    0    0 -0.00000000000E+00 -0.00000000000E+00 -0.45593999997E+02  0.45594000000E+02  0.51100000000E-03 0.  1.
    9900012    2    1    2    0    0 -0.44055779399E+02 -0.87172687744E+01 -0.34944230335E+01  0.46142318013E+02  0.10000002297E+02 0.  0.
         12    1    1    2    0    0  0.44055779399E+02  0.87172687744E+01  0.34944230335E+01  0.45045681987E+02  0.00000000000E+00 0. -1.
         11    1    3    3    0    0 -0.17523420417E+02 -0.22790567203E+01 -0.18964783795E+01  0.17772478532E+02  0.51100000000E-03 0.  1.
        -11    1    3    3    0    0 -0.26520043238E+02 -0.51239867233E+01 -0.15265273310E+01  0.27053617489E+02  0.51100000000E-03 0. -1.
         12    1    3    3    0    0 -0.12315743071E-01 -0.13142253307E+01 -0.71417323057E-01  0.13162219917E+01  0.00000000000E+00 0. -1.
</event>
<event>
 7    1  0.2425980E-008  0.4614230E+02  0.7816164E-02  0.1320468E+00
        -11   -1    0    0    0    0  0.00000000000E+00  0.00000000000E+00  0.45593999997E+02  0.45594000000E+02  0.51100000000E-03 0. -1.
         11   -1    0    0    0    0 -0.00000000000E+00 -0.00000000000E+00 -0.45593999997E+02  0.45594000000E+02  0.51100000000E-03 0.  1.
    9900012    2    1    2    0    0 -0.30193268809E+02 -0.32320939219E+02  0.85345254229E+01  0.46142304117E+02  0.99998755804E+01 0.  0.
         12    1    1    2    0    0  0.30193268809E+02  0.32320939219E+02 -0.85345254229E+01  0.45045695883E+02  0.00000000000E+00 0. -1.
         11    1    3    3    0    0 -0.10893011206E+02 -0.84981595394E+01 -0.73695174179E+00  0.13835443860E+02  0.51100000000E-03 0. -1.
        -11    1    3    3    0    0 -0.46033788244E+01 -0.72795277923E+01  0.42998427765E+01  0.96265917979E+01  0.51100000000E-03 0.  1.
        -12    1    3    3    0    0 -0.14696878779E+02 -0.16543251888E+02  0.49716343882E+01  0.22680268459E+02  0.00000000000E+00 0.  1.
</event>
<event>
 7    1  0.2425980E-008  0.4614232E+02  0.7816164E-02  0.1320468E+00
        -11   -1    0    0    0    0  0.00000000000E+00  0.00000000000E+00  0.45593999997E+02  0.45594000000E+02  0.51100000000E-03 0.  1.
         11   -1    0    0    0    0 -0.00000000000E+00 -0.00000000000E+00 -0.45593999997E+02  0.45594000000E+02  0.51100000000E-03 0. -1.
    9900012    2    1    2    0    0  0.22711065025E+01 -0.41565439627E+02  0.17212489595E+02  0.46142317697E+02  0.99999994115E+01 0.  0.
         12    1    1    2    0    0 -0.22711065025E+01  0.41565439627E+02 -0.17212489595E+02  0.45045682303E+02  0.00000000000E+00 0. -1.
         11    1    3    3    0    0  0.20047154643E+01 -0.56194262046E+01  0.18171648635E+01  0.62369001406E+01  0.51100000000E-03 0. -1.
        -11    1    3    3    0    0  0.40217132392E+01 -0.21514826671E+02  0.85630567086E+01  0.23502933530E+02  0.51100000000E-03 0.  1.
        -12    1    3    3    0    0 -0.37553222010E+01 -0.14431186751E+02  0.68322680230E+01  0.16402484026E+02  0.00000000000E+00 0.  1.
</event>
<event>
 7    1  0.2425980E-008  0.4614232E+02  0.7816164E-02  0.1320468E+00
        -11   -1    0    0    0    0  0.00000000000E+00  0.00000000000E+00  0.45593999997E+02  0.45594000000E+02  0.51100000000E-03 0. -1.
         11   -1    0    0    0    0 -0.00000000000E+00 -0.00000000000E+00 -0.45593999997E+02  0.45594000000E+02  0.51100000000E-03 0.  1.
    9900012    2    1    2    0    0 -0.17772686885E+02  0.36621581654E+02 -0.19290019224E+02  0.46142317814E+02  0.10000000484E+02 0.  0.
         12    1    1    2    0    0  0.17772686885E+02 -0.36621581654E+02  0.19290019224E+02  0.45045682186E+02  0.00000000000E+00 0. -1.
         11    1    3    3    0    0 -0.33272289118E+01  0.34979445801E+01 -0.35307090919E+01  0.59809677704E+01  0.51100000000E-03 0. -1.
        -11    1    3    3    0    0 -0.62342085754E+01  0.10405510969E+02 -0.89153763717E+01  0.15054034382E+02  0.51100000000E-03 0.  1.
        -12    1    3    3    0    0 -0.82112493976E+01  0.22718126105E+02 -0.68439337600E+01  0.25107315661E+02  0.00000000000E+00 0.  1.
</event>
<event>
 7    1  0.2425980E-008  0.4614232E+02  0.7816164E-02  0.1320468E+00
        -11   -1    0    0    0    0  0.00000000000E+00  0.00000000000E+00  0.45593999997E+02  0.45594000000E+02  0.51100000000E-03 0.  1.
         11   -1    0    0    0    0 -0.00000000000E+00 -0.00000000000E+00 -0.45593999997E+02  0.45594000000E+02  0.51100000000E-03 0. -1.
    9900012    2    1    2    0    0 -0.87075541744E+01  0.43187505466E+02  0.93878122374E+01  0.46142321553E+02  0.10000034580E+02 0.  0.
         12    1    1    2    0    0  0.87075541744E+01 -0.43187505466E+02 -0.93878122374E+01  0.45045678447E+02  0.00000000000E+00 0. -1.
         11    1    3    3    0    0 -0.50919324605E+01  0.87093419027E+01  0.26622717156E+01  0.10433987901E+02  0.51100000000E-03 0. -1.
        -11    1    3    3    0    0 -0.14996412513E+01  0.13881327721E+02  0.78577005143E-01  0.13962319212E+02  0.51100000000E-03 0.  1.
         12    1    3    3    0    0 -0.21159804626E+01  0.20596835843E+02  0.66469635166E+01  0.21746014441E+02  0.00000000000E+00 0. -1.
</event>
<event>
 7    1  0.2425980E-008  0.4614232E+02  0.7816164E-02  0.1320468E+00
        -11   -1    0    0    0    0  0.00000000000E+00  0.00000000000E+00  0.45593999997E+02  0.45594000000E+02  0.51100000000E-03 0.  1.
         11   -1    0    0    0    0 -0.00000000000E+00 -0.00000000000E+00 -0.45593999997E+02  0.45594000000E+02  0.51100000000E-03 0. -1.
    9900012    2    1    2    0    0 -0.60296190249E+01  0.13715498456E+02  0.42481083133E+02  0.46142316215E+02  0.99999859013E+01 0.  0.
         12    1    1    2    0    0  0.60296190249E+01 -0.13715498456E+02 -0.42481083133E+02  0.45045683785E+02  0.00000000000E+00 0. -1.
         11    1    3    3    0    0 -0.24633085811E+00  0.70836835509E+01  0.16416107485E+02  0.17880935008E+02  0.51100000000E-03 0. -1.
        -11    1    3    3    0    0 -0.46451477938E+01  0.48942067846E+00  0.11604144224E+02  0.12508920579E+02  0.51100000000E-03 0.  1.
        -12    1    3    3    0    0 -0.11381403730E+01  0.61423942268E+01  0.14460831425E+02  0.15752460628E+02  0.00000000000E+00 0.  1.
</event>
<event>
 7    1  0.2425980E-008  0.4614232E+02  0.7816164E-02  0.1320468E+00
        -11   -1    0    0    0    0  0.00000000000E+00  0.00000000000E+00  0.45593999997E+02  0.45594000000E+02  0.51100000000E-03 0. -1.
         11   -1    0    0    0    0 -0.00000000000E+00 -0.00000000000E+00 -0.45593999997E+02  0.45594000000E+02  0.51100000000E-03 0.  1.
    9900012    2    1    2    0    0 -0.36575340999E+02  0.22319459169E+02  0.13899628612E+02  0.46142317606E+02  0.99999985835E+01 0.  0.
         12    1    1    2    0    0  0.36575340999E+02 -0.22319459169E+02 -0.13899628612E+02  0.45045682394E+02  0.00000000000E+00 0. -1.
         11    1    3    3    0    0 -0.68076792501E+01  0.32737020389E+01  0.60030171697E+01  0.96487220508E+01  0.51100000000E-03 0. -1.
        -11    1    3    3    0    0 -0.85287006145E+01  0.45216987289E+01  0.40877237822E+01  0.10483032936E+02  0.51100000000E-03 0.  1.
         12    1    3    3    0    0 -0.21238961135E+02  0.14524058401E+02  0.38088876597E+01  0.26010562619E+02  0.00000000000E+00 0. -1.
</event>
<event>
 7    1  0.2425980E-008  0.4614232E+02  0.7816164E-02  0.1320468E+00
        -11   -1    0    0    0    0  0.00000000000E+00  0.00000000000E+00  0.45593999997E+02  0.45594000000E+02  0.51100000000E-03 0.  1.
         11   -1    0    0    0    0 -0.00000000000E+00 -0.00000000000E+00 -0.45593999997E+02  0.45594000000E+02  0.51100000000E-03 0. -1.
    9900012    2    1    2    0    0 -0.41299531994E+02  0.14854824695E+02  0.10138853344E+02  0.46142317557E+02  0.99999981398E+01 0.  0.
         12    1    1    2    0    0  0.41299531994E+02 -0.14854824695E+02 -0.10138853344E+02  0.45045682443E+02  0.00000000000E+00 0. -1.
         11    1    3    3    0    0 -0.16919295980E+02  0.32779814025E+01  0.73393580374E+01  0.18731628739E+02  0.51100000000E-03 0. -1.
        -11    1    3    3    0    0 -0.17050267520E+02  0.73802334282E+01  0.22367157464E+00  0.18580352451E+02  0.51100000000E-03 0.  1.
        -12    1    3    3    0    0 -0.73299684931E+01  0.41966098645E+01  0.25758237322E+01  0.88303363676E+01  0.00000000000E+00 0.  1.
</event>
<event>
 7    1  0.2425980E-008  0.4614232E+02  0.7816164E-02  0.1320468E+00
        -11   -1    0    0    0    0  0.00000000000E+00  0.00000000000E+00  0.45593999997E+02  0.45594000000E+02  0.51100000000E-03 0.  1.
         11   -1    0    0    0    0 -0.00000000000E+00 -0.00000000000E+00 -0.45593999997E+02  0.45594000000E+02  0.51100000000E-03 0. -1.
    9900012    2    1    2    0    0 -0.42165139110E+02  0.69597184040E+01  0.14239974650E+02  0.46142317471E+02  0.99999973560E+01 0.  0.
         12    1    1    2    0    0  0.42165139110E+02 -0.69597184040E+01 -0.14239974650E+02  0.45045682529E+02  0.00000000000E+00 0. -1.
         11    1    3    3    0    0 -0.22572751966E+02  0.71170330210E+01  0.94962749886E+01  0.25502167148E+02  0.51100000000E-03 0. -1.
        -11    1    3    3    0    0 -0.12139073628E+02  0.20574980106E+01  0.29126185634E+01  0.12652025678E+02  0.51100000000E-03 0.  1.
        -12    1    3    3    0    0 -0.74533135164E+01 -0.22148126276E+01  0.18310810984E+01  0.79881246447E+01  0.00000000000E+00 0.  1.
</event>
<event>
 7    1  0.2425980E-008  0.4614232E+02  0.7816164E-02  0.1320468E+00
        -11   -1    0    0    0    0  0.00000000000E+00  0.00000000000E+00  0.45593999997E+02  0.45594000000E+02  0.51100000000E-03 0.  1.
         11   -1    0    0    0    0 -0.00000000000E+00 -0.00000000000E+00 -0.45593999997E+02  0.45594000000E+02  0.51100000000E-03 0. -1.
    9900012    2    1    2    0    0  0.31197146096E+02  0.11141283474E+02  0.30524143355E+02  0.46142318193E+02  0.10000003934E+02 0.  0.
         12    1    1    2    0    0 -0.31197146096E+02 -0.11141283474E+02 -0.30524143355E+02  0.45045681807E+02  0.00000000000E+00 0. -1.
         11    1    3    3    0    0  0.97260840205E+01  0.64473435370E+01  0.15146375745E+02  0.19120084924E+02  0.51100000000E-03 0. -1.
        -11    1    3    3    0    0  0.71150885222E+01  0.15200524572E+00  0.57574181036E+01  0.91539856759E+01  0.51100000000E-03 0.  1.
         12    1    3    3    0    0  0.14355973553E+02  0.45419346916E+01  0.96203495066E+01  0.17868247592E+02  0.00000000000E+00 0. -1.
</event>
<event>
 7    1  0.2425980E-008  0.4614232E+02  0.7816164E-02  0.1320468E+00
        -11   -1    0    0    0    0  0.00000000000E+00  0.00000000000E+00  0.45593999997E+02  0.45594000000E+02  0.51100000000E-03 0. -1.
         11   -1    0    0    0    0 -0.00000000000E+00 -0.00000000000E+00 -0.45593999997E+02  0.45594000000E+02  0.51100000000E-03 0.  1.
    9900012    2    1    2    0    0 -0.38685274288E+02  0.23066420824E+02 -0.70942339836E+00  0.46142317655E+02  0.99999990289E+01 0.  0.
         12    1    1    2    0    0  0.38685274288E+02 -0.23066420824E+02  0.70942339836E+00  0.45045682345E+02  0.00000000000E+00 0. -1.
         11    1    3    3    0    0 -0.19996903169E+01  0.22461091213E+01  0.94579968651E+00  0.31525077091E+01  0.51100000000E-03 0. -1.
        -11    1    3    3    0    0 -0.34774265701E+02  0.19560192150E+02 -0.34978664584E+01  0.40051039213E+02  0.51100000000E-03 0.  1.
        -12    1    3    3    0    0 -0.19113182708E+01  0.12601195526E+01  0.18426433735E+01  0.29387707330E+01  0.00000000000E+00 0.  1.
</event>
<event>
 7    1  0.2425980E-008  0.4614232E+02  0.7816164E-02  0.1320468E+00
        -11   -1    0    0    0    0  0.00000000000E+00  0.00000000000E+00  0.45593999997E+02  0.45594000000E+02  0.51100000000E-03 0. -1.
         11   -1    0    0    0    0 -0.00000000000E+00 -0.00000000000E+00 -0.45593999997E+02  0.45594000000E+02  0.51100000000E-03 0.  1.
    9900012    2    1    2    0    0  0.10551822143E+02 -0.43540964655E+02 -0.46858371690E+01  0.46142316260E+02  0.99999863152E+01 0.  0.
         12    1    1    2    0    0 -0.10551822143E+02  0.43540964655E+02  0.46858371690E+01  0.45045683740E+02  0.00000000000E+00 0. -1.
         11    1    3    3    0    0  0.42248132333E+01 -0.98554597134E+01  0.60001008811E+00  0.10739606389E+02  0.51100000000E-03 0. -1.
        -11    1    3    3    0    0  0.25929935396E+01 -0.26040475940E+02 -0.60524612770E+01  0.26860050082E+02  0.51100000000E-03 0.  1.
        -12    1    3    3    0    0  0.37340153698E+01 -0.76450290018E+01  0.76661401994E+00  0.85426597893E+01  0.00000000000E+00 0.  1.
</event>
<event>
 7    1  0.2425980E-008  0.4614232E+02  0.7816164E-02  0.1320468E+00
        -11   -1    0    0    0    0  0.00000000000E+00  0.00000000000E+00  0.45593999997E+02  0.45594000000E+02  0.51100000000E-03 0.  1.
         11   -1    0    0    0    0 -0.00000000000E+00 -0.00000000000E+00 -0.45593999997E+02  0.45594000000E+02  0.51100000000E-03 0. -1.
    9900012    2    1    2    0    0  0.29140306057E+02  0.26315761738E+02  0.22077966825E+02  0.46142319052E+02  0.10000011769E+02 0.  0.
         12    1    1    2    0    0 -0.29140306057E+02 -0.26315761738E+02 -0.22077966825E+02  0.45045680948E+02  0.00000000000E+00 0. -1.
         11    1    3    3    0    0  0.17492573607E+02  0.16866055190E+02  0.97616107676E+01  0.26186694983E+02  0.51100000000E-03 0. -1.
        -11    1    3    3    0    0  0.45950178238E+00 -0.42239962819E+00  0.26125730177E-01  0.62469684552E+00  0.51100000000E-03 0.  1.
        -12    1    3    3    0    0  0.11188230668E+02  0.98721061763E+01  0.12290230327E+02  0.19330927224E+02  0.00000000000E+00 0.  1.
</event>
<event>
 7    1  0.2425980E-008  0.4614232E+02  0.7816164E-02  0.1320468E+00
        -11   -1    0    0    0    0  0.00000000000E+00  0.00000000000E+00  0.45593999997E+02  0.45594000000E+02  0.51100000000E-03 0.  1.
         11   -1    0    0    0    0 -0.00000000000E+00 -0.00000000000E+00 -0.45593999997E+02  0.45594000000E+02  0.51100000000E-03 0. -1.
    9900012    2    1    2    0    0  0.26131844601E+01 -0.42271779422E+02  0.15342137748E+02  0.46142320305E+02  0.10000023193E+02 0.  0.
         12    1    1    2    0    0 -0.26131844601E+01  0.42271779422E+02 -0.15342137748E+02  0.45045679695E+02  0.00000000000E+00 0. -1.
         11    1    3    3    0    0  0.26091872650E+01 -0.90520377282E+01  0.24062415254E+01  0.97230264711E+01  0.51100000000E-03 0. -1.
        -11    1    3    3    0    0 -0.21194820076E+01 -0.14075644106E+02  0.23079076693E+01  0.14420208010E+02  0.51100000000E-03 0.  1.
         12    1    3    3    0    0  0.21234792027E+01 -0.19144097588E+02  0.10627988553E+02  0.21999085824E+02  0.00000000000E+00 0. -1.
</event>
<event>
 7    1  0.2425980E-008  0.4614232E+02  0.7816164E-02  0.1320468E+00
        -11   -1    0    0    0    0  0.00000000000E+00  0.00000000000E+00  0.45593999997E+02  0.45594000000E+02  0.51100000000E-03 0.  1.
         11   -1    0    0    0    0 -0.00000000000E+00 -0.00000000000E+00 -0.45593999997E+02  0.45594000000E+02  0.51100000000E-03 0. -1.
    9900012    2    1    2    0    0  0.71086051966E+01 -0.44394203848E+02 -0.27813362133E+01  0.46142318361E+02  0.10000005472E+02 0.  0.
         12    1    1    2    0    0 -0.71086051966E+01  0.44394203848E+02  0.27813362133E+01  0.45045681639E+02  0.00000000000E+00 0. -1.
         11    1    3    3    0    0  0.52163195146E+01 -0.20895698588E+02 -0.15079319467E+01  0.21589675027E+02  0.51100000000E-03 0. -1.
        -11    1    3    3    0    0 -0.15264800428E+01 -0.17798259367E+02 -0.62984160014E+00  0.17874699396E+02  0.51100000000E-03 0.  1.
        -12    1    3    3    0    0  0.34187657248E+01 -0.57002458935E+01 -0.64356266643E+00  0.66779439376E+01  0.00000000000E+00 0.  1.
</event>
<event>
 7    1  0.2425980E-008  0.4614232E+02  0.7816164E-02  0.1320468E+00
        -11   -1    0    0    0    0  0.00000000000E+00  0.00000000000E+00  0.45593999997E+02  0.45594000000E+02  0.51100000000E-03 0.  1.
         11   -1    0    0    0    0 -0.00000000000E+00 -0.00000000000E+00 -0.45593999997E+02  0.45594000000E+02  0.51100000000E-03 0. -1.
    9900012    2    1    2    0    0 -0.30413420200E+02 -0.45551326524E+01  0.32914861781E+02  0.46142317767E+02  0.10000000056E+02 0.  0.
         12    1    1    2    0    0  0.30413420200E+02  0.45551326524E+01 -0.32914861781E+02  0.45045682233E+02  0.00000000000E+00 0. -1.
         11    1    3    3    0    0 -0.21293817486E+01 -0.24373859433E+01  0.13908880635E+01  0.35227385276E+01  0.51100000000E-03 0. -1.
        -11    1    3    3    0    0 -0.71976921794E+01 -0.16386684433E+01  0.10535565891E+02  0.12864297722E+02  0.51100000000E-03 0.  1.
        -12    1    3    3    0    0 -0.21086346272E+02 -0.47907826577E+00  0.20988407826E+02  0.29755281517E+02  0.00000000000E+00 0.  1.
</event>
<event>
 7    1  0.2425980E-008  0.4614232E+02  0.7816164E-02  0.1320468E+00
        -11   -1    0    0    0    0  0.00000000000E+00  0.00000000000E+00  0.45593999997E+02  0.45594000000E+02  0.51100000000E-03 0.  1.
         11   -1    0    0    0    0 -0.00000000000E+00 -0.00000000000E+00 -0.45593999997E+02  0.45594000000E+02  0.51100000000E-03 0. -1.
    9900012    2    1    2    0    0 -0.42875875327E+02 -0.52948813167E+01  0.12756843460E+02  0.46142317540E+02  0.99999979799E+01 0.  0.
         12    1    1    2    0    0  0.42875875327E+02  0.52948813167E+01 -0.12756843460E+02  0.45045682460E+02  0.00000000000E+00 0. -1.
         11    1    3    3    0    0 -0.25512205884E+01  0.57864391299E+00 -0.40440228401E+00  0.26470921285E+01  0.51100000000E-03 0. -1.
        -11    1    3    3    0    0 -0.35607719686E+02 -0.25918098357E+01  0.11038557150E+02  0.37369465124E+02  0.51100000000E-03 0.  1.
         12    1    3    3    0    0 -0.47169350530E+01 -0.32817153940E+01  0.21226885941E+01  0.61257602866E+01  0.00000000000E+00 0. -1.
</event>
<event>
 7    1  0.2425980E-008  0.4614232E+02  0.7816164E-02  0.1320468E+00
        -11   -1    0    0    0    0  0.00000000000E+00  0.00000000000E+00  0.45593999997E+02  0.45594000000E+02  0.51100000000E-03 0.  1.
         11   -1    0    0    0    0 -0.00000000000E+00 -0.00000000000E+00 -0.45593999997E+02  0.45594000000E+02  0.51100000000E-03 0. -1.
    9900012    2    1    2    0    0 -0.28322412915E+02 -0.32871353736E+02  0.12100752472E+02  0.46142321182E+02  0.10000031193E+02 0.  0.
         12    1    1    2    0    0  0.28322412915E+02  0.32871353736E+02 -0.12100752472E+02  0.45045678818E+02  0.00000000000E+00 0. -1.
         11    1    3    3    0    0 -0.29012360685E+01 -0.52235305069E+01  0.35199514380E+01  0.69348756347E+01  0.51100000000E-03 0. -1.
        -11    1    3    3    0    0 -0.21783226908E+02 -0.21832053868E+02  0.95361871006E+01  0.32281363281E+02  0.51100000000E-03 0.  1.
         12    1    3    3    0    0 -0.36379499391E+01 -0.58157693608E+01 -0.95538606625E+00  0.69260822658E+01  0.00000000000E+00 0. -1.
</event>
<event>
 7    1  0.2425980E-008  0.4614232E+02  0.7816164E-02  0.1320468E+00
        -11   -1    0    0    0    0  0.00000000000E+00  0.00000000000E+00  0.45593999997E+02  0.45594000000E+02  0.51100000000E-03 0.  1.
         11   -1    0    0    0    0 -0.00000000000E+00 -0.00000000000E+00 -0.45593999997E+02  0.45594000000E+02  0.51100000000E-03 0. -1.
    9900012    2    1    2    0    0  0.26739450306E+02 -0.42803355312E+01  0.35997136134E+02  0.46142320021E+02  0.10000020609E+02 0.  0.
         12    1    1    2    0    0 -0.26739450306E+02  0.42803355312E+01 -0.35997136134E+02  0.45045679979E+02  0.00000000000E+00 0. -1.
         11    1    3    3    0    0  0.56675732098E+00 -0.40152374619E+00  0.40941113166E+01  0.41526115775E+01  0.51100000000E-03 0. -1.
        -11    1    3    3    0    0  0.53374608551E+01 -0.14376850635E+01  0.30396033081E+01  0.63082973339E+01  0.51100000000E-03 0.  1.
        -12    1    3    3    0    0  0.20835232130E+02 -0.24411267215E+01  0.28863421509E+02  0.35681411110E+02  0.00000000000E+00 0.  1.
</event>
<event>
 7    1  0.2425980E-008  0.4614232E+02  0.7816164E-02  0.1320468E+00
        -11   -1    0    0    0    0  0.00000000000E+00  0.00000000000E+00  0.45593999997E+02  0.45594000000E+02  0.51100000000E-03 0. -1.
         11   -1    0    0    0    0 -0.00000000000E+00 -0.00000000000E+00 -0.45593999997E+02  0.45594000000E+02  0.51100000000E-03 0.  1.
    9900012    2    1    2    0    0 -0.14897717079E+02 -0.34936703075E+02 -0.24219790685E+02  0.46142318112E+02  0.10000003198E+02 0.  0.
         12    1    1    2    0    0  0.14897717079E+02  0.34936703075E+02  0.24219790685E+02  0.45045681888E+02  0.00000000000E+00 0. -1.
         11    1    3    3    0    0 -0.26138804327E+01 -0.12376957895E+02 -0.59710776809E+01  0.13988396141E+02  0.51100000000E-03 0. -1.
        -11    1    3    3    0    0 -0.35029221204E+01 -0.11638103826E+02 -0.60590368349E+01  0.13580421631E+02  0.51100000000E-03 0.  1.
         12    1    3    3    0    0 -0.87809145264E+01 -0.10921641355E+02 -0.12189676169E+02  0.18573500341E+02  0.00000000000E+00 0. -1.
</event>
<event>
 7    1  0.2425980E-008  0.4614232E+02  0.7816164E-02  0.1320468E+00
        -11   -1    0    0    0    0  0.00000000000E+00  0.00000000000E+00  0.45593999997E+02  0.45594000000E+02  0.51100000000E-03 0.  1.
         11   -1    0    0    0    0 -0.00000000000E+00 -0.00000000000E+00 -0.45593999997E+02  0.45594000000E+02  0.51100000000E-03 0. -1.
    9900012    2    1    2    0    0 -0.23662393501E+02  0.19102241365E+02  0.33231145098E+02  0.46142317678E+02  0.99999992397E+01 0.  0.
         12    1    1    2    0    0  0.23662393501E+02 -0.19102241365E+02 -0.33231145098E+02  0.45045682322E+02  0.00000000000E+00 0. -1.
         11    1    3    3    0    0 -0.63601438331E+01  0.49159201898E+01  0.39294078349E+01  0.89475106641E+01  0.51100000000E-03 0. -1.
        -11    1    3    3    0    0 -0.23033831278E+01  0.44989558346E+01  0.63911776838E+01  0.81482102257E+01  0.51100000000E-03 0.  1.
         12    1    3    3    0    0 -0.14998866540E+02  0.96873653409E+01  0.22910559579E+02  0.29046596788E+02  0.00000000000E+00 0. -1.
</event>
<event>
 7    1  0.2425980E-008  0.4614232E+02  0.7816164E-02  0.1320468E+00
        -11   -1    0    0    0    0  0.00000000000E+00  0.00000000000E+00  0.45593999997E+02  0.45594000000E+02  0.51100000000E-03 0.  1.
         11   -1    0    0    0    0 -0.00000000000E+00 -0.00000000000E+00 -0.45593999997E+02  0.45594000000E+02  0.51100000000E-03 0. -1.
    9900012    2    1    2    0    0 -0.18715888328E+02  0.14091413395E+02  0.38474159167E+02  0.46142319508E+02  0.10000015932E+02 0.  0.
         12    1    1    2    0    0  0.18715888328E+02 -0.14091413395E+02 -0.38474159167E+02  0.45045680492E+02  0.00000000000E+00 0. -1.
         11    1    3    3    0    0 -0.70561465022E+01  0.52817163377E+01  0.79297929141E+01  0.11856110106E+02  0.51100000000E-03 0. -1.
        -11    1    3    3    0    0 -0.48837153818E+01  0.45217460591E+01  0.82893672266E+01  0.10630638393E+02  0.51100000000E-03 0.  1.
        -12    1    3    3    0    0 -0.67760264441E+01  0.42879509986E+01  0.22254999026E+02  0.23655571009E+02  0.00000000000E+00 0.  1.
</event>
<event>
 7    1  0.2425980E-008  0.4614232E+02  0.7816164E-02  0.1320468E+00
        -11   -1    0    0    0    0  0.00000000000E+00  0.00000000000E+00  0.45593999997E+02  0.45594000000E+02  0.51100000000E-03 0.  1.
         11   -1    0    0    0    0 -0.00000000000E+00 -0.00000000000E+00 -0.45593999997E+02  0.45594000000E+02  0.51100000000E-03 0. -1.
    9900012    2    1    2    0    0 -0.29279700723E+02 -0.15092012003E+02  0.30725295641E+02  0.46142317711E+02  0.99999995405E+01 0.  0.
         12    1    1    2    0    0  0.29279700723E+02  0.15092012003E+02 -0.30725295641E+02  0.45045682289E+02  0.00000000000E+00 0. -1.
         11    1    3    3    0    0 -0.42057120393E+01 -0.53120139466E+01  0.89662198624E+01  0.11238265205E+02  0.51100000000E-03 0. -1.
        -11    1    3    3    0    0 -0.37678308429E+01 -0.16039585494E+01  0.56164098111E+01  0.69507763391E+01  0.51100000000E-03 0.  1.
        -12    1    3    3    0    0 -0.21306157841E+02 -0.81760395067E+01  0.16142665967E+02  0.27953276167E+02  0.00000000000E+00 0.  1.
</event>
<event>
 7    1  0.2425980E-008  0.4614232E+02  0.7816164E-02  0.1320468E+00
        -11   -1    0    0    0    0  0.00000000000E+00  0.00000000000E+00  0.45593999997E+02  0.45594000000E+02  0.51100000000E-03 0. -1.
         11   -1    0    0    0    0 -0.00000000000E+00 -0.00000000000E+00 -0.45593999997E+02  0.45594000000E+02  0.51100000000E-03 0.  1.
    9900012    2    1    2    0    0 -0.77469444515E+01 -0.43374609319E+02  0.93670497280E+01  0.46142317604E+02  0.99999985683E+01 0.  0.
         12    1    1    2    0    0  0.77469444515E+01  0.43374609319E+02 -0.93670497280E+01  0.45045682396E+02  0.00000000000E+00 0. -1.
         11    1    3    3    0    0  0.21333546789E+01 -0.12601687157E+02  0.15285891847E+01  0.12872074680E+02  0.51100000000E-03 0. -1.
        -11    1    3    3    0    0 -0.15606805405E+01 -0.50073061246E+01  0.16260952802E+01  0.54911769682E+01  0.51100000000E-03 0.  1.
         12    1    3    3    0    0 -0.83196185898E+01 -0.25765616037E+02  0.62123652631E+01  0.27779065956E+02  0.00000000000E+00 0. -1.
</event>
<event>
 7    1  0.2425980E-008  0.4614232E+02  0.7816164E-02  0.1320468E+00
        -11   -1    0    0    0    0  0.00000000000E+00  0.00000000000E+00  0.45593999997E+02  0.45594000000E+02  0.51100000000E-03 0.  1.
         11   -1    0    0    0    0 -0.00000000000E+00 -0.00000000000E+00 -0.45593999997E+02  0.45594000000E+02  0.51100000000E-03 0. -1.
    9900012    2    1    2    0    0  0.36587573753E+02  0.25376017219E+02  0.68206024515E+01  0.46142318511E+02  0.10000006834E+02 0.  0.
         12    1    1    2    0    0 -0.36587573753E+02 -0.25376017219E+02 -0.68206024515E+01  0.45045681489E+02  0.00000000000E+00 0. -1.
         11    1    3    3    0    0  0.11723129995E+01  0.17402099176E+00  0.57392340681E+00  0.13168103176E+01  0.51100000000E-03 0. -1.
        -11    1    3    3    0    0  0.20796322497E+02  0.18877513440E+02  0.67614672127E+01  0.28888838367E+02  0.51100000000E-03 0.  1.
        -12    1    3    3    0    0  0.14618938257E+02  0.63244827879E+01 -0.51478816795E+00  0.15936669826E+02  0.00000000000E+00 0.  1.
</event>
<event>
 7    1  0.2425980E-008  0.4614232E+02  0.7816164E-02  0.1320468E+00
        -11   -1    0    0    0    0  0.00000000000E+00  0.00000000000E+00  0.45593999997E+02  0.45594000000E+02  0.51100000000E-03 0.  1.
         11   -1    0    0    0    0 -0.00000000000E+00 -0.00000000000E+00 -0.45593999997E+02  0.45594000000E+02  0.51100000000E-03 0. -1.
    9900012    2    1    2    0    0 -0.12192872258E+02  0.39004974260E+02  0.18948861722E+02  0.46142317505E+02  0.99999976627E+01 0.  0.
         12    1    1    2    0    0  0.12192872258E+02 -0.39004974260E+02 -0.18948861722E+02  0.45045682495E+02  0.00000000000E+00 0. -1.
         11    1    3    3    0    0 -0.93872576922E+01  0.27476350273E+02  0.94880449588E+01  0.30546578019E+02  0.51100000000E-03 0. -1.
        -11    1    3    3    0    0 -0.22168062317E+01  0.28857141275E+01  0.19405521538E+01  0.41239930671E+01  0.51100000000E-03 0.  1.
        -12    1    3    3    0    0 -0.58880833400E+00  0.86429098596E+01  0.75202646092E+01  0.11471746418E+02  0.00000000000E+00 0.  1.
</event>
<event>
 7    1  0.2425980E-008  0.4614232E+02  0.7816164E-02  0.1320468E+00
        -11   -1    0    0    0    0  0.00000000000E+00  0.00000000000E+00  0.45593999997E+02  0.45594000000E+02  0.51100000000E-03 0. -1.
         11   -1    0    0    0    0 -0.00000000000E+00 -0.00000000000E+00 -0.45593999997E+02  0.45594000000E+02  0.51100000000E-03 0.  1.
    9900012    2    1    2    0    0 -0.17163930774E+02  0.26656929287E+02 -0.31998766946E+02  0.46142317802E+02  0.10000000376E+02 0.  0.
         12    1    1    2    0    0  0.17163930774E+02 -0.26656929287E+02  0.31998766946E+02  0.45045682198E+02  0.00000000000E+00 0. -1.
         11    1    3    3    0    0 -0.28729470216E+01  0.30543457675E+01 -0.76758041714E+01  0.87464748668E+01  0.51100000000E-03 0. -1.
        -11    1    3    3    0    0 -0.12087195276E+02  0.18913841846E+02 -0.22802100607E+02  0.31996398162E+02  0.51100000000E-03 0.  1.
         12    1    3    3    0    0 -0.22037884763E+01  0.46887416731E+01 -0.15208621675E+01  0.53994447731E+01  0.00000000000E+00 0. -1.
</event>
<event>
 7    1  0.2425980E-008  0.4614232E+02  0.7816164E-02  0.1320468E+00
        -11   -1    0    0    0    0  0.00000000000E+00  0.00000000000E+00  0.45593999997E+02  0.45594000000E+02  0.51100000000E-03 0. -1.
         11   -1    0    0    0    0 -0.00000000000E+00 -0.00000000000E+00 -0.45593999997E+02  0.45594000000E+02  0.51100000000E-03 0.  1.
    9900012    2    1    2    0    0 -0.22135607352E+02  0.24422219256E+02 -0.30703152821E+02  0.46142317639E+02  0.99999988880E+01 0.  0.
         12    1    1    2    0    0  0.22135607352E+02 -0.24422219256E+02  0.30703152821E+02  0.45045682361E+02  0.00000000000E+00 0. -1.
         11    1    3    3    0    0 -0.29846104101E+01  0.97250438737E+00 -0.54219072376E+01  0.62650412958E+01  0.51100000000E-03 0. -1.
        -11    1    3    3    0    0 -0.17596582724E+00  0.15707030733E+01 -0.25447514859E+00  0.16008841242E+01  0.51100000000E-03 0.  1.
        -12    1    3    3    0    0 -0.18975031114E+02  0.21879011795E+02 -0.25026770435E+02  0.38276392219E+02  0.00000000000E+00 0.  1.
</event>
<event>
 7    1  0.2425980E-008  0.4614232E+02  0.7816164E-02  0.1320468E+00
        -11   -1    0    0    0    0  0.00000000000E+00  0.00000000000E+00  0.45593999997E+02  0.45594000000E+02  0.51100000000E-03 0.  1.
         11   -1    0    0    0    0 -0.00000000000E+00 -0.00000000000E+00 -0.45593999997E+02  0.45594000000E+02  0.51100000000E-03 0. -1.
    9900012    2    1    2    0    0  0.17730063720E+02 -0.29975645539E+02  0.28569546690E+02  0.46142317819E+02  0.10000000532E+02 0.  0.
         12    1    1    2    0    0 -0.17730063720E+02  0.29975645539E+02 -0.28569546690E+02  0.45045682181E+02  0.00000000000E+00 0. -1.
         11    1    3    3    0    0 -0.66144872378E+00 -0.61350338323E+00 -0.32356583912E+00  0.95843410248E+00  0.51100000000E-03 0. -1.
        -11    1    3    3    0    0  0.76707753109E+01 -0.10966531357E+02  0.12498141416E+02  0.18311448413E+02  0.51100000000E-03 0.  1.
         12    1    3    3    0    0  0.10720737133E+02 -0.18395610799E+02  0.16394971113E+02  0.26872435304E+02  0.00000000000E+00 0. -1.
</event>
<event>
 7    1  0.2425980E-008  0.4614232E+02  0.7816164E-02  0.1320468E+00
        -11   -1    0    0    0    0  0.00000000000E+00  0.00000000000E+00  0.45593999997E+02  0.45594000000E+02  0.51100000000E-03 0. -1.
         11   -1    0    0    0    0 -0.00000000000E+00 -0.00000000000E+00 -0.45593999997E+02  0.45594000000E+02  0.51100000000E-03 0.  1.
    9900012    2    1    2    0    0  0.29639710119E+02  0.14033838993E+02 -0.30881266216E+02  0.46142315901E+02  0.99999830423E+01 0.  0.
         12    1    1    2    0    0 -0.29639710119E+02 -0.14033838993E+02  0.30881266216E+02  0.45045684099E+02  0.00000000000E+00 0. -1.
         11    1    3    3    0    0  0.39440586898E+01  0.56396768822E+01 -0.70322294009E+01  0.98394006369E+01  0.51100000000E-03 0. -1.
        -11    1    3    3    0    0  0.18128539325E+02  0.74123014523E+01 -0.18834675039E+02  0.27172249354E+02  0.51100000000E-03 0.  1.
         12    1    3    3    0    0  0.75671121043E+01  0.98186065871E+00 -0.50143617756E+01  0.91306659105E+01  0.00000000000E+00 0. -1.
</event>
<event>
 7    1  0.2425980E-008  0.4614232E+02  0.7816164E-02  0.1320468E+00
        -11   -1    0    0    0    0  0.00000000000E+00  0.00000000000E+00  0.45593999997E+02  0.45594000000E+02  0.51100000000E-03 0.  1.
         11   -1    0    0    0    0 -0.00000000000E+00 -0.00000000000E+00 -0.45593999997E+02  0.45594000000E+02  0.51100000000E-03 0. -1.
    9900012    2    1    2    0    0 -0.26044605468E+01  0.13655628360E+02  0.42846867563E+02  0.46142318069E+02  0.10000002805E+02 0.  0.
         12    1    1    2    0    0  0.26044605468E+01 -0.13655628360E+02 -0.42846867563E+02  0.45045681931E+02  0.00000000000E+00 0. -1.
         11    1    3    3    0    0 -0.14736329113E+01  0.84727101398E+00  0.24969715059E+01  0.30206504417E+01  0.51100000000E-03 0. -1.
        -11    1    3    3    0    0 -0.14710398251E+01  0.17010920694E+01  0.18221324603E+02  0.18359584498E+02  0.51100000000E-03 0.  1.
         12    1    3    3    0    0  0.34021218958E+00  0.11107265277E+02  0.22128571455E+02  0.24762083129E+02  0.00000000000E+00 0. -1.
</event>
<event>
 7    1  0.2425980E-008  0.4614231E+02  0.7816164E-02  0.1320468E+00
        -11   -1    0    0    0    0  0.00000000000E+00  0.00000000000E+00  0.45593999997E+02  0.45594000000E+02  0.51100000000E-03 0. -1.
         11   -1    0    0    0    0 -0.00000000000E+00 -0.00000000000E+00 -0.45593999997E+02  0.45594000000E+02  0.51100000000E-03 0.  1.
    9900012    2    1    2    0    0 -0.42679262019E+02 -0.81314775345E+01 -0.11894273419E+02  0.46142311266E+02  0.99999407720E+01 0.  0.
         12    1    1    2    0    0  0.42679262019E+02  0.81314775345E+01  0.11894273419E+02  0.45045688734E+02  0.00000000000E+00 0. -1.
         11    1    3    3    0    0 -0.15573664534E+02 -0.34496702553E+01 -0.47920740978E+00  0.15958348658E+02  0.51100000000E-03 0. -1.
        -11    1    3    3    0    0 -0.66593726821E+01 -0.16501392850E+01 -0.51723390367E+01  0.85920483908E+01  0.51100000000E-03 0.  1.
         12    1    3    3    0    0 -0.20446224803E+02 -0.30316679943E+01 -0.62427269722E+01  0.21591914217E+02  0.00000000000E+00 0. -1.
</event>
<event>
 7    1  0.2425980E-008  0.4614232E+02  0.7816164E-02  0.1320468E+00
        -11   -1    0    0    0    0  0.00000000000E+00  0.00000000000E+00  0.45593999997E+02  0.45594000000E+02  0.51100000000E-03 0. -1.
         11   -1    0    0    0    0 -0.00000000000E+00 -0.00000000000E+00 -0.45593999997E+02  0.45594000000E+02  0.51100000000E-03 0.  1.
    9900012    2    1    2    0    0 -0.36408681953E+02  0.12399977963E+02 -0.23446995852E+02  0.46142321079E+02  0.10000030251E+02 0.  0.
         12    1    1    2    0    0  0.36408681953E+02 -0.12399977963E+02  0.23446995852E+02  0.45045678921E+02  0.00000000000E+00 0. -1.
         11    1    3    3    0    0 -0.15472168708E+02  0.72115581418E+01 -0.87582128221E+01  0.19185954953E+02  0.51100000000E-03 0.  1.
        -11    1    3    3    0    0 -0.47439726933E+01 -0.13380429726E+01 -0.48569805528E+01  0.69199636028E+01  0.51100000000E-03 0. -1.
         12    1    3    3    0    0 -0.16192540551E+02  0.65264627937E+01 -0.98318024769E+01  0.20036402523E+02  0.00000000000E+00 0. -1.
</event>
<event>
 7    1  0.2425980E-008  0.4614232E+02  0.7816164E-02  0.1320468E+00
        -11   -1    0    0    0    0  0.00000000000E+00  0.00000000000E+00  0.45593999997E+02  0.45594000000E+02  0.51100000000E-03 0. -1.
         11   -1    0    0    0    0 -0.00000000000E+00 -0.00000000000E+00 -0.45593999997E+02  0.45594000000E+02  0.51100000000E-03 0.  1.
    9900012    2    1    2    0    0  0.39901168180E+02  0.10551657236E+02 -0.18046401466E+02  0.46142319870E+02  0.10000019228E+02 0.  0.
         12    1    1    2    0    0 -0.39901168180E+02 -0.10551657236E+02  0.18046401466E+02  0.45045680130E+02  0.00000000000E+00 0. -1.
         11    1    3    3    0    0  0.18004387124E+02  0.24535975687E+01 -0.66857396156E+01  0.19361746079E+02  0.51100000000E-03 0. -1.
        -11    1    3    3    0    0  0.77013835239E+01  0.12925983740E+00 -0.18305301551E+01  0.79169979916E+01  0.51100000000E-03 0.  1.
        -12    1    3    3    0    0  0.14195397531E+02  0.79687998300E+01 -0.95301316955E+01  0.18863575799E+02  0.00000000000E+00 0.  1.
</event>
<event>
 7    1  0.2425980E-008  0.4614232E+02  0.7816164E-02  0.1320468E+00
        -11   -1    0    0    0    0  0.00000000000E+00  0.00000000000E+00  0.45593999997E+02  0.45594000000E+02  0.51100000000E-03 0.  1.
         11   -1    0    0    0    0 -0.00000000000E+00 -0.00000000000E+00 -0.45593999997E+02  0.45594000000E+02  0.51100000000E-03 0. -1.
    9900012    2    1    2    0    0  0.13255326132E+02 -0.37384131011E+02  0.21350330241E+02  0.46142317369E+02  0.99999964203E+01 0.  0.
         12    1    1    2    0    0 -0.13255326132E+02  0.37384131011E+02 -0.21350330241E+02  0.45045682631E+02  0.00000000000E+00 0. -1.
         11    1    3    3    0    0  0.72060122434E+01 -0.21192533610E+02  0.10800829023E+02  0.24853732136E+02  0.51100000000E-03 0. -1.
        -11    1    3    3    0    0  0.32370800260E+01 -0.10409982326E+02  0.28700977360E+01  0.11273148646E+02  0.51100000000E-03 0.  1.
         12    1    3    3    0    0  0.28122338629E+01 -0.57816150760E+01  0.76794034815E+01  0.10015436587E+02  0.00000000000E+00 0. -1.
</event>
<event>
 7    1  0.2425980E-008  0.4614232E+02  0.7816164E-02  0.1320468E+00
        -11   -1    0    0    0    0  0.00000000000E+00  0.00000000000E+00  0.45593999997E+02  0.45594000000E+02  0.51100000000E-03 0. -1.
         11   -1    0    0    0    0 -0.00000000000E+00 -0.00000000000E+00 -0.45593999997E+02  0.45594000000E+02  0.51100000000E-03 0.  1.
    9900012    2    1    2    0    0 -0.19741727195E+02 -0.33934458108E+02 -0.22086878809E+02  0.46142318129E+02  0.10000003351E+02 0.  0.
         12    1    1    2    0    0  0.19741727195E+02  0.33934458108E+02  0.22086878809E+02  0.45045681871E+02  0.00000000000E+00 0. -1.
         11    1    3    3    0    0 -0.54803949390E+00 -0.22280284531E+01  0.47648393209E+00  0.23433939646E+01  0.51100000000E-03 0. -1.
        -11    1    3    3    0    0 -0.43905194105E+01 -0.54436041482E+01 -0.69033718952E+01  0.98268016465E+01  0.51100000000E-03 0.  1.
         12    1    3    3    0    0 -0.14803168291E+02 -0.26262825507E+02 -0.15659990846E+02  0.33972122517E+02  0.00000000000E+00 0. -1.
</event>
<event>
 7    1  0.2425980E-008  0.4614232E+02  0.7816164E-02  0.1320468E+00
        -11   -1    0    0    0    0  0.00000000000E+00  0.00000000000E+00  0.45593999997E+02  0.45594000000E+02  0.51100000000E-03 0. -1.
         11   -1    0    0    0    0 -0.00000000000E+00 -0.00000000000E+00 -0.45593999997E+02  0.45594000000E+02  0.51100000000E-03 0.  1.
    9900012    2    1    2    0    0 -0.17232084919E+02 -0.35075313347E+02  0.22402931886E+02  0.46142315255E+02  0.99999771510E+01 0.  0.
         12    1    1    2    0    0  0.17232084919E+02  0.35075313347E+02 -0.22402931886E+02  0.45045684745E+02  0.00000000000E+00 0. -1.
         11    1    3    3    0    0 -0.46279883164E+00 -0.53734832001E+00 -0.55648352008E+00  0.90144336751E+00  0.51100000000E-03 0. -1.
        -11    1    3    3    0    0 -0.24032024838E+01 -0.11431753461E+02  0.83454164015E+01  0.14356404304E+02  0.51100000000E-03 0.  1.
        -12    1    3    3    0    0 -0.14366083604E+02 -0.23106211565E+02  0.14613999005E+02  0.30884467584E+02  0.00000000000E+00 0.  1.
</event>
<event>
 7    1  0.2425980E-008  0.4614232E+02  0.7816164E-02  0.1320468E+00
        -11   -1    0    0    0    0  0.00000000000E+00  0.00000000000E+00  0.45593999997E+02  0.45594000000E+02  0.51100000000E-03 0. -1.
         11   -1    0    0    0    0 -0.00000000000E+00 -0.00000000000E+00 -0.45593999997E+02  0.45594000000E+02  0.51100000000E-03 0.  1.
    9900012    2    1    2    0    0 -0.26339105550E+02 -0.35234075850E+02 -0.96914865231E+01  0.46142317707E+02  0.99999995098E+01 0.  0.
         12    1    1    2    0    0  0.26339105550E+02  0.35234075850E+02  0.96914865231E+01  0.45045682293E+02  0.00000000000E+00 0. -1.
         11    1    3    3    0    0 -0.95057458261E-02  0.15769929667E+00  0.17355521354E-01  0.15893678811E+00  0.51100000000E-03 0. -1.
        -11    1    3    3    0    0 -0.23082560378E+02 -0.25576861973E+02 -0.90654137195E+01  0.35625302639E+02  0.51100000000E-03 0.  1.
        -12    1    3    3    0    0 -0.32470394267E+01 -0.98149131737E+01 -0.64342832504E+00  0.10358078280E+02  0.00000000000E+00 0.  1.
</event>
<event>
 7    1  0.2425980E-008  0.4614232E+02  0.7816164E-02  0.1320468E+00
        -11   -1    0    0    0    0  0.00000000000E+00  0.00000000000E+00  0.45593999997E+02  0.45594000000E+02  0.51100000000E-03 0. -1.
         11   -1    0    0    0    0 -0.00000000000E+00 -0.00000000000E+00 -0.45593999997E+02  0.45594000000E+02  0.51100000000E-03 0.  1.
    9900012    2    1    2    0    0  0.43723584568E+02  0.72743739041E+00 -0.10808906574E+02  0.46142317922E+02  0.10000001463E+02 0.  0.
         12    1    1    2    0    0 -0.43723584568E+02 -0.72743739041E+00  0.10808906574E+02  0.45045682078E+02  0.00000000000E+00 0. -1.
         11    1    3    3    0    0  0.30182137627E+02 -0.15728476687E+01 -0.62947305510E+01  0.30871652280E+02  0.51100000000E-03 0. -1.
        -11    1    3    3    0    0  0.61681369680E+01 -0.12211142180E+01 -0.29741542187E+01  0.69557621557E+01  0.51100000000E-03 0.  1.
        -12    1    3    3    0    0  0.73733099724E+01  0.35213992771E+01 -0.15400218041E+01  0.83149034856E+01  0.00000000000E+00 0.  1.
</event>
<event>
 7    1  0.2425980E-008  0.4614232E+02  0.7816164E-02  0.1320468E+00
        -11   -1    0    0    0    0  0.00000000000E+00  0.00000000000E+00  0.45593999997E+02  0.45594000000E+02  0.51100000000E-03 0.  1.
         11   -1    0    0    0    0 -0.00000000000E+00 -0.00000000000E+00 -0.45593999997E+02  0.45594000000E+02  0.51100000000E-03 0. -1.
    9900012    2    1    2    0    0 -0.40431911500E+02 -0.20533759967E+01  0.19752410931E+02  0.46142316987E+02  0.99999929401E+01 0.  0.
         12    1    1    2    0    0  0.40431911500E+02  0.20533759967E+01 -0.19752410931E+02  0.45045683013E+02  0.00000000000E+00 0. -1.
         11    1    3    3    0    0 -0.30223713708E+00  0.57026636756E+00 -0.28831302776E+00  0.70687741519E+00  0.51100000000E-03 0. -1.
        -11    1    3    3    0    0 -0.12516638478E+02  0.21354247082E+01  0.51266668649E+01  0.13693392234E+02  0.51100000000E-03 0.  1.
         12    1    3    3    0    0 -0.27613035885E+02 -0.47590670724E+01  0.14914057093E+02  0.31742047337E+02  0.00000000000E+00 0. -1.
</event>
<event>
 7    1  0.2425980E-008  0.4614232E+02  0.7816164E-02  0.1320468E+00
        -11   -1    0    0    0    0  0.00000000000E+00  0.00000000000E+00  0.45593999997E+02  0.45594000000E+02  0.51100000000E-03 0. -1.
         11   -1    0    0    0    0 -0.00000000000E+00 -0.00000000000E+00 -0.45593999997E+02  0.45594000000E+02  0.51100000000E-03 0.  1.
    9900012    2    1    2    0    0 -0.39933301176E+02 -0.73792057417E+01 -0.19493383620E+02  0.46142320683E+02  0.10000026642E+02 0.  0.
         12    1    1    2    0    0  0.39933301176E+02  0.73792057417E+01  0.19493383620E+02  0.45045679317E+02  0.00000000000E+00 0. -1.
         11    1    3    3    0    0 -0.28076650103E+02 -0.42333609698E+01 -0.10322840545E+02  0.30212260149E+02  0.51100000000E-03 0. -1.
        -11    1    3    3    0    0 -0.12015364049E+02 -0.29628023986E+01 -0.80027631367E+01  0.14737414609E+02  0.51100000000E-03 0.  1.
         12    1    3    3    0    0  0.15871297603E+00 -0.18304237343E+00 -0.11677799374E+01  0.11926459246E+01  0.00000000000E+00 0. -1.
</event>
<event>
 7    1  0.2425980E-008  0.4614232E+02  0.7816164E-02  0.1320468E+00
        -11   -1    0    0    0    0  0.00000000000E+00  0.00000000000E+00  0.45593999997E+02  0.45594000000E+02  0.51100000000E-03 0. -1.
         11   -1    0    0    0    0 -0.00000000000E+00 -0.00000000000E+00 -0.45593999997E+02  0.45594000000E+02  0.51100000000E-03 0.  1.
    9900012    2    1    2    0    0  0.31243401826E+02 -0.31172642307E+02 -0.90127527283E+01  0.46142317656E+02  0.99999990432E+01 0.  0.
         12    1    1    2    0    0 -0.31243401826E+02  0.31172642307E+02  0.90127527283E+01  0.45045682344E+02  0.00000000000E+00 0. -1.
         11    1    3    3    0    0 -0.54708430639E+00 -0.68384867735E+00 -0.33085802152E+00  0.93617174884E+00  0.51100000000E-03 0. -1.
        -11    1    3    3    0    0  0.22732157087E+02 -0.18386784193E+02 -0.61913393593E+01  0.29885740448E+02  0.51100000000E-03 0.  1.
        -12    1    3    3    0    0  0.90583290450E+01 -0.12102009437E+02 -0.24905553475E+01  0.15320405459E+02  0.00000000000E+00 0.  1.
</event>
<event>
 7    1  0.2425980E-008  0.4614232E+02  0.7816164E-02  0.1320468E+00
        -11   -1    0    0    0    0  0.00000000000E+00  0.00000000000E+00  0.45593999997E+02  0.45594000000E+02  0.51100000000E-03 0. -1.
         11   -1    0    0    0    0 -0.00000000000E+00 -0.00000000000E+00 -0.45593999997E+02  0.45594000000E+02  0.51100000000E-03 0.  1.
    9900012    2    1    2    0    0 -0.24604591429E+02 -0.91519692775E+01 -0.36605586604E+02  0.46142318390E+02  0.10000005734E+02 0.  0.
         12    1    1    2    0    0  0.24604591429E+02  0.91519692775E+01  0.36605586604E+02  0.45045681610E+02  0.00000000000E+00 0. -1.
         11    1    3    3    0    0 -0.77850943216E+01  0.36646122976E+00 -0.98941953520E+01  0.12595121649E+02  0.51100000000E-03 0. -1.
        -11    1    3    3    0    0 -0.54254798409E+01 -0.51023143970E+01 -0.62881921925E+01  0.97473486150E+01  0.51100000000E-03 0.  1.
        -12    1    3    3    0    0 -0.11394017267E+02 -0.44161161102E+01 -0.20423199060E+02  0.23799848126E+02  0.00000000000E+00 0.  1.
</event>
<event>
 7    1  0.2425980E-008  0.4614232E+02  0.7816164E-02  0.1320468E+00
        -11   -1    0    0    0    0  0.00000000000E+00  0.00000000000E+00  0.45593999997E+02  0.45594000000E+02  0.51100000000E-03 0.  1.
         11   -1    0    0    0    0 -0.00000000000E+00 -0.00000000000E+00 -0.45593999997E+02  0.45594000000E+02  0.51100000000E-03 0. -1.
    9900012    2    1    2    0    0  0.35494218723E+02 -0.24964380079E+02  0.12085264024E+02  0.46142318275E+02  0.10000004690E+02 0.  0.
         12    1    1    2    0    0 -0.35494218723E+02  0.24964380079E+02 -0.12085264024E+02  0.45045681725E+02  0.00000000000E+00 0. -1.
         11    1    3    3    0    0  0.28739311644E+01 -0.44310641499E+01  0.14658248293E+01  0.54810995730E+01  0.51100000000E-03 0. -1.
        -11    1    3    3    0    0  0.59667250657E+01 -0.71213504872E+01  0.11762160089E+01  0.93647704260E+01  0.51100000000E-03 0.  1.
        -12    1    3    3    0    0  0.26653562493E+02 -0.13411965442E+02  0.94432231862E+01  0.31296448276E+02  0.00000000000E+00 0.  1.
</event>
<event>
 7    1  0.2425980E-008  0.4614232E+02  0.7816164E-02  0.1320468E+00
        -11   -1    0    0    0    0  0.00000000000E+00  0.00000000000E+00  0.45593999997E+02  0.45594000000E+02  0.51100000000E-03 0. -1.
         11   -1    0    0    0    0 -0.00000000000E+00 -0.00000000000E+00 -0.45593999997E+02  0.45594000000E+02  0.51100000000E-03 0.  1.
    9900012    2    1    2    0    0  0.49684653682E+00 -0.30432363466E+02 -0.33207497218E+02  0.46142317920E+02  0.10000001446E+02 0.  0.
         12    1    1    2    0    0 -0.49684653682E+00  0.30432363466E+02  0.33207497218E+02  0.45045682080E+02  0.00000000000E+00 0. -1.
         11    1    3    3    0    0  0.12659175028E+01 -0.46811088556E+01 -0.29984719047E+01  0.57014174787E+01  0.51100000000E-03 0. -1.
        -11    1    3    3    0    0  0.32369395180E+01 -0.10356074368E+02 -0.14215568183E+02  0.17883188552E+02  0.51100000000E-03 0.  1.
        -12    1    3    3    0    0 -0.40060104840E+01 -0.15395180242E+02 -0.15993457130E+02  0.22557711889E+02  0.00000000000E+00 0.  1.
</event>
<event>
 7    1  0.2425980E-008  0.4614232E+02  0.7816164E-02  0.1320468E+00
        -11   -1    0    0    0    0  0.00000000000E+00  0.00000000000E+00  0.45593999997E+02  0.45594000000E+02  0.51100000000E-03 0.  1.
         11   -1    0    0    0    0 -0.00000000000E+00 -0.00000000000E+00 -0.45593999997E+02  0.45594000000E+02  0.51100000000E-03 0. -1.
    9900012    2    1    2    0    0  0.17865884839E+02 -0.56386537301E+00  0.41347376944E+02  0.46142319126E+02  0.10000012450E+02 0.  0.
         12    1    1    2    0    0 -0.17865884839E+02  0.56386537301E+00 -0.41347376944E+02  0.45045680874E+02  0.00000000000E+00 0. -1.
         11    1    3    3    0    0 -0.21500001961E+00  0.18398202017E+01  0.63223922665E+01  0.65881566174E+01  0.51100000000E-03 0. -1.
        -11    1    3    3    0    0  0.11517033836E+02 -0.43322302266E+00  0.22095867817E+02  0.24921017744E+02  0.51100000000E-03 0.  1.
         12    1    3    3    0    0  0.65638510225E+01 -0.19704625521E+01  0.12929116861E+02  0.14633144765E+02  0.00000000000E+00 0. -1.
</event>
<event>
 7    1  0.2425980E-008  0.4614232E+02  0.7816164E-02  0.1320468E+00
        -11   -1    0    0    0    0  0.00000000000E+00  0.00000000000E+00  0.45593999997E+02  0.45594000000E+02  0.51100000000E-03 0.  1.
         11   -1    0    0    0    0 -0.00000000000E+00 -0.00000000000E+00 -0.45593999997E+02  0.45594000000E+02  0.51100000000E-03 0. -1.
    9900012    2    1    2    0    0  0.59004214093E+01  0.25173749352E+02  0.36886049962E+02  0.46142319730E+02  0.10000017950E+02 0.  0.
         12    1    1    2    0    0 -0.59004214093E+01 -0.25173749352E+02 -0.36886049962E+02  0.45045680270E+02  0.00000000000E+00 0. -1.
         11    1    3    3    0    0  0.81350501004E+01  0.21120174353E+02  0.29716156483E+02  0.37353591008E+02  0.51100000000E-03 0. -1.
        -11    1    3    3    0    0 -0.81824343597E+00  0.13238274688E+01  0.43358211996E+01  0.46066676919E+01  0.51100000000E-03 0.  1.
         12    1    3    3    0    0 -0.14163852552E+01  0.27297475303E+01  0.28340722794E+01  0.41820610296E+01  0.00000000000E+00 0. -1.
</event>
<event>
 7    1  0.2425980E-008  0.4614232E+02  0.7816164E-02  0.1320468E+00
        -11   -1    0    0    0    0  0.00000000000E+00  0.00000000000E+00  0.45593999997E+02  0.45594000000E+02  0.51100000000E-03 0.  1.
         11   -1    0    0    0    0 -0.00000000000E+00 -0.00000000000E+00 -0.45593999997E+02  0.45594000000E+02  0.51100000000E-03 0. -1.
    9900012    2    1    2    0    0 -0.43763491243E+02 -0.83179538296E+01  0.66844756625E+01  0.46142315006E+02  0.99999748806E+01 0.  0.
         12    1    1    2    0    0  0.43763491243E+02  0.83179538296E+01 -0.66844756625E+01  0.45045684994E+02  0.00000000000E+00 0. -1.
         11    1    3    3    0    0 -0.12870475189E+02  0.12912179208E+00  0.90184221422E+00  0.12902678934E+02  0.51100000000E-03 0. -1.
        -11    1    3    3    0    0 -0.30686352261E+02 -0.73022338506E+01  0.58201968916E+01  0.32075684349E+02  0.51100000000E-03 0.  1.
        -12    1    3    3    0    0 -0.20666379246E+00 -0.11448417710E+01 -0.37563443362E-01  0.11639517241E+01  0.00000000000E+00 0.  1.
</event>
<event>
 7    1  0.2425980E-008  0.4614232E+02  0.7816164E-02  0.1320468E+00
        -11   -1    0    0    0    0  0.00000000000E+00  0.00000000000E+00  0.45593999997E+02  0.45594000000E+02  0.51100000000E-03 0.  1.
         11   -1    0    0    0    0 -0.00000000000E+00 -0.00000000000E+00 -0.45593999997E+02  0.45594000000E+02  0.51100000000E-03 0. -1.
    9900012    2    1    2    0    0  0.19987577531E+02 -0.35757844779E+02 -0.18734642477E+02  0.46142317105E+02  0.99999940134E+01 0.  0.
         12    1    1    2    0    0 -0.19987577531E+02  0.35757844779E+02  0.18734642477E+02  0.45045682895E+02  0.00000000000E+00 0. -1.
         11    1    3    3    0    0  0.17795221766E+02 -0.27968640822E+02 -0.13161092265E+02  0.35666919365E+02  0.51100000000E-03 0.  1.
        -11    1    3    3    0    0 -0.24892931036E-01 -0.58074834233E+01 -0.29698382215E+01  0.65228385457E+01  0.51100000000E-03 0. -1.
        -12    1    3    3    0    0  0.22172486953E+01 -0.19817205337E+01 -0.26037119904E+01  0.39525591937E+01  0.00000000000E+00 0.  1.
</event>
<event>
 7    1  0.2425980E-008  0.4614232E+02  0.7816164E-02  0.1320468E+00
        -11   -1    0    0    0    0  0.00000000000E+00  0.00000000000E+00  0.45593999997E+02  0.45594000000E+02  0.51100000000E-03 0. -1.
         11   -1    0    0    0    0 -0.00000000000E+00 -0.00000000000E+00 -0.45593999997E+02  0.45594000000E+02  0.51100000000E-03 0.  1.
    9900012    2    1    2    0    0  0.23039698765E+02 -0.38309312340E+02  0.55391628680E+01  0.46142318116E+02  0.10000003234E+02 0.  0.
         12    1    1    2    0    0 -0.23039698765E+02  0.38309312340E+02 -0.55391628680E+01  0.45045681884E+02  0.00000000000E+00 0. -1.
         11    1    3    3    0    0  0.19930721219E+00 -0.46935444497E+01  0.18004493146E+01  0.50309741464E+01  0.51100000000E-03 0. -1.
        -11    1    3    3    0    0  0.71048376407E+01 -0.12548027340E+02  0.33922921968E+01  0.14813485567E+02  0.51100000000E-03 0.  1.
         12    1    3    3    0    0  0.15735553912E+02 -0.21067740550E+02  0.34642135657E+00  0.26297858402E+02  0.00000000000E+00 0. -1.
</event>
<event>
 7    1  0.2425980E-008  0.4614231E+02  0.7816164E-02  0.1320468E+00
        -11   -1    0    0    0    0  0.00000000000E+00  0.00000000000E+00  0.45593999997E+02  0.45594000000E+02  0.51100000000E-03 0. -1.
         11   -1    0    0    0    0 -0.00000000000E+00 -0.00000000000E+00 -0.45593999997E+02  0.45594000000E+02  0.51100000000E-03 0.  1.
    9900012    2    1    2    0    0 -0.36067012338E+02 -0.25157571406E+02 -0.97663434764E+01  0.46142309386E+02  0.99999236263E+01 0.  0.
         12    1    1    2    0    0  0.36067012338E+02  0.25157571406E+02  0.97663434764E+01  0.45045690614E+02  0.00000000000E+00 0. -1.
         11    1    3    3    0    0 -0.26182220653E+01  0.47425745429E-01  0.75931037419E+00  0.27265158151E+01  0.51100000000E-03 0. -1.
        -11    1    3    3    0    0 -0.12605686954E+01 -0.19362569244E+01 -0.12588263438E+01  0.26311154171E+01  0.51100000000E-03 0.  1.
        -12    1    3    3    0    0 -0.32188221577E+02 -0.23268740227E+02 -0.92668275067E+01  0.40784678153E+02  0.00000000000E+00 0.  1.
</event>
<event>
 7    1  0.2425980E-008  0.4614232E+02  0.7816164E-02  0.1320468E+00
        -11   -1    0    0    0    0  0.00000000000E+00  0.00000000000E+00  0.45593999997E+02  0.45594000000E+02  0.51100000000E-03 0.  1.
         11   -1    0    0    0    0 -0.00000000000E+00 -0.00000000000E+00 -0.45593999997E+02  0.45594000000E+02  0.51100000000E-03 0. -1.
    9900012    2    1    2    0    0 -0.21836451855E+02  0.73927178356E+00  0.39392085350E+02  0.46142317181E+02  0.99999947123E+01 0.  0.
         12    1    1    2    0    0  0.21836451855E+02 -0.73927178356E+00 -0.39392085350E+02  0.45045682819E+02  0.00000000000E+00 0. -1.
         11    1    3    3    0    0 -0.85172888738E+01  0.19211133661E+01  0.10286030867E+02  0.13492120574E+02  0.51100000000E-03 0. -1.
        -11    1    3    3    0    0 -0.40618307431E+01  0.47661057035E+00  0.35392725302E+01  0.54085189216E+01  0.51100000000E-03 0.  1.
        -12    1    3    3    0    0 -0.92573322384E+01 -0.16584521529E+01  0.25566781952E+02  0.27241677685E+02  0.00000000000E+00 0.  1.
</event>
<event>
 7    1  0.2425980E-008  0.4614232E+02  0.7816164E-02  0.1320468E+00
        -11   -1    0    0    0    0  0.00000000000E+00  0.00000000000E+00  0.45593999997E+02  0.45594000000E+02  0.51100000000E-03 0.  1.
         11   -1    0    0    0    0 -0.00000000000E+00 -0.00000000000E+00 -0.45593999997E+02  0.45594000000E+02  0.51100000000E-03 0. -1.
    9900012    2    1    2    0    0  0.35635037911E+01 -0.86649977913E+01  0.44060558087E+02  0.46142317355E+02  0.99999962961E+01 0.  0.
         12    1    1    2    0    0 -0.35635037911E+01  0.86649977913E+01 -0.44060558087E+02  0.45045682645E+02  0.00000000000E+00 0. -1.
         11    1    3    3    0    0  0.21468035836E+01 -0.15503806701E+01  0.27211770220E+01  0.37970054642E+01  0.51100000000E-03 0. -1.
        -11    1    3    3    0    0  0.18337287241E+01 -0.79903519932E+01  0.36431816591E+02  0.37342811174E+02  0.51100000000E-03 0.  1.
         12    1    3    3    0    0 -0.41702851655E+00  0.87573487200E+00  0.49075644740E+01  0.50025007163E+01  0.00000000000E+00 0. -1.
</event>
<event>
 7    1  0.2425980E-008  0.4614232E+02  0.7816164E-02  0.1320468E+00
        -11   -1    0    0    0    0  0.00000000000E+00  0.00000000000E+00  0.45593999997E+02  0.45594000000E+02  0.51100000000E-03 0. -1.
         11   -1    0    0    0    0 -0.00000000000E+00 -0.00000000000E+00 -0.45593999997E+02  0.45594000000E+02  0.51100000000E-03 0.  1.
    9900012    2    1    2    0    0 -0.26173808918E+01  0.37957886949E+02 -0.24113516692E+02  0.46142317059E+02  0.99999935972E+01 0.  0.
         12    1    1    2    0    0  0.26173808918E+01 -0.37957886949E+02  0.24113516692E+02  0.45045682941E+02  0.00000000000E+00 0. -1.
         11    1    3    3    0    0 -0.25501359942E+01  0.11950234311E+02 -0.11156348623E+02  0.16546159933E+02  0.51100000000E-03 0. -1.
        -11    1    3    3    0    0 -0.14598505523E+01  0.22418673013E+02 -0.12526666144E+02  0.25722469327E+02  0.51100000000E-03 0.  1.
         12    1    3    3    0    0  0.13926056547E+01  0.35889796249E+01 -0.43050192472E+00  0.38736877991E+01  0.00000000000E+00 0. -1.
</event>
<event>
 7    1  0.2425980E-008  0.4614232E+02  0.7816164E-02  0.1320468E+00
        -11   -1    0    0    0    0  0.00000000000E+00  0.00000000000E+00  0.45593999997E+02  0.45594000000E+02  0.51100000000E-03 0.  1.
         11   -1    0    0    0    0 -0.00000000000E+00 -0.00000000000E+00 -0.45593999997E+02  0.45594000000E+02  0.51100000000E-03 0. -1.
    9900012    2    1    2    0    0  0.33229003317E+01 -0.36586790999E+02  0.26066809761E+02  0.46142317484E+02  0.99999974735E+01 0.  0.
         12    1    1    2    0    0 -0.33229003317E+01  0.36586790999E+02 -0.26066809761E+02  0.45045682516E+02  0.00000000000E+00 0. -1.
         11    1    3    3    0    0  0.67092615571E+00 -0.93344065397E+01  0.31372672582E+01  0.98703461674E+01  0.51100000000E-03 0. -1.
        -11    1    3    3    0    0  0.24508779067E+01 -0.19162879081E+02  0.12259400811E+02  0.22880464281E+02  0.51100000000E-03 0.  1.
        -12    1    3    3    0    0  0.20109626936E+00 -0.80895053779E+01  0.10670141692E+02  0.13391507036E+02  0.00000000000E+00 0.  1.
</event>
<event>
 7    1  0.2425980E-008  0.4614232E+02  0.7816164E-02  0.1320468E+00
        -11   -1    0    0    0    0  0.00000000000E+00  0.00000000000E+00  0.45593999997E+02  0.45594000000E+02  0.51100000000E-03 0. -1.
         11   -1    0    0    0    0 -0.00000000000E+00 -0.00000000000E+00 -0.45593999997E+02  0.45594000000E+02  0.51100000000E-03 0.  1.
    9900012    2    1    2    0    0  0.13422153348E+02 -0.34135057620E+02 -0.26148749753E+02  0.46142317933E+02  0.10000001571E+02 0.  0.
         12    1    1    2    0    0 -0.13422153348E+02  0.34135057620E+02  0.26148749753E+02  0.45045682067E+02  0.00000000000E+00 0. -1.
         11    1    3    3    0    0 -0.78129074821E+00 -0.13670260904E+01 -0.28273974655E+01  0.32362559006E+01  0.51100000000E-03 0. -1.
        -11    1    3    3    0    0  0.87952059710E+01 -0.25151525995E+02 -0.16514266036E+02  0.31347661650E+02  0.51100000000E-03 0.  1.
         12    1    3    3    0    0  0.54082381253E+01 -0.76165055344E+01 -0.68070862512E+01  0.11558400383E+02  0.00000000000E+00 0. -1.
</event>
<event>
 7    1  0.2425980E-008  0.4614232E+02  0.7816164E-02  0.1320468E+00
        -11   -1    0    0    0    0  0.00000000000E+00  0.00000000000E+00  0.45593999997E+02  0.45594000000E+02  0.51100000000E-03 0. -1.
         11   -1    0    0    0    0 -0.00000000000E+00 -0.00000000000E+00 -0.45593999997E+02  0.45594000000E+02  0.51100000000E-03 0.  1.
    9900012    2    1    2    0    0  0.36528652270E+02 -0.14383869079E+02 -0.22087903044E+02  0.46142316664E+02  0.99999899919E+01 0.  0.
         12    1    1    2    0    0 -0.36528652270E+02  0.14383869079E+02  0.22087903044E+02  0.45045683336E+02  0.00000000000E+00 0. -1.
         11    1    3    3    0    0  0.96810276144E+01 -0.69654052930E+01 -0.89340484166E+01  0.14901556561E+02  0.51100000000E-03 0. -1.
        -11    1    3    3    0    0  0.55789952700E+01 -0.37890902498E+01 -0.26831941579E+01  0.72582314853E+01  0.51100000000E-03 0.  1.
        -12    1    3    3    0    0  0.21268629386E+02 -0.36293735363E+01 -0.10470660470E+02  0.23982528617E+02  0.00000000000E+00 0.  1.
</event>
<event>
 7    1  0.2425980E-008  0.4614232E+02  0.7816164E-02  0.1320468E+00
        -11   -1    0    0    0    0  0.00000000000E+00  0.00000000000E+00  0.45593999997E+02  0.45594000000E+02  0.51100000000E-03 0.  1.
         11   -1    0    0    0    0 -0.00000000000E+00 -0.00000000000E+00 -0.45593999997E+02  0.45594000000E+02  0.51100000000E-03 0. -1.
    9900012    2    1    2    0    0  0.42460157123E+02  0.11072108959E+02  0.10181208781E+02  0.46142317055E+02  0.99999935620E+01 0.  0.
         12    1    1    2    0    0 -0.42460157123E+02 -0.11072108959E+02 -0.10181208781E+02  0.45045682945E+02  0.00000000000E+00 0. -1.
         11    1    3    3    0    0  0.88611707809E+01  0.40994741448E+01  0.45998650973E+01  0.10792812194E+02  0.51100000000E-03 0. -1.
        -11    1    3    3    0    0  0.14673639500E+02  0.40530034978E+00  0.42059514514E+01  0.15269904794E+02  0.51100000000E-03 0.  1.
         12    1    3    3    0    0  0.18925346842E+02  0.65673344644E+01  0.13753922322E+01  0.20079600067E+02  0.00000000000E+00 0. -1.
</event>
<event>
 7    1  0.2425980E-008  0.4614232E+02  0.7816164E-02  0.1320468E+00
        -11   -1    0    0    0    0  0.00000000000E+00  0.00000000000E+00  0.45593999997E+02  0.45594000000E+02  0.51100000000E-03 0.  1.
         11   -1    0    0    0    0 -0.00000000000E+00 -0.00000000000E+00 -0.45593999997E+02  0.45594000000E+02  0.51100000000E-03 0. -1.
    9900012    2    1    2    0    0 -0.31554228183E+02  0.46049918359E+01  0.31815691024E+02  0.46142318061E+02  0.10000002734E+02 0.  0.
         12    1    1    2    0    0  0.31554228183E+02 -0.46049918359E+01 -0.31815691024E+02  0.45045681939E+02  0.00000000000E+00 0. -1.
         11    1    3    3    0    0 -0.24184029397E+01 -0.11059811109E+01  0.30077720935E+00  0.26762537598E+01  0.51100000000E-03 0. -1.
        -11    1    3    3    0    0 -0.14364297989E+01 -0.24102245660E+00  0.26273115803E+01  0.30040287603E+01  0.51100000000E-03 0.  1.
         12    1    3    3    0    0 -0.27699395444E+02  0.59519954034E+01  0.28887602234E+02  0.40462035541E+02  0.00000000000E+00 0. -1.
</event>
<event>
 7    1  0.2425980E-008  0.4614232E+02  0.7816164E-02  0.1320468E+00
        -11   -1    0    0    0    0  0.00000000000E+00  0.00000000000E+00  0.45593999997E+02  0.45594000000E+02  0.51100000000E-03 0.  1.
         11   -1    0    0    0    0 -0.00000000000E+00 -0.00000000000E+00 -0.45593999997E+02  0.45594000000E+02  0.51100000000E-03 0. -1.
    9900012    2    1    2    0    0 -0.27810978595E+02 -0.20911835573E+02  0.28606959179E+02  0.46142317511E+02  0.99999977182E+01 0.  0.
         12    1    1    2    0    0  0.27810978595E+02  0.20911835573E+02 -0.28606959179E+02  0.45045682489E+02  0.00000000000E+00 0. -1.
         11    1    3    3    0    0 -0.47504679102E+01 -0.52127649175E+01  0.18174108432E+01  0.72830519623E+01  0.51100000000E-03 0. -1.
        -11    1    3    3    0    0 -0.19292915531E+02 -0.14234243270E+02  0.24157859285E+02  0.34035752330E+02  0.51100000000E-03 0.  1.
        -12    1    3    3    0    0 -0.37675951541E+01 -0.14648273863E+01  0.26316890500E+01  0.48235132189E+01  0.00000000000E+00 0.  1.
</event>
<event>
 7    1  0.2425980E-008  0.4614233E+02  0.7816164E-02  0.1320468E+00
        -11   -1    0    0    0    0  0.00000000000E+00  0.00000000000E+00  0.45593999997E+02  0.45594000000E+02  0.51100000000E-03 0. -1.
         11   -1    0    0    0    0 -0.00000000000E+00 -0.00000000000E+00 -0.45593999997E+02  0.45594000000E+02  0.51100000000E-03 0.  1.
    9900012    2    1    2    0    0  0.20899019368E+02 -0.39903826444E+02 -0.16762422897E+00  0.46142329028E+02  0.10000102738E+02 0.  0.
         12    1    1    2    0    0 -0.20899019368E+02  0.39903826444E+02  0.16762422897E+00  0.45045670972E+02  0.00000000000E+00 0. -1.
         11    1    3    3    0    0  0.31868882699E+01 -0.82978688401E+01 -0.17616462612E+00  0.88905521970E+01  0.51100000000E-03 0. -1.
        -11    1    3    3    0    0  0.16058663498E+02 -0.28332870740E+02 -0.27203876108E+01  0.32680770289E+02  0.51100000000E-03 0.  1.
         12    1    3    3    0    0  0.16534676007E+01 -0.32730868647E+01  0.27289280080E+01  0.45710065416E+01  0.00000000000E+00 0. -1.
</event>
<event>
 7    1  0.2425980E-008  0.4614232E+02  0.7816164E-02  0.1320468E+00
        -11   -1    0    0    0    0  0.00000000000E+00  0.00000000000E+00  0.45593999997E+02  0.45594000000E+02  0.51100000000E-03 0. -1.
         11   -1    0    0    0    0 -0.00000000000E+00 -0.00000000000E+00 -0.45593999997E+02  0.45594000000E+02  0.51100000000E-03 0.  1.
    9900012    2    1    2    0    0 -0.12056660221E+02  0.18379503502E+02 -0.39318497353E+02  0.46142318312E+02  0.10000005023E+02 0.  0.
         12    1    1    2    0    0  0.12056660221E+02 -0.18379503502E+02  0.39318497353E+02  0.45045681688E+02  0.00000000000E+00 0. -1.
         11    1    3    3    0    0 -0.14597897332E+00  0.58614548254E+01 -0.89475112032E+01  0.10697472576E+02  0.51100000000E-03 0. -1.
        -11    1    3    3    0    0 -0.90405479074E+01  0.12431047919E+02 -0.24792509401E+02  0.29170721305E+02  0.51100000000E-03 0.  1.
        -12    1    3    3    0    0 -0.28701333400E+01  0.87000756764E-01 -0.55784767493E+01  0.62741244301E+01  0.00000000000E+00 0.  1.
</event>
<event>
 7    1  0.2425980E-008  0.4614232E+02  0.7816164E-02  0.1320468E+00
        -11   -1    0    0    0    0  0.00000000000E+00  0.00000000000E+00  0.45593999997E+02  0.45594000000E+02  0.51100000000E-03 0. -1.
         11   -1    0    0    0    0 -0.00000000000E+00 -0.00000000000E+00 -0.45593999997E+02  0.45594000000E+02  0.51100000000E-03 0.  1.
    9900012    2    1    2    0    0 -0.35701287326E+02 -0.25306435783E+02 -0.10682500414E+02  0.46142318477E+02  0.10000006528E+02 0.  0.
         12    1    1    2    0    0  0.35701287326E+02  0.25306435783E+02  0.10682500414E+02  0.45045681523E+02  0.00000000000E+00 0. -1.
         11    1    3    3    0    0 -0.11062509557E+02 -0.43827755034E+01 -0.24114815792E+01  0.12140967115E+02  0.51100000000E-03 0. -1.
        -11    1    3    3    0    0 -0.13692511194E+02 -0.11575711560E+02 -0.79232248371E+01  0.19602536902E+02  0.51100000000E-03 0.  1.
        -12    1    3    3    0    0 -0.10946266575E+02 -0.93479487193E+01 -0.34779399728E+00  0.14398814460E+02  0.00000000000E+00 0.  1.
</event>
<event>
 7    1  0.2425980E-008  0.4614232E+02  0.7816164E-02  0.1320468E+00
        -11   -1    0    0    0    0  0.00000000000E+00  0.00000000000E+00  0.45593999997E+02  0.45594000000E+02  0.51100000000E-03 0. -1.
         11   -1    0    0    0    0 -0.00000000000E+00 -0.00000000000E+00 -0.45593999997E+02  0.45594000000E+02  0.51100000000E-03 0.  1.
    9900012    2    1    2    0    0  0.72726530850E+01 -0.43308749635E+02  0.10028659404E+02  0.46142319993E+02  0.10000020349E+02 0.  0.
         12    1    1    2    0    0 -0.72726530850E+01  0.43308749635E+02 -0.10028659404E+02  0.45045680007E+02  0.00000000000E+00 0. -1.
         11    1    3    3    0    0  0.15028556071E+01 -0.66918235838E+01 -0.50663857591E+00  0.68771913425E+01  0.51100000000E-03 0. -1.
        -11    1    3    3    0    0  0.76040372611E+01 -0.30358851031E+02  0.84248082827E+01  0.32410779278E+02  0.51100000000E-03 0.  1.
         12    1    3    3    0    0 -0.18342397832E+01 -0.62580750208E+01  0.21104896974E+01  0.68543493718E+01  0.00000000000E+00 0. -1.
</event>
<event>
 7    1  0.2425980E-008  0.4614232E+02  0.7816164E-02  0.1320468E+00
        -11   -1    0    0    0    0  0.00000000000E+00  0.00000000000E+00  0.45593999997E+02  0.45594000000E+02  0.51100000000E-03 0. -1.
         11   -1    0    0    0    0 -0.00000000000E+00 -0.00000000000E+00 -0.45593999997E+02  0.45594000000E+02  0.51100000000E-03 0.  1.
    9900012    2    1    2    0    0  0.19124029623E+01  0.70512710013E+00 -0.44999542857E+02  0.46142319334E+02  0.10000014347E+02 0.  0.
         12    1    1    2    0    0 -0.19124029623E+01 -0.70512710013E+00  0.44999542857E+02  0.45045680666E+02  0.00000000000E+00 0. -1.
         11    1    3    3    0    0 -0.56813028278E-01  0.29175565420E+01 -0.12228334758E+02  0.12571695793E+02  0.51100000000E-03 0. -1.
        -11    1    3    3    0    0 -0.14410837776E+01 -0.31394187838E+01 -0.20935096995E+02  0.21218175209E+02  0.51100000000E-03 0.  1.
        -12    1    3    3    0    0  0.34102997682E+01  0.92698934191E+00 -0.11836111104E+02  0.12352448333E+02  0.00000000000E+00 0.  1.
</event>
<event>
 7    1  0.2425980E-008  0.4614232E+02  0.7816164E-02  0.1320468E+00
        -11   -1    0    0    0    0  0.00000000000E+00  0.00000000000E+00  0.45593999997E+02  0.45594000000E+02  0.51100000000E-03 0.  1.
         11   -1    0    0    0    0 -0.00000000000E+00 -0.00000000000E+00 -0.45593999997E+02  0.45594000000E+02  0.51100000000E-03 0. -1.
    9900012    2    1    2    0    0 -0.43207070600E+02  0.25694254056E+01  0.12476400119E+02  0.46142318113E+02  0.10000003205E+02 0.  0.
         12    1    1    2    0    0  0.43207070600E+02 -0.25694254056E+01 -0.12476400119E+02  0.45045681887E+02  0.00000000000E+00 0. -1.
         11    1    3    3    0    0 -0.39308104696E+01 -0.29411434176E+00 -0.80503570142E+00  0.40231650396E+01  0.51100000000E-03 0. -1.
        -11    1    3    3    0    0 -0.15861577174E+02  0.39124421632E+01  0.34211011069E+01  0.16691338088E+02  0.51100000000E-03 0.  1.
         12    1    3    3    0    0 -0.23414682957E+02 -0.10489024159E+01  0.98603347138E+01  0.25427814985E+02  0.00000000000E+00 0. -1.
</event>
<event>
 7    1  0.2425980E-008  0.4614232E+02  0.7816164E-02  0.1320468E+00
        -11   -1    0    0    0    0  0.00000000000E+00  0.00000000000E+00  0.45593999997E+02  0.45594000000E+02  0.51100000000E-03 0.  1.
         11   -1    0    0    0    0 -0.00000000000E+00 -0.00000000000E+00 -0.45593999997E+02  0.45594000000E+02  0.51100000000E-03 0. -1.
    9900012    2    1    2    0    0  0.85800347501E+01  0.34446878210E+02 -0.27729209609E+02  0.46142317851E+02  0.10000000820E+02 0.  0.
         12    1    1    2    0    0 -0.85800347501E+01 -0.34446878210E+02  0.27729209609E+02  0.45045682149E+02  0.00000000000E+00 0. -1.
         11    1    3    3    0    0  0.34304383987E+01  0.47025231958E+01 -0.58090739393E+01  0.82235620207E+01  0.51100000000E-03 0. -1.
        -11    1    3    3    0    0  0.47054606681E+00  0.19689093113E+02 -0.15816505008E+02  0.25259525573E+02  0.51100000000E-03 0.  1.
         12    1    3    3    0    0  0.46790502846E+01  0.10055261901E+02 -0.61036306610E+01  0.12659230258E+02  0.00000000000E+00 0. -1.
</event>
<event>
 7    1  0.2425980E-008  0.4614232E+02  0.7816164E-02  0.1320468E+00
        -11   -1    0    0    0    0  0.00000000000E+00  0.00000000000E+00  0.45593999997E+02  0.45594000000E+02  0.51100000000E-03 0. -1.
         11   -1    0    0    0    0 -0.00000000000E+00 -0.00000000000E+00 -0.45593999997E+02  0.45594000000E+02  0.51100000000E-03 0.  1.
    9900012    2    1    2    0    0  0.20238405263E+02 -0.36450365799E+02 -0.17055534842E+02  0.46142317818E+02  0.10000000518E+02 0.  0.
         12    1    1    2    0    0 -0.20238405263E+02  0.36450365799E+02  0.17055534842E+02  0.45045682182E+02  0.00000000000E+00 0. -1.
         11    1    3    3    0    0  0.14075169247E+02 -0.18014691848E+02 -0.94309643877E+01  0.24730196143E+02  0.51100000000E-03 0.  1.
        -11    1    3    3    0    0  0.31776621550E+01 -0.75375398625E+01 -0.56491153479E+01  0.99410536878E+01  0.51100000000E-03 0. -1.
         12    1    3    3    0    0  0.29855738612E+01 -0.10898134088E+02 -0.19754551069E+01  0.11471067987E+02  0.00000000000E+00 0. -1.
</event>
<event>
 7    1  0.2425980E-008  0.4614232E+02  0.7816164E-02  0.1320468E+00
        -11   -1    0    0    0    0  0.00000000000E+00  0.00000000000E+00  0.45593999997E+02  0.45594000000E+02  0.51100000000E-03 0. -1.
         11   -1    0    0    0    0 -0.00000000000E+00 -0.00000000000E+00 -0.45593999997E+02  0.45594000000E+02  0.51100000000E-03 0.  1.
    9900012    2    1    2    0    0 -0.29687420450E+02 -0.32518832186E+02 -0.95024285659E+01  0.46142317317E+02  0.99999959497E+01 0.  0.
         12    1    1    2    0    0  0.29687420450E+02  0.32518832186E+02  0.95024285659E+01  0.45045682683E+02  0.00000000000E+00 0. -1.
         11    1    3    3    0    0 -0.20829289599E+02 -0.21147811848E+02 -0.95368485198E+01  0.31177567754E+02  0.51100000000E-03 0. -1.
        -11    1    3    3    0    0 -0.20915530972E+01 -0.38988894458E+01 -0.16927269252E+01  0.47372204903E+01  0.51100000000E-03 0.  1.
         12    1    3    3    0    0 -0.67665777546E+01 -0.74721308924E+01  0.17271468791E+01  0.10227529072E+02  0.00000000000E+00 0. -1.
</event>
<event>
 7    1  0.2425980E-008  0.4614232E+02  0.7816164E-02  0.1320468E+00
        -11   -1    0    0    0    0  0.00000000000E+00  0.00000000000E+00  0.45593999997E+02  0.45594000000E+02  0.51100000000E-03 0. -1.
         11   -1    0    0    0    0 -0.00000000000E+00 -0.00000000000E+00 -0.45593999997E+02  0.45594000000E+02  0.51100000000E-03 0.  1.
    9900012    2    1    2    0    0  0.41265329791E+01  0.29927536021E+02 -0.33412988726E+02  0.46142317607E+02  0.99999985902E+01 0.  0.
         12    1    1    2    0    0 -0.41265329791E+01 -0.29927536021E+02  0.33412988726E+02  0.45045682393E+02  0.00000000000E+00 0. -1.
         11    1    3    3    0    0 -0.16189372491E+01  0.28534688917E+01 -0.32647479039E+01  0.46283713842E+01  0.51100000000E-03 0. -1.
        -11    1    3    3    0    0  0.37125599234E+01  0.21579998899E+02 -0.19315899200E+02  0.29199031077E+02  0.51100000000E-03 0.  1.
         12    1    3    3    0    0  0.20329103047E+01  0.54940682301E+01 -0.10832341622E+02  0.12314915146E+02  0.00000000000E+00 0. -1.
</event>
<event>
 7    1  0.2425980E-008  0.4614232E+02  0.7816164E-02  0.1320468E+00
        -11   -1    0    0    0    0  0.00000000000E+00  0.00000000000E+00  0.45593999997E+02  0.45594000000E+02  0.51100000000E-03 0.  1.
         11   -1    0    0    0    0 -0.00000000000E+00 -0.00000000000E+00 -0.45593999997E+02  0.45594000000E+02  0.51100000000E-03 0. -1.
    9900012    2    1    2    0    0 -0.24614982411E+02  0.33579966633E+02  0.17193084629E+02  0.46142315665E+02  0.99999808890E+01 0.  0.
         12    1    1    2    0    0  0.24614982411E+02 -0.33579966633E+02 -0.17193084629E+02  0.45045684335E+02  0.00000000000E+00 0. -1.
         11    1    3    3    0    0  0.23985590319E+00  0.17813699578E+00 -0.25650629935E+00  0.39377580714E+00  0.51100000000E-03 0. -1.
        -11    1    3    3    0    0 -0.65618021407E+01  0.96979665786E+01  0.14460457816E+01  0.11798256302E+02  0.51100000000E-03 0.  1.
        -12    1    3    3    0    0 -0.18293036173E+02  0.23703863058E+02  0.16003545147E+02  0.33950283557E+02  0.00000000000E+00 0.  1.
</event>
<event>
 7    1  0.2425980E-008  0.4614232E+02  0.7816164E-02  0.1320468E+00
        -11   -1    0    0    0    0  0.00000000000E+00  0.00000000000E+00  0.45593999997E+02  0.45594000000E+02  0.51100000000E-03 0. -1.
         11   -1    0    0    0    0 -0.00000000000E+00 -0.00000000000E+00 -0.45593999997E+02  0.45594000000E+02  0.51100000000E-03 0.  1.
    9900012    2    1    2    0    0 -0.34549738060E+02 -0.28481581879E+02  0.49222508195E+01  0.46142318082E+02  0.10000002922E+02 0.  0.
         12    1    1    2    0    0  0.34549738060E+02  0.28481581879E+02 -0.49222508195E+01  0.45045681918E+02  0.00000000000E+00 0. -1.
         11    1    3    3    0    0 -0.70417996776E+01 -0.10232003768E+02  0.24827230587E+01  0.12666679038E+02  0.51100000000E-03 0. -1.
        -11    1    3    3    0    0 -0.84282827866E+01 -0.29572715465E+01  0.45949320949E+00  0.89438548736E+01  0.51100000000E-03 0.  1.
         12    1    3    3    0    0 -0.19079655596E+02 -0.15292306565E+02  0.19800345513E+01  0.24531784170E+02  0.00000000000E+00 0. -1.
</event>
<event>
 7    1  0.2425980E-008  0.4614232E+02  0.7816164E-02  0.1320468E+00
        -11   -1    0    0    0    0  0.00000000000E+00  0.00000000000E+00  0.45593999997E+02  0.45594000000E+02  0.51100000000E-03 0.  1.
         11   -1    0    0    0    0 -0.00000000000E+00 -0.00000000000E+00 -0.45593999997E+02  0.45594000000E+02  0.51100000000E-03 0. -1.
    9900012    2    1    2    0    0 -0.43159710459E+02 -0.11145702135E+02  0.64904792372E+01  0.46142316481E+02  0.99999883259E+01 0.  0.
         12    1    1    2    0    0  0.43159710459E+02  0.11145702135E+02 -0.64904792372E+01  0.45045683519E+02  0.00000000000E+00 0. -1.
         11    1    3    3    0    0 -0.18086688665E+02 -0.77981582160E+01  0.44747296906E+01  0.20198088634E+02  0.51100000000E-03 0. -1.
        -11    1    3    3    0    0 -0.37467443576E+01  0.27948252689E+00  0.21148899474E+01  0.43114920288E+01  0.51100000000E-03 0.  1.
         12    1    3    3    0    0 -0.21326277436E+02 -0.36270264460E+01 -0.99140400775E-01  0.21632735818E+02  0.00000000000E+00 0. -1.
</event>
<event>
 7    1  0.2425980E-008  0.4614232E+02  0.7816164E-02  0.1320468E+00
        -11   -1    0    0    0    0  0.00000000000E+00  0.00000000000E+00  0.45593999997E+02  0.45594000000E+02  0.51100000000E-03 0. -1.
         11   -1    0    0    0    0 -0.00000000000E+00 -0.00000000000E+00 -0.45593999997E+02  0.45594000000E+02  0.51100000000E-03 0.  1.
    9900012    2    1    2    0    0  0.42191800366E+02  0.95253302307E+01 -0.12579091734E+02  0.46142317820E+02  0.10000000540E+02 0.  0.
         12    1    1    2    0    0 -0.42191800366E+02 -0.95253302307E+01  0.12579091734E+02  0.45045682180E+02  0.00000000000E+00 0. -1.
         11    1    3    3    0    0  0.13134646826E+02 -0.36703674063E+00 -0.12737692520E+01  0.13201369307E+02  0.51100000000E-03 0. -1.
        -11    1    3    3    0    0  0.78427174286E+01  0.37301289220E+01 -0.16885477004E+01  0.88472183220E+01  0.51100000000E-03 0.  1.
        -12    1    3    3    0    0  0.21214436112E+02  0.61622380493E+01 -0.96167747821E+01  0.24093730192E+02  0.00000000000E+00 0.  1.
</event>
<event>
 7    1  0.2425980E-008  0.4614232E+02  0.7816164E-02  0.1320468E+00
        -11   -1    0    0    0    0  0.00000000000E+00  0.00000000000E+00  0.45593999997E+02  0.45594000000E+02  0.51100000000E-03 0.  1.
         11   -1    0    0    0    0 -0.00000000000E+00 -0.00000000000E+00 -0.45593999997E+02  0.45594000000E+02  0.51100000000E-03 0. -1.
    9900012    2    1    2    0    0  0.29859560003E+02  0.13898275554E+02  0.30730408939E+02  0.46142318514E+02  0.10000006868E+02 0.  0.
         12    1    1    2    0    0 -0.29859560003E+02 -0.13898275554E+02 -0.30730408939E+02  0.45045681486E+02  0.00000000000E+00 0. -1.
         11    1    3    3    0    0  0.13733139031E+02  0.58598838424E+01  0.10512396749E+02  0.18260553989E+02  0.51100000000E-03 0. -1.
        -11    1    3    3    0    0  0.13281102740E+02  0.71194062800E+01  0.12411666389E+02  0.19522374307E+02  0.51100000000E-03 0.  1.
         12    1    3    3    0    0  0.28453182318E+01  0.91898543206E+00  0.78063458013E+01  0.83593902190E+01  0.00000000000E+00 0. -1.
</event>
<event>
 7    1  0.2425980E-008  0.4614232E+02  0.7816164E-02  0.1320468E+00
        -11   -1    0    0    0    0  0.00000000000E+00  0.00000000000E+00  0.45593999997E+02  0.45594000000E+02  0.51100000000E-03 0.  1.
         11   -1    0    0    0    0 -0.00000000000E+00 -0.00000000000E+00 -0.45593999997E+02  0.45594000000E+02  0.51100000000E-03 0. -1.
    9900012    2    1    2    0    0 -0.22152862845E+02  0.10161758294E+02  0.37882753219E+02  0.46142315908E+02  0.99999830992E+01 0.  0.
         12    1    1    2    0    0  0.22152862845E+02 -0.10161758294E+02 -0.37882753219E+02  0.45045684092E+02  0.00000000000E+00 0. -1.
         11    1    3    3    0    0 -0.73719492201E+01  0.12239921786E+01  0.97522029788E+01  0.12286140784E+02  0.51100000000E-03 0. -1.
        -11    1    3    3    0    0 -0.11055834973E+02  0.81131872215E+01  0.26219311688E+02  0.29588977669E+02  0.51100000000E-03 0.  1.
         12    1    3    3    0    0 -0.37250786521E+01  0.82457889363E+00  0.19112385530E+01  0.42671974553E+01  0.00000000000E+00 0. -1.
</event>
<event>
 7    1  0.2425980E-008  0.4614232E+02  0.7816164E-02  0.1320468E+00
        -11   -1    0    0    0    0  0.00000000000E+00  0.00000000000E+00  0.45593999997E+02  0.45594000000E+02  0.51100000000E-03 0.  1.
         11   -1    0    0    0    0 -0.00000000000E+00 -0.00000000000E+00 -0.45593999997E+02  0.45594000000E+02  0.51100000000E-03 0. -1.
    9900012    2    1    2    0    0  0.20887307285E+02  0.45730113515E+01  0.39647465001E+02  0.46142317416E+02  0.99999968570E+01 0.  0.
         12    1    1    2    0    0 -0.20887307285E+02 -0.45730113515E+01 -0.39647465001E+02  0.45045682584E+02  0.00000000000E+00 0. -1.
         11    1    3    3    0    0 -0.26045717557E+00  0.11860468923E+00  0.26512996665E+00  0.39012712409E+00  0.51100000000E-03 0. -1.
        -11    1    3    3    0    0  0.78268178442E+00  0.26139555932E+01  0.62235396024E+01  0.67954249361E+01  0.51100000000E-03 0.  1.
         12    1    3    3    0    0  0.20365082676E+02  0.18404510691E+01  0.33158795432E+02  0.38956765356E+02  0.00000000000E+00 0. -1.
</event>
<event>
 7    1  0.2425980E-008  0.4614232E+02  0.7816164E-02  0.1320468E+00
        -11   -1    0    0    0    0  0.00000000000E+00  0.00000000000E+00  0.45593999997E+02  0.45594000000E+02  0.51100000000E-03 0.  1.
         11   -1    0    0    0    0 -0.00000000000E+00 -0.00000000000E+00 -0.45593999997E+02  0.45594000000E+02  0.51100000000E-03 0. -1.
    9900012    2    1    2    0    0 -0.17483575772E+02  0.12465373916E+02  0.39598642790E+02  0.46142317860E+02  0.10000000900E+02 0.  0.
         12    1    1    2    0    0  0.17483575772E+02 -0.12465373916E+02 -0.39598642790E+02  0.45045682140E+02  0.00000000000E+00 0. -1.
         11    1    3    3    0    0 -0.70446475509E+00  0.80209770661E+00  0.53913771055E+01  0.54960511894E+01  0.51100000000E-03 0. -1.
        -11    1    3    3    0    0 -0.54364297570E+01  0.47333396728E+01  0.19665281551E+02  0.20944750457E+02  0.51100000000E-03 0.  1.
        -12    1    3    3    0    0 -0.11342681260E+02  0.69299365364E+01  0.14541984134E+02  0.19701516214E+02  0.00000000000E+00 0.  1.
</event>
<event>
 7    1  0.2425980E-008  0.4614231E+02  0.7816164E-02  0.1320468E+00
        -11   -1    0    0    0    0  0.00000000000E+00  0.00000000000E+00  0.45593999997E+02  0.45594000000E+02  0.51100000000E-03 0.  1.
         11   -1    0    0    0    0 -0.00000000000E+00 -0.00000000000E+00 -0.45593999997E+02  0.45594000000E+02  0.51100000000E-03 0. -1.
    9900012    2    1    2    0    0 -0.35791968337E+02  0.47836283588E+01  0.26928901331E+02  0.46142314029E+02  0.99999659639E+01 0.  0.
         12    1    1    2    0    0  0.35791968337E+02 -0.47836283588E+01 -0.26928901331E+02  0.45045685971E+02  0.00000000000E+00 0. -1.
         11    1    3    3    0    0 -0.11158488235E+02 -0.81292030237E+00  0.52052015964E+01  0.12339644364E+02  0.51100000000E-03 0. -1.
        -11    1    3    3    0    0 -0.13029992492E+02  0.63205433709E+00  0.13293664110E+02  0.18625297387E+02  0.51100000000E-03 0.  1.
        -12    1    3    3    0    0 -0.11603487610E+02  0.49644943240E+01  0.84300356247E+01  0.15177372277E+02  0.00000000000E+00 0.  1.
</event>
<event>
 7    1  0.2425980E-008  0.4614232E+02  0.7816164E-02  0.1320468E+00
        -11   -1    0    0    0    0  0.00000000000E+00  0.00000000000E+00  0.45593999997E+02  0.45594000000E+02  0.51100000000E-03 0.  1.
         11   -1    0    0    0    0 -0.00000000000E+00 -0.00000000000E+00 -0.45593999997E+02  0.45594000000E+02  0.51100000000E-03 0. -1.
    9900012    2    1    2    0    0 -0.32221136527E+02  0.24708526742E+02 -0.19503855341E+02  0.46142319785E+02  0.10000018457E+02 0.  0.
         12    1    1    2    0    0  0.32221136527E+02 -0.24708526742E+02  0.19503855341E+02  0.45045680215E+02  0.00000000000E+00 0. -1.
         11    1    3    3    0    0 -0.10418587183E+02  0.39910023003E+01 -0.46331873084E+01  0.12080624286E+02  0.51100000000E-03 0. -1.
        -11    1    3    3    0    0 -0.19999178473E+02  0.17247924404E+02 -0.11158598755E+02  0.28670060382E+02  0.51100000000E-03 0.  1.
        -12    1    3    3    0    0 -0.18033708716E+01  0.34696000374E+01 -0.37120692774E+01  0.53916351174E+01  0.00000000000E+00 0.  1.
</event>
<event>
 7    1  0.2425980E-008  0.4614232E+02  0.7816164E-02  0.1320468E+00
        -11   -1    0    0    0    0  0.00000000000E+00  0.00000000000E+00  0.45593999997E+02  0.45594000000E+02  0.51100000000E-03 0. -1.
         11   -1    0    0    0    0 -0.00000000000E+00 -0.00000000000E+00 -0.45593999997E+02  0.45594000000E+02  0.51100000000E-03 0.  1.
    9900012    2    1    2    0    0 -0.42468167155E+01  0.39461365313E+02 -0.21304429668E+02  0.46142317320E+02  0.99999959794E+01 0.  0.
         12    1    1    2    0    0  0.42468167155E+01 -0.39461365313E+02  0.21304429668E+02  0.45045682680E+02  0.00000000000E+00 0. -1.
         11    1    3    3    0    0 -0.61596860590E+01  0.14514265187E+02 -0.85371631116E+01  0.17930108213E+02  0.51100000000E-03 0. -1.
        -11    1    3    3    0    0  0.22508803743E+01  0.13348953158E+02 -0.73993369419E+01  0.15427611621E+02  0.51100000000E-03 0.  1.
         12    1    3    3    0    0 -0.33801103077E+00  0.11598146968E+02 -0.53679296149E+01  0.12784597487E+02  0.00000000000E+00 0. -1.
</event>
<event>
 7    1  0.2425980E-008  0.4614232E+02  0.7816164E-02  0.1320468E+00
        -11   -1    0    0    0    0  0.00000000000E+00  0.00000000000E+00  0.45593999997E+02  0.45594000000E+02  0.51100000000E-03 0.  1.
         11   -1    0    0    0    0 -0.00000000000E+00 -0.00000000000E+00 -0.45593999997E+02  0.45594000000E+02  0.51100000000E-03 0. -1.
    9900012    2    1    2    0    0 -0.25218853304E+02 -0.23466084795E+02  0.29025261608E+02  0.46142317532E+02  0.99999979130E+01 0.  0.
         12    1    1    2    0    0  0.25218853304E+02  0.23466084795E+02 -0.29025261608E+02  0.45045682468E+02  0.00000000000E+00 0. -1.
         11    1    3    3    0    0 -0.56163101976E+01 -0.57798669776E+01  0.33376503423E+01  0.87229417391E+01  0.51100000000E-03 0. -1.
        -11    1    3    3    0    0 -0.65702453053E+01 -0.44288581921E+01  0.11804614923E+02  0.14217307832E+02  0.51100000000E-03 0.  1.
        -12    1    3    3    0    0 -0.13032297801E+02 -0.13257359626E+02  0.13882996343E+02  0.23202067961E+02  0.00000000000E+00 0.  1.
</event>
<event>
 7    1  0.2425980E-008  0.4614232E+02  0.7816164E-02  0.1320468E+00
        -11   -1    0    0    0    0  0.00000000000E+00  0.00000000000E+00  0.45593999997E+02  0.45594000000E+02  0.51100000000E-03 0. -1.
         11   -1    0    0    0    0 -0.00000000000E+00 -0.00000000000E+00 -0.45593999997E+02  0.45594000000E+02  0.51100000000E-03 0.  1.
    9900012    2    1    2    0    0 -0.23683914153E+02 -0.37849992618E+02 -0.59635301088E+01  0.46142318496E+02  0.10000006703E+02 0.  0.
         12    1    1    2    0    0  0.23683914153E+02  0.37849992618E+02  0.59635301088E+01  0.45045681504E+02  0.00000000000E+00 0. -1.
         11    1    3    3    0    0 -0.91866472794E-01 -0.28908245937E+00  0.49960905024E+00  0.58448060818E+00  0.51100000000E-03 0. -1.
        -11    1    3    3    0    0 -0.21011805626E+01 -0.59168293450E+01 -0.35071310832E+01  0.71919258861E+01  0.51100000000E-03 0.  1.
        -12    1    3    3    0    0 -0.21490867117E+02 -0.31644080814E+02 -0.29560080758E+01  0.38365912002E+02  0.00000000000E+00 0.  1.
</event>
<event>
 7    1  0.2425980E-008  0.4614232E+02  0.7816164E-02  0.1320468E+00
        -11   -1    0    0    0    0  0.00000000000E+00  0.00000000000E+00  0.45593999997E+02  0.45594000000E+02  0.51100000000E-03 0.  1.
         11   -1    0    0    0    0 -0.00000000000E+00 -0.00000000000E+00 -0.45593999997E+02  0.45594000000E+02  0.51100000000E-03 0. -1.
    9900012    2    1    2    0    0 -0.33574049866E+01  0.44161039971E+02  0.82245946895E+01  0.46142316773E+02  0.99999909898E+01 0.  0.
         12    1    1    2    0    0  0.33574049866E+01 -0.44161039971E+02 -0.82245946895E+01  0.45045683227E+02  0.00000000000E+00 0. -1.
         11    1    3    3    0    0  0.27143905590E+00  0.16314566489E+01  0.12985033994E+01  0.21027223540E+01  0.51100000000E-03 0. -1.
        -11    1    3    3    0    0  0.18684884559E+01  0.19972296801E+02  0.10340676672E+01  0.20086144100E+02  0.51100000000E-03 0.  1.
         12    1    3    3    0    0 -0.54973324984E+01  0.22557286521E+02  0.58920236229E+01  0.23953450319E+02  0.00000000000E+00 0. -1.
</event>
<event>
 7    1  0.2425980E-008  0.4614232E+02  0.7816164E-02  0.1320468E+00
        -11   -1    0    0    0    0  0.00000000000E+00  0.00000000000E+00  0.45593999997E+02  0.45594000000E+02  0.51100000000E-03 0.  1.
         11   -1    0    0    0    0 -0.00000000000E+00 -0.00000000000E+00 -0.45593999997E+02  0.45594000000E+02  0.51100000000E-03 0. -1.
    9900012    2    1    2    0    0  0.21133798992E+02 -0.34304977856E+02 -0.20140618795E+02  0.46142317732E+02  0.99999997376E+01 0.  0.
         12    1    1    2    0    0 -0.21133798992E+02  0.34304977856E+02  0.20140618795E+02  0.45045682268E+02  0.00000000000E+00 0. -1.
         11    1    3    3    0    0  0.53884255503E+01 -0.10801601952E+02 -0.60665344384E+01  0.13509721499E+02  0.51100000000E-03 0. -1.
        -11    1    3    3    0    0  0.14263041130E+02 -0.15874713555E+02 -0.12403381845E+02  0.24683694095E+02  0.51100000000E-03 0.  1.
         12    1    3    3    0    0  0.14823323119E+01 -0.76286623493E+01 -0.16707025120E+01  0.79489021385E+01  0.00000000000E+00 0. -1.
</event>
<event>
 7    1  0.2425980E-008  0.4614232E+02  0.7816164E-02  0.1320468E+00
        -11   -1    0    0    0    0  0.00000000000E+00  0.00000000000E+00  0.45593999997E+02  0.45594000000E+02  0.51100000000E-03 0. -1.
         11   -1    0    0    0    0 -0.00000000000E+00 -0.00000000000E+00 -0.45593999997E+02  0.45594000000E+02  0.51100000000E-03 0.  1.
    9900012    2    1    2    0    0  0.16165101948E+02  0.40262987216E+02 -0.12111772214E+02  0.46142315559E+02  0.99999799193E+01 0.  0.
         12    1    1    2    0    0 -0.16165101948E+02 -0.40262987216E+02  0.12111772214E+02  0.45045684441E+02  0.00000000000E+00 0. -1.
         11    1    3    3    0    0  0.57416862367E+00  0.13847424909E+01  0.12373395905E+01  0.19437569030E+01  0.51100000000E-03 0. -1.
        -11    1    3    3    0    0  0.52302196371E+01  0.16806663437E+02 -0.37627599503E+01  0.17999374880E+02  0.51100000000E-03 0.  1.
        -12    1    3    3    0    0  0.10360713688E+02  0.22071581288E+02 -0.95863518545E+01  0.26199183776E+02  0.00000000000E+00 0.  1.
</event>
<event>
 7    1  0.2425980E-008  0.4614232E+02  0.7816164E-02  0.1320468E+00
        -11   -1    0    0    0    0  0.00000000000E+00  0.00000000000E+00  0.45593999997E+02  0.45594000000E+02  0.51100000000E-03 0.  1.
         11   -1    0    0    0    0 -0.00000000000E+00 -0.00000000000E+00 -0.45593999997E+02  0.45594000000E+02  0.51100000000E-03 0. -1.
    9900012    2    1    2    0    0 -0.38797739219E+02 -0.13969500460E+02  0.18130140217E+02  0.46142317677E+02  0.99999992369E+01 0.  0.
         12    1    1    2    0    0  0.38797739219E+02  0.13969500460E+02 -0.18130140217E+02  0.45045682323E+02  0.00000000000E+00 0. -1.
         11    1    3    3    0    0 -0.12870219020E+02 -0.76202082418E+01  0.33784685394E+01  0.15333758874E+02  0.51100000000E-03 0.  1.
        -11    1    3    3    0    0 -0.23530643296E+01 -0.46802813318E+00  0.29339649759E+01  0.37900016905E+01  0.51100000000E-03 0. -1.
        -12    1    3    3    0    0 -0.23574455870E+02 -0.58812640850E+01  0.11817706702E+02  0.27018557113E+02  0.00000000000E+00 0.  1.
</event>
<event>
 7    1  0.2425980E-008  0.4614232E+02  0.7816164E-02  0.1320468E+00
        -11   -1    0    0    0    0  0.00000000000E+00  0.00000000000E+00  0.45593999997E+02  0.45594000000E+02  0.51100000000E-03 0. -1.
         11   -1    0    0    0    0 -0.00000000000E+00 -0.00000000000E+00 -0.45593999997E+02  0.45594000000E+02  0.51100000000E-03 0.  1.
    9900012    2    1    2    0    0 -0.37162220999E+02  0.10500874164E+02 -0.23190825669E+02  0.46142318487E+02  0.10000006620E+02 0.  0.
         12    1    1    2    0    0  0.37162220999E+02 -0.10500874164E+02  0.23190825669E+02  0.45045681513E+02  0.00000000000E+00 0. -1.
         11    1    3    3    0    0 -0.21675621214E+02  0.47198475130E+01 -0.15833082891E+02  0.27254284611E+02  0.51100000000E-03 0. -1.
        -11    1    3    3    0    0 -0.12009610240E+02  0.21383705227E+01 -0.63506507794E+01  0.13752604560E+02  0.51100000000E-03 0.  1.
         12    1    3    3    0    0 -0.34769895457E+01  0.36426561286E+01 -0.10070919980E+01  0.51354293165E+01  0.00000000000E+00 0. -1.
</event>
<event>
 7    1  0.2425980E-008  0.4614232E+02  0.7816164E-02  0.1320468E+00
        -11   -1    0    0    0    0  0.00000000000E+00  0.00000000000E+00  0.45593999997E+02  0.45594000000E+02  0.51100000000E-03 0.  1.
         11   -1    0    0    0    0 -0.00000000000E+00 -0.00000000000E+00 -0.45593999997E+02  0.45594000000E+02  0.51100000000E-03 0. -1.
    9900012    2    1    2    0    0 -0.36806605827E+02 -0.16233370872E+02 -0.20269797560E+02  0.46142320345E+02  0.10000023566E+02 0.  0.
         12    1    1    2    0    0  0.36806605827E+02  0.16233370872E+02  0.20269797560E+02  0.45045679655E+02  0.00000000000E+00 0. -1.
         11    1    3    3    0    0 -0.10071397918E+02 -0.54882690704E+01 -0.74105719035E+01  0.13655428577E+02  0.51100000000E-03 0.  1.
        -11    1    3    3    0    0 -0.11530081657E+02 -0.24305265632E+01 -0.87484947040E+01  0.14676048591E+02  0.51100000000E-03 0. -1.
        -12    1    3    3    0    0 -0.15205126252E+02 -0.83145752388E+01 -0.41107309529E+01  0.17810843178E+02  0.00000000000E+00 0.  1.
</event>
<event>
 7    1  0.2425980E-008  0.4614232E+02  0.7816164E-02  0.1320468E+00
        -11   -1    0    0    0    0  0.00000000000E+00  0.00000000000E+00  0.45593999997E+02  0.45594000000E+02  0.51100000000E-03 0.  1.
         11   -1    0    0    0    0 -0.00000000000E+00 -0.00000000000E+00 -0.45593999997E+02  0.45594000000E+02  0.51100000000E-03 0. -1.
    9900012    2    1    2    0    0 -0.33914444815E+02 -0.21082597430E+02  0.20843416706E+02  0.46142317615E+02  0.99999986709E+01 0.  0.
         12    1    1    2    0    0  0.33914444815E+02  0.21082597430E+02 -0.20843416706E+02  0.45045682385E+02  0.00000000000E+00 0. -1.
         11    1    3    3    0    0 -0.60620478595E+01 -0.52871738426E+01  0.17037529352E+01  0.82222506541E+01  0.51100000000E-03 0. -1.
        -11    1    3    3    0    0 -0.93993297535E+00 -0.23447426995E+01  0.24279681827E+01  0.35037582797E+01  0.51100000000E-03 0.  1.
        -12    1    3    3    0    0 -0.26912463980E+02 -0.13450680888E+02  0.16711695588E+02  0.34416308682E+02  0.00000000000E+00 0.  1.
</event>
<event>
 7    1  0.2425980E-008  0.4614232E+02  0.7816164E-02  0.1320468E+00
        -11   -1    0    0    0    0  0.00000000000E+00  0.00000000000E+00  0.45593999997E+02  0.45594000000E+02  0.51100000000E-03 0. -1.
         11   -1    0    0    0    0 -0.00000000000E+00 -0.00000000000E+00 -0.45593999997E+02  0.45594000000E+02  0.51100000000E-03 0.  1.
    9900012    2    1    2    0    0  0.19082498761E+02  0.40621728354E+02  0.38531930406E+01  0.46142315745E+02  0.99999816133E+01 0.  0.
         12    1    1    2    0    0 -0.19082498761E+02 -0.40621728354E+02 -0.38531930406E+01  0.45045684255E+02  0.00000000000E+00 0. -1.
         11    1    3    3    0    0  0.80860628542E+01  0.11799570490E+02  0.40775410335E+01  0.14874159383E+02  0.51100000000E-03 0. -1.
        -11    1    3    3    0    0  0.18439611195E+01  0.20441699436E+01  0.10353531370E+01  0.29412207921E+01  0.51100000000E-03 0.  1.
        -12    1    3    3    0    0  0.91524747874E+01  0.26777987921E+02 -0.12597011299E+01  0.28326935569E+02  0.00000000000E+00 0.  1.
</event>
<event>
 7    1  0.2425980E-008  0.4614232E+02  0.7816164E-02  0.1320468E+00
        -11   -1    0    0    0    0  0.00000000000E+00  0.00000000000E+00  0.45593999997E+02  0.45594000000E+02  0.51100000000E-03 0. -1.
         11   -1    0    0    0    0 -0.00000000000E+00 -0.00000000000E+00 -0.45593999997E+02  0.45594000000E+02  0.51100000000E-03 0.  1.
    9900012    2    1    2    0    0  0.35003417987E+02  0.22440990346E+02 -0.17328481452E+02  0.46142316656E+02  0.99999899226E+01 0.  0.
         12    1    1    2    0    0 -0.35003417987E+02 -0.22440990346E+02  0.17328481452E+02  0.45045683344E+02  0.00000000000E+00 0. -1.
         11    1    3    3    0    0  0.20490213021E+02  0.14295176606E+02 -0.13336190992E+02  0.28320573692E+02  0.51100000000E-03 0.  1.
        -11    1    3    3    0    0  0.91668543786E+00  0.22673375648E+01 -0.12878307264E+01  0.27639898816E+01  0.51100000000E-03 0. -1.
        -12    1    3    3    0    0  0.13596519528E+02  0.58784761757E+01 -0.27044597343E+01  0.15057753082E+02  0.00000000000E+00 0.  1.
</event>
<event>
 7    1  0.2425980E-008  0.4614232E+02  0.7816164E-02  0.1320468E+00
        -11   -1    0    0    0    0  0.00000000000E+00  0.00000000000E+00  0.45593999997E+02  0.45594000000E+02  0.51100000000E-03 0.  1.
         11   -1    0    0    0    0 -0.00000000000E+00 -0.00000000000E+00 -0.45593999997E+02  0.45594000000E+02  0.51100000000E-03 0. -1.
    9900012    2    1    2    0    0 -0.41690469112E+02  0.12194916245E+02 -0.11929052385E+02  0.46142317767E+02  0.10000000054E+02 0.  0.
         12    1    1    2    0    0  0.41690469112E+02 -0.12194916245E+02  0.11929052385E+02  0.45045682233E+02  0.00000000000E+00 0. -1.
         11    1    3    3    0    0 -0.46271415547E+01 -0.86961733349E-02 -0.72845849157E+00  0.46841399025E+01  0.51100000000E-03 0. -1.
        -11    1    3    3    0    0 -0.50762680541E+01  0.35378166422E+01 -0.44913915124E+01  0.76457335770E+01  0.51100000000E-03 0.  1.
        -12    1    3    3    0    0 -0.31987059503E+02  0.86657957763E+01 -0.67092023811E+01  0.33812444288E+02  0.00000000000E+00 0.  1.
</event>
<event>
 7    1  0.2425980E-008  0.4614232E+02  0.7816164E-02  0.1320468E+00
        -11   -1    0    0    0    0  0.00000000000E+00  0.00000000000E+00  0.45593999997E+02  0.45594000000E+02  0.51100000000E-03 0.  1.
         11   -1    0    0    0    0 -0.00000000000E+00 -0.00000000000E+00 -0.45593999997E+02  0.45594000000E+02  0.51100000000E-03 0. -1.
    9900012    2    1    2    0    0  0.14931727237E+02  0.38258333010E+02  0.18505587721E+02  0.46142319853E+02  0.10000019078E+02 0.  0.
         12    1    1    2    0    0 -0.14931727237E+02 -0.38258333010E+02 -0.18505587721E+02  0.45045680147E+02  0.00000000000E+00 0. -1.
         11    1    3    3    0    0  0.49283152969E+01  0.52513512438E+01  0.24809147165E+01  0.76170807822E+01  0.51100000000E-03 0. -1.
        -11    1    3    3    0    0  0.73931695814E+01  0.13845728074E+02  0.71254720022E+01  0.17237618567E+02  0.51100000000E-03 0.  1.
         12    1    3    3    0    0  0.26102423586E+01  0.19161253692E+02  0.88992010023E+01  0.21287620504E+02  0.00000000000E+00 0. -1.
</event>
<event>
 7    1  0.2425980E-008  0.4614232E+02  0.7816164E-02  0.1320468E+00
        -11   -1    0    0    0    0  0.00000000000E+00  0.00000000000E+00  0.45593999997E+02  0.45594000000E+02  0.51100000000E-03 0.  1.
         11   -1    0    0    0    0 -0.00000000000E+00 -0.00000000000E+00 -0.45593999997E+02  0.45594000000E+02  0.51100000000E-03 0. -1.
    9900012    2    1    2    0    0 -0.16835935708E+02 -0.39094984630E+02  0.14739298600E+02  0.46142317881E+02  0.10000001091E+02 0.  0.
         12    1    1    2    0    0  0.16835935708E+02  0.39094984630E+02 -0.14739298600E+02  0.45045682119E+02  0.00000000000E+00 0. -1.
         11    1    3    3    0    0 -0.24831182383E+01 -0.54676373076E+01  0.77876974253E+00  0.60553626222E+01  0.51100000000E-03 0. -1.
        -11    1    3    3    0    0 -0.11613644714E+02 -0.30649975073E+02  0.14787047147E+02  0.35957676220E+02  0.51100000000E-03 0.  1.
        -12    1    3    3    0    0 -0.27391727559E+01 -0.29773722492E+01 -0.82651829006E+00  0.41292790389E+01  0.00000000000E+00 0.  1.
</event>
<event>
 7    1  0.2425980E-008  0.4614232E+02  0.7816164E-02  0.1320468E+00
        -11   -1    0    0    0    0  0.00000000000E+00  0.00000000000E+00  0.45593999997E+02  0.45594000000E+02  0.51100000000E-03 0.  1.
         11   -1    0    0    0    0 -0.00000000000E+00 -0.00000000000E+00 -0.45593999997E+02  0.45594000000E+02  0.51100000000E-03 0. -1.
    9900012    2    1    2    0    0 -0.42809926366E+02 -0.34766370752E+01  0.13577061835E+02  0.46142318643E+02  0.10000008043E+02 0.  0.
         12    1    1    2    0    0  0.42809926366E+02  0.34766370752E+01 -0.13577061835E+02  0.45045681357E+02  0.00000000000E+00 0. -1.
         11    1    3    3    0    0 -0.11509617270E+02 -0.43327244815E+01  0.56406902332E+01  0.13530010262E+02  0.51100000000E-03 0. -1.
        -11    1    3    3    0    0 -0.12462869489E+02 -0.18552571857E+01  0.31165831193E+01  0.12979914704E+02  0.51100000000E-03 0.  1.
         12    1    3    3    0    0 -0.18837439607E+02  0.27113445920E+01  0.48197884828E+01  0.19632393677E+02  0.00000000000E+00 0. -1.
</event>
<event>
 7    1  0.2425980E-008  0.4614232E+02  0.7816164E-02  0.1320468E+00
        -11   -1    0    0    0    0  0.00000000000E+00  0.00000000000E+00  0.45593999997E+02  0.45594000000E+02  0.51100000000E-03 0.  1.
         11   -1    0    0    0    0 -0.00000000000E+00 -0.00000000000E+00 -0.45593999997E+02  0.45594000000E+02  0.51100000000E-03 0. -1.
    9900012    2    1    2    0    0 -0.37876840745E+02  0.16852582315E+02  0.17619562415E+02  0.46142316798E+02  0.99999912136E+01 0.  0.
         12    1    1    2    0    0  0.37876840745E+02 -0.16852582315E+02 -0.17619562415E+02  0.45045683202E+02  0.00000000000E+00 0. -1.
         11    1    3    3    0    0 -0.30373016540E+01  0.42805276092E+01  0.31948252663E+01  0.61445119167E+01  0.51100000000E-03 0. -1.
        -11    1    3    3    0    0 -0.53087522187E+01  0.39770055210E+00  0.14175725669E+01  0.55091313373E+01  0.51100000000E-03 0.  1.
         12    1    3    3    0    0 -0.29530786872E+02  0.12174354154E+02  0.13007164581E+02  0.34488673544E+02  0.00000000000E+00 0. -1.
</event>
<event>
 7    1  0.2425980E-008  0.4614232E+02  0.7816164E-02  0.1320468E+00
        -11   -1    0    0    0    0  0.00000000000E+00  0.00000000000E+00  0.45593999997E+02  0.45594000000E+02  0.51100000000E-03 0.  1.
         11   -1    0    0    0    0 -0.00000000000E+00 -0.00000000000E+00 -0.45593999997E+02  0.45594000000E+02  0.51100000000E-03 0. -1.
    9900012    2    1    2    0    0 -0.21985710141E+02  0.29804137247E+02  0.25640894485E+02  0.46142317438E+02  0.99999970565E+01 0.  0.
         12    1    1    2    0    0  0.21985710141E+02 -0.29804137247E+02 -0.25640894485E+02  0.45045682562E+02  0.00000000000E+00 0. -1.
         11    1    3    3    0    0 -0.12169782806E+02  0.13538119921E+02  0.14257455533E+02  0.23122701898E+02  0.51100000000E-03 0. -1.
        -11    1    3    3    0    0 -0.86280460335E+01  0.15030029164E+02  0.12125952867E+02  0.21151446481E+02  0.51100000000E-03 0.  1.
         12    1    3    3    0    0 -0.11878813014E+01  0.12359881615E+01 -0.74251391423E+00  0.18681690594E+01  0.00000000000E+00 0. -1.
</event>
<event>
 7    1  0.2425980E-008  0.4614232E+02  0.7816164E-02  0.1320468E+00
        -11   -1    0    0    0    0  0.00000000000E+00  0.00000000000E+00  0.45593999997E+02  0.45594000000E+02  0.51100000000E-03 0.  1.
         11   -1    0    0    0    0 -0.00000000000E+00 -0.00000000000E+00 -0.45593999997E+02  0.45594000000E+02  0.51100000000E-03 0. -1.
    9900012    2    1    2    0    0 -0.41074515090E+02 -0.14904809573E+02  0.10947338828E+02  0.46142319123E+02  0.10000012415E+02 0.  0.
         12    1    1    2    0    0  0.41074515090E+02  0.14904809573E+02 -0.10947338828E+02  0.45045680877E+02  0.00000000000E+00 0. -1.
         11    1    3    3    0    0 -0.21718469140E+01 -0.20728175212E+01  0.21785362877E+01  0.37093816348E+01  0.51100000000E-03 0. -1.
        -11    1    3    3    0    0 -0.23982622987E+02 -0.66181316892E+01  0.84255097568E+01  0.26266996161E+02  0.51100000000E-03 0.  1.
        -12    1    3    3    0    0 -0.14920045189E+02 -0.62138603628E+01  0.34329278325E+00  0.16165941327E+02  0.00000000000E+00 0.  1.
</event>
<event>
 7    1  0.2425980E-008  0.4614232E+02  0.7816164E-02  0.1320468E+00
        -11   -1    0    0    0    0  0.00000000000E+00  0.00000000000E+00  0.45593999997E+02  0.45594000000E+02  0.51100000000E-03 0.  1.
         11   -1    0    0    0    0 -0.00000000000E+00 -0.00000000000E+00 -0.45593999997E+02  0.45594000000E+02  0.51100000000E-03 0. -1.
    9900012    2    1    2    0    0 -0.15963466158E+02 -0.41993157554E+02  0.32948238662E+01  0.46142318770E+02  0.10000009204E+02 0.  0.
         12    1    1    2    0    0  0.15963466158E+02  0.41993157554E+02 -0.32948238662E+01  0.45045681230E+02  0.00000000000E+00 0. -1.
         11    1    3    3    0    0 -0.38757098622E+01 -0.48323795185E+01  0.46681773773E-01  0.61947718437E+01  0.51100000000E-03 0. -1.
        -11    1    3    3    0    0 -0.13153985969E+02 -0.35022695354E+02  0.33096694271E+01  0.37557561805E+02  0.51100000000E-03 0.  1.
         12    1    3    3    0    0  0.10662296737E+01 -0.21380826818E+01 -0.61527334641E-01  0.23899851222E+01  0.00000000000E+00 0. -1.
</event>
<event>
 7    1  0.2425980E-008  0.4614232E+02  0.7816164E-02  0.1320468E+00
        -11   -1    0    0    0    0  0.00000000000E+00  0.00000000000E+00  0.45593999997E+02  0.45594000000E+02  0.51100000000E-03 0.  1.
         11   -1    0    0    0    0 -0.00000000000E+00 -0.00000000000E+00 -0.45593999997E+02  0.45594000000E+02  0.51100000000E-03 0. -1.
    9900012    2    1    2    0    0  0.12246736056E+02  0.26109520557E+02  0.34603814582E+02  0.46142316618E+02  0.99999895750E+01 0.  0.
         12    1    1    2    0    0 -0.12246736056E+02 -0.26109520557E+02 -0.34603814582E+02  0.45045683382E+02  0.00000000000E+00 0. -1.
         11    1    3    3    0    0 -0.68895619100E+00  0.21647990361E+01  0.40055779894E+01  0.46049615406E+01  0.51100000000E-03 0. -1.
        -11    1    3    3    0    0 -0.67809734190E+00  0.23234170810E+00  0.11283546287E+01  0.13367808734E+01  0.51100000000E-03 0.  1.
        -12    1    3    3    0    0  0.13613789589E+02  0.23712379813E+02  0.29469881964E+02  0.40200574204E+02  0.00000000000E+00 0.  1.
</event>
<event>
 7    1  0.2425980E-008  0.4614232E+02  0.7816164E-02  0.1320468E+00
        -11   -1    0    0    0    0  0.00000000000E+00  0.00000000000E+00  0.45593999997E+02  0.45594000000E+02  0.51100000000E-03 0.  1.
         11   -1    0    0    0    0 -0.00000000000E+00 -0.00000000000E+00 -0.45593999997E+02  0.45594000000E+02  0.51100000000E-03 0. -1.
    9900012    2    1    2    0    0 -0.11902819573E+02 -0.37623969872E+02  0.21722642954E+02  0.46142318303E+02  0.10000004937E+02 0.  0.
         12    1    1    2    0    0  0.11902819573E+02  0.37623969872E+02 -0.21722642954E+02  0.45045681697E+02  0.00000000000E+00 0. -1.
         11    1    3    3    0    0  0.12389869992E+01 -0.94601504903E+01  0.47575186151E+01  0.10661309475E+02  0.51100000000E-03 0. -1.
        -11    1    3    3    0    0 -0.27898205778E+01 -0.45922262629E+01  0.36620013958E+01  0.65024530286E+01  0.51100000000E-03 0.  1.
         12    1    3    3    0    0 -0.10351985994E+02 -0.23571593119E+02  0.13303122943E+02  0.28978555799E+02  0.00000000000E+00 0. -1.
</event>
<event>
 7    1  0.2425980E-008  0.4614232E+02  0.7816164E-02  0.1320468E+00
        -11   -1    0    0    0    0  0.00000000000E+00  0.00000000000E+00  0.45593999997E+02  0.45594000000E+02  0.51100000000E-03 0. -1.
         11   -1    0    0    0    0 -0.00000000000E+00 -0.00000000000E+00 -0.45593999997E+02  0.45594000000E+02  0.51100000000E-03 0.  1.
    9900012    2    1    2    0    0  0.12950615194E+02  0.15968454292E+02 -0.40079965293E+02  0.46142316696E+02  0.99999902912E+01 0.  0.
         12    1    1    2    0    0 -0.12950615194E+02 -0.15968454292E+02  0.40079965293E+02  0.45045683304E+02  0.00000000000E+00 0. -1.
         11    1    3    3    0    0  0.46516100692E+00  0.46075380648E+01 -0.14693324211E+02  0.15405828715E+02  0.51100000000E-03 0. -1.
        -11    1    3    3    0    0  0.42530206543E+01  0.42543533172E+01 -0.12513572282E+02  0.13884422867E+02  0.51100000000E-03 0.  1.
         12    1    3    3    0    0  0.82324335329E+01  0.71065629099E+01 -0.12873068800E+02  0.16852065114E+02  0.00000000000E+00 0. -1.
</event>
<event>
 7    1  0.2425980E-008  0.4614232E+02  0.7816164E-02  0.1320468E+00
        -11   -1    0    0    0    0  0.00000000000E+00  0.00000000000E+00  0.45593999997E+02  0.45594000000E+02  0.51100000000E-03 0.  1.
         11   -1    0    0    0    0 -0.00000000000E+00 -0.00000000000E+00 -0.45593999997E+02  0.45594000000E+02  0.51100000000E-03 0. -1.
    9900012    2    1    2    0    0  0.30967791853E+02 -0.18243018116E+02  0.27153296219E+02  0.46142319432E+02  0.10000015236E+02 0.  0.
         12    1    1    2    0    0 -0.30967791853E+02  0.18243018116E+02 -0.27153296219E+02  0.45045680568E+02  0.00000000000E+00 0. -1.
         11    1    3    3    0    0  0.11243788152E+02 -0.51003029911E+01  0.80522598754E+01  0.14740242602E+02  0.51100000000E-03 0. -1.
        -11    1    3    3    0    0  0.10149092318E+02 -0.56631917066E+01  0.14075800616E+02  0.18253875710E+02  0.51100000000E-03 0.  1.
        -12    1    3    3    0    0  0.95749113832E+01 -0.74795234184E+01  0.50252357276E+01  0.13148201119E+02  0.00000000000E+00 0.  1.
</event>
<event>
 7    1  0.2425980E-008  0.4614232E+02  0.7816164E-02  0.1320468E+00
        -11   -1    0    0    0    0  0.00000000000E+00  0.00000000000E+00  0.45593999997E+02  0.45594000000E+02  0.51100000000E-03 0.  1.
         11   -1    0    0    0    0 -0.00000000000E+00 -0.00000000000E+00 -0.45593999997E+02  0.45594000000E+02  0.51100000000E-03 0. -1.
    9900012    2    1    2    0    0 -0.13093743700E+01  0.31702821460E+02  0.31973897899E+02  0.46142317670E+02  0.99999991687E+01 0.  0.
         12    1    1    2    0    0  0.13093743700E+01 -0.31702821460E+02 -0.31973897899E+02  0.45045682330E+02  0.00000000000E+00 0. -1.
         11    1    3    3    0    0  0.86978687032E+00  0.25568045658E+02  0.28465213809E+02  0.38272050970E+02  0.51100000000E-03 0.  1.
        -11    1    3    3    0    0 -0.22934776664E+01  0.36594148275E+01  0.31958505513E+01  0.53725987840E+01  0.51100000000E-03 0. -1.
        -12    1    3    3    0    0  0.11431642611E+00  0.24753609741E+01  0.31283353844E+00  0.24976679164E+01  0.00000000000E+00 0.  1.
</event>
<event>
 7    1  0.2425980E-008  0.4614232E+02  0.7816164E-02  0.1320468E+00
        -11   -1    0    0    0    0  0.00000000000E+00  0.00000000000E+00  0.45593999997E+02  0.45594000000E+02  0.51100000000E-03 0. -1.
         11   -1    0    0    0    0 -0.00000000000E+00 -0.00000000000E+00 -0.45593999997E+02  0.45594000000E+02  0.51100000000E-03 0.  1.
    9900012    2    1    2    0    0  0.39062004433E+02 -0.40357457938E+01 -0.22067763809E+02  0.46142316145E+02  0.99999852652E+01 0.  0.
         12    1    1    2    0    0 -0.39062004433E+02  0.40357457938E+01  0.22067763809E+02  0.45045683855E+02  0.00000000000E+00 0. -1.
         11    1    3    3    0    0  0.48167772808E+01 -0.22034299543E+01 -0.48771863547E+00  0.53192402338E+01  0.51100000000E-03 0. -1.
        -11    1    3    3    0    0  0.26482646964E+01  0.11366186718E+01 -0.13073659735E+01  0.31645558862E+01  0.51100000000E-03 0.  1.
        -12    1    3    3    0    0  0.31596962456E+02 -0.29689345113E+01 -0.20272679200E+02  0.37658520025E+02  0.00000000000E+00 0.  1.
</event>
<event>
 7    1  0.2425980E-008  0.4614232E+02  0.7816164E-02  0.1320468E+00
        -11   -1    0    0    0    0  0.00000000000E+00  0.00000000000E+00  0.45593999997E+02  0.45594000000E+02  0.51100000000E-03 0.  1.
         11   -1    0    0    0    0 -0.00000000000E+00 -0.00000000000E+00 -0.45593999997E+02  0.45594000000E+02  0.51100000000E-03 0. -1.
    9900012    2    1    2    0    0 -0.32027425226E+02  0.12228807764E+02  0.29220091872E+02  0.46142317910E+02  0.10000001355E+02 0.  0.
         12    1    1    2    0    0  0.32027425226E+02 -0.12228807764E+02 -0.29220091872E+02  0.45045682090E+02  0.00000000000E+00 0. -1.
         11    1    3    3    0    0 -0.40856942790E+01 -0.52541092608E+00  0.25238943713E+01  0.48310451707E+01  0.51100000000E-03 0. -1.
        -11    1    3    3    0    0 -0.22347026670E+02  0.95548078127E+01  0.16965162088E+02  0.29639512112E+02  0.51100000000E-03 0.  1.
         12    1    3    3    0    0 -0.55947042772E+01  0.31994108774E+01  0.97310354133E+01  0.11671760627E+02  0.00000000000E+00 0. -1.
</event>
<event>
 7    1  0.2425980E-008  0.4614232E+02  0.7816164E-02  0.1320468E+00
        -11   -1    0    0    0    0  0.00000000000E+00  0.00000000000E+00  0.45593999997E+02  0.45594000000E+02  0.51100000000E-03 0.  1.
         11   -1    0    0    0    0 -0.00000000000E+00 -0.00000000000E+00 -0.45593999997E+02  0.45594000000E+02  0.51100000000E-03 0. -1.
    9900012    2    1    2    0    0 -0.13140627038E+01  0.26495545763E+02  0.36405669768E+02  0.46142317662E+02  0.99999990953E+01 0.  0.
         12    1    1    2    0    0  0.13140627038E+01 -0.26495545763E+02 -0.36405669768E+02  0.45045682338E+02  0.00000000000E+00 0. -1.
         11    1    3    3    0    0 -0.69597963858E+00  0.24115737299E+01  0.50431204726E+01  0.56332175419E+01  0.51100000000E-03 0. -1.
        -11    1    3    3    0    0 -0.29707060718E+01  0.15585803433E+02  0.14565671770E+02  0.21538364784E+02  0.51100000000E-03 0.  1.
         12    1    3    3    0    0  0.23526230065E+01  0.84981685995E+01  0.16796877526E+02  0.18970735336E+02  0.00000000000E+00 0. -1.
</event>
<event>
 7    1  0.2425980E-008  0.4614232E+02  0.7816164E-02  0.1320468E+00
        -11   -1    0    0    0    0  0.00000000000E+00  0.00000000000E+00  0.45593999997E+02  0.45594000000E+02  0.51100000000E-03 0.  1.
         11   -1    0    0    0    0 -0.00000000000E+00 -0.00000000000E+00 -0.45593999997E+02  0.45594000000E+02  0.51100000000E-03 0. -1.
    9900012    2    1    2    0    0  0.37904137582E+02 -0.14926819419E+02  0.19224455484E+02  0.46142320158E+02  0.10000021853E+02 0.  0.
         12    1    1    2    0    0 -0.37904137582E+02  0.14926819419E+02 -0.19224455484E+02  0.45045679842E+02  0.00000000000E+00 0. -1.
         11    1    3    3    0    0  0.20880361083E+02 -0.48258257856E+01  0.57530373439E+01  0.22189536102E+02  0.51100000000E-03 0. -1.
        -11    1    3    3    0    0  0.41936258388E+01 -0.22596793449E+01  0.30081486799E+01  0.56339690413E+01  0.51100000000E-03 0.  1.
         12    1    3    3    0    0  0.12830150661E+02 -0.78413142889E+01  0.10463269460E+02  0.18318815015E+02  0.00000000000E+00 0. -1.
</event>
<event>
 7    1  0.2425980E-008  0.4614232E+02  0.7816164E-02  0.1320468E+00
        -11   -1    0    0    0    0  0.00000000000E+00  0.00000000000E+00  0.45593999997E+02  0.45594000000E+02  0.51100000000E-03 0.  1.
         11   -1    0    0    0    0 -0.00000000000E+00 -0.00000000000E+00 -0.45593999997E+02  0.45594000000E+02  0.51100000000E-03 0. -1.
    9900012    2    1    2    0    0 -0.12956538080E+01 -0.91124646207E+01  0.44095325979E+02  0.46142317594E+02  0.99999984720E+01 0.  0.
         12    1    1    2    0    0  0.12956538080E+01  0.91124646207E+01 -0.44095325979E+02  0.45045682406E+02  0.00000000000E+00 0. -1.
         11    1    3    3    0    0  0.12159131748E+01 -0.56701469318E+00  0.71763889960E+00  0.15214980651E+01  0.51100000000E-03 0. -1.
        -11    1    3    3    0    0 -0.21296048590E+00 -0.67880211546E+01  0.21355780919E+02  0.22409639941E+02  0.51100000000E-03 0.  1.
        -12    1    3    3    0    0 -0.22986064969E+01 -0.17574287730E+01  0.22021906160E+02  0.22211179587E+02  0.00000000000E+00 0.  1.
</event>
<event>
 7    1  0.2425980E-008  0.4614232E+02  0.7816164E-02  0.1320468E+00
        -11   -1    0    0    0    0  0.00000000000E+00  0.00000000000E+00  0.45593999997E+02  0.45594000000E+02  0.51100000000E-03 0. -1.
         11   -1    0    0    0    0 -0.00000000000E+00 -0.00000000000E+00 -0.45593999997E+02  0.45594000000E+02  0.51100000000E-03 0.  1.
    9900012    2    1    2    0    0  0.17420320710E+01 -0.43208859897E+02 -0.12612426565E+02  0.46142317041E+02  0.99999934347E+01 0.  0.
         12    1    1    2    0    0 -0.17420320710E+01  0.43208859897E+02  0.12612426565E+02  0.45045682959E+02  0.00000000000E+00 0. -1.
         11    1    3    3    0    0  0.31136130547E+01 -0.94475891654E+01 -0.46886798769E+01  0.10997056267E+02  0.51100000000E-03 0. -1.
        -11    1    3    3    0    0 -0.30998110434E+00 -0.53019503866E+01 -0.34078617502E+01  0.63103318579E+01  0.51100000000E-03 0.  1.
        -12    1    3    3    0    0 -0.10615998794E+01 -0.28459320345E+02 -0.45158849380E+01  0.28834928916E+02  0.00000000000E+00 0.  1.
</event>
<event>
 7    1  0.2425980E-008  0.4614232E+02  0.7816164E-02  0.1320468E+00
        -11   -1    0    0    0    0  0.00000000000E+00  0.00000000000E+00  0.45593999997E+02  0.45594000000E+02  0.51100000000E-03 0.  1.
         11   -1    0    0    0    0 -0.00000000000E+00 -0.00000000000E+00 -0.45593999997E+02  0.45594000000E+02  0.51100000000E-03 0. -1.
    9900012    2    1    2    0    0  0.37090176595E+02 -0.24120304642E+02  0.84642281538E+01  0.46142318141E+02  0.10000003468E+02 0.  0.
         12    1    1    2    0    0 -0.37090176595E+02  0.24120304642E+02 -0.84642281538E+01  0.45045681859E+02  0.00000000000E+00 0. -1.
         11    1    3    3    0    0  0.18013164537E+02 -0.14744673444E+02  0.61087270761E+00  0.23286319102E+02  0.51100000000E-03 0. -1.
        -11    1    3    3    0    0  0.14743726574E+02 -0.75436353783E+01  0.47839155483E+01  0.17238612364E+02  0.51100000000E-03 0.  1.
        -12    1    3    3    0    0  0.43332854838E+01 -0.18319958199E+01  0.30694398979E+01  0.56173866749E+01  0.00000000000E+00 0.  1.
</event>
<event>
 7    1  0.2425980E-008  0.4614232E+02  0.7816164E-02  0.1320468E+00
        -11   -1    0    0    0    0  0.00000000000E+00  0.00000000000E+00  0.45593999997E+02  0.45594000000E+02  0.51100000000E-03 0.  1.
         11   -1    0    0    0    0 -0.00000000000E+00 -0.00000000000E+00 -0.45593999997E+02  0.45594000000E+02  0.51100000000E-03 0. -1.
    9900012    2    1    2    0    0 -0.11880489254E+02 -0.35459359302E+02  0.25111775573E+02  0.46142318082E+02  0.10000002928E+02 0.  0.
         12    1    1    2    0    0  0.11880489254E+02  0.35459359302E+02 -0.25111775573E+02  0.45045681918E+02  0.00000000000E+00 0. -1.
         11    1    3    3    0    0  0.86914886282E+00 -0.52412938603E+01  0.56063212712E+01  0.77238215627E+01  0.51100000000E-03 0.  1.
        -11    1    3    3    0    0 -0.33825264915E+01 -0.49283274105E+01  0.21723435567E+01  0.63599507326E+01  0.51100000000E-03 0. -1.
        -12    1    3    3    0    0 -0.93671116251E+01 -0.25289738031E+02  0.17333110745E+02  0.32058545787E+02  0.00000000000E+00 0.  1.
</event>
<event>
 7    1  0.2425980E-008  0.4614232E+02  0.7816164E-02  0.1320468E+00
        -11   -1    0    0    0    0  0.00000000000E+00  0.00000000000E+00  0.45593999997E+02  0.45594000000E+02  0.51100000000E-03 0.  1.
         11   -1    0    0    0    0 -0.00000000000E+00 -0.00000000000E+00 -0.45593999997E+02  0.45594000000E+02  0.51100000000E-03 0. -1.
    9900012    2    1    2    0    0 -0.86856217383E+01 -0.20869590611E+02  0.38963234894E+02  0.46142317513E+02  0.99999977417E+01 0.  0.
         12    1    1    2    0    0  0.86856217383E+01  0.20869590611E+02 -0.38963234894E+02  0.45045682487E+02  0.00000000000E+00 0. -1.
         11    1    3    3    0    0 -0.38452571531E+01 -0.63735636403E+01  0.52369028732E+01  0.91012893600E+01  0.51100000000E-03 0. -1.
        -11    1    3    3    0    0 -0.18671292928E+01 -0.41702552533E+01  0.98440072197E+01  0.10852726804E+02  0.51100000000E-03 0.  1.
         12    1    3    3    0    0 -0.29732352925E+01 -0.10325771717E+02  0.23882324801E+02  0.26188301350E+02  0.00000000000E+00 0. -1.
</event>
<event>
 7    1  0.2425980E-008  0.4614232E+02  0.7816164E-02  0.1320468E+00
        -11   -1    0    0    0    0  0.00000000000E+00  0.00000000000E+00  0.45593999997E+02  0.45594000000E+02  0.51100000000E-03 0.  1.
         11   -1    0    0    0    0 -0.00000000000E+00 -0.00000000000E+00 -0.45593999997E+02  0.45594000000E+02  0.51100000000E-03 0. -1.
    9900012    2    1    2    0    0 -0.32302123070E+02  0.27997382573E+02  0.14206782825E+02  0.46142320251E+02  0.10000022707E+02 0.  0.
         12    1    1    2    0    0  0.32302123070E+02 -0.27997382573E+02 -0.14206782825E+02  0.45045679749E+02  0.00000000000E+00 0. -1.
         11    1    3    3    0    0 -0.15791418384E+02  0.10349661175E+02  0.29969541874E+01  0.19117168088E+02  0.51100000000E-03 0. -1.
        -11    1    3    3    0    0 -0.66408816651E+01  0.92503659093E+01  0.33531257807E+01  0.11870721609E+02  0.51100000000E-03 0.  1.
        -12    1    3    3    0    0 -0.98698230212E+01  0.83973554882E+01  0.78567028568E+01  0.15154430555E+02  0.00000000000E+00 0.  1.
</event>
<event>
 7    1  0.2425980E-008  0.4614232E+02  0.7816164E-02  0.1320468E+00
        -11   -1    0    0    0    0  0.00000000000E+00  0.00000000000E+00  0.45593999997E+02  0.45594000000E+02  0.51100000000E-03 0.  1.
         11   -1    0    0    0    0 -0.00000000000E+00 -0.00000000000E+00 -0.45593999997E+02  0.45594000000E+02  0.51100000000E-03 0. -1.
    9900012    2    1    2    0    0 -0.13636646782E+02  0.29968280300E+02  0.30741788807E+02  0.46142317203E+02  0.99999949119E+01 0.  0.
         12    1    1    2    0    0  0.13636646782E+02 -0.29968280300E+02 -0.30741788807E+02  0.45045682797E+02  0.00000000000E+00 0. -1.
         11    1    3    3    0    0 -0.74998803306E-01  0.54619087436E+01  0.58764264179E+01  0.80231203188E+01  0.51100000000E-03 0. -1.
        -11    1    3    3    0    0  0.54743939462E+00 -0.62554361179E-01  0.34644535890E+00  0.65086679645E+00  0.51100000000E-03 0.  1.
        -12    1    3    3    0    0 -0.14109087374E+02  0.24568925917E+02  0.24518917030E+02  0.37468330088E+02  0.00000000000E+00 0.  1.
</event>
<event>
 7    1  0.2425980E-008  0.4614231E+02  0.7816164E-02  0.1320468E+00
        -11   -1    0    0    0    0  0.00000000000E+00  0.00000000000E+00  0.45593999997E+02  0.45594000000E+02  0.51100000000E-03 0.  1.
         11   -1    0    0    0    0 -0.00000000000E+00 -0.00000000000E+00 -0.45593999997E+02  0.45594000000E+02  0.51100000000E-03 0. -1.
    9900012    2    1    2    0    0  0.16339194122E+02 -0.28872297822E+02  0.30471872221E+02  0.46142313828E+02  0.99999641330E+01 0.  0.
         12    1    1    2    0    0 -0.16339194122E+02  0.28872297822E+02 -0.30471872221E+02  0.45045686172E+02  0.00000000000E+00 0. -1.
         11    1    3    3    0    0  0.34247518586E+01 -0.55885022358E+01  0.11639882629E+02  0.13358411224E+02  0.51100000000E-03 0. -1.
        -11    1    3    3    0    0  0.10456608679E+01 -0.35552127656E+01  0.36751593166E+01  0.52191705014E+01  0.51100000000E-03 0.  1.
        -12    1    3    3    0    0  0.11868781395E+02 -0.19728582820E+02  0.15156830275E+02  0.27564732103E+02  0.00000000000E+00 0.  1.
</event>
<event>
 7    1  0.2425980E-008  0.4614231E+02  0.7816164E-02  0.1320468E+00
        -11   -1    0    0    0    0  0.00000000000E+00  0.00000000000E+00  0.45593999997E+02  0.45594000000E+02  0.51100000000E-03 0.  1.
         11   -1    0    0    0    0 -0.00000000000E+00 -0.00000000000E+00 -0.45593999997E+02  0.45594000000E+02  0.51100000000E-03 0. -1.
    9900012    2    1    2    0    0 -0.36400134021E+02  0.11207210140E+02  0.24052910113E+02  0.46142314294E+02  0.99999683809E+01 0.  0.
         12    1    1    2    0    0  0.36400134021E+02 -0.11207210140E+02 -0.24052910113E+02  0.45045685706E+02  0.00000000000E+00 0. -1.
         11    1    3    3    0    0 -0.54552407186E-01  0.39401098555E+00  0.22425838953E+01  0.22775871905E+01  0.51100000000E-03 0. -1.
        -11    1    3    3    0    0 -0.12085633834E+02  0.46993343746E+01  0.61745261845E+01  0.14362139903E+02  0.51100000000E-03 0.  1.
        -12    1    3    3    0    0 -0.24259947779E+02  0.61138647798E+01  0.15635800033E+02  0.29502587200E+02  0.00000000000E+00 0.  1.
</event>
<event>
 7    1  0.2425980E-008  0.4614232E+02  0.7816164E-02  0.1320468E+00
        -11   -1    0    0    0    0  0.00000000000E+00  0.00000000000E+00  0.45593999997E+02  0.45594000000E+02  0.51100000000E-03 0.  1.
         11   -1    0    0    0    0 -0.00000000000E+00 -0.00000000000E+00 -0.45593999997E+02  0.45594000000E+02  0.51100000000E-03 0. -1.
    9900012    2    1    2    0    0 -0.67675600912E+01  0.44489615597E+02  0.19968622208E+01  0.46142320692E+02  0.10000026726E+02 0.  0.
         12    1    1    2    0    0  0.67675600912E+01 -0.44489615597E+02 -0.19968622208E+01  0.45045679308E+02  0.00000000000E+00 0. -1.
         11    1    3    3    0    0 -0.10669507665E+01  0.12103057776E+02 -0.12650623070E+01  0.12215677401E+02  0.51100000000E-03 0. -1.
        -11    1    3    3    0    0  0.15519128185E-02  0.15989810766E+02  0.42295498020E+01  0.16539744331E+02  0.51100000000E-03 0.  1.
        -12    1    3    3    0    0 -0.57021612375E+01  0.16396747056E+02 -0.96762527417E+00  0.17386898960E+02  0.00000000000E+00 0.  1.
</event>
<event>
 7    1  0.2425980E-008  0.4614232E+02  0.7816164E-02  0.1320468E+00
        -11   -1    0    0    0    0  0.00000000000E+00  0.00000000000E+00  0.45593999997E+02  0.45594000000E+02  0.51100000000E-03 0.  1.
         11   -1    0    0    0    0 -0.00000000000E+00 -0.00000000000E+00 -0.45593999997E+02  0.45594000000E+02  0.51100000000E-03 0. -1.
    9900012    2    1    2    0    0 -0.10360408035E+02  0.36935435704E+02  0.23612477140E+02  0.46142317166E+02  0.99999945757E+01 0.  0.
         12    1    1    2    0    0  0.10360408035E+02 -0.36935435704E+02 -0.23612477140E+02  0.45045682834E+02  0.00000000000E+00 0. -1.
         11    1    3    3    0    0 -0.47238829378E+00  0.10252737230E+02  0.10843143325E+02  0.14930355951E+02  0.51100000000E-03 0. -1.
        -11    1    3    3    0    0 -0.31369844751E+01  0.70421667321E+01  0.36474999459E+01  0.85286012919E+01  0.51100000000E-03 0.  1.
        -12    1    3    3    0    0 -0.67510352657E+01  0.19640531742E+02  0.91218338688E+01  0.22683359923E+02  0.00000000000E+00 0.  1.
</event>
<event>
 7    1  0.2425980E-008  0.4614232E+02  0.7816164E-02  0.1320468E+00
        -11   -1    0    0    0    0  0.00000000000E+00  0.00000000000E+00  0.45593999997E+02  0.45594000000E+02  0.51100000000E-03 0.  1.
         11   -1    0    0    0    0 -0.00000000000E+00 -0.00000000000E+00 -0.45593999997E+02  0.45594000000E+02  0.51100000000E-03 0. -1.
    9900012    2    1    2    0    0  0.18014674729E+02 -0.13387079858E+02  0.39055994089E+02  0.46142322217E+02  0.10000040628E+02 0.  0.
         12    1    1    2    0    0 -0.18014674729E+02  0.13387079858E+02 -0.39055994089E+02  0.45045677783E+02  0.00000000000E+00 0. -1.
         11    1    3    3    0    0  0.34322784867E+01 -0.59882492549E+01  0.12067749222E+02  0.13902166605E+02  0.51100000000E-03 0. -1.
        -11    1    3    3    0    0  0.13614886020E+02 -0.75865224819E+01  0.27085608624E+02  0.31249810232E+02  0.51100000000E-03 0.  1.
         12    1    3    3    0    0  0.96751022205E+00  0.18769187918E+00 -0.97363757408E-01  0.99034538043E+00  0.00000000000E+00 0. -1.
</event>
<event>
 7    1  0.2425980E-008  0.4614232E+02  0.7816164E-02  0.1320468E+00
        -11   -1    0    0    0    0  0.00000000000E+00  0.00000000000E+00  0.45593999997E+02  0.45594000000E+02  0.51100000000E-03 0. -1.
         11   -1    0    0    0    0 -0.00000000000E+00 -0.00000000000E+00 -0.45593999997E+02  0.45594000000E+02  0.51100000000E-03 0.  1.
    9900012    2    1    2    0    0 -0.30068730722E+02  0.14260893902E+02 -0.30358059686E+02  0.46142318186E+02  0.10000003878E+02 0.  0.
         12    1    1    2    0    0  0.30068730722E+02 -0.14260893902E+02  0.30358059686E+02  0.45045681814E+02  0.00000000000E+00 0. -1.
         11    1    3    3    0    0 -0.19954768022E+02  0.68377135802E+01 -0.22478114509E+02  0.30825520692E+02  0.51100000000E-03 0.  1.
        -11    1    3    3    0    0 -0.67204647735E+01  0.55749682589E+01 -0.73558827417E+01  0.11417264516E+02  0.51100000000E-03 0. -1.
        -12    1    3    3    0    0 -0.33934979270E+01  0.18482120633E+01 -0.52406243584E+00  0.38995329782E+01  0.00000000000E+00 0.  1.
</event>
<event>
 7    1  0.2425980E-008  0.4614232E+02  0.7816164E-02  0.1320468E+00
        -11   -1    0    0    0    0  0.00000000000E+00  0.00000000000E+00  0.45593999997E+02  0.45594000000E+02  0.51100000000E-03 0.  1.
         11   -1    0    0    0    0 -0.00000000000E+00 -0.00000000000E+00 -0.45593999997E+02  0.45594000000E+02  0.51100000000E-03 0. -1.
    9900012    2    1    2    0    0 -0.42965770259E+02 -0.20775716495E+01  0.13369360159E+02  0.46142317532E+02  0.99999979142E+01 0.  0.
         12    1    1    2    0    0  0.42965770259E+02  0.20775716495E+01 -0.13369360159E+02  0.45045682468E+02  0.00000000000E+00 0. -1.
         11    1    3    3    0    0 -0.25266527804E+02  0.26473472669E+01  0.64059278750E+01  0.26200034103E+02  0.51100000000E-03 0. -1.
        -11    1    3    3    0    0 -0.67011115587E+01 -0.34666286746E+01  0.19659504399E+01  0.77966256729E+01  0.51100000000E-03 0.  1.
         12    1    3    3    0    0 -0.10998130897E+02 -0.12582902418E+01  0.49974818437E+01  0.12145657756E+02  0.00000000000E+00 0. -1.
</event>
<event>
 7    1  0.2425980E-008  0.4614232E+02  0.7816164E-02  0.1320468E+00
        -11   -1    0    0    0    0  0.00000000000E+00  0.00000000000E+00  0.45593999997E+02  0.45594000000E+02  0.51100000000E-03 0. -1.
         11   -1    0    0    0    0 -0.00000000000E+00 -0.00000000000E+00 -0.45593999997E+02  0.45594000000E+02  0.51100000000E-03 0.  1.
    9900012    2    1    2    0    0  0.10154556786E+02 -0.13497609232E+02 -0.41758987278E+02  0.46142317665E+02  0.99999991252E+01 0.  0.
         12    1    1    2    0    0 -0.10154556786E+02  0.13497609232E+02  0.41758987278E+02  0.45045682335E+02  0.00000000000E+00 0. -1.
         11    1    3    3    0    0  0.28746188420E+01 -0.42260369943E+01 -0.47419473407E+01  0.69720073872E+01  0.51100000000E-03 0. -1.
        -11    1    3    3    0    0  0.50535340664E+01 -0.67011345915E+01 -0.18115942110E+02  0.19965739911E+02  0.51100000000E-03 0.  1.
         12    1    3    3    0    0  0.22264038775E+01 -0.25704376465E+01 -0.18901097827E+02  0.19204570367E+02  0.00000000000E+00 0. -1.
</event>
<event>
 7    1  0.2425980E-008  0.4614232E+02  0.7816164E-02  0.1320468E+00
        -11   -1    0    0    0    0  0.00000000000E+00  0.00000000000E+00  0.45593999997E+02  0.45594000000E+02  0.51100000000E-03 0.  1.
         11   -1    0    0    0    0 -0.00000000000E+00 -0.00000000000E+00 -0.45593999997E+02  0.45594000000E+02  0.51100000000E-03 0. -1.
    9900012    2    1    2    0    0  0.35621991114E+02 -0.26200762283E+02  0.85852994209E+01  0.46142316952E+02  0.99999926241E+01 0.  0.
         12    1    1    2    0    0 -0.35621991114E+02  0.26200762283E+02 -0.85852994209E+01  0.45045683048E+02  0.00000000000E+00 0. -1.
         11    1    3    3    0    0  0.46520886712E+01 -0.60745190716E+01  0.47844441592E+00  0.76661998589E+01  0.51100000000E-03 0. -1.
        -11    1    3    3    0    0  0.16684052220E+02 -0.14402186544E+02  0.29062092579E+01  0.22231208429E+02  0.51100000000E-03 0.  1.
        -12    1    3    3    0    0  0.14285850223E+02 -0.57240566670E+01  0.52006457471E+01  0.16244908664E+02  0.00000000000E+00 0.  1.
</event>
<event>
 7    1  0.2425980E-008  0.4614232E+02  0.7816164E-02  0.1320468E+00
        -11   -1    0    0    0    0  0.00000000000E+00  0.00000000000E+00  0.45593999997E+02  0.45594000000E+02  0.51100000000E-03 0.  1.
         11   -1    0    0    0    0 -0.00000000000E+00 -0.00000000000E+00 -0.45593999997E+02  0.45594000000E+02  0.51100000000E-03 0. -1.
    9900012    2    1    2    0    0  0.23629506927E+02 -0.29434830936E+02  0.24583540066E+02  0.46142319718E+02  0.10000017848E+02 0.  0.
         12    1    1    2    0    0 -0.23629506927E+02  0.29434830936E+02 -0.24583540066E+02  0.45045680282E+02  0.00000000000E+00 0. -1.
         11    1    3    3    0    0  0.45303782734E+01 -0.78313457661E+01  0.94764406256E+01  0.13101802586E+02  0.51100000000E-03 0. -1.
        -11    1    3    3    0    0  0.87574897011E+01 -0.67774104335E+01  0.77897283352E+01  0.13539083641E+02  0.51100000000E-03 0.  1.
         12    1    3    3    0    0  0.10341638953E+02 -0.14826074737E+02  0.73173711054E+01  0.19501433491E+02  0.00000000000E+00 0. -1.
</event>
<event>
 7    1  0.2425980E-008  0.4614232E+02  0.7816164E-02  0.1320468E+00
        -11   -1    0    0    0    0  0.00000000000E+00  0.00000000000E+00  0.45593999997E+02  0.45594000000E+02  0.51100000000E-03 0.  1.
         11   -1    0    0    0    0 -0.00000000000E+00 -0.00000000000E+00 -0.45593999997E+02  0.45594000000E+02  0.51100000000E-03 0. -1.
    9900012    2    1    2    0    0 -0.44550480542E+02 -0.10636114038E+01  0.65754716903E+01  0.46142318590E+02  0.10000007562E+02 0.  0.
         12    1    1    2    0    0  0.44550480542E+02  0.10636114038E+01 -0.65754716903E+01  0.45045681410E+02  0.00000000000E+00 0. -1.
         11    1    3    3    0    0 -0.76513941086E+01 -0.27495852519E+01  0.45493901181E-01  0.81305670662E+01  0.51100000000E-03 0. -1.
        -11    1    3    3    0    0 -0.65119291746E+01 -0.18102683104E+01  0.22645606068E+01  0.71281503866E+01  0.51100000000E-03 0.  1.
        -12    1    3    3    0    0 -0.30387157258E+02  0.34962421585E+01  0.42654171822E+01  0.30883601137E+02  0.00000000000E+00 0.  1.
</event>
<event>
 7    1  0.2425980E-008  0.4614232E+02  0.7816164E-02  0.1320468E+00
        -11   -1    0    0    0    0  0.00000000000E+00  0.00000000000E+00  0.45593999997E+02  0.45594000000E+02  0.51100000000E-03 0.  1.
         11   -1    0    0    0    0 -0.00000000000E+00 -0.00000000000E+00 -0.45593999997E+02  0.45594000000E+02  0.51100000000E-03 0. -1.
    9900012    2    1    2    0    0 -0.28563517562E+02  0.49377215031E+01  0.34479818334E+02  0.46142317615E+02  0.99999986696E+01 0.  0.
         12    1    1    2    0    0  0.28563517562E+02 -0.49377215031E+01 -0.34479818334E+02  0.45045682385E+02  0.00000000000E+00 0. -1.
         11    1    3    3    0    0 -0.89758522087E+01  0.36352295748E+01  0.14967295083E+02  0.17826966632E+02  0.51100000000E-03 0. -1.
        -11    1    3    3    0    0 -0.54289394432E+00 -0.11161171767E+01  0.64752772838E+00  0.13999084995E+01  0.51100000000E-03 0.  1.
        -12    1    3    3    0    0 -0.19044771409E+02  0.24186091050E+01  0.18864995523E+02  0.26915442484E+02  0.00000000000E+00 0.  1.
</event>
<event>
 7    1  0.2425980E-008  0.4614232E+02  0.7816164E-02  0.1320468E+00
        -11   -1    0    0    0    0  0.00000000000E+00  0.00000000000E+00  0.45593999997E+02  0.45594000000E+02  0.51100000000E-03 0.  1.
         11   -1    0    0    0    0 -0.00000000000E+00 -0.00000000000E+00 -0.45593999997E+02  0.45594000000E+02  0.51100000000E-03 0. -1.
    9900012    2    1    2    0    0 -0.96067777801E+01  0.71184034632E+01  0.43429845698E+02  0.46142319358E+02  0.10000014561E+02 0.  0.
         12    1    1    2    0    0  0.96067777801E+01 -0.71184034632E+01 -0.43429845698E+02  0.45045680642E+02  0.00000000000E+00 0. -1.
         11    1    3    3    0    0 -0.10563569783E+01 -0.16020508310E+00  0.16804733507E+01  0.19913680417E+01  0.51100000000E-03 0. -1.
        -11    1    3    3    0    0 -0.60335499136E+01  0.54627126578E+01  0.13736853392E+02  0.15967031519E+02  0.51100000000E-03 0.  1.
         12    1    3    3    0    0 -0.25168708881E+01  0.18158958885E+01  0.28012518955E+02  0.28183919797E+02  0.00000000000E+00 0. -1.
</event>
<event>
 7    1  0.2425980E-008  0.4614232E+02  0.7816164E-02  0.1320468E+00
        -11   -1    0    0    0    0  0.00000000000E+00  0.00000000000E+00  0.45593999997E+02  0.45594000000E+02  0.51100000000E-03 0.  1.
         11   -1    0    0    0    0 -0.00000000000E+00 -0.00000000000E+00 -0.45593999997E+02  0.45594000000E+02  0.51100000000E-03 0. -1.
    9900012    2    1    2    0    0 -0.10681425226E+02  0.42510923809E+02  0.10384698096E+02  0.46142318270E+02  0.10000004639E+02 0.  0.
         12    1    1    2    0    0  0.10681425226E+02 -0.42510923809E+02 -0.10384698096E+02  0.45045681730E+02  0.00000000000E+00 0. -1.
         11    1    3    3    0    0 -0.44106841585E+01  0.25484959413E+02  0.69537594186E+01  0.26782308738E+02  0.51100000000E-03 0. -1.
        -11    1    3    3    0    0 -0.49844348540E-01  0.84798493912E+01  0.13546040220E+01  0.85875073493E+01  0.51100000000E-03 0.  1.
         12    1    3    3    0    0 -0.62208967189E+01  0.85461150054E+01  0.20763346554E+01  0.10772502183E+02  0.00000000000E+00 0. -1.
</event>
<event>
 7    1  0.2425980E-008  0.4614232E+02  0.7816164E-02  0.1320468E+00
        -11   -1    0    0    0    0  0.00000000000E+00  0.00000000000E+00  0.45593999997E+02  0.45594000000E+02  0.51100000000E-03 0. -1.
         11   -1    0    0    0    0 -0.00000000000E+00 -0.00000000000E+00 -0.45593999997E+02  0.45594000000E+02  0.51100000000E-03 0.  1.
    9900012    2    1    2    0    0 -0.26365245260E+01  0.44854290777E+02  0.32023198416E+01  0.46142317465E+02  0.99999972961E+01 0.  0.
         12    1    1    2    0    0  0.26365245260E+01 -0.44854290777E+02 -0.32023198416E+01  0.45045682535E+02  0.00000000000E+00 0. -1.
         11    1    3    3    0    0 -0.12226726839E+01  0.21996719819E+02  0.65374806847E+01  0.22980192889E+02  0.51100000000E-03 0. -1.
        -11    1    3    3    0    0 -0.15259317465E+01  0.18868268390E+02 -0.27521301244E+01  0.19128884971E+02  0.51100000000E-03 0.  1.
         12    1    3    3    0    0  0.11207990440E+00  0.39893025686E+01 -0.58303071875E+00  0.40332396046E+01  0.00000000000E+00 0. -1.
</event>
<event>
 7    1  0.2425980E-008  0.4614232E+02  0.7816164E-02  0.1320468E+00
        -11   -1    0    0    0    0  0.00000000000E+00  0.00000000000E+00  0.45593999997E+02  0.45594000000E+02  0.51100000000E-03 0.  1.
         11   -1    0    0    0    0 -0.00000000000E+00 -0.00000000000E+00 -0.45593999997E+02  0.45594000000E+02  0.51100000000E-03 0. -1.
    9900012    2    1    2    0    0  0.29964299652E+01  0.27814495801E+02  0.35305650187E+02  0.46142315364E+02  0.99999781410E+01 0.  0.
         12    1    1    2    0    0 -0.29964299652E+01 -0.27814495801E+02 -0.35305650187E+02  0.45045684636E+02  0.00000000000E+00 0. -1.
         11    1    3    3    0    0  0.24133898428E+01  0.10420153435E+02  0.11376490003E+02  0.15615011149E+02  0.51100000000E-03 0. -1.
        -11    1    3    3    0    0  0.35726621675E+01  0.10624117407E+02  0.17167428686E+02  0.20502594801E+02  0.51100000000E-03 0.  1.
         12    1    3    3    0    0 -0.29896220451E+01  0.67702249595E+01  0.67617314975E+01  0.10024709413E+02  0.00000000000E+00 0. -1.
</event>
<event>
 7    1  0.2425980E-008  0.4614232E+02  0.7816164E-02  0.1320468E+00
        -11   -1    0    0    0    0  0.00000000000E+00  0.00000000000E+00  0.45593999997E+02  0.45594000000E+02  0.51100000000E-03 0.  1.
         11   -1    0    0    0    0 -0.00000000000E+00 -0.00000000000E+00 -0.45593999997E+02  0.45594000000E+02  0.51100000000E-03 0. -1.
    9900012    2    1    2    0    0 -0.98567762542E+00 -0.44463789536E+00  0.45032697827E+02  0.46142321663E+02  0.10000035581E+02 0.  0.
         12    1    1    2    0    0  0.98567762542E+00  0.44463789536E+00 -0.45032697827E+02  0.45045678337E+02  0.00000000000E+00 0. -1.
         11    1    3    3    0    0 -0.32951610314E+00  0.93536337420E+00  0.24402039940E+01  0.26340237846E+01  0.51100000000E-03 0. -1.
        -11    1    3    3    0    0 -0.12671087302E+01 -0.76110564919E+00  0.42612784495E+02  0.42638412834E+02  0.51100000000E-03 0.  1.
         12    1    3    3    0    0  0.61094720793E+00 -0.61889562037E+00 -0.20290661491E-01  0.86988504455E+00  0.00000000000E+00 0. -1.
</event>
<event>
 7    1  0.2425980E-008  0.4614232E+02  0.7816164E-02  0.1320468E+00
        -11   -1    0    0    0    0  0.00000000000E+00  0.00000000000E+00  0.45593999997E+02  0.45594000000E+02  0.51100000000E-03 0.  1.
         11   -1    0    0    0    0 -0.00000000000E+00 -0.00000000000E+00 -0.45593999997E+02  0.45594000000E+02  0.51100000000E-03 0. -1.
    9900012    2    1    2    0    0  0.35873555400E+02  0.26018085153E+02  0.80784104088E+01  0.46142318223E+02  0.10000004208E+02 0.  0.
         12    1    1    2    0    0 -0.35873555400E+02 -0.26018085153E+02 -0.80784104088E+01  0.45045681777E+02  0.00000000000E+00 0. -1.
         11    1    3    3    0    0  0.24840375845E+02  0.13720957764E+02  0.60381213089E+01  0.29013236001E+02  0.51100000000E-03 0. -1.
        -11    1    3    3    0    0  0.81125505925E+00  0.13124917511E+01  0.14424021255E+01  0.21121774359E+01  0.51100000000E-03 0.  1.
         12    1    3    3    0    0  0.10221924496E+02  0.10984635638E+02  0.59788697432E+00  0.15016904785E+02  0.00000000000E+00 0. -1.
</event>
<event>
 7    1  0.2425980E-008  0.4614232E+02  0.7816164E-02  0.1320468E+00
        -11   -1    0    0    0    0  0.00000000000E+00  0.00000000000E+00  0.45593999997E+02  0.45594000000E+02  0.51100000000E-03 0.  1.
         11   -1    0    0    0    0 -0.00000000000E+00 -0.00000000000E+00 -0.45593999997E+02  0.45594000000E+02  0.51100000000E-03 0. -1.
    9900012    2    1    2    0    0 -0.28015345392E+02 -0.19871006445E+02  0.29144418541E+02  0.46142316448E+02  0.99999880295E+01 0.  0.
         12    1    1    2    0    0  0.28015345392E+02  0.19871006445E+02 -0.29144418541E+02  0.45045683552E+02  0.00000000000E+00 0. -1.
         11    1    3    3    0    0 -0.38137821947E+01 -0.68952906115E+00  0.43519132400E+01  0.58274809364E+01  0.51100000000E-03 0.  1.
        -11    1    3    3    0    0 -0.52665416884E+01 -0.11971975755E+01  0.63950922322E+01  0.83706002359E+01  0.51100000000E-03 0. -1.
        -12    1    3    3    0    0 -0.18935021509E+02 -0.17984279808E+02  0.18397413069E+02  0.31944235276E+02  0.00000000000E+00 0.  1.
</event>
<event>
 7    1  0.2425980E-008  0.4614232E+02  0.7816164E-02  0.1320468E+00
        -11   -1    0    0    0    0  0.00000000000E+00  0.00000000000E+00  0.45593999997E+02  0.45594000000E+02  0.51100000000E-03 0. -1.
         11   -1    0    0    0    0 -0.00000000000E+00 -0.00000000000E+00 -0.45593999997E+02  0.45594000000E+02  0.51100000000E-03 0.  1.
    9900012    2    1    2    0    0 -0.39731319681E+02  0.18255304608E+02  0.10829555034E+02  0.46142321271E+02  0.10000032002E+02 0.  0.
         12    1    1    2    0    0  0.39731319681E+02 -0.18255304608E+02 -0.10829555034E+02  0.45045678729E+02  0.00000000000E+00 0. -1.
         11    1    3    3    0    0 -0.91813784708E+01  0.39234138116E+01  0.38329096308E+01  0.10694955963E+02  0.51100000000E-03 0. -1.
        -11    1    3    3    0    0 -0.29652986972E+02  0.13996609484E+02  0.83053157458E+01  0.33825773950E+02  0.51100000000E-03 0.  1.
         12    1    3    3    0    0 -0.89695423849E+00  0.33528131295E+00 -0.13086703426E+01  0.16215913574E+01  0.00000000000E+00 0. -1.
</event>
<event>
 7    1  0.2425980E-008  0.4614232E+02  0.7816164E-02  0.1320468E+00
        -11   -1    0    0    0    0  0.00000000000E+00  0.00000000000E+00  0.45593999997E+02  0.45594000000E+02  0.51100000000E-03 0.  1.
         11   -1    0    0    0    0 -0.00000000000E+00 -0.00000000000E+00 -0.45593999997E+02  0.45594000000E+02  0.51100000000E-03 0. -1.
    9900012    2    1    2    0    0 -0.86185345726E+01  0.33773851800E+02  0.28533509951E+02  0.46142318812E+02  0.10000009582E+02 0.  0.
         12    1    1    2    0    0  0.86185345726E+01 -0.33773851800E+02 -0.28533509951E+02  0.45045681188E+02  0.00000000000E+00 0. -1.
         11    1    3    3    0    0 -0.38878675866E+01  0.66835388722E+01  0.45519158548E+01  0.89724659062E+01  0.51100000000E-03 0. -1.
        -11    1    3    3    0    0 -0.53279432297E+01  0.22267026788E+02  0.22470905524E+02  0.32080353121E+02  0.51100000000E-03 0.  1.
         12    1    3    3    0    0  0.59727624374E+00  0.48232861400E+01  0.15106885723E+01  0.50894997851E+01  0.00000000000E+00 0. -1.
</event>
<event>
 7    1  0.2425980E-008  0.4614233E+02  0.7816164E-02  0.1320468E+00
        -11   -1    0    0    0    0  0.00000000000E+00  0.00000000000E+00  0.45593999997E+02  0.45594000000E+02  0.51100000000E-03 0.  1.
         11   -1    0    0    0    0 -0.00000000000E+00 -0.00000000000E+00 -0.45593999997E+02  0.45594000000E+02  0.51100000000E-03 0. -1.
    9900012    2    1    2    0    0 -0.32414770653E+02 -0.27566390028E+02  0.14781394362E+02  0.46142325014E+02  0.10000066135E+02 0.  0.
         12    1    1    2    0    0  0.32414770653E+02  0.27566390028E+02 -0.14781394362E+02  0.45045674986E+02  0.00000000000E+00 0. -1.
         11    1    3    3    0    0 -0.87691782566E+01 -0.55941499017E+01  0.53944423688E+01  0.11717209956E+02  0.51100000000E-03 0. -1.
        -11    1    3    3    0    0 -0.11532590388E+02 -0.10926793228E+02  0.77041568859E+00  0.15905627680E+02  0.51100000000E-03 0.  1.
        -12    1    3    3    0    0 -0.12113002009E+02 -0.11045446898E+02  0.86165363046E+01  0.18519487378E+02  0.00000000000E+00 0.  1.
</event>
<event>
 7    1  0.2425980E-008  0.4614232E+02  0.7816164E-02  0.1320468E+00
        -11   -1    0    0    0    0  0.00000000000E+00  0.00000000000E+00  0.45593999997E+02  0.45594000000E+02  0.51100000000E-03 0.  1.
         11   -1    0    0    0    0 -0.00000000000E+00 -0.00000000000E+00 -0.45593999997E+02  0.45594000000E+02  0.51100000000E-03 0. -1.
    9900012    2    1    2    0    0 -0.14516939595E+02 -0.74944558340E+01  0.41978627644E+02  0.46142316718E+02  0.99999904866E+01 0.  0.
         12    1    1    2    0    0  0.14516939595E+02  0.74944558340E+01 -0.41978627644E+02  0.45045683282E+02  0.00000000000E+00 0. -1.
         11    1    3    3    0    0 -0.17926295418E+01  0.23323551068E+01  0.76601231580E+01  0.82055400844E+01  0.51100000000E-03 0. -1.
        -11    1    3    3    0    0 -0.59706463051E+01 -0.56860589015E+01  0.17808381537E+02  0.19624432129E+02  0.51100000000E-03 0.  1.
         12    1    3    3    0    0 -0.67536637480E+01 -0.41407520393E+01  0.16510122949E+02  0.18312344505E+02  0.00000000000E+00 0. -1.
</event>
<event>
 7    1  0.2425980E-008  0.4614232E+02  0.7816164E-02  0.1320468E+00
        -11   -1    0    0    0    0  0.00000000000E+00  0.00000000000E+00  0.45593999997E+02  0.45594000000E+02  0.51100000000E-03 0. -1.
         11   -1    0    0    0    0 -0.00000000000E+00 -0.00000000000E+00 -0.45593999997E+02  0.45594000000E+02  0.51100000000E-03 0.  1.
    9900012    2    1    2    0    0  0.12417184046E+02 -0.32203459614E+02  0.28945884706E+02  0.46142317497E+02  0.99999975950E+01 0.  0.
         12    1    1    2    0    0 -0.12417184046E+02  0.32203459614E+02 -0.28945884706E+02  0.45045682503E+02  0.00000000000E+00 0. -1.
         11    1    3    3    0    0  0.72477054841E+01 -0.26499360114E+02  0.23606157853E+02  0.36221485476E+02  0.51100000000E-03 0. -1.
        -11    1    3    3    0    0  0.32934758369E+01 -0.55357797350E+01  0.45059194880E+01  0.78609891907E+01  0.51100000000E-03 0.  1.
         12    1    3    3    0    0  0.18760027246E+01 -0.16831976499E+00  0.83380736447E+00  0.20598428307E+01  0.00000000000E+00 0. -1.
</event>
<event>
 7    1  0.2425980E-008  0.4614232E+02  0.7816164E-02  0.1320468E+00
        -11   -1    0    0    0    0  0.00000000000E+00  0.00000000000E+00  0.45593999997E+02  0.45594000000E+02  0.51100000000E-03 0.  1.
         11   -1    0    0    0    0 -0.00000000000E+00 -0.00000000000E+00 -0.45593999997E+02  0.45594000000E+02  0.51100000000E-03 0. -1.
    9900012    2    1    2    0    0 -0.24961754851E+02  0.31889711893E+02  0.19724871366E+02  0.46142317851E+02  0.10000000818E+02 0.  0.
         12    1    1    2    0    0  0.24961754851E+02 -0.31889711893E+02 -0.19724871366E+02  0.45045682149E+02  0.00000000000E+00 0. -1.
         11    1    3    3    0    0 -0.10883581322E+01  0.58432939840E+01  0.23470347952E+01  0.63903975306E+01  0.51100000000E-03 0. -1.
        -11    1    3    3    0    0 -0.10822277464E+02  0.14491009861E+02  0.11119418264E+02  0.21230933072E+02  0.51100000000E-03 0.  1.
         12    1    3    3    0    0 -0.13051119255E+02  0.11555408048E+02  0.62584183072E+01  0.18520987249E+02  0.00000000000E+00 0. -1.
</event>
<event>
 7    1  0.2425980E-008  0.4614232E+02  0.7816164E-02  0.1320468E+00
        -11   -1    0    0    0    0  0.00000000000E+00  0.00000000000E+00  0.45593999997E+02  0.45594000000E+02  0.51100000000E-03 0.  1.
         11   -1    0    0    0    0 -0.00000000000E+00 -0.00000000000E+00 -0.45593999997E+02  0.45594000000E+02  0.51100000000E-03 0. -1.
    9900012    2    1    2    0    0 -0.14166851475E+02  0.42749138239E+02 -0.96169735243E+00  0.46142319156E+02  0.10000012716E+02 0.  0.
         12    1    1    2    0    0  0.14166851475E+02 -0.42749138239E+02  0.96169735243E+00  0.45045680844E+02  0.00000000000E+00 0. -1.
         11    1    3    3    0    0 -0.29434896232E+01  0.14058216952E+02  0.24965153103E+01  0.14578415003E+02  0.51100000000E-03 0. -1.
        -11    1    3    3    0    0 -0.57290310694E+00  0.82064474192E+01 -0.54729803372E-01  0.82266027512E+01  0.51100000000E-03 0.  1.
         12    1    3    3    0    0 -0.10650458745E+02  0.20484473868E+02 -0.34034828593E+01  0.23337301402E+02  0.00000000000E+00 0. -1.
</event>
<event>
 7    1  0.2425980E-008  0.4614232E+02  0.7816164E-02  0.1320468E+00
        -11   -1    0    0    0    0  0.00000000000E+00  0.00000000000E+00  0.45593999997E+02  0.45594000000E+02  0.51100000000E-03 0. -1.
         11   -1    0    0    0    0 -0.00000000000E+00 -0.00000000000E+00 -0.45593999997E+02  0.45594000000E+02  0.51100000000E-03 0.  1.
    9900012    2    1    2    0    0  0.30062753025E+02 -0.72181446576E+01 -0.32760384117E+02  0.46142317641E+02  0.99999989027E+01 0.  0.
         12    1    1    2    0    0 -0.30062753025E+02  0.72181446576E+01  0.32760384117E+02  0.45045682359E+02  0.00000000000E+00 0. -1.
         11    1    3    3    0    0  0.10999583694E+02 -0.36500765284E+01 -0.12077366067E+02  0.16738478768E+02  0.51100000000E-03 0. -1.
        -11    1    3    3    0    0  0.44811031601E+01 -0.28847412937E+01 -0.99409735562E+01  0.11279404832E+02  0.51100000000E-03 0.  1.
         12    1    3    3    0    0  0.14582066171E+02 -0.68332683559E+00 -0.10742044494E+02  0.18124434040E+02  0.00000000000E+00 0. -1.
</event>
<event>
 7    1  0.2425980E-008  0.4614232E+02  0.7816164E-02  0.1320468E+00
        -11   -1    0    0    0    0  0.00000000000E+00  0.00000000000E+00  0.45593999997E+02  0.45594000000E+02  0.51100000000E-03 0.  1.
         11   -1    0    0    0    0 -0.00000000000E+00 -0.00000000000E+00 -0.45593999997E+02  0.45594000000E+02  0.51100000000E-03 0. -1.
    9900012    2    1    2    0    0 -0.43701751135E+02  0.10857242755E+02  0.11792875211E+01  0.46142317726E+02  0.99999996795E+01 0.  0.
         12    1    1    2    0    0  0.43701751135E+02 -0.10857242755E+02 -0.11792875211E+01  0.45045682274E+02  0.00000000000E+00 0. -1.
         11    1    3    3    0    0 -0.25825179775E+02  0.54034934442E+01  0.17406275988E+01  0.26441774459E+02  0.51100000000E-03 0. -1.
        -11    1    3    3    0    0 -0.16138707305E+02  0.67442574554E+01 -0.12127681162E+00  0.17491643445E+02  0.51100000000E-03 0.  1.
         12    1    3    3    0    0 -0.17378640550E+01 -0.12905081450E+01 -0.44006326616E+00  0.22088998221E+01  0.00000000000E+00 0. -1.
</event>
<event>
 7    1  0.2425980E-008  0.4614232E+02  0.7816164E-02  0.1320468E+00
        -11   -1    0    0    0    0  0.00000000000E+00  0.00000000000E+00  0.45593999997E+02  0.45594000000E+02  0.51100000000E-03 0.  1.
         11   -1    0    0    0    0 -0.00000000000E+00 -0.00000000000E+00 -0.45593999997E+02  0.45594000000E+02  0.51100000000E-03 0. -1.
    9900012    2    1    2    0    0 -0.41900148079E+02  0.11120280016E+02  0.12240501908E+02  0.46142324030E+02  0.10000057161E+02 0.  0.
         12    1    1    2    0    0  0.41900148079E+02 -0.11120280016E+02 -0.12240501908E+02  0.45045675970E+02  0.00000000000E+00 0. -1.
         11    1    3    3    0    0 -0.17417541301E+02  0.79663313839E+01  0.83553113304E+01  0.20896038103E+02  0.51100000000E-03 0.  1.
        -11    1    3    3    0    0 -0.67942267880E+01 -0.24892173091E+00  0.22413345054E+01  0.71587052112E+01  0.51100000000E-03 0. -1.
        -12    1    3    3    0    0 -0.17688379990E+02  0.34028703632E+01  0.16438560727E+01  0.18087580716E+02  0.00000000000E+00 0.  1.
</event>
<event>
 7    1  0.2425980E-008  0.4614232E+02  0.7816164E-02  0.1320468E+00
        -11   -1    0    0    0    0  0.00000000000E+00  0.00000000000E+00  0.45593999997E+02  0.45594000000E+02  0.51100000000E-03 0. -1.
         11   -1    0    0    0    0 -0.00000000000E+00 -0.00000000000E+00 -0.45593999997E+02  0.45594000000E+02  0.51100000000E-03 0.  1.
    9900012    2    1    2    0    0  0.17378765885E+02  0.32018667287E+02  0.26493336271E+02  0.46142318462E+02  0.10000006388E+02 0.  0.
         12    1    1    2    0    0 -0.17378765885E+02 -0.32018667287E+02 -0.26493336271E+02  0.45045681538E+02  0.00000000000E+00 0. -1.
         11    1    3    3    0    0  0.86221739384E+01  0.73187789985E+01  0.79833314781E+01  0.13843409667E+02  0.51100000000E-03 0. -1.
        -11    1    3    3    0    0  0.14681955413E+00  0.43015690444E+01  0.35303503752E+01  0.55667249131E+01  0.51100000000E-03 0.  1.
        -12    1    3    3    0    0  0.86097723920E+01  0.20398319244E+02  0.14979654418E+02  0.26732183882E+02  0.00000000000E+00 0.  1.
</event>
<event>
 7    1  0.2425980E-008  0.4614232E+02  0.7816164E-02  0.1320468E+00
        -11   -1    0    0    0    0  0.00000000000E+00  0.00000000000E+00  0.45593999997E+02  0.45594000000E+02  0.51100000000E-03 0.  1.
         11   -1    0    0    0    0 -0.00000000000E+00 -0.00000000000E+00 -0.45593999997E+02  0.45594000000E+02  0.51100000000E-03 0. -1.
    9900012    2    1    2    0    0  0.31094326857E+02 -0.10237292153E+02  0.30942756707E+02  0.46142317565E+02  0.99999982153E+01 0.  0.
         12    1    1    2    0    0 -0.31094326857E+02  0.10237292153E+02 -0.30942756707E+02  0.45045682435E+02  0.00000000000E+00 0. -1.
         11    1    3    3    0    0  0.14018977274E+02 -0.34023703192E+01  0.19179726159E+02  0.23999369645E+02  0.51100000000E-03 0. -1.
        -11    1    3    3    0    0  0.64482098041E+01 -0.28625376743E+01  0.66628945839E+01  0.97040041278E+01  0.51100000000E-03 0.  1.
         12    1    3    3    0    0  0.10627139780E+02 -0.39723841598E+01  0.51001359647E+01  0.12438943792E+02  0.00000000000E+00 0. -1.
</event>
<event>
 7    1  0.2425980E-008  0.4614232E+02  0.7816164E-02  0.1320468E+00
        -11   -1    0    0    0    0  0.00000000000E+00  0.00000000000E+00  0.45593999997E+02  0.45594000000E+02  0.51100000000E-03 0.  1.
         11   -1    0    0    0    0 -0.00000000000E+00 -0.00000000000E+00 -0.45593999997E+02  0.45594000000E+02  0.51100000000E-03 0. -1.
    9900012    2    1    2    0    0 -0.57613953231E+01 -0.33402405634E+02  0.29668150135E+02  0.46142317514E+02  0.99999977473E+01 0.  0.
         12    1    1    2    0    0  0.57613953231E+01  0.33402405634E+02 -0.29668150135E+02  0.45045682486E+02  0.00000000000E+00 0. -1.
         11    1    3    3    0    0  0.21159202220E+01 -0.91748661440E+01  0.77402447836E+01  0.12188793079E+02  0.51100000000E-03 0. -1.
        -11    1    3    3    0    0 -0.50838934384E+01 -0.11809164379E+02  0.82872001974E+01  0.15296405564E+02  0.51100000000E-03 0.  1.
        -12    1    3    3    0    0 -0.27934221067E+01 -0.12418375111E+02  0.13640705154E+02  0.18657118871E+02  0.00000000000E+00 0.  1.
</event>
<event>
 7    1  0.2425980E-008  0.4614232E+02  0.7816164E-02  0.1320468E+00
        -11   -1    0    0    0    0  0.00000000000E+00  0.00000000000E+00  0.45593999997E+02  0.45594000000E+02  0.51100000000E-03 0. -1.
         11   -1    0    0    0    0 -0.00000000000E+00 -0.00000000000E+00 -0.45593999997E+02  0.45594000000E+02  0.51100000000E-03 0.  1.
    9900012    2    1    2    0    0 -0.13434472417E+02 -0.24605619194E+02 -0.35258926733E+02  0.46142318083E+02  0.10000002931E+02 0.  0.
         12    1    1    2    0    0  0.13434472417E+02  0.24605619194E+02  0.35258926733E+02  0.45045681917E+02  0.00000000000E+00 0. -1.
         11    1    3    3    0    0  0.53992207224E+00 -0.91437129945E+00 -0.10442755652E+01  0.14893295251E+01  0.51100000000E-03 0. -1.
        -11    1    3    3    0    0 -0.83141147679E+01 -0.20515474796E+02 -0.25147712231E+02  0.33502487090E+02  0.51100000000E-03 0.  1.
        -12    1    3    3    0    0 -0.56602797211E+01 -0.31757730986E+01 -0.90669389370E+01  0.11150501468E+02  0.00000000000E+00 0.  1.
</event>
<event>
 7    1  0.2425980E-008  0.4614232E+02  0.7816164E-02  0.1320468E+00
        -11   -1    0    0    0    0  0.00000000000E+00  0.00000000000E+00  0.45593999997E+02  0.45594000000E+02  0.51100000000E-03 0. -1.
         11   -1    0    0    0    0 -0.00000000000E+00 -0.00000000000E+00 -0.45593999997E+02  0.45594000000E+02  0.51100000000E-03 0.  1.
    9900012    2    1    2    0    0 -0.11927454949E+02 -0.19152027417E+02 -0.38987807627E+02  0.46142317862E+02  0.10000000916E+02 0.  0.
         12    1    1    2    0    0  0.11927454949E+02  0.19152027417E+02  0.38987807627E+02  0.45045682138E+02  0.00000000000E+00 0. -1.
         11    1    3    3    0    0  0.28787759578E+00 -0.91948343600E+00 -0.28110486875E+01  0.29715851466E+01  0.51100000000E-03 0. -1.
        -11    1    3    3    0    0 -0.15164553072E+01 -0.31840172106E+01 -0.13366772257E+02  0.13824189058E+02  0.51100000000E-03 0.  1.
         12    1    3    3    0    0 -0.10698877238E+02 -0.15048526770E+02 -0.22809986683E+02  0.29346543657E+02  0.00000000000E+00 0. -1.
</event>
<event>
 7    1  0.2425980E-008  0.4614232E+02  0.7816164E-02  0.1320468E+00
        -11   -1    0    0    0    0  0.00000000000E+00  0.00000000000E+00  0.45593999997E+02  0.45594000000E+02  0.51100000000E-03 0. -1.
         11   -1    0    0    0    0 -0.00000000000E+00 -0.00000000000E+00 -0.45593999997E+02  0.45594000000E+02  0.51100000000E-03 0.  1.
    9900012    2    1    2    0    0  0.38405878463E+02 -0.20749661421E+02  0.11115465954E+02  0.46142317265E+02  0.99999954800E+01 0.  0.
         12    1    1    2    0    0 -0.38405878463E+02  0.20749661421E+02 -0.11115465954E+02  0.45045682735E+02  0.00000000000E+00 0. -1.
         11    1    3    3    0    0  0.16304929885E+01  0.42605963341E+00  0.17848129829E+01  0.24547080971E+01  0.51100000000E-03 0. -1.
        -11    1    3    3    0    0  0.32583406815E+02 -0.17563168724E+02  0.92477318746E+01  0.38153162915E+02  0.51100000000E-03 0.  1.
        -12    1    3    3    0    0  0.41919786598E+01 -0.36125523306E+01  0.82921096430E-01  0.55344462536E+01  0.00000000000E+00 0.  1.
</event>
<event>
 7    1  0.2425980E-008  0.4614232E+02  0.7816164E-02  0.1320468E+00
        -11   -1    0    0    0    0  0.00000000000E+00  0.00000000000E+00  0.45593999997E+02  0.45594000000E+02  0.51100000000E-03 0.  1.
         11   -1    0    0    0    0 -0.00000000000E+00 -0.00000000000E+00 -0.45593999997E+02  0.45594000000E+02  0.51100000000E-03 0. -1.
    9900012    2    1    2    0    0 -0.10661794776E+02 -0.20666775352E+02  0.38578802655E+02  0.46142317792E+02  0.10000000283E+02 0.  0.
         12    1    1    2    0    0  0.10661794776E+02  0.20666775352E+02 -0.38578802655E+02  0.45045682208E+02  0.00000000000E+00 0. -1.
         11    1    3    3    0    0  0.64474803599E+00 -0.44826233116E+01  0.87089137854E+01  0.98160476448E+01  0.51100000000E-03 0. -1.
        -11    1    3    3    0    0 -0.24208339445E+01 -0.87303115905E+01  0.12403819498E+02  0.15360127469E+02  0.51100000000E-03 0.  1.
         12    1    3    3    0    0 -0.88857088677E+01 -0.74538404496E+01  0.17466069372E+02  0.20966142679E+02  0.00000000000E+00 0. -1.
</event>
<event>
 7    1  0.2425980E-008  0.4614232E+02  0.7816164E-02  0.1320468E+00
        -11   -1    0    0    0    0  0.00000000000E+00  0.00000000000E+00  0.45593999997E+02  0.45594000000E+02  0.51100000000E-03 0.  1.
         11   -1    0    0    0    0 -0.00000000000E+00 -0.00000000000E+00 -0.45593999997E+02  0.45594000000E+02  0.51100000000E-03 0. -1.
    9900012    2    1    2    0    0 -0.95078716860E+01 -0.29867020719E+02  0.32352356256E+02  0.46142317566E+02  0.99999982169E+01 0.  0.
         12    1    1    2    0    0  0.95078716860E+01  0.29867020719E+02 -0.32352356256E+02  0.45045682434E+02  0.00000000000E+00 0. -1.
         11    1    3    3    0    0 -0.25345716807E+01 -0.81695975634E+01  0.11341346242E+02  0.14205369154E+02  0.51100000000E-03 0.  1.
        -11    1    3    3    0    0 -0.37374446285E+01 -0.56393072763E+01  0.10443003397E+02  0.12442933703E+02  0.51100000000E-03 0. -1.
         12    1    3    3    0    0 -0.32358553768E+01 -0.16058115880E+02  0.10568006616E+02  0.19494014709E+02  0.00000000000E+00 0. -1.
</event>
<event>
 7    1  0.2425980E-008  0.4614232E+02  0.7816164E-02  0.1320468E+00
        -11   -1    0    0    0    0  0.00000000000E+00  0.00000000000E+00  0.45593999997E+02  0.45594000000E+02  0.51100000000E-03 0. -1.
         11   -1    0    0    0    0 -0.00000000000E+00 -0.00000000000E+00 -0.45593999997E+02  0.45594000000E+02  0.51100000000E-03 0.  1.
    9900012    2    1    2    0    0 -0.29145544855E+02 -0.32882463216E+02 -0.99193771172E+01  0.46142320802E+02  0.10000027730E+02 0.  0.
         12    1    1    2    0    0  0.29145544855E+02  0.32882463216E+02  0.99193771172E+01  0.45045679198E+02  0.00000000000E+00 0. -1.
         11    1    3    3    0    0 -0.25840444967E+01 -0.50993527726E+01  0.15644941090E+01  0.59269154489E+01  0.51100000000E-03 0. -1.
        -11    1    3    3    0    0 -0.82893835029E+01 -0.10571782472E+02 -0.36972274203E+01  0.13933626748E+02  0.51100000000E-03 0.  1.
        -12    1    3    3    0    0 -0.18272116855E+02 -0.17211327971E+02 -0.77866438058E+01  0.26281778605E+02  0.00000000000E+00 0.  1.
</event>
<event>
 7    1  0.2425980E-008  0.4614232E+02  0.7816164E-02  0.1320468E+00
        -11   -1    0    0    0    0  0.00000000000E+00  0.00000000000E+00  0.45593999997E+02  0.45594000000E+02  0.51100000000E-03 0.  1.
         11   -1    0    0    0    0 -0.00000000000E+00 -0.00000000000E+00 -0.45593999997E+02  0.45594000000E+02  0.51100000000E-03 0. -1.
    9900012    2    1    2    0    0 -0.17828375422E+02 -0.12181548540E+02  0.39533181679E+02  0.46142317091E+02  0.99999938940E+01 0.  0.
         12    1    1    2    0    0  0.17828375422E+02  0.12181548540E+02 -0.39533181679E+02  0.45045682909E+02  0.00000000000E+00 0. -1.
         11    1    3    3    0    0 -0.60419537751E+01 -0.15418868597E+01  0.10713626659E+02  0.12396145246E+02  0.51100000000E-03 0. -1.
        -11    1    3    3    0    0 -0.10757191797E+02 -0.10849885970E+02  0.28902543925E+02  0.32692418793E+02  0.51100000000E-03 0.  1.
        -12    1    3    3    0    0 -0.10292298502E+01  0.21022429005E+00 -0.82988905629E-01  0.10537530522E+01  0.00000000000E+00 0.  1.
</event>
<event>
 7    1  0.2425980E-008  0.4614232E+02  0.7816164E-02  0.1320468E+00
        -11   -1    0    0    0    0  0.00000000000E+00  0.00000000000E+00  0.45593999997E+02  0.45594000000E+02  0.51100000000E-03 0.  1.
         11   -1    0    0    0    0 -0.00000000000E+00 -0.00000000000E+00 -0.45593999997E+02  0.45594000000E+02  0.51100000000E-03 0. -1.
    9900012    2    1    2    0    0  0.23983820631E+02 -0.26763462857E+02  0.27158920545E+02  0.46142316951E+02  0.99999926133E+01 0.  0.
         12    1    1    2    0    0 -0.23983820631E+02  0.26763462857E+02 -0.27158920545E+02  0.45045683049E+02  0.00000000000E+00 0. -1.
         11    1    3    3    0    0  0.99527537573E+00 -0.36473112125E+01  0.27553208058E+01  0.46781668588E+01  0.51100000000E-03 0. -1.
        -11    1    3    3    0    0  0.14142128520E+02 -0.19076053599E+02  0.18330416287E+02  0.29998329645E+02  0.51100000000E-03 0.  1.
         12    1    3    3    0    0  0.88464167357E+01 -0.40400980451E+01  0.60731834527E+01  0.11465820447E+02  0.00000000000E+00 0. -1.
</event>
<event>
 7    1  0.2425980E-008  0.4614232E+02  0.7816164E-02  0.1320468E+00
        -11   -1    0    0    0    0  0.00000000000E+00  0.00000000000E+00  0.45593999997E+02  0.45594000000E+02  0.51100000000E-03 0.  1.
         11   -1    0    0    0    0 -0.00000000000E+00 -0.00000000000E+00 -0.45593999997E+02  0.45594000000E+02  0.51100000000E-03 0. -1.
    9900012    2    1    2    0    0  0.35955406206E+01  0.76009974219E+01  0.44253931867E+02  0.46142316968E+02  0.99999927667E+01 0.  0.
         12    1    1    2    0    0 -0.35955406206E+01 -0.76009974219E+01 -0.44253931867E+02  0.45045683032E+02  0.00000000000E+00 0. -1.
         11    1    3    3    0    0 -0.12305656637E+01  0.31022597953E+01  0.94903043625E+01  0.10060029068E+02  0.51100000000E-03 0. -1.
        -11    1    3    3    0    0 -0.11723296443E+00 -0.13587854527E+01  0.11681861186E+02  0.11761204127E+02  0.51100000000E-03 0.  1.
         12    1    3    3    0    0  0.49433392488E+01  0.58575230792E+01  0.23081766318E+02  0.24321083773E+02  0.00000000000E+00 0. -1.
</event>
<event>
 7    1  0.2425980E-008  0.4614232E+02  0.7816164E-02  0.1320468E+00
        -11   -1    0    0    0    0  0.00000000000E+00  0.00000000000E+00  0.45593999997E+02  0.45594000000E+02  0.51100000000E-03 0.  1.
         11   -1    0    0    0    0 -0.00000000000E+00 -0.00000000000E+00 -0.45593999997E+02  0.45594000000E+02  0.51100000000E-03 0. -1.
    9900012    2    1    2    0    0  0.31844111708E+02  0.21249552868E+02  0.23738627131E+02  0.46142319123E+02  0.10000012422E+02 0.  0.
         12    1    1    2    0    0 -0.31844111708E+02 -0.21249552868E+02 -0.23738627131E+02  0.45045680877E+02  0.00000000000E+00 0. -1.
         11    1    3    3    0    0  0.11640206038E+02  0.10294449119E+02  0.80138892890E+01  0.17484064203E+02  0.51100000000E-03 0. -1.
        -11    1    3    3    0    0  0.16254151379E+02  0.11313175493E+02  0.14367410104E+02  0.24466463785E+02  0.51100000000E-03 0.  1.
        -12    1    3    3    0    0  0.39497542904E+01 -0.35807174393E+00  0.13573277387E+01  0.41917911349E+01  0.00000000000E+00 0.  1.
</event>
<event>
 7    1  0.2425980E-008  0.4614232E+02  0.7816164E-02  0.1320468E+00
        -11   -1    0    0    0    0  0.00000000000E+00  0.00000000000E+00  0.45593999997E+02  0.45594000000E+02  0.51100000000E-03 0. -1.
         11   -1    0    0    0    0 -0.00000000000E+00 -0.00000000000E+00 -0.45593999997E+02  0.45594000000E+02  0.51100000000E-03 0.  1.
    9900012    2    1    2    0    0  0.27520923963E+02  0.29703454926E+02  0.19733646440E+02  0.46142319939E+02  0.10000019863E+02 0.  0.
         12    1    1    2    0    0 -0.27520923963E+02 -0.29703454926E+02 -0.19733646440E+02  0.45045680061E+02  0.00000000000E+00 0. -1.
         11    1    3    3    0    0  0.17123491162E+02  0.20723010677E+02  0.13362379846E+02  0.30020165164E+02  0.51100000000E-03 0. -1.
        -11    1    3    3    0    0  0.84961730534E+01  0.67430910692E+01  0.22758949609E+01  0.11083047047E+02  0.51100000000E-03 0.  1.
         12    1    3    3    0    0  0.19012597482E+01  0.22373531796E+01  0.40953716330E+01  0.50391077278E+01  0.00000000000E+00 0. -1.
</event>
<event>
 7    1  0.2425980E-008  0.4614232E+02  0.7816164E-02  0.1320468E+00
        -11   -1    0    0    0    0  0.00000000000E+00  0.00000000000E+00  0.45593999997E+02  0.45594000000E+02  0.51100000000E-03 0.  1.
         11   -1    0    0    0    0 -0.00000000000E+00 -0.00000000000E+00 -0.45593999997E+02  0.45594000000E+02  0.51100000000E-03 0. -1.
    9900012    2    1    2    0    0 -0.24444549597E+02  0.19167134977E+02  0.32622054428E+02  0.46142317595E+02  0.99999984880E+01 0.  0.
         12    1    1    2    0    0  0.24444549597E+02 -0.19167134977E+02 -0.32622054428E+02  0.45045682405E+02  0.00000000000E+00 0. -1.
         11    1    3    3    0    0 -0.44460953419E+01  0.73780966820E+01  0.10053269046E+02  0.13239044271E+02  0.51100000000E-03 0. -1.
        -11    1    3    3    0    0 -0.84808608942E-01  0.11557219605E+01  0.30822169451E+00  0.11991191034E+01  0.51100000000E-03 0.  1.
        -12    1    3    3    0    0 -0.19913645646E+02  0.10633316335E+02  0.22260563687E+02  0.31704154221E+02  0.00000000000E+00 0.  1.
</event>
<event>
 7    1  0.2425980E-008  0.4614232E+02  0.7816164E-02  0.1320468E+00
        -11   -1    0    0    0    0  0.00000000000E+00  0.00000000000E+00  0.45593999997E+02  0.45594000000E+02  0.51100000000E-03 0.  1.
         11   -1    0    0    0    0 -0.00000000000E+00 -0.00000000000E+00 -0.45593999997E+02  0.45594000000E+02  0.51100000000E-03 0. -1.
    9900012    2    1    2    0    0 -0.11259919084E+02  0.41444860604E+02  0.13588645050E+02  0.46142317382E+02  0.99999965394E+01 0.  0.
         12    1    1    2    0    0  0.11259919084E+02 -0.41444860604E+02 -0.13588645050E+02  0.45045682618E+02  0.00000000000E+00 0. -1.
         11    1    3    3    0    0  0.32494251147E+00  0.12856567371E+02  0.34891730469E+01  0.13325585954E+02  0.51100000000E-03 0. -1.
        -11    1    3    3    0    0 -0.50665871436E+01  0.16385586124E+02  0.75945572388E+01  0.18757266268E+02  0.51100000000E-03 0.  1.
         12    1    3    3    0    0 -0.65182744522E+01  0.12202707109E+02  0.25049147641E+01  0.14059465160E+02  0.00000000000E+00 0. -1.
</event>
<event>
 7    1  0.2425980E-008  0.4614232E+02  0.7816164E-02  0.1320468E+00
        -11   -1    0    0    0    0  0.00000000000E+00  0.00000000000E+00  0.45593999997E+02  0.45594000000E+02  0.51100000000E-03 0. -1.
         11   -1    0    0    0    0 -0.00000000000E+00 -0.00000000000E+00 -0.45593999997E+02  0.45594000000E+02  0.51100000000E-03 0.  1.
    9900012    2    1    2    0    0  0.24180515919E+02  0.27192695954E+02 -0.26551339373E+02  0.46142315569E+02  0.99999800115E+01 0.  0.
         12    1    1    2    0    0 -0.24180515919E+02 -0.27192695954E+02  0.26551339373E+02  0.45045684431E+02  0.00000000000E+00 0. -1.
         11    1    3    3    0    0  0.49708889937E+01  0.39926929211E+01 -0.59815254351E+01  0.87424242028E+01  0.51100000000E-03 0. -1.
        -11    1    3    3    0    0  0.16400568808E+02  0.23143098742E+02 -0.19351555163E+02  0.34337506667E+02  0.51100000000E-03 0.  1.
        -12    1    3    3    0    0  0.28090581173E+01  0.56904290644E-01 -0.12182587748E+01  0.30623846994E+01  0.00000000000E+00 0.  1.
</event>
<event>
 7    1  0.2425980E-008  0.4614232E+02  0.7816164E-02  0.1320468E+00
        -11   -1    0    0    0    0  0.00000000000E+00  0.00000000000E+00  0.45593999997E+02  0.45594000000E+02  0.51100000000E-03 0.  1.
         11   -1    0    0    0    0 -0.00000000000E+00 -0.00000000000E+00 -0.45593999997E+02  0.45594000000E+02  0.51100000000E-03 0. -1.
    9900012    2    1    2    0    0 -0.93392619442E+01  0.19846578777E+02  0.39344693724E+02  0.46142318442E+02  0.10000006206E+02 0.  0.
         12    1    1    2    0    0  0.93392619442E+01 -0.19846578777E+02 -0.39344693724E+02  0.45045681558E+02  0.00000000000E+00 0. -1.
         11    1    3    3    0    0 -0.31874641989E+01  0.40091445228E+01  0.59762496489E+01  0.78707514223E+01  0.51100000000E-03 0. -1.
        -11    1    3    3    0    0 -0.31712298074E+01  0.82091258092E+01  0.91035130443E+01  0.12661769033E+02  0.51100000000E-03 0.  1.
        -12    1    3    3    0    0 -0.29805679379E+01  0.76283084456E+01  0.24264931031E+02  0.25609797986E+02  0.00000000000E+00 0.  1.
</event>
<event>
 7    1  0.2425980E-008  0.4614232E+02  0.7816164E-02  0.1320468E+00
        -11   -1    0    0    0    0  0.00000000000E+00  0.00000000000E+00  0.45593999997E+02  0.45594000000E+02  0.51100000000E-03 0.  1.
         11   -1    0    0    0    0 -0.00000000000E+00 -0.00000000000E+00 -0.45593999997E+02  0.45594000000E+02  0.51100000000E-03 0. -1.
    9900012    2    1    2    0    0 -0.16057873112E+02 -0.25549581452E+02  0.33443640312E+02  0.46142317870E+02  0.10000000990E+02 0.  0.
         12    1    1    2    0    0  0.16057873112E+02  0.25549581452E+02 -0.33443640312E+02  0.45045682130E+02  0.00000000000E+00 0. -1.
         11    1    3    3    0    0  0.21763636364E+00 -0.90669443406E-02 -0.28715892338E+00  0.36042794656E+00  0.51100000000E-03 0. -1.
        -11    1    3    3    0    0 -0.11608025537E+02 -0.22060148459E+02  0.29275170650E+02  0.38450383922E+02  0.51100000000E-03 0.  1.
        -12    1    3    3    0    0 -0.46674839393E+01 -0.34803660490E+01  0.44556285856E+01  0.73315060016E+01  0.00000000000E+00 0.  1.
</event>
<event>
 7    1  0.2425980E-008  0.4614232E+02  0.7816164E-02  0.1320468E+00
        -11   -1    0    0    0    0  0.00000000000E+00  0.00000000000E+00  0.45593999997E+02  0.45594000000E+02  0.51100000000E-03 0.  1.
         11   -1    0    0    0    0 -0.00000000000E+00 -0.00000000000E+00 -0.45593999997E+02  0.45594000000E+02  0.51100000000E-03 0. -1.
    9900012    2    1    2    0    0 -0.59254704777E+01  0.37766059270E+02  0.23827028754E+02  0.46142315052E+02  0.99999752981E+01 0.  0.
         12    1    1    2    0    0  0.59254704777E+01 -0.37766059270E+02 -0.23827028754E+02  0.45045684948E+02  0.00000000000E+00 0. -1.
         11    1    3    3    0    0  0.13597999403E+01  0.95329456454E+01  0.52235348660E+01  0.10954972630E+02  0.51100000000E-03 0. -1.
        -11    1    3    3    0    0 -0.75042918128E+01  0.21618698265E+02  0.12005184489E+02  0.25841961325E+02  0.51100000000E-03 0.  1.
        -12    1    3    3    0    0  0.21902139475E+00  0.66144153600E+01  0.65983093994E+01  0.93453810974E+01  0.00000000000E+00 0.  1.
</event>
<event>
 7    1  0.2425980E-008  0.4614232E+02  0.7816164E-02  0.1320468E+00
        -11   -1    0    0    0    0  0.00000000000E+00  0.00000000000E+00  0.45593999997E+02  0.45594000000E+02  0.51100000000E-03 0.  1.
         11   -1    0    0    0    0 -0.00000000000E+00 -0.00000000000E+00 -0.45593999997E+02  0.45594000000E+02  0.51100000000E-03 0. -1.
    9900012    2    1    2    0    0 -0.40719299592E+02  0.11902681300E+02 -0.15145240728E+02  0.46142317653E+02  0.99999990181E+01 0.  0.
         12    1    1    2    0    0  0.40719299592E+02 -0.11902681300E+02  0.15145240728E+02  0.45045682347E+02  0.00000000000E+00 0. -1.
         11    1    3    3    0    0 -0.16561216873E+02  0.93975623585E+01 -0.83206889182E+01  0.20780325958E+02  0.51100000000E-03 0. -1.
        -11    1    3    3    0    0 -0.73624201615E+01 -0.43150936270E+00 -0.19535806988E+01  0.76294107749E+01  0.51100000000E-03 0.  1.
        -12    1    3    3    0    0 -0.16795662557E+02  0.29366283042E+01 -0.48709711107E+01  0.17732580920E+02  0.00000000000E+00 0.  1.
</event>
<event>
 7    1  0.2425980E-008  0.4614232E+02  0.7816164E-02  0.1320468E+00
        -11   -1    0    0    0    0  0.00000000000E+00  0.00000000000E+00  0.45593999997E+02  0.45594000000E+02  0.51100000000E-03 0.  1.
         11   -1    0    0    0    0 -0.00000000000E+00 -0.00000000000E+00 -0.45593999997E+02  0.45594000000E+02  0.51100000000E-03 0. -1.
    9900012    2    1    2    0    0 -0.10791565478E+01 -0.31612259655E+02  0.32072014021E+02  0.46142316270E+02  0.99999863988E+01 0.  0.
         12    1    1    2    0    0  0.10791565478E+01  0.31612259655E+02 -0.32072014021E+02  0.45045683730E+02  0.00000000000E+00 0. -1.
         11    1    3    3    0    0  0.14649586947E+01 -0.12075495134E+01  0.19983075679E+01  0.27563586852E+01  0.51100000000E-03 0. -1.
        -11    1    3    3    0    0 -0.28986573518E+01 -0.16544131059E+02  0.12172495870E+02  0.20743195099E+02  0.51100000000E-03 0.  1.
        -12    1    3    3    0    0  0.35454210925E+00 -0.13860579082E+02  0.17901210584E+02  0.22642762486E+02  0.00000000000E+00 0.  1.
</event>
<event>
 7    1  0.2425980E-008  0.4614232E+02  0.7816164E-02  0.1320468E+00
        -11   -1    0    0    0    0  0.00000000000E+00  0.00000000000E+00  0.45593999997E+02  0.45594000000E+02  0.51100000000E-03 0. -1.
         11   -1    0    0    0    0 -0.00000000000E+00 -0.00000000000E+00 -0.45593999997E+02  0.45594000000E+02  0.51100000000E-03 0.  1.
    9900012    2    1    2    0    0 -0.32815882668E+02  0.27920561767E+02  0.13140524794E+02  0.46142319668E+02  0.10000017393E+02 0.  0.
         12    1    1    2    0    0  0.32815882668E+02 -0.27920561767E+02 -0.13140524794E+02  0.45045680332E+02  0.00000000000E+00 0. -1.
         11    1    3    3    0    0 -0.18579699780E+00  0.12204197482E+01 -0.61319073470E+00  0.13783860216E+01  0.51100000000E-03 0. -1.
        -11    1    3    3    0    0 -0.57785869667E+01  0.41701854014E+01  0.47838586906E+01  0.85829958550E+01  0.51100000000E-03 0.  1.
        -12    1    3    3    0    0 -0.26851498704E+02  0.22529956617E+02  0.89698568379E+01  0.36180937792E+02  0.00000000000E+00 0.  1.
</event>
<event>
 7    1  0.2425980E-008  0.4614232E+02  0.7816164E-02  0.1320468E+00
        -11   -1    0    0    0    0  0.00000000000E+00  0.00000000000E+00  0.45593999997E+02  0.45594000000E+02  0.51100000000E-03 0.  1.
         11   -1    0    0    0    0 -0.00000000000E+00 -0.00000000000E+00 -0.45593999997E+02  0.45594000000E+02  0.51100000000E-03 0. -1.
    9900012    2    1    2    0    0 -0.85729573891E+01  0.34650623706E+02  0.27476392587E+02  0.46142317951E+02  0.10000001733E+02 0.  0.
         12    1    1    2    0    0  0.85729573891E+01 -0.34650623706E+02 -0.27476392587E+02  0.45045682049E+02  0.00000000000E+00 0. -1.
         11    1    3    3    0    0 -0.35497055497E+00  0.26925406604E-01  0.22240020138E+01  0.22523130979E+01  0.51100000000E-03 0. -1.
        -11    1    3    3    0    0 -0.36168270937E+01  0.68574281194E+01  0.54227356108E+01  0.94610686714E+01  0.51100000000E-03 0.  1.
         12    1    3    3    0    0 -0.46011597404E+01  0.27766270180E+02  0.19829654963E+02  0.34428936182E+02  0.00000000000E+00 0. -1.
</event>
<event>
 7    1  0.2425980E-008  0.4614232E+02  0.7816164E-02  0.1320468E+00
        -11   -1    0    0    0    0  0.00000000000E+00  0.00000000000E+00  0.45593999997E+02  0.45594000000E+02  0.51100000000E-03 0. -1.
         11   -1    0    0    0    0 -0.00000000000E+00 -0.00000000000E+00 -0.45593999997E+02  0.45594000000E+02  0.51100000000E-03 0.  1.
    9900012    2    1    2    0    0 -0.73804800016E+01  0.44010397446E+02 -0.61422186951E+01  0.46142318532E+02  0.10000007027E+02 0.  0.
         12    1    1    2    0    0  0.73804800016E+01 -0.44010397446E+02  0.61422186951E+01  0.45045681468E+02  0.00000000000E+00 0. -1.
         11    1    3    3    0    0 -0.27970284891E+01  0.63754809043E+01  0.17298530174E+01  0.71737379972E+01  0.51100000000E-03 0. -1.
        -11    1    3    3    0    0  0.40257585633E+00  0.76023020221E+01 -0.41149984250E+00  0.76240668764E+01  0.51100000000E-03 0.  1.
         12    1    3    3    0    0 -0.49860273688E+01  0.30032614520E+02 -0.74605718700E+01  0.31344513658E+02  0.00000000000E+00 0. -1.
</event>
<event>
 7    1  0.2425980E-008  0.4614232E+02  0.7816164E-02  0.1320468E+00
        -11   -1    0    0    0    0  0.00000000000E+00  0.00000000000E+00  0.45593999997E+02  0.45594000000E+02  0.51100000000E-03 0. -1.
         11   -1    0    0    0    0 -0.00000000000E+00 -0.00000000000E+00 -0.45593999997E+02  0.45594000000E+02  0.51100000000E-03 0.  1.
    9900012    2    1    2    0    0  0.35895473970E+02 -0.24799946854E+02 -0.11206739346E+02  0.46142318494E+02  0.10000006686E+02 0.  0.
         12    1    1    2    0    0 -0.35895473970E+02  0.24799946854E+02  0.11206739346E+02  0.45045681506E+02  0.00000000000E+00 0. -1.
         11    1    3    3    0    0  0.18161492112E+02 -0.94847530012E+01 -0.63900270271E+01  0.21462357300E+02  0.51100000000E-03 0. -1.
        -11    1    3    3    0    0  0.17611437070E+02 -0.14735765247E+02 -0.34896967308E+01  0.23226783605E+02  0.51100000000E-03 0.  1.
        -12    1    3    3    0    0  0.12254478885E+00 -0.57942860613E+00 -0.13270155882E+01  0.14531775893E+01  0.00000000000E+00 0.  1.
</event>
<event>
 7    1  0.2425980E-008  0.4614232E+02  0.7816164E-02  0.1320468E+00
        -11   -1    0    0    0    0  0.00000000000E+00  0.00000000000E+00  0.45593999997E+02  0.45594000000E+02  0.51100000000E-03 0.  1.
         11   -1    0    0    0    0 -0.00000000000E+00 -0.00000000000E+00 -0.45593999997E+02  0.45594000000E+02  0.51100000000E-03 0. -1.
    9900012    2    1    2    0    0 -0.66972018869E+01 -0.44545044315E+02  0.20097404828E-02  0.46142317741E+02  0.99999998150E+01 0.  0.
         12    1    1    2    0    0  0.66972018869E+01  0.44545044315E+02 -0.20097404828E-02  0.45045682259E+02  0.00000000000E+00 0. -1.
         11    1    3    3    0    0 -0.13113492563E+01 -0.31626782494E+02  0.20252431192E+01  0.31718679319E+02  0.51100000000E-03 0. -1.
        -11    1    3    3    0    0 -0.21224802611E+01 -0.86583578877E+01 -0.12883633529E+01  0.90073283586E+01  0.51100000000E-03 0.  1.
        -12    1    3    3    0    0 -0.32633723695E+01 -0.42599039334E+01 -0.73487002583E+00  0.54163100630E+01  0.00000000000E+00 0.  1.
</event>
<event>
 7    1  0.2425980E-008  0.4614232E+02  0.7816164E-02  0.1320468E+00
        -11   -1    0    0    0    0  0.00000000000E+00  0.00000000000E+00  0.45593999997E+02  0.45594000000E+02  0.51100000000E-03 0.  1.
         11   -1    0    0    0    0 -0.00000000000E+00 -0.00000000000E+00 -0.45593999997E+02  0.45594000000E+02  0.51100000000E-03 0. -1.
    9900012    2    1    2    0    0  0.27437444580E+02 -0.11521650961E+02  0.33816439802E+02  0.46142318666E+02  0.10000008254E+02 0.  0.
         12    1    1    2    0    0 -0.27437444580E+02  0.11521650961E+02 -0.33816439802E+02  0.45045681334E+02  0.00000000000E+00 0. -1.
         11    1    3    3    0    0  0.42485982922E+01 -0.62352383903E+00  0.57039405940E+01  0.71396294013E+01  0.51100000000E-03 0.  1.
        -11    1    3    3    0    0  0.50457217436E+01  0.89804332668E+00  0.33809347718E+01  0.61397483599E+01  0.51100000000E-03 0. -1.
         12    1    3    3    0    0  0.18143124545E+02 -0.11796170448E+02  0.24731564436E+02  0.32862940905E+02  0.00000000000E+00 0. -1.
</event>
<event>
 7    1  0.2425980E-008  0.4614232E+02  0.7816164E-02  0.1320468E+00
        -11   -1    0    0    0    0  0.00000000000E+00  0.00000000000E+00  0.45593999997E+02  0.45594000000E+02  0.51100000000E-03 0.  1.
         11   -1    0    0    0    0 -0.00000000000E+00 -0.00000000000E+00 -0.45593999997E+02  0.45594000000E+02  0.51100000000E-03 0. -1.
    9900012    2    1    2    0    0 -0.14179553966E+02  0.83315511671E+01  0.41936129200E+02  0.46142318434E+02  0.10000006132E+02 0.  0.
         12    1    1    2    0    0  0.14179553966E+02 -0.83315511671E+01 -0.41936129200E+02  0.45045681566E+02  0.00000000000E+00 0. -1.
         11    1    3    3    0    0  0.93150734675E+00  0.16025383210E+01  0.60605292451E+01  0.63376533511E+01  0.51100000000E-03 0. -1.
        -11    1    3    3    0    0 -0.74141245736E+01  0.48859426588E+01  0.23425686820E+02  0.25052035488E+02  0.51100000000E-03 0.  1.
        -12    1    3    3    0    0 -0.76969367394E+01  0.18430701872E+01  0.12449913135E+02  0.14752629594E+02  0.00000000000E+00 0.  1.
</event>
<event>
 7    1  0.2425980E-008  0.4614232E+02  0.7816164E-02  0.1320468E+00
        -11   -1    0    0    0    0  0.00000000000E+00  0.00000000000E+00  0.45593999997E+02  0.45594000000E+02  0.51100000000E-03 0. -1.
         11   -1    0    0    0    0 -0.00000000000E+00 -0.00000000000E+00 -0.45593999997E+02  0.45594000000E+02  0.51100000000E-03 0.  1.
    9900012    2    1    2    0    0  0.24401123459E+02  0.33977266990E+02 -0.16710595641E+02  0.46142317578E+02  0.99999983307E+01 0.  0.
         12    1    1    2    0    0 -0.24401123459E+02 -0.33977266990E+02  0.16710595641E+02  0.45045682422E+02  0.00000000000E+00 0. -1.
         11    1    3    3    0    0  0.60852772224E+01  0.10134235494E+02 -0.93657855201E+01  0.15081487545E+02  0.51100000000E-03 0. -1.
        -11    1    3    3    0    0  0.69054801799E+00  0.18154470863E+01 -0.15834012096E+00  0.19487884809E+01  0.51100000000E-03 0.  1.
         12    1    3    3    0    0  0.17625298219E+02  0.22027584410E+02 -0.71864699999E+01  0.29112041552E+02  0.00000000000E+00 0. -1.
</event>
<event>
 7    1  0.2425980E-008  0.4614232E+02  0.7816164E-02  0.1320468E+00
        -11   -1    0    0    0    0  0.00000000000E+00  0.00000000000E+00  0.45593999997E+02  0.45594000000E+02  0.51100000000E-03 0.  1.
         11   -1    0    0    0    0 -0.00000000000E+00 -0.00000000000E+00 -0.45593999997E+02  0.45594000000E+02  0.51100000000E-03 0. -1.
    9900012    2    1    2    0    0 -0.34317596217E+02  0.28615921052E+02 -0.57048225712E+01  0.46142319315E+02  0.10000014174E+02 0.  0.
         12    1    1    2    0    0  0.34317596217E+02 -0.28615921052E+02  0.57048225712E+01  0.45045680685E+02  0.00000000000E+00 0. -1.
         11    1    3    3    0    0  0.42546519648E+00  0.11288142366E+01  0.63517030354E+00  0.13633355382E+01  0.51100000000E-03 0. -1.
        -11    1    3    3    0    0 -0.26596790428E+02  0.20209072049E+02 -0.48657667673E+01  0.33756059318E+02  0.51100000000E-03 0.  1.
         12    1    3    3    0    0 -0.81462709856E+01  0.72780347661E+01 -0.14742261074E+01  0.11022924460E+02  0.00000000000E+00 0. -1.
</event>
<event>
 7    1  0.2425980E-008  0.4614232E+02  0.7816164E-02  0.1320468E+00
        -11   -1    0    0    0    0  0.00000000000E+00  0.00000000000E+00  0.45593999997E+02  0.45594000000E+02  0.51100000000E-03 0.  1.
         11   -1    0    0    0    0 -0.00000000000E+00 -0.00000000000E+00 -0.45593999997E+02  0.45594000000E+02  0.51100000000E-03 0. -1.
    9900012    2    1    2    0    0  0.25632430562E+02  0.26318707435E+02  0.26065642712E+02  0.46142316661E+02  0.99999899641E+01 0.  0.
         12    1    1    2    0    0 -0.25632430562E+02 -0.26318707435E+02 -0.26065642712E+02  0.45045683339E+02  0.00000000000E+00 0. -1.
         11    1    3    3    0    0  0.12638834483E+01  0.56159112550E+01  0.34215145816E+01  0.66964634613E+01  0.51100000000E-03 0. -1.
        -11    1    3    3    0    0  0.14023041805E+01  0.27377504397E+01  0.29345339491E+01  0.42512614886E+01  0.51100000000E-03 0.  1.
        -12    1    3    3    0    0  0.22966242933E+02  0.17965045740E+02  0.19709594181E+02  0.35194591711E+02  0.00000000000E+00 0.  1.
</event>
<event>
 7    1  0.2425980E-008  0.4614232E+02  0.7816164E-02  0.1320468E+00
        -11   -1    0    0    0    0  0.00000000000E+00  0.00000000000E+00  0.45593999997E+02  0.45594000000E+02  0.51100000000E-03 0.  1.
         11   -1    0    0    0    0 -0.00000000000E+00 -0.00000000000E+00 -0.45593999997E+02  0.45594000000E+02  0.51100000000E-03 0. -1.
    9900012    2    1    2    0    0 -0.15127616966E+02  0.26784606555E+02  0.32906740351E+02  0.46142317589E+02  0.99999984333E+01 0.  0.
         12    1    1    2    0    0  0.15127616966E+02 -0.26784606555E+02 -0.32906740351E+02  0.45045682411E+02  0.00000000000E+00 0. -1.
         11    1    3    3    0    0 -0.36792540600E+01  0.15705464852E+02  0.15784185260E+02  0.22568540964E+02  0.51100000000E-03 0. -1.
        -11    1    3    3    0    0 -0.35033261118E+01  0.40867927004E+01  0.77535760201E+01  0.94389146506E+01  0.51100000000E-03 0.  1.
         12    1    3    3    0    0 -0.79450367939E+01  0.69923490026E+01  0.93689790704E+01  0.14134861975E+02  0.00000000000E+00 0. -1.
</event>
<event>
 7    1  0.2425980E-008  0.4614232E+02  0.7816164E-02  0.1320468E+00
        -11   -1    0    0    0    0  0.00000000000E+00  0.00000000000E+00  0.45593999997E+02  0.45594000000E+02  0.51100000000E-03 0.  1.
         11   -1    0    0    0    0 -0.00000000000E+00 -0.00000000000E+00 -0.45593999997E+02  0.45594000000E+02  0.51100000000E-03 0. -1.
    9900012    2    1    2    0    0  0.40939615851E+02  0.74394915586E+01  0.17254431910E+02  0.46142316509E+02  0.99999885795E+01 0.  0.
         12    1    1    2    0    0 -0.40939615851E+02 -0.74394915586E+01 -0.17254431910E+02  0.45045683491E+02  0.00000000000E+00 0. -1.
         11    1    3    3    0    0 -0.36667445255E+00  0.12935752535E+00  0.26489466414E+00  0.47048163378E+00  0.51100000000E-03 0. -1.
        -11    1    3    3    0    0  0.17111023207E+02  0.21089558071E+01  0.39027855675E+01  0.17676723261E+02  0.51100000000E-03 0.  1.
        -12    1    3    3    0    0  0.24195267096E+02  0.52011782262E+01  0.13086751678E+02  0.27995111614E+02  0.00000000000E+00 0.  1.
</event>
<event>
 7    1  0.2425980E-008  0.4614232E+02  0.7816164E-02  0.1320468E+00
        -11   -1    0    0    0    0  0.00000000000E+00  0.00000000000E+00  0.45593999997E+02  0.45594000000E+02  0.51100000000E-03 0. -1.
         11   -1    0    0    0    0 -0.00000000000E+00 -0.00000000000E+00 -0.45593999997E+02  0.45594000000E+02  0.51100000000E-03 0.  1.
    9900012    2    1    2    0    0 -0.26450514267E+02 -0.34170891790E+02 -0.12721397567E+02  0.46142317557E+02  0.99999981361E+01 0.  0.
         12    1    1    2    0    0  0.26450514267E+02  0.34170891790E+02  0.12721397567E+02  0.45045682443E+02  0.00000000000E+00 0. -1.
         11    1    3    3    0    0 -0.71702660108E+01 -0.12064987021E+02 -0.65404000041E+01  0.15483974262E+02  0.51100000000E-03 0. -1.
        -11    1    3    3    0    0 -0.10722694167E+02 -0.74894136971E+01 -0.22604975093E+01  0.13273181117E+02  0.51100000000E-03 0.  1.
         12    1    3    3    0    0 -0.85575540893E+01 -0.14616491072E+02 -0.39205000537E+01  0.17385162177E+02  0.00000000000E+00 0. -1.
</event>
<event>
 7    1  0.2425980E-008  0.4614231E+02  0.7816164E-02  0.1320468E+00
        -11   -1    0    0    0    0  0.00000000000E+00  0.00000000000E+00  0.45593999997E+02  0.45594000000E+02  0.51100000000E-03 0.  1.
         11   -1    0    0    0    0 -0.00000000000E+00 -0.00000000000E+00 -0.45593999997E+02  0.45594000000E+02  0.51100000000E-03 0. -1.
    9900012    2    1    2    0    0 -0.40527744770E+01  0.40144476321E+02  0.20027728134E+02  0.46142313700E+02  0.99999629703E+01 0.  0.
         12    1    1    2    0    0  0.40527744770E+01 -0.40144476321E+02 -0.20027728134E+02  0.45045686300E+02  0.00000000000E+00 0. -1.
         11    1    3    3    0    0  0.12645544648E+01  0.80927153207E+01  0.48702639371E+01  0.95294601282E+01  0.51100000000E-03 0. -1.
        -11    1    3    3    0    0 -0.42660084324E+01  0.28930913890E+02  0.10852018976E+02  0.31192353591E+02  0.51100000000E-03 0.  1.
        -12    1    3    3    0    0 -0.10513205094E+01  0.31208471104E+01  0.43054452204E+01  0.54204999812E+01  0.00000000000E+00 0.  1.
</event>
<event>
 7    1  0.2425980E-008  0.4614232E+02  0.7816164E-02  0.1320468E+00
        -11   -1    0    0    0    0  0.00000000000E+00  0.00000000000E+00  0.45593999997E+02  0.45594000000E+02  0.51100000000E-03 0. -1.
         11   -1    0    0    0    0 -0.00000000000E+00 -0.00000000000E+00 -0.45593999997E+02  0.45594000000E+02  0.51100000000E-03 0.  1.
    9900012    2    1    2    0    0  0.65099720207E+01 -0.41626437504E+01 -0.44377991556E+02  0.46142317929E+02  0.10000001530E+02 0.  0.
         12    1    1    2    0    0 -0.65099720207E+01  0.41626437504E+01  0.44377991556E+02  0.45045682071E+02  0.00000000000E+00 0. -1.
         11    1    3    3    0    0  0.21880639549E+01  0.33667702317E+00 -0.12783344542E+02  0.12973622210E+02  0.51100000000E-03 0. -1.
        -11    1    3    3    0    0 -0.13130413932E+01  0.12070198598E+01 -0.94449277479E+01  0.96118486810E+01  0.51100000000E-03 0.  1.
         12    1    3    3    0    0  0.56349494590E+01 -0.57063406334E+01 -0.22149719266E+02  0.23556847038E+02  0.00000000000E+00 0. -1.
</event>
<event>
 7    1  0.2425980E-008  0.4614232E+02  0.7816164E-02  0.1320468E+00
        -11   -1    0    0    0    0  0.00000000000E+00  0.00000000000E+00  0.45593999997E+02  0.45594000000E+02  0.51100000000E-03 0. -1.
         11   -1    0    0    0    0 -0.00000000000E+00 -0.00000000000E+00 -0.45593999997E+02  0.45594000000E+02  0.51100000000E-03 0.  1.
    9900012    2    1    2    0    0  0.62746878085E+01 -0.35300863154E+02 -0.27268862587E+02  0.46142317484E+02  0.99999974743E+01 0.  0.
         12    1    1    2    0    0 -0.62746878085E+01  0.35300863154E+02  0.27268862587E+02  0.45045682516E+02  0.00000000000E+00 0. -1.
         11    1    3    3    0    0  0.23948974230E+01 -0.76745323116E+01 -0.45758479359E+01  0.92505331988E+01  0.51100000000E-03 0. -1.
        -11    1    3    3    0    0 -0.61834127031E+00 -0.11997845514E+02 -0.54588828066E+01  0.13195834367E+02  0.51100000000E-03 0.  1.
         12    1    3    3    0    0  0.44981316558E+01 -0.15628485329E+02 -0.17234131845E+02  0.23695949918E+02  0.00000000000E+00 0. -1.
</event>
<event>
 7    1  0.2425980E-008  0.4614232E+02  0.7816164E-02  0.1320468E+00
        -11   -1    0    0    0    0  0.00000000000E+00  0.00000000000E+00  0.45593999997E+02  0.45594000000E+02  0.51100000000E-03 0.  1.
         11   -1    0    0    0    0 -0.00000000000E+00 -0.00000000000E+00 -0.45593999997E+02  0.45594000000E+02  0.51100000000E-03 0. -1.
    9900012    2    1    2    0    0 -0.80187780460E+01 -0.18798967028E+02  0.40142389839E+02  0.46142318469E+02  0.10000006454E+02 0.  0.
         12    1    1    2    0    0  0.80187780460E+01  0.18798967028E+02 -0.40142389839E+02  0.45045681531E+02  0.00000000000E+00 0. -1.
         11    1    3    3    0    0  0.59035157876E+00 -0.10319575252E+01  0.14722125075E+01  0.18923163712E+01  0.51100000000E-03 0. -1.
        -11    1    3    3    0    0 -0.48287346069E+01 -0.27551669860E+01  0.65306514584E+01  0.85765396144E+01  0.51100000000E-03 0.  1.
         12    1    3    3    0    0 -0.37803950178E+01 -0.15011842516E+02  0.32139525873E+02  0.35673462483E+02  0.00000000000E+00 0. -1.
</event>
<event>
 7    1  0.2425980E-008  0.4614232E+02  0.7816164E-02  0.1320468E+00
        -11   -1    0    0    0    0  0.00000000000E+00  0.00000000000E+00  0.45593999997E+02  0.45594000000E+02  0.51100000000E-03 0.  1.
         11   -1    0    0    0    0 -0.00000000000E+00 -0.00000000000E+00 -0.45593999997E+02  0.45594000000E+02  0.51100000000E-03 0. -1.
    9900012    2    1    2    0    0  0.19495692976E+02 -0.32468733724E+02  0.24388783151E+02  0.46142318100E+02  0.10000003094E+02 0.  0.
         12    1    1    2    0    0 -0.19495692976E+02  0.32468733724E+02 -0.24388783151E+02  0.45045681900E+02  0.00000000000E+00 0. -1.
         11    1    3    3    0    0  0.10176990329E+01 -0.22919062508E+01  0.20646151134E+01  0.32482582120E+01  0.51100000000E-03 0. -1.
        -11    1    3    3    0    0  0.81893011578E+01 -0.21682348712E+02  0.15731709832E+02  0.28012061574E+02  0.51100000000E-03 0.  1.
         12    1    3    3    0    0  0.10288692785E+02 -0.84944787604E+01  0.65924582056E+01  0.14881998314E+02  0.00000000000E+00 0. -1.
</event>
<event>
 7    1  0.2425980E-008  0.4614232E+02  0.7816164E-02  0.1320468E+00
        -11   -1    0    0    0    0  0.00000000000E+00  0.00000000000E+00  0.45593999997E+02  0.45594000000E+02  0.51100000000E-03 0.  1.
         11   -1    0    0    0    0 -0.00000000000E+00 -0.00000000000E+00 -0.45593999997E+02  0.45594000000E+02  0.51100000000E-03 0. -1.
    9900012    2    1    2    0    0 -0.40940116699E+02 -0.55835552579E+01  0.17940020173E+02  0.46142316873E+02  0.99999918994E+01 0.  0.
         12    1    1    2    0    0  0.40940116699E+02  0.55835552579E+01 -0.17940020173E+02  0.45045683127E+02  0.00000000000E+00 0. -1.
         11    1    3    3    0    0 -0.24697012128E+02 -0.42246809067E+01  0.74646223680E+01  0.26144041848E+02  0.51100000000E-03 0. -1.
        -11    1    3    3    0    0 -0.14913759436E+02  0.22787049068E+00  0.86745711900E+01  0.17254574207E+02  0.51100000000E-03 0.  1.
         12    1    3    3    0    0 -0.13293451348E+01 -0.15867448419E+01  0.18008266145E+01  0.27437008176E+01  0.00000000000E+00 0. -1.
</event>
<event>
 7    1  0.2425980E-008  0.4614232E+02  0.7816164E-02  0.1320468E+00
        -11   -1    0    0    0    0  0.00000000000E+00  0.00000000000E+00  0.45593999997E+02  0.45594000000E+02  0.51100000000E-03 0.  1.
         11   -1    0    0    0    0 -0.00000000000E+00 -0.00000000000E+00 -0.45593999997E+02  0.45594000000E+02  0.51100000000E-03 0. -1.
    9900012    2    1    2    0    0  0.50828354437E+01 -0.33110228381E+02  0.30116291128E+02  0.46142318399E+02  0.10000005815E+02 0.  0.
         12    1    1    2    0    0 -0.50828354437E+01  0.33110228381E+02 -0.30116291128E+02  0.45045681601E+02  0.00000000000E+00 0. -1.
         11    1    3    3    0    0  0.16206095282E+01 -0.11485617222E+02  0.66567776787E+01  0.13373797798E+02  0.51100000000E-03 0. -1.
        -11    1    3    3    0    0 -0.37370528441E+00 -0.16078739112E+02  0.17517373242E+02  0.23780745838E+02  0.51100000000E-03 0.  1.
        -12    1    3    3    0    0  0.38359311998E+01 -0.55458720471E+01  0.59421402071E+01  0.89877747620E+01  0.00000000000E+00 0.  1.
</event>
<event>
 7    1  0.2425980E-008  0.4614232E+02  0.7816164E-02  0.1320468E+00
        -11   -1    0    0    0    0  0.00000000000E+00  0.00000000000E+00  0.45593999997E+02  0.45594000000E+02  0.51100000000E-03 0.  1.
         11   -1    0    0    0    0 -0.00000000000E+00 -0.00000000000E+00 -0.45593999997E+02  0.45594000000E+02  0.51100000000E-03 0. -1.
    9900012    2    1    2    0    0  0.21799422967E+02  0.34149616415E+02  0.19690158211E+02  0.46142317927E+02  0.10000001516E+02 0.  0.
         12    1    1    2    0    0 -0.21799422967E+02 -0.34149616415E+02 -0.19690158211E+02  0.45045682073E+02  0.00000000000E+00 0. -1.
         11    1    3    3    0    0  0.51689919095E+01  0.11651238219E+02  0.56107367680E+01  0.13926600330E+02  0.51100000000E-03 0. -1.
        -11    1    3    3    0    0  0.83921203557E+01  0.16362014582E+02  0.67160609865E+01  0.19576738254E+02  0.51100000000E-03 0.  1.
        -12    1    3    3    0    0  0.82383107018E+01  0.61363636142E+01  0.73633604566E+01  0.12638979343E+02  0.00000000000E+00 0.  1.
</event>
<event>
 7    1  0.2425980E-008  0.4614232E+02  0.7816164E-02  0.1320468E+00
        -11   -1    0    0    0    0  0.00000000000E+00  0.00000000000E+00  0.45593999997E+02  0.45594000000E+02  0.51100000000E-03 0.  1.
         11   -1    0    0    0    0 -0.00000000000E+00 -0.00000000000E+00 -0.45593999997E+02  0.45594000000E+02  0.51100000000E-03 0. -1.
    9900012    2    1    2    0    0  0.42556043702E+02 -0.77359306402E+01  0.12579827090E+02  0.46142317321E+02  0.99999959849E+01 0.  0.
         12    1    1    2    0    0 -0.42556043702E+02  0.77359306402E+01 -0.12579827090E+02  0.45045682679E+02  0.00000000000E+00 0. -1.
         11    1    3    3    0    0  0.16738514589E+02 -0.51648915151E+01  0.32927028152E+01  0.17824024997E+02  0.51100000000E-03 0. -1.
        -11    1    3    3    0    0  0.21331450318E+02 -0.35974964562E+01  0.54053508707E+01  0.22297770555E+02  0.51100000000E-03 0.  1.
         12    1    3    3    0    0  0.44860787948E+01  0.10264573311E+01  0.38817734044E+01  0.60205217689E+01  0.00000000000E+00 0. -1.
</event>
<event>
 7    1  0.2425980E-008  0.4614232E+02  0.7816164E-02  0.1320468E+00
        -11   -1    0    0    0    0  0.00000000000E+00  0.00000000000E+00  0.45593999997E+02  0.45594000000E+02  0.51100000000E-03 0. -1.
         11   -1    0    0    0    0 -0.00000000000E+00 -0.00000000000E+00 -0.45593999997E+02  0.45594000000E+02  0.51100000000E-03 0.  1.
    9900012    2    1    2    0    0 -0.75043574573E+01  0.25758594918E+02 -0.36184152476E+02  0.46142317816E+02  0.10000000502E+02 0.  0.
         12    1    1    2    0    0  0.75043574573E+01 -0.25758594918E+02  0.36184152476E+02  0.45045682184E+02  0.00000000000E+00 0. -1.
         11    1    3    3    0    0 -0.26469848351E+01  0.75498179340E+01 -0.15590214001E+02  0.17523157604E+02  0.51100000000E-03 0. -1.
        -11    1    3    3    0    0 -0.21345921878E+01  0.16534812114E+02 -0.17513893780E+02  0.24180425370E+02  0.51100000000E-03 0.  1.
         12    1    3    3    0    0 -0.27227804344E+01  0.16739648696E+01 -0.30800446948E+01  0.44387348424E+01  0.00000000000E+00 0. -1.
</event>
<event>
 7    1  0.2425980E-008  0.4614232E+02  0.7816164E-02  0.1320468E+00
        -11   -1    0    0    0    0  0.00000000000E+00  0.00000000000E+00  0.45593999997E+02  0.45594000000E+02  0.51100000000E-03 0. -1.
         11   -1    0    0    0    0 -0.00000000000E+00 -0.00000000000E+00 -0.45593999997E+02  0.45594000000E+02  0.51100000000E-03 0.  1.
    9900012    2    1    2    0    0 -0.17929748713E+02  0.39958870283E+02 -0.10532160710E+02  0.46142316384E+02  0.99999874416E+01 0.  0.
         12    1    1    2    0    0  0.17929748713E+02 -0.39958870283E+02  0.10532160710E+02  0.45045683616E+02  0.00000000000E+00 0. -1.
         11    1    3    3    0    0 -0.81332918309E+01  0.15140258602E+02 -0.15451077890E+01  0.17255875083E+02  0.51100000000E-03 0. -1.
        -11    1    3    3    0    0 -0.70766547809E+01  0.15409768934E+02 -0.25035380931E+01  0.17140820422E+02  0.51100000000E-03 0.  1.
         12    1    3    3    0    0 -0.27198021013E+01  0.94088427476E+01 -0.64835148280E+01  0.11745620879E+02  0.00000000000E+00 0. -1.
</event>
<event>
 7    1  0.2425980E-008  0.4614232E+02  0.7816164E-02  0.1320468E+00
        -11   -1    0    0    0    0  0.00000000000E+00  0.00000000000E+00  0.45593999997E+02  0.45594000000E+02  0.51100000000E-03 0.  1.
         11   -1    0    0    0    0 -0.00000000000E+00 -0.00000000000E+00 -0.45593999997E+02  0.45594000000E+02  0.51100000000E-03 0. -1.
    9900012    2    1    2    0    0  0.18899868308E+01  0.44732590257E+02 -0.49534649673E+01  0.46142317671E+02  0.99999991754E+01 0.  0.
         12    1    1    2    0    0 -0.18899868308E+01 -0.44732590257E+02  0.49534649673E+01  0.45045682329E+02  0.00000000000E+00 0. -1.
         11    1    3    3    0    0  0.77730424403E+00  0.18556095833E+02 -0.34630714833E+01  0.18892478896E+02  0.51100000000E-03 0. -1.
        -11    1    3    3    0    0 -0.27527475218E+01  0.75907609543E+01 -0.17618128766E+01  0.82644573722E+01  0.51100000000E-03 0.  1.
        -12    1    3    3    0    0  0.38654301085E+01  0.18585733470E+02  0.27141939261E+00  0.18985381403E+02  0.00000000000E+00 0.  1.
</event>
<event>
 7    1  0.2425980E-008  0.4614232E+02  0.7816164E-02  0.1320468E+00
        -11   -1    0    0    0    0  0.00000000000E+00  0.00000000000E+00  0.45593999997E+02  0.45594000000E+02  0.51100000000E-03 0.  1.
         11   -1    0    0    0    0 -0.00000000000E+00 -0.00000000000E+00 -0.45593999997E+02  0.45594000000E+02  0.51100000000E-03 0. -1.
    9900012    2    1    2    0    0  0.25070524959E+02  0.19241075375E+02  0.32099272391E+02  0.46142317728E+02  0.99999996959E+01 0.  0.
         12    1    1    2    0    0 -0.25070524959E+02 -0.19241075375E+02 -0.32099272391E+02  0.45045682272E+02  0.00000000000E+00 0. -1.
         11    1    3    3    0    0  0.47201428261E+01  0.77776327866E+01  0.10324526773E+02  0.13761074573E+02  0.51100000000E-03 0. -1.
        -11    1    3    3    0    0  0.79219194443E+01  0.66801147105E+01  0.70816524795E+01  0.12551117175E+02  0.51100000000E-03 0.  1.
        -12    1    3    3    0    0  0.12428462689E+02  0.47833278778E+01  0.14693093139E+02  0.19830125980E+02  0.00000000000E+00 0.  1.
</event>
<event>
 7    1  0.2425980E-008  0.4614232E+02  0.7816164E-02  0.1320468E+00
        -11   -1    0    0    0    0  0.00000000000E+00  0.00000000000E+00  0.45593999997E+02  0.45594000000E+02  0.51100000000E-03 0.  1.
         11   -1    0    0    0    0 -0.00000000000E+00 -0.00000000000E+00 -0.45593999997E+02  0.45594000000E+02  0.51100000000E-03 0. -1.
    9900012    2    1    2    0    0 -0.21912070322E+02 -0.19563239760E+02  0.34150466482E+02  0.46142317226E+02  0.99999951169E+01 0.  0.
         12    1    1    2    0    0  0.21912070322E+02  0.19563239760E+02 -0.34150466482E+02  0.45045682774E+02  0.00000000000E+00 0. -1.
         11    1    3    3    0    0 -0.10163526950E+02 -0.50393202872E+01  0.16495779258E+02  0.20020059006E+02  0.51100000000E-03 0. -1.
        -11    1    3    3    0    0 -0.97719262837E+01 -0.86577385191E+01  0.12311838988E+02  0.17945148623E+02  0.51100000000E-03 0.  1.
         12    1    3    3    0    0 -0.19766170885E+01 -0.58661809532E+01  0.53428482357E+01  0.81771095970E+01  0.00000000000E+00 0. -1.
</event>
<event>
 7    1  0.2425980E-008  0.4614232E+02  0.7816164E-02  0.1320468E+00
        -11   -1    0    0    0    0  0.00000000000E+00  0.00000000000E+00  0.45593999997E+02  0.45594000000E+02  0.51100000000E-03 0.  1.
         11   -1    0    0    0    0 -0.00000000000E+00 -0.00000000000E+00 -0.45593999997E+02  0.45594000000E+02  0.51100000000E-03 0. -1.
    9900012    2    1    2    0    0  0.19478675998E+01 -0.40154164702E+02  0.20321475028E+02  0.46142317871E+02  0.10000001004E+02 0.  0.
         12    1    1    2    0    0 -0.19478675998E+01  0.40154164702E+02 -0.20321475028E+02  0.45045682129E+02  0.00000000000E+00 0. -1.
         11    1    3    3    0    0  0.32836605561E+01 -0.10565945158E+02  0.81270082851E+01  0.13728433547E+02  0.51100000000E-03 0. -1.
        -11    1    3    3    0    0 -0.17680437066E+01 -0.39519822450E+01  0.10392231111E+01  0.44524293536E+01  0.51100000000E-03 0.  1.
         12    1    3    3    0    0  0.43225075024E+00 -0.25636237300E+02  0.11155243632E+02  0.27961454971E+02  0.00000000000E+00 0. -1.
</event>
<event>
 7    1  0.2425980E-008  0.4614232E+02  0.7816164E-02  0.1320468E+00
        -11   -1    0    0    0    0  0.00000000000E+00  0.00000000000E+00  0.45593999997E+02  0.45594000000E+02  0.51100000000E-03 0.  1.
         11   -1    0    0    0    0 -0.00000000000E+00 -0.00000000000E+00 -0.45593999997E+02  0.45594000000E+02  0.51100000000E-03 0. -1.
    9900012    2    1    2    0    0 -0.30325969011E+01 -0.12909797476E+02  0.43049436155E+02  0.46142317986E+02  0.10000002053E+02 0.  0.
         12    1    1    2    0    0  0.30325969011E+01  0.12909797476E+02 -0.43049436155E+02  0.45045682014E+02  0.00000000000E+00 0. -1.
         11    1    3    3    0    0 -0.66578894257E+00 -0.70809378696E+00  0.82765230303E+00  0.12765893322E+01  0.51100000000E-03 0. -1.
        -11    1    3    3    0    0 -0.36110551512E+01 -0.86139969047E+00  0.88209330313E+01  0.95702972020E+01  0.51100000000E-03 0.  1.
         12    1    3    3    0    0  0.12442471927E+01 -0.11340303999E+02  0.33400850820E+02  0.35295431452E+02  0.00000000000E+00 0. -1.
</event>
<event>
 7    1  0.2425980E-008  0.4614232E+02  0.7816164E-02  0.1320468E+00
        -11   -1    0    0    0    0  0.00000000000E+00  0.00000000000E+00  0.45593999997E+02  0.45594000000E+02  0.51100000000E-03 0. -1.
         11   -1    0    0    0    0 -0.00000000000E+00 -0.00000000000E+00 -0.45593999997E+02  0.45594000000E+02  0.51100000000E-03 0.  1.
    9900012    2    1    2    0    0 -0.16109573832E+02 -0.27805010118E+02 -0.31567014088E+02  0.46142319462E+02  0.10000015508E+02 0.  0.
         12    1    1    2    0    0  0.16109573832E+02  0.27805010118E+02  0.31567014088E+02  0.45045680538E+02  0.00000000000E+00 0. -1.
         11    1    3    3    0    0 -0.12787327119E+02 -0.15460470090E+02 -0.18667920878E+02  0.27404983861E+02  0.51100000000E-03 0. -1.
        -11    1    3    3    0    0  0.11630009776E+01 -0.27881306465E+01 -0.25373803805E+01  0.39451924202E+01  0.51100000000E-03 0.  1.
        -12    1    3    3    0    0 -0.44852476908E+01 -0.95564093815E+01 -0.10361712829E+02  0.14792143180E+02  0.00000000000E+00 0.  1.
</event>
<event>
 7    1  0.2425980E-008  0.4614232E+02  0.7816164E-02  0.1320468E+00
        -11   -1    0    0    0    0  0.00000000000E+00  0.00000000000E+00  0.45593999997E+02  0.45594000000E+02  0.51100000000E-03 0.  1.
         11   -1    0    0    0    0 -0.00000000000E+00 -0.00000000000E+00 -0.45593999997E+02  0.45594000000E+02  0.51100000000E-03 0. -1.
    9900012    2    1    2    0    0  0.44820793015E+02 -0.40096337520E+01 -0.20329304206E+01  0.46142318126E+02  0.10000003332E+02 0.  0.
         12    1    1    2    0    0 -0.44820793015E+02  0.40096337520E+01  0.20329304206E+01  0.45045681874E+02  0.00000000000E+00 0. -1.
         11    1    3    3    0    0  0.19338838759E+02 -0.11222605891E+01 -0.47935666973E+01  0.19955661736E+02  0.51100000000E-03 0. -1.
        -11    1    3    3    0    0  0.45775450977E+01  0.66126190215E+00  0.17951243060E+01  0.49612153712E+01  0.51100000000E-03 0.  1.
         12    1    3    3    0    0  0.20904409159E+02 -0.35486350651E+01  0.96551197077E+00  0.21225441020E+02  0.00000000000E+00 0. -1.
</event>
<event>
 7    1  0.2425980E-008  0.4614232E+02  0.7816164E-02  0.1320468E+00
        -11   -1    0    0    0    0  0.00000000000E+00  0.00000000000E+00  0.45593999997E+02  0.45594000000E+02  0.51100000000E-03 0.  1.
         11   -1    0    0    0    0 -0.00000000000E+00 -0.00000000000E+00 -0.45593999997E+02  0.45594000000E+02  0.51100000000E-03 0. -1.
    9900012    2    1    2    0    0  0.34780284302E+02  0.27541459955E+02 -0.78046950302E+01  0.46142318108E+02  0.10000003164E+02 0.  0.
         12    1    1    2    0    0 -0.34780284302E+02 -0.27541459955E+02  0.78046950302E+01  0.45045681892E+02  0.00000000000E+00 0. -1.
         11    1    3    3    0    0  0.11201524387E+02  0.55545961232E+01 -0.99693223960E+00  0.12542789197E+02  0.51100000000E-03 0. -1.
        -11    1    3    3    0    0  0.12831000831E+02  0.10355966495E+02 -0.66030699677E+01  0.17761789258E+02  0.51100000000E-03 0.  1.
        -12    1    3    3    0    0  0.10747759084E+02  0.11630897336E+02 -0.20469282282E+00  0.15837739654E+02  0.00000000000E+00 0.  1.
</event>
<event>
 7    1  0.2425980E-008  0.4614232E+02  0.7816164E-02  0.1320468E+00
        -11   -1    0    0    0    0  0.00000000000E+00  0.00000000000E+00  0.45593999997E+02  0.45594000000E+02  0.51100000000E-03 0.  1.
         11   -1    0    0    0    0 -0.00000000000E+00 -0.00000000000E+00 -0.45593999997E+02  0.45594000000E+02  0.51100000000E-03 0. -1.
    9900012    2    1    2    0    0  0.37844471527E+02  0.56484079656E+00  0.24425202264E+02  0.46142316789E+02  0.99999911394E+01 0.  0.
         12    1    1    2    0    0 -0.37844471527E+02 -0.56484079656E+00 -0.24425202264E+02  0.45045683211E+02  0.00000000000E+00 0. -1.
         11    1    3    3    0    0  0.63523273623E+00 -0.50843694953E+00  0.13614406133E+01  0.15860484121E+01  0.51100000000E-03 0. -1.
        -11    1    3    3    0    0  0.39500550564E+01 -0.87196127066E+00  0.16186962265E-01  0.40451840113E+01  0.51100000000E-03 0.  1.
        -12    1    3    3    0    0  0.33259183734E+02  0.19452390168E+01  0.23047574688E+02  0.40511084366E+02  0.00000000000E+00 0.  1.
</event>
<event>
 7    1  0.2730543E-008  0.4614233E+02  0.7816164E-02  0.1320468E+00
        -11   -1    0    0    0    0  0.00000000000E+00  0.00000000000E+00  0.45593999997E+02  0.45594000000E+02  0.51100000000E-03 0.  1.
         11   -1    0    0    0    0 -0.00000000000E+00 -0.00000000000E+00 -0.45593999997E+02  0.45594000000E+02  0.51100000000E-03 0. -1.
    9900012    2    1    2    0    0  0.30356393240E+02  0.26837038914E+02  0.19681844491E+02  0.46142331276E+02  0.10000123237E+02 0.  0.
         12    1    1    2    0    0 -0.30356393240E+02 -0.26837038914E+02 -0.19681844491E+02  0.45045668724E+02  0.00000000000E+00 0. -1.
         11    1    3    3    0    0 -0.39350692921E+00  0.83283358084E+00  0.29097418832E-01  0.92157821025E+00  0.51100000000E-03 0. -1.
        -11    1    3    3    0    0  0.42904459055E+01  0.62910005354E+01  0.23833127594E+01  0.79790221064E+01  0.51100000000E-03 0.  1.
        -12    1    3    3    0    0  0.26459454264E+02  0.19713204798E+02  0.17269434313E+02  0.37241730959E+02  0.00000000000E+00 0.  1.
</event>
<event>
 7    1  0.2425980E-008  0.4614232E+02  0.7816164E-02  0.1320468E+00
        -11   -1    0    0    0    0  0.00000000000E+00  0.00000000000E+00  0.45593999997E+02  0.45594000000E+02  0.51100000000E-03 0. -1.
         11   -1    0    0    0    0 -0.00000000000E+00 -0.00000000000E+00 -0.45593999997E+02  0.45594000000E+02  0.51100000000E-03 0.  1.
    9900012    2    1    2    0    0 -0.33710289290E+02  0.15503136312E+02 -0.25541786130E+02  0.46142315654E+02  0.99999807819E+01 0.  0.
         12    1    1    2    0    0  0.33710289290E+02 -0.15503136312E+02  0.25541786130E+02  0.45045684346E+02  0.00000000000E+00 0. -1.
         11    1    3    3    0    0 -0.11934617982E+01  0.16118833742E+01 -0.68345987251E+00  0.21188762904E+01  0.51100000000E-03 0. -1.
        -11    1    3    3    0    0 -0.33773229399E+01  0.45058041146E+01 -0.27869269298E+01  0.62829565439E+01  0.51100000000E-03 0.  1.
         12    1    3    3    0    0 -0.29139504552E+02  0.93854488230E+01 -0.22071399327E+02  0.37740482819E+02  0.00000000000E+00 0. -1.
</event>
<event>
 7    1  0.2425980E-008  0.4614232E+02  0.7816164E-02  0.1320468E+00
        -11   -1    0    0    0    0  0.00000000000E+00  0.00000000000E+00  0.45593999997E+02  0.45594000000E+02  0.51100000000E-03 0.  1.
         11   -1    0    0    0    0 -0.00000000000E+00 -0.00000000000E+00 -0.45593999997E+02  0.45594000000E+02  0.51100000000E-03 0. -1.
    9900012    2    1    2    0    0 -0.30822315273E+02 -0.22752817591E+02  0.23694045565E+02  0.46142316274E+02  0.99999864361E+01 0.  0.
         12    1    1    2    0    0  0.30822315273E+02  0.22752817591E+02 -0.23694045565E+02  0.45045683726E+02  0.00000000000E+00 0. -1.
         11    1    3    3    0    0 -0.11785795642E+01  0.18969819338E+00 -0.15393012811E+00  0.12036319783E+01  0.51100000000E-03 0. -1.
        -11    1    3    3    0    0 -0.11607674969E+02 -0.59353153540E+01  0.57686946428E+01  0.14256364357E+02  0.51100000000E-03 0.  1.
         12    1    3    3    0    0 -0.18036060740E+02 -0.17007200430E+02  0.18079281051E+02  0.30682319939E+02  0.00000000000E+00 0. -1.
</event>
<event>
 7    1  0.2425980E-008  0.4614232E+02  0.7816164E-02  0.1320468E+00
        -11   -1    0    0    0    0  0.00000000000E+00  0.00000000000E+00  0.45593999997E+02  0.45594000000E+02  0.51100000000E-03 0. -1.
         11   -1    0    0    0    0 -0.00000000000E+00 -0.00000000000E+00 -0.45593999997E+02  0.45594000000E+02  0.51100000000E-03 0.  1.
    9900012    2    1    2    0    0 -0.19286112488E+02 -0.28065103368E+02 -0.29487443987E+02  0.46142317467E+02  0.99999973174E+01 0.  0.
         12    1    1    2    0    0  0.19286112488E+02  0.28065103368E+02  0.29487443987E+02  0.45045682533E+02  0.00000000000E+00 0. -1.
         11    1    3    3    0    0 -0.11786303346E+02 -0.22009051725E+02 -0.25337916919E+02  0.35571411814E+02  0.51100000000E-03 0. -1.
        -11    1    3    3    0    0 -0.18299468058E+01 -0.16297505884E+01 -0.48416065431E+00  0.24978398853E+01  0.51100000000E-03 0.  1.
         12    1    3    3    0    0 -0.56698623359E+01 -0.44263010545E+01 -0.36653664143E+01  0.80730657673E+01  0.00000000000E+00 0. -1.
</event>
<event>
 7    1  0.2425980E-008  0.4614232E+02  0.7816164E-02  0.1320468E+00
        -11   -1    0    0    0    0  0.00000000000E+00  0.00000000000E+00  0.45593999997E+02  0.45594000000E+02  0.51100000000E-03 0. -1.
         11   -1    0    0    0    0 -0.00000000000E+00 -0.00000000000E+00 -0.45593999997E+02  0.45594000000E+02  0.51100000000E-03 0.  1.
    9900012    2    1    2    0    0 -0.32093146485E+02 -0.99143010609E+01  0.30014163979E+02  0.46142318118E+02  0.10000003254E+02 0.  0.
         12    1    1    2    0    0  0.32093146485E+02  0.99143010609E+01 -0.30014163979E+02  0.45045681882E+02  0.00000000000E+00 0. -1.
         11    1    3    3    0    0 -0.54796842331E+01 -0.20076413239E+01  0.14953471315E+01  0.60244191657E+01  0.51100000000E-03 0. -1.
        -11    1    3    3    0    0 -0.10169874881E+02 -0.59123433304E+00  0.94106176532E+01  0.13868512465E+02  0.51100000000E-03 0.  1.
         12    1    3    3    0    0 -0.16443587372E+02 -0.73154254039E+01  0.19108199194E+02  0.26249386487E+02  0.00000000000E+00 0. -1.
</event>
<event>
 7    1  0.2425980E-008  0.4614232E+02  0.7816164E-02  0.1320468E+00
        -11   -1    0    0    0    0  0.00000000000E+00  0.00000000000E+00  0.45593999997E+02  0.45594000000E+02  0.51100000000E-03 0. -1.
         11   -1    0    0    0    0 -0.00000000000E+00 -0.00000000000E+00 -0.45593999997E+02  0.45594000000E+02  0.51100000000E-03 0.  1.
    9900012    2    1    2    0    0  0.61888208004E+01 -0.12257437340E+02 -0.42901828829E+02  0.46142321074E+02  0.10000030213E+02 0.  0.
         12    1    1    2    0    0 -0.61888208004E+01  0.12257437340E+02  0.42901828829E+02  0.45045678926E+02  0.00000000000E+00 0. -1.
         11    1    3    3    0    0  0.48983328385E+00 -0.29614890010E+01 -0.17425066930E+02  0.17681722527E+02  0.51100000000E-03 0.  1.
        -11    1    3    3    0    0  0.28040395843E+01 -0.10646854008E+00 -0.83621631488E+01  0.88204164488E+01  0.51100000000E-03 0. -1.
        -12    1    3    3    0    0  0.28949479322E+01 -0.91894797986E+01 -0.17114598749E+02  0.19640182098E+02  0.00000000000E+00 0.  1.
</event>
<event>
 7    1  0.2425980E-008  0.4614232E+02  0.7816164E-02  0.1320468E+00
        -11   -1    0    0    0    0  0.00000000000E+00  0.00000000000E+00  0.45593999997E+02  0.45594000000E+02  0.51100000000E-03 0.  1.
         11   -1    0    0    0    0 -0.00000000000E+00 -0.00000000000E+00 -0.45593999997E+02  0.45594000000E+02  0.51100000000E-03 0. -1.
    9900012    2    1    2    0    0  0.19349309069E+02 -0.37331181097E+02  0.16158609058E+02  0.46142317740E+02  0.99999998084E+01 0.  0.
         12    1    1    2    0    0 -0.19349309069E+02  0.37331181097E+02 -0.16158609058E+02  0.45045682260E+02  0.00000000000E+00 0. -1.
         11    1    3    3    0    0 -0.34372806776E+00 -0.34113672420E+00  0.28342828256E+00  0.56111950745E+00  0.51100000000E-03 0. -1.
        -11    1    3    3    0    0  0.20009391736E+02 -0.35805009276E+02  0.16492180474E+02  0.44208217154E+02  0.51100000000E-03 0.  1.
        -12    1    3    3    0    0 -0.31635459936E+00 -0.11850350969E+01 -0.61699969849E+00  0.13729810783E+01  0.00000000000E+00 0.  1.
</event>
<event>
 7    1  0.2425980E-008  0.4614232E+02  0.7816164E-02  0.1320468E+00
        -11   -1    0    0    0    0  0.00000000000E+00  0.00000000000E+00  0.45593999997E+02  0.45594000000E+02  0.51100000000E-03 0. -1.
         11   -1    0    0    0    0 -0.00000000000E+00 -0.00000000000E+00 -0.45593999997E+02  0.45594000000E+02  0.51100000000E-03 0.  1.
    9900012    2    1    2    0    0  0.32830730108E+02 -0.30828080796E+02  0.94133886719E+00  0.46142317368E+02  0.99999964140E+01 0.  0.
         12    1    1    2    0    0 -0.32830730108E+02  0.30828080796E+02 -0.94133886719E+00  0.45045682632E+02  0.00000000000E+00 0. -1.
         11    1    3    3    0    0  0.30653471464E+02 -0.24535018754E+02  0.13898063051E+01  0.39287835520E+02  0.51100000000E-03 0.  1.
        -11    1    3    3    0    0  0.18433796207E+01 -0.29941341358E+01 -0.65931104258E-01  0.35167079521E+01  0.51100000000E-03 0. -1.
        -12    1    3    3    0    0  0.33387902290E+00 -0.32989279058E+01 -0.38253633369E+00  0.33377738953E+01  0.00000000000E+00 0.  1.
</event>
<event>
 7    1  0.2425980E-008  0.4614232E+02  0.7816164E-02  0.1320468E+00
        -11   -1    0    0    0    0  0.00000000000E+00  0.00000000000E+00  0.45593999997E+02  0.45594000000E+02  0.51100000000E-03 0. -1.
         11   -1    0    0    0    0 -0.00000000000E+00 -0.00000000000E+00 -0.45593999997E+02  0.45594000000E+02  0.51100000000E-03 0.  1.
    9900012    2    1    2    0    0 -0.34289053747E+02  0.18892921002E+02 -0.22280751275E+02  0.46142317097E+02  0.99999939403E+01 0.  0.
         12    1    1    2    0    0  0.34289053747E+02 -0.18892921002E+02  0.22280751275E+02  0.45045682903E+02  0.00000000000E+00 0. -1.
         11    1    3    3    0    0 -0.32930592487E+01  0.78573844621E+00 -0.59299319606E+00  0.34370431060E+01  0.51100000000E-03 0. -1.
        -11    1    3    3    0    0 -0.67000448276E+01  0.79345233270E+01 -0.72813514001E+01  0.12683270067E+02  0.51100000000E-03 0.  1.
        -12    1    3    3    0    0 -0.24295949671E+02  0.10172659229E+02 -0.14406406679E+02  0.30022003924E+02  0.00000000000E+00 0.  1.
</event>
<event>
 7    1  0.2425980E-008  0.4614232E+02  0.7816164E-02  0.1320468E+00
        -11   -1    0    0    0    0  0.00000000000E+00  0.00000000000E+00  0.45593999997E+02  0.45594000000E+02  0.51100000000E-03 0. -1.
         11   -1    0    0    0    0 -0.00000000000E+00 -0.00000000000E+00 -0.45593999997E+02  0.45594000000E+02  0.51100000000E-03 0.  1.
    9900012    2    1    2    0    0 -0.21341931150E+02  0.16009268434E+02 -0.36295161113E+02  0.46142318506E+02  0.10000006796E+02 0.  0.
         12    1    1    2    0    0  0.21341931150E+02 -0.16009268434E+02  0.36295161113E+02  0.45045681494E+02  0.00000000000E+00 0. -1.
         11    1    3    3    0    0  0.50527342267E+00  0.11493267702E+01 -0.44280364306E+00  0.13312883173E+01  0.51100000000E-03 0. -1.
        -11    1    3    3    0    0 -0.29547847939E+01  0.35144414431E+01 -0.40685196985E+01  0.61347293855E+01  0.51100000000E-03 0.  1.
        -12    1    3    3    0    0 -0.18892419779E+02  0.11345500220E+02 -0.31783837771E+02  0.38676300804E+02  0.00000000000E+00 0.  1.
</event>
<event>
 7    1  0.2425980E-008  0.4614232E+02  0.7816164E-02  0.1320468E+00
        -11   -1    0    0    0    0  0.00000000000E+00  0.00000000000E+00  0.45593999997E+02  0.45594000000E+02  0.51100000000E-03 0.  1.
         11   -1    0    0    0    0 -0.00000000000E+00 -0.00000000000E+00 -0.45593999997E+02  0.45594000000E+02  0.51100000000E-03 0. -1.
    9900012    2    1    2    0    0 -0.23327588432E+02 -0.19558905012E+02  0.33202203996E+02  0.46142317660E+02  0.99999990776E+01 0.  0.
         12    1    1    2    0    0  0.23327588432E+02  0.19558905012E+02 -0.33202203996E+02  0.45045682340E+02  0.00000000000E+00 0. -1.
         11    1    3    3    0    0 -0.13462081640E+02 -0.11328954920E+02  0.20641226472E+02  0.27122556889E+02  0.51100000000E-03 0. -1.
        -11    1    3    3    0    0 -0.54533867879E+01 -0.28120328738E+01  0.96825126487E+01  0.11462897007E+02  0.51100000000E-03 0.  1.
         12    1    3    3    0    0 -0.44121200038E+01 -0.54179172185E+01  0.28784648753E+01  0.75568637643E+01  0.00000000000E+00 0. -1.
</event>
<event>
 7    1  0.2425980E-008  0.4614232E+02  0.7816164E-02  0.1320468E+00
        -11   -1    0    0    0    0  0.00000000000E+00  0.00000000000E+00  0.45593999997E+02  0.45594000000E+02  0.51100000000E-03 0. -1.
         11   -1    0    0    0    0 -0.00000000000E+00 -0.00000000000E+00 -0.45593999997E+02  0.45594000000E+02  0.51100000000E-03 0.  1.
    9900012    2    1    2    0    0 -0.44507446210E+02  0.33029849255E+00 -0.69348091777E+01  0.46142318259E+02  0.10000004538E+02 0.  0.
         12    1    1    2    0    0  0.44507446210E+02 -0.33029849255E+00  0.69348091777E+01  0.45045681741E+02  0.00000000000E+00 0. -1.
         11    1    3    3    0    0 -0.19987925211E+02  0.91536509712E+00  0.12623757109E+01  0.20048656818E+02  0.51100000000E-03 0. -1.
        -11    1    3    3    0    0 -0.66717112956E+01  0.13772140696E+01 -0.20226588985E+01  0.71063070217E+01  0.51100000000E-03 0.  1.
        -12    1    3    3    0    0 -0.17847809703E+02 -0.19622806742E+01 -0.61745259901E+01  0.18987354419E+02  0.00000000000E+00 0.  1.
</event>
<event>
 7    1  0.2425980E-008  0.4614232E+02  0.7816164E-02  0.1320468E+00
        -11   -1    0    0    0    0  0.00000000000E+00  0.00000000000E+00  0.45593999997E+02  0.45594000000E+02  0.51100000000E-03 0.  1.
         11   -1    0    0    0    0 -0.00000000000E+00 -0.00000000000E+00 -0.45593999997E+02  0.45594000000E+02  0.51100000000E-03 0. -1.
    9900012    2    1    2    0    0  0.26687167941E+02  0.31690905663E+02  0.17680363261E+02  0.46142315640E+02  0.99999806569E+01 0.  0.
         12    1    1    2    0    0 -0.26687167941E+02 -0.31690905663E+02 -0.17680363261E+02  0.45045684360E+02  0.00000000000E+00 0. -1.
         11    1    3    3    0    0  0.10464700626E+02  0.15309594763E+02  0.39642480636E+01  0.18963357138E+02  0.51100000000E-03 0. -1.
        -11    1    3    3    0    0  0.88571790780E+00  0.20901592426E+01  0.29880356118E+00  0.22896606083E+01  0.51100000000E-03 0.  1.
        -12    1    3    3    0    0  0.15336749408E+02  0.14291151657E+02  0.13417311636E+02  0.24889297893E+02  0.00000000000E+00 0.  1.
</event>
<event>
 7    1  0.2425980E-008  0.4614232E+02  0.7816164E-02  0.1320468E+00
        -11   -1    0    0    0    0  0.00000000000E+00  0.00000000000E+00  0.45593999997E+02  0.45594000000E+02  0.51100000000E-03 0.  1.
         11   -1    0    0    0    0 -0.00000000000E+00 -0.00000000000E+00 -0.45593999997E+02  0.45594000000E+02  0.51100000000E-03 0. -1.
    9900012    2    1    2    0    0  0.77734809081E+01  0.30969818540E+01  0.44261666214E+02  0.46142318764E+02  0.10000009142E+02 0.  0.
         12    1    1    2    0    0 -0.77734809081E+01 -0.30969818540E+01 -0.44261666214E+02  0.45045681236E+02  0.00000000000E+00 0. -1.
         11    1    3    3    0    0  0.28790900658E+01 -0.16923108163E+01  0.20785512863E+02  0.21052093026E+02  0.51100000000E-03 0. -1.
        -11    1    3    3    0    0  0.65694824864E+00 -0.60995458175E+00  0.34212558260E+00  0.95951850872E+00  0.51100000000E-03 0.  1.
        -12    1    3    3    0    0  0.42374425937E+01  0.53992472520E+01  0.23134027768E+02  0.24130707229E+02  0.00000000000E+00 0.  1.
</event>
<event>
 7    1  0.2425980E-008  0.4614232E+02  0.7816164E-02  0.1320468E+00
        -11   -1    0    0    0    0  0.00000000000E+00  0.00000000000E+00  0.45593999997E+02  0.45594000000E+02  0.51100000000E-03 0.  1.
         11   -1    0    0    0    0 -0.00000000000E+00 -0.00000000000E+00 -0.45593999997E+02  0.45594000000E+02  0.51100000000E-03 0. -1.
    9900012    2    1    2    0    0  0.30584430850E+02 -0.16201527244E+01  0.33031516580E+02  0.46142318821E+02  0.10000009668E+02 0.  0.
         12    1    1    2    0    0 -0.30584430850E+02  0.16201527244E+01 -0.33031516580E+02  0.45045681179E+02  0.00000000000E+00 0. -1.
         11    1    3    3    0    0  0.13822947827E+01 -0.18905320784E+01  0.50481041231E+01  0.55649084364E+01  0.51100000000E-03 0. -1.
        -11    1    3    3    0    0  0.75592810730E+01 -0.10171629652E+01  0.60359497080E+01  0.97267692466E+01  0.51100000000E-03 0.  1.
         12    1    3    3    0    0  0.21642854995E+02  0.12875423192E+01  0.21947462749E+02  0.30850641138E+02  0.00000000000E+00 0. -1.
</event>
<event>
 7    1  0.2425980E-008  0.4614232E+02  0.7816164E-02  0.1320468E+00
        -11   -1    0    0    0    0  0.00000000000E+00  0.00000000000E+00  0.45593999997E+02  0.45594000000E+02  0.51100000000E-03 0.  1.
         11   -1    0    0    0    0 -0.00000000000E+00 -0.00000000000E+00 -0.45593999997E+02  0.45594000000E+02  0.51100000000E-03 0. -1.
    9900012    2    1    2    0    0  0.23767641426E+02  0.31532942690E+02  0.21676860884E+02  0.46142317061E+02  0.99999936171E+01 0.  0.
         12    1    1    2    0    0 -0.23767641426E+02 -0.31532942690E+02 -0.21676860884E+02  0.45045682939E+02  0.00000000000E+00 0. -1.
         11    1    3    3    0    0 -0.48464572152E-01  0.16092339349E+01 -0.67273639618E+00  0.17448659524E+01  0.51100000000E-03 0.  1.
        -11    1    3    3    0    0  0.30269088092E+01  0.47542874149E+01  0.43464638860E+01  0.71173853581E+01  0.51100000000E-03 0. -1.
        -12    1    3    3    0    0  0.20789197189E+02  0.25169421340E+02  0.18003133394E+02  0.37280065751E+02  0.00000000000E+00 0.  1.
</event>
<event>
 7    1  0.2425980E-008  0.4614232E+02  0.7816164E-02  0.1320468E+00
        -11   -1    0    0    0    0  0.00000000000E+00  0.00000000000E+00  0.45593999997E+02  0.45594000000E+02  0.51100000000E-03 0.  1.
         11   -1    0    0    0    0 -0.00000000000E+00 -0.00000000000E+00 -0.45593999997E+02  0.45594000000E+02  0.51100000000E-03 0. -1.
    9900012    2    1    2    0    0  0.68832138415E+01  0.37372689547E+02  0.24187124178E+02  0.46142317268E+02  0.99999955071E+01 0.  0.
         12    1    1    2    0    0 -0.68832138415E+01 -0.37372689547E+02 -0.24187124178E+02  0.45045682732E+02  0.00000000000E+00 0. -1.
         11    1    3    3    0    0  0.37810481374E+01  0.78213709505E+01  0.63955862960E+01  0.10787663922E+02  0.51100000000E-03 0. -1.
        -11    1    3    3    0    0  0.36564685320E+01  0.17125766914E+02  0.69002116452E+01  0.18822183071E+02  0.51100000000E-03 0.  1.
         12    1    3    3    0    0 -0.55430282799E+00  0.12425551682E+02  0.10891326237E+02  0.16532470276E+02  0.00000000000E+00 0. -1.
</event>
<event>
 7    1  0.2425980E-008  0.4614232E+02  0.7816164E-02  0.1320468E+00
        -11   -1    0    0    0    0  0.00000000000E+00  0.00000000000E+00  0.45593999997E+02  0.45594000000E+02  0.51100000000E-03 0. -1.
         11   -1    0    0    0    0 -0.00000000000E+00 -0.00000000000E+00 -0.45593999997E+02  0.45594000000E+02  0.51100000000E-03 0.  1.
    9900012    2    1    2    0    0  0.43089584371E+02 -0.82668244919E+01 -0.10201021573E+02  0.46142317526E+02  0.99999978548E+01 0.  0.
         12    1    1    2    0    0 -0.43089584371E+02  0.82668244919E+01  0.10201021573E+02  0.45045682474E+02  0.00000000000E+00 0. -1.
         11    1    3    3    0    0  0.13528988473E+02 -0.67376653879E+00 -0.72671404017E+01  0.15372014193E+02  0.51100000000E-03 0. -1.
        -11    1    3    3    0    0  0.17719200084E+02 -0.45321906251E+01 -0.30323454948E+01  0.18539307510E+02  0.51100000000E-03 0.  1.
         12    1    3    3    0    0  0.11841395813E+02 -0.30608673280E+01  0.98464323497E-01  0.12230995823E+02  0.00000000000E+00 0. -1.
</event>
<event>
 7    1  0.2425980E-008  0.4614232E+02  0.7816164E-02  0.1320468E+00
        -11   -1    0    0    0    0  0.00000000000E+00  0.00000000000E+00  0.45593999997E+02  0.45594000000E+02  0.51100000000E-03 0.  1.
         11   -1    0    0    0    0 -0.00000000000E+00 -0.00000000000E+00 -0.45593999997E+02  0.45594000000E+02  0.51100000000E-03 0. -1.
    9900012    2    1    2    0    0 -0.32160284669E+02  0.77486561315E+01  0.30574297729E+02  0.46142320258E+02  0.10000022766E+02 0.  0.
         12    1    1    2    0    0  0.32160284669E+02 -0.77486561315E+01 -0.30574297729E+02  0.45045679742E+02  0.00000000000E+00 0. -1.
         11    1    3    3    0    0 -0.17430994099E+02  0.42759091709E+01  0.19476447565E+02  0.26484995082E+02  0.51100000000E-03 0. -1.
        -11    1    3    3    0    0 -0.49718156556E+01  0.27822460557E+01  0.70667970334E+01  0.90774150836E+01  0.51100000000E-03 0.  1.
         12    1    3    3    0    0 -0.97574749144E+01  0.69050090489E+00  0.40310531311E+01  0.10579910092E+02  0.00000000000E+00 0. -1.
</event>
<event>
 7    1  0.2425980E-008  0.4614232E+02  0.7816164E-02  0.1320468E+00
        -11   -1    0    0    0    0  0.00000000000E+00  0.00000000000E+00  0.45593999997E+02  0.45594000000E+02  0.51100000000E-03 0. -1.
         11   -1    0    0    0    0 -0.00000000000E+00 -0.00000000000E+00 -0.45593999997E+02  0.45594000000E+02  0.51100000000E-03 0.  1.
    9900012    2    1    2    0    0 -0.16233647306E+02 -0.32072324667E+01 -0.41896251610E+02  0.46142317145E+02  0.99999943780E+01 0.  0.
         12    1    1    2    0    0  0.16233647306E+02  0.32072324667E+01  0.41896251610E+02  0.45045682855E+02  0.00000000000E+00 0. -1.
         11    1    3    3    0    0 -0.22390346459E+01 -0.14144655768E+01 -0.17849493481E+02  0.18044899745E+02  0.51100000000E-03 0. -1.
        -11    1    3    3    0    0 -0.65535086811E+01 -0.25859532070E+01 -0.12023347292E+02  0.13935440803E+02  0.51100000000E-03 0.  1.
         12    1    3    3    0    0 -0.74411039789E+01  0.79318631719E+00 -0.12023410837E+02  0.14161976597E+02  0.00000000000E+00 0. -1.
</event>
<event>
 7    1  0.2425980E-008  0.4614232E+02  0.7816164E-02  0.1320468E+00
        -11   -1    0    0    0    0  0.00000000000E+00  0.00000000000E+00  0.45593999997E+02  0.45594000000E+02  0.51100000000E-03 0. -1.
         11   -1    0    0    0    0 -0.00000000000E+00 -0.00000000000E+00 -0.45593999997E+02  0.45594000000E+02  0.51100000000E-03 0.  1.
    9900012    2    1    2    0    0 -0.12959979676E+02 -0.42613110469E+02  0.67286995268E+01  0.46142315919E+02  0.99999831997E+01 0.  0.
         12    1    1    2    0    0  0.12959979676E+02  0.42613110469E+02 -0.67286995268E+01  0.45045684081E+02  0.00000000000E+00 0. -1.
         11    1    3    3    0    0  0.11593417762E-01 -0.50358894734E+01  0.13957175167E+01  0.52257386888E+01  0.51100000000E-03 0. -1.
        -11    1    3    3    0    0 -0.12473980775E+01 -0.12282181970E+02  0.41034256220E+01  0.13009461865E+02  0.51100000000E-03 0.  1.
         12    1    3    3    0    0 -0.11724175016E+02 -0.25295039025E+02  0.12295563881E+01  0.27907115365E+02  0.00000000000E+00 0. -1.
</event>
<event>
 7    1  0.2425980E-008  0.4614232E+02  0.7816164E-02  0.1320468E+00
        -11   -1    0    0    0    0  0.00000000000E+00  0.00000000000E+00  0.45593999997E+02  0.45594000000E+02  0.51100000000E-03 0.  1.
         11   -1    0    0    0    0 -0.00000000000E+00 -0.00000000000E+00 -0.45593999997E+02  0.45594000000E+02  0.51100000000E-03 0. -1.
    9900012    2    1    2    0    0  0.60732091986E+00  0.42693002728E+02  0.14354516955E+02  0.46142317880E+02  0.10000001089E+02 0.  0.
         12    1    1    2    0    0 -0.60732091986E+00 -0.42693002728E+02 -0.14354516955E+02  0.45045682120E+02  0.00000000000E+00 0. -1.
         11    1    3    3    0    0  0.30304781805E+01  0.12433411542E+02  0.25462153476E+01  0.13048246374E+02  0.51100000000E-03 0. -1.
        -11    1    3    3    0    0  0.12833991696E+01  0.15094736230E+02  0.41602631901E+01  0.15710059368E+02  0.51100000000E-03 0.  1.
        -12    1    3    3    0    0 -0.37065564302E+01  0.15164854955E+02  0.76480384170E+01  0.17384012138E+02  0.00000000000E+00 0.  1.
</event>
<event>
 7    1  0.2425980E-008  0.4614232E+02  0.7816164E-02  0.1320468E+00
        -11   -1    0    0    0    0  0.00000000000E+00  0.00000000000E+00  0.45593999997E+02  0.45594000000E+02  0.51100000000E-03 0. -1.
         11   -1    0    0    0    0 -0.00000000000E+00 -0.00000000000E+00 -0.45593999997E+02  0.45594000000E+02  0.51100000000E-03 0.  1.
    9900012    2    1    2    0    0 -0.27180719275E+02  0.70656034710E+01 -0.35219301861E+02  0.46142317895E+02  0.10000001222E+02 0.  0.
         12    1    1    2    0    0  0.27180719275E+02 -0.70656034710E+01  0.35219301861E+02  0.45045682105E+02  0.00000000000E+00 0. -1.
         11    1    3    3    0    0 -0.10551917189E+02  0.31752512319E+01 -0.10318420742E+02  0.15096191030E+02  0.51100000000E-03 0.  1.
        -11    1    3    3    0    0 -0.16656116603E+02  0.28578512094E+01 -0.20711241614E+02  0.26731050546E+02  0.51100000000E-03 0. -1.
         12    1    3    3    0    0  0.27314517096E-01  0.10325010296E+01 -0.41896395046E+01  0.43150763188E+01  0.00000000000E+00 0. -1.
</event>
<event>
 7    1  0.2425980E-008  0.4614232E+02  0.7816164E-02  0.1320468E+00
        -11   -1    0    0    0    0  0.00000000000E+00  0.00000000000E+00  0.45593999997E+02  0.45594000000E+02  0.51100000000E-03 0.  1.
         11   -1    0    0    0    0 -0.00000000000E+00 -0.00000000000E+00 -0.45593999997E+02  0.45594000000E+02  0.51100000000E-03 0. -1.
    9900012    2    1    2    0    0  0.37742176367E+02  0.24116152185E+02  0.48013119139E+01  0.46142320193E+02  0.10000022180E+02 0.  0.
         12    1    1    2    0    0 -0.37742176367E+02 -0.24116152185E+02 -0.48013119139E+01  0.45045679807E+02  0.00000000000E+00 0. -1.
         11    1    3    3    0    0  0.69081556759E+01  0.41756863905E+01  0.39219204229E+01  0.89744321123E+01  0.51100000000E-03 0. -1.
        -11    1    3    3    0    0  0.63991050663E+01  0.49654984238E+01  0.24621351458E+01  0.84656263787E+01  0.51100000000E-03 0.  1.
        -12    1    3    3    0    0  0.24434915625E+02  0.14974967371E+02 -0.15827436549E+01  0.28702261702E+02  0.00000000000E+00 0.  1.
</event>
<event>
 7    1  0.2425980E-008  0.4614232E+02  0.7816164E-02  0.1320468E+00
        -11   -1    0    0    0    0  0.00000000000E+00  0.00000000000E+00  0.45593999997E+02  0.45594000000E+02  0.51100000000E-03 0. -1.
         11   -1    0    0    0    0 -0.00000000000E+00 -0.00000000000E+00 -0.45593999997E+02  0.45594000000E+02  0.51100000000E-03 0.  1.
    9900012    2    1    2    0    0  0.80869670220E+01  0.65052878465E+01 -0.43833728041E+02  0.46142317415E+02  0.99999968397E+01 0.  0.
         12    1    1    2    0    0 -0.80869670220E+01 -0.65052878465E+01  0.43833728041E+02  0.45045682585E+02  0.00000000000E+00 0. -1.
         11    1    3    3    0    0  0.36658110015E+01 -0.34144258045E+00 -0.58596283057E+01  0.69202599284E+01  0.51100000000E-03 0. -1.
        -11    1    3    3    0    0 -0.28030008757E-01  0.12282038545E+01 -0.10720461533E+01  0.16305071621E+01  0.51100000000E-03 0.  1.
         12    1    3    3    0    0  0.44491860292E+01  0.56185265725E+01 -0.36902053582E+02  0.37591550324E+02  0.00000000000E+00 0. -1.
</event>
<event>
 7    1  0.2425980E-008  0.4614232E+02  0.7816164E-02  0.1320468E+00
        -11   -1    0    0    0    0  0.00000000000E+00  0.00000000000E+00  0.45593999997E+02  0.45594000000E+02  0.51100000000E-03 0.  1.
         11   -1    0    0    0    0 -0.00000000000E+00 -0.00000000000E+00 -0.45593999997E+02  0.45594000000E+02  0.51100000000E-03 0. -1.
    9900012    2    1    2    0    0  0.89188641325E+01  0.41881063868E+02  0.13983683196E+02  0.46142322695E+02  0.10000044992E+02 0.  0.
         12    1    1    2    0    0 -0.89188641325E+01 -0.41881063868E+02 -0.13983683196E+02  0.45045677305E+02  0.00000000000E+00 0. -1.
         11    1    3    3    0    0  0.57697466599E+00  0.56651570683E+00  0.92904400818E+00  0.12316504543E+01  0.51100000000E-03 0. -1.
        -11    1    3    3    0    0  0.13103426177E+01  0.10482646391E+02 -0.33439073754E+00  0.10569517044E+02  0.51100000000E-03 0.  1.
        -12    1    3    3    0    0  0.70315468488E+01  0.30831901771E+02  0.13389029925E+02  0.34341155196E+02  0.00000000000E+00 0.  1.
</event>
<event>
 7    1  0.2425980E-008  0.4614232E+02  0.7816164E-02  0.1320468E+00
        -11   -1    0    0    0    0  0.00000000000E+00  0.00000000000E+00  0.45593999997E+02  0.45594000000E+02  0.51100000000E-03 0.  1.
         11   -1    0    0    0    0 -0.00000000000E+00 -0.00000000000E+00 -0.45593999997E+02  0.45594000000E+02  0.51100000000E-03 0. -1.
    9900012    2    1    2    0    0  0.30889518029E+02  0.65704905630E+01  0.32121328150E+02  0.46142318826E+02  0.10000009710E+02 0.  0.
         12    1    1    2    0    0 -0.30889518029E+02 -0.65704905630E+01 -0.32121328150E+02  0.45045681174E+02  0.00000000000E+00 0. -1.
         11    1    3    3    0    0  0.20960095578E+01  0.14523307021E+01  0.20367391812E+00  0.25581250674E+01  0.51100000000E-03 0. -1.
        -11    1    3    3    0    0  0.49146698855E+01  0.24016208723E+01  0.41870630887E+01  0.68886326994E+01  0.51100000000E-03 0.  1.
        -12    1    3    3    0    0  0.23878838586E+02  0.27165389886E+01  0.27730591143E+02  0.36695561059E+02  0.00000000000E+00 0.  1.
</event>
<event>
 7    1  0.2425980E-008  0.4614231E+02  0.7816164E-02  0.1320468E+00
        -11   -1    0    0    0    0  0.00000000000E+00  0.00000000000E+00  0.45593999997E+02  0.45594000000E+02  0.51100000000E-03 0.  1.
         11   -1    0    0    0    0 -0.00000000000E+00 -0.00000000000E+00 -0.45593999997E+02  0.45594000000E+02  0.51100000000E-03 0. -1.
    9900012    2    1    2    0    0  0.11494500765E+02  0.42845161414E+02 -0.78283209357E+01  0.46142311936E+02  0.99999468856E+01 0.  0.
         12    1    1    2    0    0 -0.11494500765E+02 -0.42845161414E+02  0.78283209357E+01  0.45045688064E+02  0.00000000000E+00 0. -1.
         11    1    3    3    0    0  0.77345444708E+00  0.13055255819E+02 -0.46808949632E+01  0.13890598051E+02  0.51100000000E-03 0. -1.
        -11    1    3    3    0    0  0.37575263822E+01  0.15944526545E+02  0.26121941000E+00  0.16383380821E+02  0.51100000000E-03 0.  1.
         12    1    3    3    0    0  0.69635199360E+01  0.13845379050E+02 -0.34086453825E+01  0.15868333065E+02  0.00000000000E+00 0. -1.
</event>
<event>
 7    1  0.2425980E-008  0.4614232E+02  0.7816164E-02  0.1320468E+00
        -11   -1    0    0    0    0  0.00000000000E+00  0.00000000000E+00  0.45593999997E+02  0.45594000000E+02  0.51100000000E-03 0.  1.
         11   -1    0    0    0    0 -0.00000000000E+00 -0.00000000000E+00 -0.45593999997E+02  0.45594000000E+02  0.51100000000E-03 0. -1.
    9900012    2    1    2    0    0 -0.25882524953E+02  0.36859626081E+02  0.75916106277E+00  0.46142318095E+02  0.10000003045E+02 0.  0.
         12    1    1    2    0    0  0.25882524953E+02 -0.36859626081E+02 -0.75916106277E+00  0.45045681905E+02  0.00000000000E+00 0. -1.
         11    1    3    3    0    0 -0.10397255087E+02  0.95016827579E+01  0.92272091152E+00  0.14115109023E+02  0.51100000000E-03 0. -1.
        -11    1    3    3    0    0 -0.10945186755E+02  0.13985897542E+02 -0.16056701858E+01  0.17832011108E+02  0.51100000000E-03 0.  1.
         12    1    3    3    0    0 -0.45400831113E+01  0.13372045780E+02  0.14421103371E+01  0.14195197964E+02  0.00000000000E+00 0. -1.
</event>
<event>
 7    1  0.2425980E-008  0.4614231E+02  0.7816164E-02  0.1320468E+00
        -11   -1    0    0    0    0  0.00000000000E+00  0.00000000000E+00  0.45593999997E+02  0.45594000000E+02  0.51100000000E-03 0.  1.
         11   -1    0    0    0    0 -0.00000000000E+00 -0.00000000000E+00 -0.45593999997E+02  0.45594000000E+02  0.51100000000E-03 0. -1.
    9900012    2    1    2    0    0  0.34252359767E+02  0.12183796546E+02  0.26597832533E+02  0.46142314932E+02  0.99999741983E+01 0.  0.
         12    1    1    2    0    0 -0.34252359767E+02 -0.12183796546E+02 -0.26597832533E+02  0.45045685068E+02  0.00000000000E+00 0. -1.
         11    1    3    3    0    0  0.39086250316E+01 -0.92035069858E+00  0.34596546152E+01  0.53003401178E+01  0.51100000000E-03 0. -1.
        -11    1    3    3    0    0  0.22721764991E+02  0.12515180247E+02  0.16737750299E+02  0.30871680004E+02  0.51100000000E-03 0.  1.
        -12    1    3    3    0    0  0.76219697443E+01  0.58896699725E+00  0.64004276179E+01  0.99702948100E+01  0.00000000000E+00 0.  1.
</event>
<event>
 7    1  0.2425980E-008  0.4614232E+02  0.7816164E-02  0.1320468E+00
        -11   -1    0    0    0    0  0.00000000000E+00  0.00000000000E+00  0.45593999997E+02  0.45594000000E+02  0.51100000000E-03 0.  1.
         11   -1    0    0    0    0 -0.00000000000E+00 -0.00000000000E+00 -0.45593999997E+02  0.45594000000E+02  0.51100000000E-03 0. -1.
    9900012    2    1    2    0    0  0.24990388143E+02  0.14966075045E+02  0.34360013560E+02  0.46142318369E+02  0.10000005542E+02 0.  0.
         12    1    1    2    0    0 -0.24990388143E+02 -0.14966075045E+02 -0.34360013560E+02  0.45045681631E+02  0.00000000000E+00 0. -1.
         11    1    3    3    0    0  0.28550212734E+01  0.30029658593E+01  0.77831159111E+01  0.88173603743E+01  0.51100000000E-03 0. -1.
        -11    1    3    3    0    0  0.10168654759E+02  0.78865236162E+01  0.17674716599E+02  0.21863083073E+02  0.51100000000E-03 0.  1.
        -12    1    3    3    0    0  0.11966712110E+02  0.40765855691E+01  0.89021810501E+01  0.15461874921E+02  0.00000000000E+00 0.  1.
</event>
<event>
 7    1  0.2425980E-008  0.4614232E+02  0.7816164E-02  0.1320468E+00
        -11   -1    0    0    0    0  0.00000000000E+00  0.00000000000E+00  0.45593999997E+02  0.45594000000E+02  0.51100000000E-03 0.  1.
         11   -1    0    0    0    0 -0.00000000000E+00 -0.00000000000E+00 -0.45593999997E+02  0.45594000000E+02  0.51100000000E-03 0. -1.
    9900012    2    1    2    0    0 -0.34163734301E+02 -0.19327044762E+02  0.22100186906E+02  0.46142315835E+02  0.99999824344E+01 0.  0.
         12    1    1    2    0    0  0.34163734301E+02  0.19327044762E+02 -0.22100186906E+02  0.45045684165E+02  0.00000000000E+00 0. -1.
         11    1    3    3    0    0 -0.19916553467E+01  0.36814517841E+00  0.23412262370E+00  0.20388809569E+01  0.51100000000E-03 0. -1.
        -11    1    3    3    0    0 -0.12276605656E+02 -0.96751766159E+01  0.59479371150E+01  0.16724295058E+02  0.51100000000E-03 0.  1.
         12    1    3    3    0    0 -0.19895473298E+02 -0.10020013324E+02  0.15918127168E+02  0.27379139820E+02  0.00000000000E+00 0. -1.
</event>
<event>
 7    1  0.2425980E-008  0.4614232E+02  0.7816164E-02  0.1320468E+00
        -11   -1    0    0    0    0  0.00000000000E+00  0.00000000000E+00  0.45593999997E+02  0.45594000000E+02  0.51100000000E-03 0. -1.
         11   -1    0    0    0    0 -0.00000000000E+00 -0.00000000000E+00 -0.45593999997E+02  0.45594000000E+02  0.51100000000E-03 0.  1.
    9900012    2    1    2    0    0 -0.41480120734E+02 -0.92446917442E+01 -0.14934817153E+02  0.46142317577E+02  0.99999983183E+01 0.  0.
         12    1    1    2    0    0  0.41480120734E+02  0.92446917442E+01  0.14934817153E+02  0.45045682423E+02  0.00000000000E+00 0. -1.
         11    1    3    3    0    0 -0.18970191482E+01  0.99167999143E+00 -0.23887060699E+01  0.32074955656E+01  0.51100000000E-03 0. -1.
        -11    1    3    3    0    0 -0.27903790360E+02 -0.89359407849E+01 -0.85321798603E+01  0.30516727341E+02  0.51100000000E-03 0.  1.
         12    1    3    3    0    0 -0.11679311226E+02 -0.13004309508E+01 -0.40139312228E+01  0.12418094670E+02  0.00000000000E+00 0. -1.
</event>
<event>
 7    1  0.2425980E-008  0.4614232E+02  0.7816164E-02  0.1320468E+00
        -11   -1    0    0    0    0  0.00000000000E+00  0.00000000000E+00  0.45593999997E+02  0.45594000000E+02  0.51100000000E-03 0. -1.
         11   -1    0    0    0    0 -0.00000000000E+00 -0.00000000000E+00 -0.45593999997E+02  0.45594000000E+02  0.51100000000E-03 0.  1.
    9900012    2    1    2    0    0 -0.39240597010E+02 -0.15163004654E+02 -0.16105038240E+02  0.46142318514E+02  0.10000006863E+02 0.  0.
         12    1    1    2    0    0  0.39240597010E+02  0.15163004654E+02  0.16105038240E+02  0.45045681486E+02  0.00000000000E+00 0. -1.
         11    1    3    3    0    0 -0.17494722464E+01  0.25292048494E+00 -0.21446066125E+01  0.27792012695E+01  0.51100000000E-03 0. -1.
        -11    1    3    3    0    0 -0.11288011398E+02 -0.34554804218E+01 -0.70213726587E+01  0.13735327464E+02  0.51100000000E-03 0.  1.
         12    1    3    3    0    0 -0.26203113366E+02 -0.11960444717E+02 -0.69390589690E+01  0.29627789781E+02  0.00000000000E+00 0. -1.
</event>
<event>
 7    1  0.2425980E-008  0.4614232E+02  0.7816164E-02  0.1320468E+00
        -11   -1    0    0    0    0  0.00000000000E+00  0.00000000000E+00  0.45593999997E+02  0.45594000000E+02  0.51100000000E-03 0.  1.
         11   -1    0    0    0    0 -0.00000000000E+00 -0.00000000000E+00 -0.45593999997E+02  0.45594000000E+02  0.51100000000E-03 0. -1.
    9900012    2    1    2    0    0 -0.93320562491E+01 -0.18524529916E+02  0.39985848339E+02  0.46142317078E+02  0.99999937754E+01 0.  0.
         12    1    1    2    0    0  0.93320562491E+01  0.18524529916E+02 -0.39985848339E+02  0.45045682922E+02  0.00000000000E+00 0. -1.
         11    1    3    3    0    0 -0.40275459754E+01 -0.40663285988E+01  0.17311459389E+02  0.18233013500E+02  0.51100000000E-03 0. -1.
        -11    1    3    3    0    0 -0.11805041423E+01 -0.11829541600E+01  0.58551307912E+01  0.60889676808E+01  0.51100000000E-03 0.  1.
        -12    1    3    3    0    0 -0.41240061314E+01 -0.13275247157E+02  0.16819258159E+02  0.21820335897E+02  0.00000000000E+00 0.  1.
</event>
<event>
 7    1  0.2425980E-008  0.4614232E+02  0.7816164E-02  0.1320468E+00
        -11   -1    0    0    0    0  0.00000000000E+00  0.00000000000E+00  0.45593999997E+02  0.45594000000E+02  0.51100000000E-03 0.  1.
         11   -1    0    0    0    0 -0.00000000000E+00 -0.00000000000E+00 -0.45593999997E+02  0.45594000000E+02  0.51100000000E-03 0. -1.
    9900012    2    1    2    0    0  0.89073654404E+00 -0.29535056727E+02  0.34000006616E+02  0.46142318327E+02  0.10000005164E+02 0.  0.
         12    1    1    2    0    0 -0.89073654404E+00  0.29535056727E+02 -0.34000006616E+02  0.45045681673E+02  0.00000000000E+00 0. -1.
         11    1    3    3    0    0 -0.66129312426E+00 -0.51605023134E+01  0.85652978570E+01  0.10021597695E+02  0.51100000000E-03 0. -1.
        -11    1    3    3    0    0  0.61514156088E+00 -0.24606644488E+02  0.24920506560E+02  0.35027089511E+02  0.51100000000E-03 0.  1.
        -12    1    3    3    0    0  0.93688810741E+00  0.23209007482E+00  0.51420219893E+00  0.10936311216E+01  0.00000000000E+00 0.  1.
</event>
<event>
 7    1  0.2425980E-008  0.4614232E+02  0.7816164E-02  0.1320468E+00
        -11   -1    0    0    0    0  0.00000000000E+00  0.00000000000E+00  0.45593999997E+02  0.45594000000E+02  0.51100000000E-03 0.  1.
         11   -1    0    0    0    0 -0.00000000000E+00 -0.00000000000E+00 -0.45593999997E+02  0.45594000000E+02  0.51100000000E-03 0. -1.
    9900012    2    1    2    0    0 -0.48488334585E+01  0.91908366926E+00  0.44774518858E+02  0.46142318302E+02  0.10000004929E+02 0.  0.
         12    1    1    2    0    0  0.48488334585E+01 -0.91908366926E+00 -0.44774518858E+02  0.45045681698E+02  0.00000000000E+00 0. -1.
         11    1    3    3    0    0  0.69479086179E+00  0.17038367231E+01  0.25026969015E+01  0.31063299829E+01  0.51100000000E-03 0. -1.
        -11    1    3    3    0    0 -0.25249774478E+01 -0.17721975488E+01  0.73646471489E+01  0.79846241710E+01  0.51100000000E-03 0.  1.
         12    1    3    3    0    0 -0.30186468725E+01  0.98744449490E+00  0.34907174808E+02  0.35051364148E+02  0.00000000000E+00 0. -1.
</event>
<event>
 7    1  0.2425980E-008  0.4614231E+02  0.7816164E-02  0.1320468E+00
        -11   -1    0    0    0    0  0.00000000000E+00  0.00000000000E+00  0.45593999997E+02  0.45594000000E+02  0.51100000000E-03 0.  1.
         11   -1    0    0    0    0 -0.00000000000E+00 -0.00000000000E+00 -0.45593999997E+02  0.45594000000E+02  0.51100000000E-03 0. -1.
    9900012    2    1    2    0    0  0.32605472878E+02  0.18192154156E+02  0.25200052708E+02  0.46142312183E+02  0.99999491309E+01 0.  0.
         12    1    1    2    0    0 -0.32605472878E+02 -0.18192154156E+02 -0.25200052708E+02  0.45045687817E+02  0.00000000000E+00 0. -1.
         11    1    3    3    0    0  0.81785867256E+01  0.16551207707E+00  0.45786748832E+01  0.93744834004E+01  0.51100000000E-03 0. -1.
        -11    1    3    3    0    0  0.22059021208E+02  0.16333520875E+02  0.19396773874E+02  0.33609807465E+02  0.51100000000E-03 0.  1.
         12    1    3    3    0    0  0.23678649440E+01  0.16931212037E+01  0.12246039515E+01  0.31580213175E+01  0.00000000000E+00 0. -1.
</event>
<event>
 7    1  0.2425980E-008  0.4614232E+02  0.7816164E-02  0.1320468E+00
        -11   -1    0    0    0    0  0.00000000000E+00  0.00000000000E+00  0.45593999997E+02  0.45594000000E+02  0.51100000000E-03 0. -1.
         11   -1    0    0    0    0 -0.00000000000E+00 -0.00000000000E+00 -0.45593999997E+02  0.45594000000E+02  0.51100000000E-03 0.  1.
    9900012    2    1    2    0    0 -0.24887304759E+02 -0.30288679468E+02 -0.22188535085E+02  0.46142321724E+02  0.10000036136E+02 0.  0.
         12    1    1    2    0    0  0.24887304759E+02  0.30288679468E+02  0.22188535085E+02  0.45045678276E+02  0.00000000000E+00 0. -1.
         11    1    3    3    0    0 -0.57392312101E+01 -0.70704951482E+01 -0.14701824837E+01  0.92245386508E+01  0.51100000000E-03 0. -1.
        -11    1    3    3    0    0 -0.72754398614E+01 -0.65176388020E+01 -0.91654237261E+01  0.13394649419E+02  0.51100000000E-03 0.  1.
         12    1    3    3    0    0 -0.11872633688E+02 -0.16700545518E+02 -0.11552928876E+02  0.23523133654E+02  0.00000000000E+00 0. -1.
</event>
<event>
 7    1  0.2425980E-008  0.4614232E+02  0.7816164E-02  0.1320468E+00
        -11   -1    0    0    0    0  0.00000000000E+00  0.00000000000E+00  0.45593999997E+02  0.45594000000E+02  0.51100000000E-03 0.  1.
         11   -1    0    0    0    0 -0.00000000000E+00 -0.00000000000E+00 -0.45593999997E+02  0.45594000000E+02  0.51100000000E-03 0. -1.
    9900012    2    1    2    0    0 -0.15886252981E+02 -0.92157620727E+01  0.41131620874E+02  0.46142317187E+02  0.99999947617E+01 0.  0.
         12    1    1    2    0    0  0.15886252981E+02  0.92157620727E+01 -0.41131620874E+02  0.45045682813E+02  0.00000000000E+00 0. -1.
         11    1    3    3    0    0 -0.28666050118E+00  0.11904832566E+01  0.26636577410E+01  0.29316373326E+01  0.51100000000E-03 0.  1.
        -11    1    3    3    0    0 -0.30916439372E+00 -0.23971630060E+01  0.44480599901E+01  0.50623325688E+01  0.51100000000E-03 0. -1.
         12    1    3    3    0    0 -0.15290428087E+02 -0.80090823233E+01  0.34019903143E+02  0.38148347285E+02  0.00000000000E+00 0. -1.
</event>
<event>
 7    1  0.2425980E-008  0.4614232E+02  0.7816164E-02  0.1320468E+00
        -11   -1    0    0    0    0  0.00000000000E+00  0.00000000000E+00  0.45593999997E+02  0.45594000000E+02  0.51100000000E-03 0. -1.
         11   -1    0    0    0    0 -0.00000000000E+00 -0.00000000000E+00 -0.45593999997E+02  0.45594000000E+02  0.51100000000E-03 0.  1.
    9900012    2    1    2    0    0 -0.13751690774E+02 -0.11658293259E+02 -0.41280608628E+02  0.46142318192E+02  0.10000003931E+02 0.  0.
         12    1    1    2    0    0  0.13751690774E+02  0.11658293259E+02  0.41280608628E+02  0.45045681808E+02  0.00000000000E+00 0. -1.
         11    1    3    3    0    0 -0.32246019124E+01 -0.43466234151E+01 -0.53436520040E+01  0.76056432737E+01  0.51100000000E-03 0. -1.
        -11    1    3    3    0    0  0.28176600548E+00  0.37200144386E+00 -0.43227153181E+00  0.63611012759E+00  0.51100000000E-03 0.  1.
        -12    1    3    3    0    0 -0.10808854867E+02 -0.76836712879E+01 -0.35504685092E+02  0.37900564791E+02  0.00000000000E+00 0.  1.
</event>
<event>
 7    1  0.2425980E-008  0.4614232E+02  0.7816164E-02  0.1320468E+00
        -11   -1    0    0    0    0  0.00000000000E+00  0.00000000000E+00  0.45593999997E+02  0.45594000000E+02  0.51100000000E-03 0.  1.
         11   -1    0    0    0    0 -0.00000000000E+00 -0.00000000000E+00 -0.45593999997E+02  0.45594000000E+02  0.51100000000E-03 0. -1.
    9900012    2    1    2    0    0  0.37704708521E+02  0.21622432790E+02  0.11829575365E+02  0.46142317657E+02  0.99999990521E+01 0.  0.
         12    1    1    2    0    0 -0.37704708521E+02 -0.21622432790E+02 -0.11829575365E+02  0.45045682343E+02  0.00000000000E+00 0. -1.
         11    1    3    3    0    0  0.98474702576E+01  0.23978420112E+01  0.33747623565E+01  0.10682290860E+02  0.51100000000E-03 0. -1.
        -11    1    3    3    0    0  0.15754778668E+02  0.12006672463E+02  0.79952735876E+01  0.21361124373E+02  0.51100000000E-03 0.  1.
        -12    1    3    3    0    0  0.12102459596E+02  0.72179183155E+01  0.45953942083E+00  0.14098902424E+02  0.00000000000E+00 0.  1.
</event>
<event>
 7    1  0.2425980E-008  0.4614232E+02  0.7816164E-02  0.1320468E+00
        -11   -1    0    0    0    0  0.00000000000E+00  0.00000000000E+00  0.45593999997E+02  0.45594000000E+02  0.51100000000E-03 0. -1.
         11   -1    0    0    0    0 -0.00000000000E+00 -0.00000000000E+00 -0.45593999997E+02  0.45594000000E+02  0.51100000000E-03 0.  1.
    9900012    2    1    2    0    0  0.34020399925E+02  0.21204070210E+02 -0.20545396136E+02  0.46142317555E+02  0.99999981200E+01 0.  0.
         12    1    1    2    0    0 -0.34020399925E+02 -0.21204070210E+02  0.20545396136E+02  0.45045682445E+02  0.00000000000E+00 0. -1.
         11    1    3    3    0    0  0.44757258541E+01  0.20576393140E+01  0.50200466071E+00  0.49515664600E+01  0.51100000000E-03 0. -1.
        -11    1    3    3    0    0  0.23797977500E+02  0.14320982815E+02 -0.15087917157E+02  0.31608219284E+02  0.51100000000E-03 0.  1.
         12    1    3    3    0    0  0.57466965711E+01  0.48254480810E+01 -0.59594836391E+01  0.95825318110E+01  0.00000000000E+00 0. -1.
</event>
<event>
 7    1  0.2425980E-008  0.4614232E+02  0.7816164E-02  0.1320468E+00
        -11   -1    0    0    0    0  0.00000000000E+00  0.00000000000E+00  0.45593999997E+02  0.45594000000E+02  0.51100000000E-03 0.  1.
         11   -1    0    0    0    0 -0.00000000000E+00 -0.00000000000E+00 -0.45593999997E+02  0.45594000000E+02  0.51100000000E-03 0. -1.
    9900012    2    1    2    0    0 -0.37355597067E+02 -0.24725350866E+02  0.47254580708E+01  0.46142316948E+02  0.99999925830E+01 0.  0.
         12    1    1    2    0    0  0.37355597067E+02  0.24725350866E+02 -0.47254580708E+01  0.45045683052E+02  0.00000000000E+00 0. -1.
         11    1    3    3    0    0 -0.23759130636E+02 -0.10799443289E+02  0.15859141952E+01  0.26146498580E+02  0.51100000000E-03 0. -1.
        -11    1    3    3    0    0 -0.96955240152E+01 -0.99796607399E+01  0.37582510081E+01  0.14412538476E+02  0.51100000000E-03 0.  1.
         12    1    3    3    0    0 -0.39009424160E+01 -0.39462468375E+01 -0.61870713255E+00  0.55832798919E+01  0.00000000000E+00 0. -1.
</event>
<event>
 7    1  0.2425980E-008  0.4614232E+02  0.7816164E-02  0.1320468E+00
        -11   -1    0    0    0    0  0.00000000000E+00  0.00000000000E+00  0.45593999997E+02  0.45594000000E+02  0.51100000000E-03 0.  1.
         11   -1    0    0    0    0 -0.00000000000E+00 -0.00000000000E+00 -0.45593999997E+02  0.45594000000E+02  0.51100000000E-03 0. -1.
    9900012    2    1    2    0    0  0.33300736958E+02  0.14813084942E+02  0.26471618058E+02  0.46142321738E+02  0.10000036269E+02 0.  0.
         12    1    1    2    0    0 -0.33300736958E+02 -0.14813084942E+02 -0.26471618058E+02  0.45045678262E+02  0.00000000000E+00 0. -1.
         11    1    3    3    0    0  0.21500841978E+02  0.61588411580E+01  0.13835126026E+02  0.26298825878E+02  0.51100000000E-03 0. -1.
        -11    1    3    3    0    0  0.13472124479E+01 -0.31760245727E+00  0.46112931204E+00  0.14589356409E+01  0.51100000000E-03 0.  1.
        -12    1    3    3    0    0  0.10452682532E+02  0.89718462416E+01  0.12175362720E+02  0.18384560219E+02  0.00000000000E+00 0.  1.
</event>
<event>
 7    1  0.2425980E-008  0.4614232E+02  0.7816164E-02  0.1320468E+00
        -11   -1    0    0    0    0  0.00000000000E+00  0.00000000000E+00  0.45593999997E+02  0.45594000000E+02  0.51100000000E-03 0. -1.
         11   -1    0    0    0    0 -0.00000000000E+00 -0.00000000000E+00 -0.45593999997E+02  0.45594000000E+02  0.51100000000E-03 0.  1.
    9900012    2    1    2    0    0 -0.39049102318E+02  0.21279409783E+02  0.71741180048E+01  0.46142316059E+02  0.99999844771E+01 0.  0.
         12    1    1    2    0    0  0.39049102318E+02 -0.21279409783E+02 -0.71741180048E+01  0.45045683941E+02  0.00000000000E+00 0. -1.
         11    1    3    3    0    0 -0.25400088137E+02  0.16944496506E+02  0.49828934265E+01  0.30937189051E+02  0.51100000000E-03 0. -1.
        -11    1    3    3    0    0 -0.24176311963E+01  0.27560795951E+01  0.10050780594E+01  0.38014599172E+01  0.51100000000E-03 0.  1.
        -12    1    3    3    0    0 -0.11231382985E+02  0.15788336821E+01  0.11861465190E+01  0.11403667091E+02  0.00000000000E+00 0.  1.
</event>
<event>
 7    1  0.2425980E-008  0.4614232E+02  0.7816164E-02  0.1320468E+00
        -11   -1    0    0    0    0  0.00000000000E+00  0.00000000000E+00  0.45593999997E+02  0.45594000000E+02  0.51100000000E-03 0.  1.
         11   -1    0    0    0    0 -0.00000000000E+00 -0.00000000000E+00 -0.45593999997E+02  0.45594000000E+02  0.51100000000E-03 0. -1.
    9900012    2    1    2    0    0 -0.20655940539E+02  0.69155881891E+00  0.40024583702E+02  0.46142318369E+02  0.10000005540E+02 0.  0.
         12    1    1    2    0    0  0.20655940539E+02 -0.69155881891E+00 -0.40024583702E+02  0.45045681631E+02  0.00000000000E+00 0. -1.
         11    1    3    3    0    0 -0.65587806810E+01  0.56252651543E+00  0.19435580282E+02  0.20520132097E+02  0.51100000000E-03 0. -1.
        -11    1    3    3    0    0 -0.10074269558E+02  0.65615111398E+00  0.18459942659E+02  0.21040221592E+02  0.51100000000E-03 0.  1.
        -12    1    3    3    0    0 -0.40228902994E+01 -0.52711881051E+00  0.21290607604E+01  0.45819646794E+01  0.00000000000E+00 0.  1.
</event>
<event>
 7    1  0.2425980E-008  0.4614232E+02  0.7816164E-02  0.1320468E+00
        -11   -1    0    0    0    0  0.00000000000E+00  0.00000000000E+00  0.45593999997E+02  0.45594000000E+02  0.51100000000E-03 0. -1.
         11   -1    0    0    0    0 -0.00000000000E+00 -0.00000000000E+00 -0.45593999997E+02  0.45594000000E+02  0.51100000000E-03 0.  1.
    9900012    2    1    2    0    0 -0.40926838569E+02 -0.18639331595E+02 -0.25850911815E+01  0.46142317698E+02  0.99999994285E+01 0.  0.
         12    1    1    2    0    0  0.40926838569E+02  0.18639331595E+02  0.25850911815E+01  0.45045682302E+02  0.00000000000E+00 0. -1.
         11    1    3    3    0    0 -0.20208391847E+02 -0.12900537671E+02 -0.38631354567E+01  0.24284290993E+02  0.51100000000E-03 0. -1.
        -11    1    3    3    0    0 -0.89490483672E+01 -0.34103887552E+01 -0.10582827384E+01  0.96351533851E+01  0.51100000000E-03 0.  1.
         12    1    3    3    0    0 -0.11769398356E+02 -0.23284051689E+01  0.23363270136E+01  0.12222873320E+02  0.00000000000E+00 0. -1.
</event>
<event>
 7    1  0.2425980E-008  0.4614232E+02  0.7816164E-02  0.1320468E+00
        -11   -1    0    0    0    0  0.00000000000E+00  0.00000000000E+00  0.45593999997E+02  0.45594000000E+02  0.51100000000E-03 0.  1.
         11   -1    0    0    0    0 -0.00000000000E+00 -0.00000000000E+00 -0.45593999997E+02  0.45594000000E+02  0.51100000000E-03 0. -1.
    9900012    2    1    2    0    0  0.32845358526E+02 -0.78300321999E+00  0.30816920529E+02  0.46142320278E+02  0.10000022954E+02 0.  0.
         12    1    1    2    0    0 -0.32845358526E+02  0.78300321999E+00 -0.30816920529E+02  0.45045679722E+02  0.00000000000E+00 0. -1.
         11    1    3    3    0    0  0.12269877735E+02  0.14018837147E+01  0.17815819221E+02  0.21677605780E+02  0.51100000000E-03 0. -1.
        -11    1    3    3    0    0  0.12517352858E+02 -0.17856927697E+01  0.83433074739E+01  0.15148716153E+02  0.51100000000E-03 0.  1.
         12    1    3    3    0    0  0.80581279327E+01 -0.39919416499E+00  0.46577938341E+01  0.93159983449E+01  0.00000000000E+00 0. -1.
</event>
<event>
 7    1  0.2425980E-008  0.4614232E+02  0.7816164E-02  0.1320468E+00
        -11   -1    0    0    0    0  0.00000000000E+00  0.00000000000E+00  0.45593999997E+02  0.45594000000E+02  0.51100000000E-03 0.  1.
         11   -1    0    0    0    0 -0.00000000000E+00 -0.00000000000E+00 -0.45593999997E+02  0.45594000000E+02  0.51100000000E-03 0. -1.
    9900012    2    1    2    0    0  0.23954020775E+01 -0.12601331195E+02  0.43180806381E+02  0.46142317203E+02  0.99999949075E+01 0.  0.
         12    1    1    2    0    0 -0.23954020775E+01  0.12601331195E+02 -0.43180806381E+02  0.45045682797E+02  0.00000000000E+00 0. -1.
         11    1    3    3    0    0 -0.24596960379E+01 -0.15710780924E+01  0.12669261055E+02  0.13001098681E+02  0.51100000000E-03 0. -1.
        -11    1    3    3    0    0  0.98372277991E+00 -0.18234681853E+01  0.18085712202E+01  0.27502139645E+01  0.51100000000E-03 0.  1.
        -12    1    3    3    0    0  0.38713753355E+01 -0.92067849177E+01  0.28702974105E+02  0.30391004557E+02  0.00000000000E+00 0.  1.
</event>
<event>
 7    1  0.2425980E-008  0.4614232E+02  0.7816164E-02  0.1320468E+00
        -11   -1    0    0    0    0  0.00000000000E+00  0.00000000000E+00  0.45593999997E+02  0.45594000000E+02  0.51100000000E-03 0.  1.
         11   -1    0    0    0    0 -0.00000000000E+00 -0.00000000000E+00 -0.45593999997E+02  0.45594000000E+02  0.51100000000E-03 0. -1.
    9900012    2    1    2    0    0  0.25996985165E+02 -0.36753180106E+02  0.15729193349E+01  0.46142316957E+02  0.99999926720E+01 0.  0.
         12    1    1    2    0    0 -0.25996985165E+02  0.36753180106E+02 -0.15729193349E+01  0.45045683043E+02  0.00000000000E+00 0. -1.
         11    1    3    3    0    0  0.20480231288E+01 -0.74893509281E+01 -0.13166877079E+01  0.78751789086E+01  0.51100000000E-03 0. -1.
        -11    1    3    3    0    0  0.47022836402E+01 -0.92677932763E+01  0.12070652827E+01  0.10462335805E+02  0.51100000000E-03 0.  1.
         12    1    3    3    0    0  0.19246678396E+02 -0.19996035901E+02  0.16825417601E+01  0.27804802244E+02  0.00000000000E+00 0. -1.
</event>
<event>
 7    1  0.2425980E-008  0.4614232E+02  0.7816164E-02  0.1320468E+00
        -11   -1    0    0    0    0  0.00000000000E+00  0.00000000000E+00  0.45593999997E+02  0.45594000000E+02  0.51100000000E-03 0.  1.
         11   -1    0    0    0    0 -0.00000000000E+00 -0.00000000000E+00 -0.45593999997E+02  0.45594000000E+02  0.51100000000E-03 0. -1.
    9900012    2    1    2    0    0  0.85562472537E+01  0.37075095828E+02  0.24111020856E+02  0.46142318470E+02  0.10000006466E+02 0.  0.
         12    1    1    2    0    0 -0.85562472537E+01 -0.37075095828E+02 -0.24111020856E+02  0.45045681530E+02  0.00000000000E+00 0. -1.
         11    1    3    3    0    0  0.52213434699E+01  0.23533283064E+02  0.15656956687E+02  0.28744010374E+02  0.51100000000E-03 0. -1.
        -11    1    3    3    0    0  0.23635143055E+01  0.11581777357E+02  0.40748588131E+01  0.12503129257E+02  0.51100000000E-03 0.  1.
         12    1    3    3    0    0  0.97138947838E+00  0.19600354077E+01  0.43792053561E+01  0.48951788393E+01  0.00000000000E+00 0. -1.
</event>
<event>
 7    1  0.2425980E-008  0.4614232E+02  0.7816164E-02  0.1320468E+00
        -11   -1    0    0    0    0  0.00000000000E+00  0.00000000000E+00  0.45593999997E+02  0.45594000000E+02  0.51100000000E-03 0. -1.
         11   -1    0    0    0    0 -0.00000000000E+00 -0.00000000000E+00 -0.45593999997E+02  0.45594000000E+02  0.51100000000E-03 0.  1.
    9900012    2    1    2    0    0  0.15450406342E+02 -0.35525291465E+02 -0.22985911643E+02  0.46142317367E+02  0.99999964057E+01 0.  0.
         12    1    1    2    0    0 -0.15450406342E+02  0.35525291465E+02  0.22985911643E+02  0.45045682633E+02  0.00000000000E+00 0. -1.
         11    1    3    3    0    0  0.46453829403E+01 -0.12923731126E+02 -0.10584135642E+02  0.17338579423E+02  0.51100000000E-03 0.  1.
        -11    1    3    3    0    0  0.48101800190E+01 -0.11246105570E+02 -0.98668082125E+01  0.15715171869E+02  0.51100000000E-03 0. -1.
         12    1    3    3    0    0  0.59948433824E+01 -0.11355454770E+02 -0.25349677889E+01  0.13088566075E+02  0.00000000000E+00 0. -1.
</event>
<event>
 7    1  0.2425980E-008  0.4614232E+02  0.7816164E-02  0.1320468E+00
        -11   -1    0    0    0    0  0.00000000000E+00  0.00000000000E+00  0.45593999997E+02  0.45594000000E+02  0.51100000000E-03 0.  1.
         11   -1    0    0    0    0 -0.00000000000E+00 -0.00000000000E+00 -0.45593999997E+02  0.45594000000E+02  0.51100000000E-03 0. -1.
    9900012    2    1    2    0    0 -0.22842839958E+02  0.33503641500E+02  0.19616936249E+02  0.46142317422E+02  0.99999969075E+01 0.  0.
         12    1    1    2    0    0  0.22842839958E+02 -0.33503641500E+02 -0.19616936249E+02  0.45045682578E+02  0.00000000000E+00 0. -1.
         11    1    3    3    0    0 -0.25157940841E+01  0.40813879226E+01  0.43752107959E+01  0.64907177583E+01  0.51100000000E-03 0. -1.
        -11    1    3    3    0    0 -0.75829041045E+00  0.50093579717E+01  0.58211806750E+00  0.50997581649E+01  0.51100000000E-03 0.  1.
        -12    1    3    3    0    0 -0.19568755464E+02  0.24412895606E+02  0.14659607386E+02  0.34551841499E+02  0.00000000000E+00 0.  1.
</event>
<event>
 7    1  0.2425980E-008  0.4614232E+02  0.7816164E-02  0.1320468E+00
        -11   -1    0    0    0    0  0.00000000000E+00  0.00000000000E+00  0.45593999997E+02  0.45594000000E+02  0.51100000000E-03 0.  1.
         11   -1    0    0    0    0 -0.00000000000E+00 -0.00000000000E+00 -0.45593999997E+02  0.45594000000E+02  0.51100000000E-03 0. -1.
    9900012    2    1    2    0    0  0.31779758086E+02  0.31924248203E+02 -0.52922177792E-01  0.46142318208E+02  0.10000004076E+02 0.  0.
         12    1    1    2    0    0 -0.31779758086E+02 -0.31924248203E+02  0.52922177792E-01  0.45045681792E+02  0.00000000000E+00 0. -1.
         11    1    3    3    0    0  0.75996473891E+01  0.81613877151E+01  0.11053381136E+01  0.11206456286E+02  0.51100000000E-03 0. -1.
        -11    1    3    3    0    0  0.22264590168E+02  0.17416270909E+02 -0.47354283840E+00  0.28271234689E+02  0.51100000000E-03 0.  1.
         12    1    3    3    0    0  0.19155205290E+01  0.63465895787E+01 -0.68471745303E+00  0.66646272339E+01  0.00000000000E+00 0. -1.
</event>
<event>
 7    1  0.2425980E-008  0.4614232E+02  0.7816164E-02  0.1320468E+00
        -11   -1    0    0    0    0  0.00000000000E+00  0.00000000000E+00  0.45593999997E+02  0.45594000000E+02  0.51100000000E-03 0. -1.
         11   -1    0    0    0    0 -0.00000000000E+00 -0.00000000000E+00 -0.45593999997E+02  0.45594000000E+02  0.51100000000E-03 0.  1.
    9900012    2    1    2    0    0 -0.17567148904E+02  0.20171852595E+02 -0.36243691116E+02  0.46142317594E+02  0.99999984736E+01 0.  0.
         12    1    1    2    0    0  0.17567148904E+02 -0.20171852595E+02  0.36243691116E+02  0.45045682406E+02  0.00000000000E+00 0. -1.
         11    1    3    3    0    0 -0.14326996796E+02  0.93852598561E+01 -0.21248307958E+02  0.27291693445E+02  0.51100000000E-03 0. -1.
        -11    1    3    3    0    0 -0.16902397494E+01  0.78378265013E+01 -0.11528834504E+02  0.14042879333E+02  0.51100000000E-03 0.  1.
         12    1    3    3    0    0 -0.15499123583E+01  0.29487662372E+01 -0.34665486546E+01  0.48077448159E+01  0.00000000000E+00 0. -1.
</event>
<event>
 7    1  0.2425980E-008  0.4614232E+02  0.7816164E-02  0.1320468E+00
        -11   -1    0    0    0    0  0.00000000000E+00  0.00000000000E+00  0.45593999997E+02  0.45594000000E+02  0.51100000000E-03 0.  1.
         11   -1    0    0    0    0 -0.00000000000E+00 -0.00000000000E+00 -0.45593999997E+02  0.45594000000E+02  0.51100000000E-03 0. -1.
    9900012    2    1    2    0    0  0.94829773073E+01 -0.23066385328E+02  0.37511711529E+02  0.46142317715E+02  0.99999995766E+01 0.  0.
         12    1    1    2    0    0 -0.94829773073E+01  0.23066385328E+02 -0.37511711529E+02  0.45045682285E+02  0.00000000000E+00 0. -1.
         11    1    3    3    0    0  0.12102602359E+01 -0.90405483339E+01  0.13330590449E+02  0.16152426628E+02  0.51100000000E-03 0. -1.
        -11    1    3    3    0    0  0.22722525235E+01 -0.16748329410E+01  0.94004628924E+01  0.98151362580E+01  0.51100000000E-03 0.  1.
         12    1    3    3    0    0  0.60004645480E+01 -0.12351004053E+02  0.14780658188E+02  0.20174754828E+02  0.00000000000E+00 0. -1.
</event>
<event>
 7    1  0.2425980E-008  0.4614232E+02  0.7816164E-02  0.1320468E+00
        -11   -1    0    0    0    0  0.00000000000E+00  0.00000000000E+00  0.45593999997E+02  0.45594000000E+02  0.51100000000E-03 0. -1.
         11   -1    0    0    0    0 -0.00000000000E+00 -0.00000000000E+00 -0.45593999997E+02  0.45594000000E+02  0.51100000000E-03 0.  1.
    9900012    2    1    2    0    0  0.35511585357E+02  0.61499967161E+01 -0.27022552064E+02  0.46142317918E+02  0.10000001427E+02 0.  0.
         12    1    1    2    0    0 -0.35511585357E+02 -0.61499967161E+01  0.27022552064E+02  0.45045682082E+02  0.00000000000E+00 0. -1.
         11    1    3    3    0    0  0.83333770432E+01  0.19145950525E+00 -0.95134996851E+01  0.12648656300E+02  0.51100000000E-03 0. -1.
        -11    1    3    3    0    0  0.43101721764E+01 -0.56502976269E+00 -0.49948056455E+01  0.66215501599E+01  0.51100000000E-03 0.  1.
        -12    1    3    3    0    0  0.22868036138E+02  0.65235669735E+01 -0.12514246734E+02  0.26872111457E+02  0.00000000000E+00 0.  1.
</event>
<event>
 7    1  0.2425980E-008  0.4614232E+02  0.7816164E-02  0.1320468E+00
        -11   -1    0    0    0    0  0.00000000000E+00  0.00000000000E+00  0.45593999997E+02  0.45594000000E+02  0.51100000000E-03 0.  1.
         11   -1    0    0    0    0 -0.00000000000E+00 -0.00000000000E+00 -0.45593999997E+02  0.45594000000E+02  0.51100000000E-03 0. -1.
    9900012    2    1    2    0    0  0.25350903387E+02  0.33680386863E+02  0.15876923969E+02  0.46142317893E+02  0.10000001203E+02 0.  0.
         12    1    1    2    0    0 -0.25350903387E+02 -0.33680386863E+02 -0.15876923969E+02  0.45045682107E+02  0.00000000000E+00 0. -1.
         11    1    3    3    0    0  0.92988555187E+00 -0.51163203028E-01  0.18644282003E+01  0.20840819533E+01  0.51100000000E-03 0. -1.
        -11    1    3    3    0    0  0.41626306099E+01  0.38701865286E+01  0.17576205827E+01  0.59493754071E+01  0.51100000000E-03 0.  1.
        -12    1    3    3    0    0  0.20258387225E+02  0.29861363537E+02  0.12254875186E+02  0.38108860533E+02  0.00000000000E+00 0.  1.
</event>
<event>
 7    1  0.2425980E-008  0.4614232E+02  0.7816164E-02  0.1320468E+00
        -11   -1    0    0    0    0  0.00000000000E+00  0.00000000000E+00  0.45593999997E+02  0.45594000000E+02  0.51100000000E-03 0.  1.
         11   -1    0    0    0    0 -0.00000000000E+00 -0.00000000000E+00 -0.45593999997E+02  0.45594000000E+02  0.51100000000E-03 0. -1.
    9900012    2    1    2    0    0  0.28084864753E+02 -0.28386912920E+02  0.20845552276E+02  0.46142317599E+02  0.99999985214E+01 0.  0.
         12    1    1    2    0    0 -0.28084864753E+02  0.28386912920E+02 -0.20845552276E+02  0.45045682401E+02  0.00000000000E+00 0. -1.
         11    1    3    3    0    0  0.63028612153E+01 -0.64286078270E+01  0.58179185815E+01  0.10719199363E+02  0.51100000000E-03 0.  1.
        -11    1    3    3    0    0  0.18563772425E+02 -0.15231640169E+02  0.83792473126E+01  0.25432819244E+02  0.51100000000E-03 0. -1.
         12    1    3    3    0    0  0.32182311127E+01 -0.67266649235E+01  0.66483863816E+01  0.99902989929E+01  0.00000000000E+00 0. -1.
</event>
<event>
 7    1  0.2425980E-008  0.4614232E+02  0.7816164E-02  0.1320468E+00
        -11   -1    0    0    0    0  0.00000000000E+00  0.00000000000E+00  0.45593999997E+02  0.45594000000E+02  0.51100000000E-03 0.  1.
         11   -1    0    0    0    0 -0.00000000000E+00 -0.00000000000E+00 -0.45593999997E+02  0.45594000000E+02  0.51100000000E-03 0. -1.
    9900012    2    1    2    0    0 -0.18113897780E+02 -0.20271629282E+01  0.41193334062E+02  0.46142318149E+02  0.10000003535E+02 0.  0.
         12    1    1    2    0    0  0.18113897780E+02  0.20271629282E+01 -0.41193334062E+02  0.45045681851E+02  0.00000000000E+00 0. -1.
         11    1    3    3    0    0 -0.21903298552E+01 -0.23478156674E+01  0.94579011662E+01  0.99880767925E+01  0.51100000000E-03 0. -1.
        -11    1    3    3    0    0 -0.70862392720E+01 -0.32209029422E+01  0.15046502047E+02  0.16940667841E+02  0.51100000000E-03 0.  1.
        -12    1    3    3    0    0 -0.88373286531E+01  0.35415556815E+01  0.16688930848E+02  0.19213573515E+02  0.00000000000E+00 0.  1.
</event>
<event>
 7    1  0.2425980E-008  0.4614232E+02  0.7816164E-02  0.1320468E+00
        -11   -1    0    0    0    0  0.00000000000E+00  0.00000000000E+00  0.45593999997E+02  0.45594000000E+02  0.51100000000E-03 0.  1.
         11   -1    0    0    0    0 -0.00000000000E+00 -0.00000000000E+00 -0.45593999997E+02  0.45594000000E+02  0.51100000000E-03 0. -1.
    9900012    2    1    2    0    0  0.31987009908E+02 -0.29844044999E+02  0.10736744772E+02  0.46142317487E+02  0.99999975007E+01 0.  0.
         12    1    1    2    0    0 -0.31987009908E+02  0.29844044999E+02 -0.10736744772E+02  0.45045682513E+02  0.00000000000E+00 0. -1.
         11    1    3    3    0    0  0.91903764610E+01 -0.11310501232E+02  0.46422221216E+01  0.15295119617E+02  0.51100000000E-03 0. -1.
        -11    1    3    3    0    0  0.72772569242E+01 -0.23855389050E+01  0.86693524272E-01  0.76587714574E+01  0.51100000000E-03 0.  1.
        -12    1    3    3    0    0  0.15519376523E+02 -0.16148004863E+02  0.60078291261E+01  0.23188426413E+02  0.00000000000E+00 0.  1.
</event>
<event>
 7    1  0.2607279E-008  0.4614232E+02  0.7816164E-02  0.1320468E+00
        -11   -1    0    0    0    0  0.00000000000E+00  0.00000000000E+00  0.45593999997E+02  0.45594000000E+02  0.51100000000E-03 0. -1.
         11   -1    0    0    0    0 -0.00000000000E+00 -0.00000000000E+00 -0.45593999997E+02  0.45594000000E+02  0.51100000000E-03 0.  1.
    9900012    2    1    2    0    0 -0.22735009953E+02 -0.20255860787E+02 -0.33195374721E+02  0.46142317891E+02  0.10000001182E+02 0.  0.
         12    1    1    2    0    0  0.22735009953E+02  0.20255860787E+02  0.33195374721E+02  0.45045682109E+02  0.00000000000E+00 0. -1.
         11    1    3    3    0    0 -0.27905428423E+01 -0.19191616590E+01 -0.90980358898E+00  0.35068580895E+01  0.51100000000E-03 0. -1.
        -11    1    3    3    0    0 -0.28977729982E+01 -0.33741181364E+01 -0.22121073274E+01  0.49674118650E+01  0.51100000000E-03 0.  1.
        -12    1    3    3    0    0 -0.17046694112E+02 -0.14962580992E+02 -0.30073463805E+02  0.37668047936E+02  0.00000000000E+00 0.  1.
</event>
<event>
 7    1  0.2425980E-008  0.4614232E+02  0.7816164E-02  0.1320468E+00
        -11   -1    0    0    0    0  0.00000000000E+00  0.00000000000E+00  0.45593999997E+02  0.45594000000E+02  0.51100000000E-03 0. -1.
         11   -1    0    0    0    0 -0.00000000000E+00 -0.00000000000E+00 -0.45593999997E+02  0.45594000000E+02  0.51100000000E-03 0.  1.
    9900012    2    1    2    0    0 -0.30153173572E+02 -0.33445895150E+02  0.11277104335E+01  0.46142317525E+02  0.99999978449E+01 0.  0.
         12    1    1    2    0    0  0.30153173572E+02  0.33445895150E+02 -0.11277104335E+01  0.45045682475E+02  0.00000000000E+00 0. -1.
         11    1    3    3    0    0 -0.79448531792E+01 -0.97372300168E+01 -0.33523577083E+01  0.13006638417E+02  0.51100000000E-03 0.  1.
        -11    1    3    3    0    0 -0.73792989868E+00 -0.26066346937E+01  0.69837225250E-01  0.27099746237E+01  0.51100000000E-03 0. -1.
         12    1    3    3    0    0 -0.21470390494E+02 -0.21102030440E+02  0.44102309165E+01  0.30425704484E+02  0.00000000000E+00 0. -1.
</event>
<event>
 7    1  0.2425980E-008  0.4614232E+02  0.7816164E-02  0.1320468E+00
        -11   -1    0    0    0    0  0.00000000000E+00  0.00000000000E+00  0.45593999997E+02  0.45594000000E+02  0.51100000000E-03 0. -1.
         11   -1    0    0    0    0 -0.00000000000E+00 -0.00000000000E+00 -0.45593999997E+02  0.45594000000E+02  0.51100000000E-03 0.  1.
    9900012    2    1    2    0    0  0.39414533589E+02 -0.21807728999E+02  0.17615697658E+00  0.46142317261E+02  0.99999954365E+01 0.  0.
         12    1    1    2    0    0 -0.39414533589E+02  0.21807728999E+02 -0.17615697658E+00  0.45045682739E+02  0.00000000000E+00 0. -1.
         11    1    3    3    0    0  0.19049022867E+02 -0.14634912385E+02  0.97639019522E+00  0.24041615394E+02  0.51100000000E-03 0.  1.
        -11    1    3    3    0    0  0.42956537144E+01 -0.44416730170E+00 -0.17347957694E+01  0.46539705681E+01  0.51100000000E-03 0. -1.
        -12    1    3    3    0    0  0.16069857008E+02 -0.67286493131E+01  0.93456255072E+00  0.17446731298E+02  0.00000000000E+00 0.  1.
</event>
<event>
 7    1  0.2425980E-008  0.4614232E+02  0.7816164E-02  0.1320468E+00
        -11   -1    0    0    0    0  0.00000000000E+00  0.00000000000E+00  0.45593999997E+02  0.45594000000E+02  0.51100000000E-03 0.  1.
         11   -1    0    0    0    0 -0.00000000000E+00 -0.00000000000E+00 -0.45593999997E+02  0.45594000000E+02  0.51100000000E-03 0. -1.
    9900012    2    1    2    0    0 -0.38215164320E+02  0.16851833221E+01  0.23788126923E+02  0.46142316418E+02  0.99999877544E+01 0.  0.
         12    1    1    2    0    0  0.38215164320E+02 -0.16851833221E+01 -0.23788126923E+02  0.45045683582E+02  0.00000000000E+00 0. -1.
         11    1    3    3    0    0 -0.32141862418E+01 -0.18917191041E+01  0.29415474507E+01  0.47499785296E+01  0.51100000000E-03 0. -1.
        -11    1    3    3    0    0 -0.67897648434E+01 -0.66583961469E-01  0.13946143314E+01  0.69318316084E+01  0.51100000000E-03 0.  1.
        -12    1    3    3    0    0 -0.28211213235E+02  0.36434863877E+01  0.19451965141E+02  0.34460506280E+02  0.00000000000E+00 0.  1.
</event>
<event>
 7    1  0.2425980E-008  0.4614232E+02  0.7816164E-02  0.1320468E+00
        -11   -1    0    0    0    0  0.00000000000E+00  0.00000000000E+00  0.45593999997E+02  0.45594000000E+02  0.51100000000E-03 0.  1.
         11   -1    0    0    0    0 -0.00000000000E+00 -0.00000000000E+00 -0.45593999997E+02  0.45594000000E+02  0.51100000000E-03 0. -1.
    9900012    2    1    2    0    0  0.38397418288E+02 -0.23352495128E+02 -0.30680134874E+01  0.46142318002E+02  0.10000002200E+02 0.  0.
         12    1    1    2    0    0 -0.38397418288E+02  0.23352495128E+02  0.30680134874E+01  0.45045681998E+02  0.00000000000E+00 0. -1.
         11    1    3    3    0    0  0.71029221937E+01 -0.67486085869E+01 -0.74198040259E+00  0.98257700323E+01  0.51100000000E-03 0. -1.
        -11    1    3    3    0    0  0.19569514696E+02 -0.10950658178E+02  0.22063941639E+01  0.22533330767E+02  0.51100000000E-03 0.  1.
         12    1    3    3    0    0  0.11724981398E+02 -0.56532283631E+01 -0.45324272487E+01  0.13783217203E+02  0.00000000000E+00 0. -1.
</event>
<event>
 7    1  0.2425980E-008  0.4614232E+02  0.7816164E-02  0.1320468E+00
        -11   -1    0    0    0    0  0.00000000000E+00  0.00000000000E+00  0.45593999997E+02  0.45594000000E+02  0.51100000000E-03 0. -1.
         11   -1    0    0    0    0 -0.00000000000E+00 -0.00000000000E+00 -0.45593999997E+02  0.45594000000E+02  0.51100000000E-03 0.  1.
    9900012    2    1    2    0    0 -0.40338530094E+02  0.78262450774E+00 -0.20032572527E+02  0.46142317929E+02  0.10000001526E+02 0.  0.
         12    1    1    2    0    0  0.40338530094E+02 -0.78262450774E+00  0.20032572527E+02  0.45045682071E+02  0.00000000000E+00 0. -1.
         11    1    3    3    0    0 -0.63283238137E+01  0.22454893318E+01 -0.44139149934E+01  0.80357047271E+01  0.51100000000E-03 0. -1.
        -11    1    3    3    0    0 -0.26253777753E+02  0.16919246844E+00 -0.14799152590E+02  0.30138088692E+02  0.51100000000E-03 0.  1.
        -12    1    3    3    0    0 -0.77564285271E+01 -0.16320572925E+01 -0.81950494415E+00  0.79685245093E+01  0.00000000000E+00 0.  1.
</event>
<event>
 7    1  0.2425980E-008  0.4614232E+02  0.7816164E-02  0.1320468E+00
        -11   -1    0    0    0    0  0.00000000000E+00  0.00000000000E+00  0.45593999997E+02  0.45594000000E+02  0.51100000000E-03 0. -1.
         11   -1    0    0    0    0 -0.00000000000E+00 -0.00000000000E+00 -0.45593999997E+02  0.45594000000E+02  0.51100000000E-03 0.  1.
    9900012    2    1    2    0    0 -0.26272760012E+02  0.35309288433E+02 -0.95973730495E+01  0.46142319433E+02  0.10000015246E+02 0.  0.
         12    1    1    2    0    0  0.26272760012E+02 -0.35309288433E+02  0.95973730495E+01  0.45045680567E+02  0.00000000000E+00 0. -1.
         11    1    3    3    0    0 -0.13200626891E+02  0.17567737485E+02 -0.46348269995E+01  0.22458040258E+02  0.51100000000E-03 0. -1.
        -11    1    3    3    0    0 -0.12094382152E+02  0.12992696734E+02 -0.59787798138E+01  0.18730457987E+02  0.51100000000E-03 0.  1.
         12    1    3    3    0    0 -0.97775096888E+00  0.47488542142E+01  0.10162337638E+01  0.49538211884E+01  0.00000000000E+00 0. -1.
</event>
<event>
 7    1  0.2425980E-008  0.4614232E+02  0.7816164E-02  0.1320468E+00
        -11   -1    0    0    0    0  0.00000000000E+00  0.00000000000E+00  0.45593999997E+02  0.45594000000E+02  0.51100000000E-03 0.  1.
         11   -1    0    0    0    0 -0.00000000000E+00 -0.00000000000E+00 -0.45593999997E+02  0.45594000000E+02  0.51100000000E-03 0. -1.
    9900012    2    1    2    0    0 -0.74118716255E+01  0.36667633945E+02  0.25093072772E+02  0.46142317396E+02  0.99999966711E+01 0.  0.
         12    1    1    2    0    0  0.74118716255E+01 -0.36667633945E+02 -0.25093072772E+02  0.45045682604E+02  0.00000000000E+00 0. -1.
         11    1    3    3    0    0 -0.82220153363E+00  0.20965087218E+01 -0.19173262159E+00  0.22601163337E+01  0.51100000000E-03 0. -1.
        -11    1    3    3    0    0 -0.77580304459E+01  0.23833160453E+02  0.17669095571E+02  0.30665999285E+02  0.51100000000E-03 0.  1.
         12    1    3    3    0    0  0.11683603541E+01  0.10737964771E+02  0.76157098222E+01  0.13216201778E+02  0.00000000000E+00 0. -1.
</event>
<event>
 7    1  0.2425980E-008  0.4614231E+02  0.7816164E-02  0.1320468E+00
        -11   -1    0    0    0    0  0.00000000000E+00  0.00000000000E+00  0.45593999997E+02  0.45594000000E+02  0.51100000000E-03 0.  1.
         11   -1    0    0    0    0 -0.00000000000E+00 -0.00000000000E+00 -0.45593999997E+02  0.45594000000E+02  0.51100000000E-03 0. -1.
    9900012    2    1    2    0    0  0.36542216706E+01  0.34849155967E+02  0.28307188054E+02  0.46142313157E+02  0.99999580189E+01 0.  0.
         12    1    1    2    0    0 -0.36542216706E+01 -0.34849155967E+02 -0.28307188054E+02  0.45045686843E+02  0.00000000000E+00 0. -1.
         11    1    3    3    0    0 -0.90885097060E+00  0.14634243541E+02  0.84967071077E+01  0.16946419269E+02  0.51100000000E-03 0. -1.
        -11    1    3    3    0    0 -0.11780178150E+01  0.58758671928E+01  0.51857148495E+01  0.79249719244E+01  0.51100000000E-03 0.  1.
        -12    1    3    3    0    0  0.57410904562E+01  0.14339045233E+02  0.14624766097E+02  0.21270921964E+02  0.00000000000E+00 0.  1.
</event>
<event>
 7    1  0.2425980E-008  0.4614232E+02  0.7816164E-02  0.1320468E+00
        -11   -1    0    0    0    0  0.00000000000E+00  0.00000000000E+00  0.45593999997E+02  0.45594000000E+02  0.51100000000E-03 0. -1.
         11   -1    0    0    0    0 -0.00000000000E+00 -0.00000000000E+00 -0.45593999997E+02  0.45594000000E+02  0.51100000000E-03 0.  1.
    9900012    2    1    2    0    0 -0.21005045961E+02  0.39466629185E+02 -0.55033312989E+01  0.46142318404E+02  0.10000005864E+02 0.  0.
         12    1    1    2    0    0  0.21005045961E+02 -0.39466629185E+02  0.55033312989E+01  0.45045681596E+02  0.00000000000E+00 0. -1.
         11    1    3    3    0    0 -0.25510128339E+01  0.12151331257E+02 -0.12169018674E+01  0.12475711130E+02  0.51100000000E-03 0. -1.
        -11    1    3    3    0    0 -0.44395059724E+01  0.10837503169E+02 -0.63270505499E+00  0.11728640337E+02  0.51100000000E-03 0.  1.
         12    1    3    3    0    0 -0.14014527154E+02  0.16477794760E+02 -0.36537243765E+01  0.21937966937E+02  0.00000000000E+00 0. -1.
</event>
<event>
 7    1  0.2425980E-008  0.4614232E+02  0.7816164E-02  0.1320468E+00
        -11   -1    0    0    0    0  0.00000000000E+00  0.00000000000E+00  0.45593999997E+02  0.45594000000E+02  0.51100000000E-03 0.  1.
         11   -1    0    0    0    0 -0.00000000000E+00 -0.00000000000E+00 -0.45593999997E+02  0.45594000000E+02  0.51100000000E-03 0. -1.
    9900012    2    1    2    0    0 -0.18108946653E+02  0.12540101237E+02  0.39292815505E+02  0.46142318317E+02  0.10000005070E+02 0.  0.
         12    1    1    2    0    0  0.18108946653E+02 -0.12540101237E+02 -0.39292815505E+02  0.45045681683E+02  0.00000000000E+00 0. -1.
         11    1    3    3    0    0 -0.19659490189E+01 -0.16585157308E+00  0.13395807556E+01  0.23847304147E+01  0.51100000000E-03 0. -1.
        -11    1    3    3    0    0 -0.25894993749E+01 -0.24188069853E+00  0.81032401878E+01  0.85103769063E+01  0.51100000000E-03 0.  1.
        -12    1    3    3    0    0 -0.13553498260E+02  0.12947833509E+02  0.29849994562E+02  0.35247210996E+02  0.00000000000E+00 0.  1.
</event>
<event>
 7    1  0.2425980E-008  0.4614232E+02  0.7816164E-02  0.1320468E+00
        -11   -1    0    0    0    0  0.00000000000E+00  0.00000000000E+00  0.45593999997E+02  0.45594000000E+02  0.51100000000E-03 0.  1.
         11   -1    0    0    0    0 -0.00000000000E+00 -0.00000000000E+00 -0.45593999997E+02  0.45594000000E+02  0.51100000000E-03 0. -1.
    9900012    2    1    2    0    0  0.38953349853E+02 -0.13628061388E+02  0.18056191218E+02  0.46142316929E+02  0.99999924164E+01 0.  0.
         12    1    1    2    0    0 -0.38953349853E+02  0.13628061388E+02 -0.18056191218E+02  0.45045683071E+02  0.00000000000E+00 0. -1.
         11    1    3    3    0    0  0.59278053215E+01 -0.15529680942E+01  0.58057490935E+01  0.84414044228E+01  0.51100000000E-03 0. -1.
        -11    1    3    3    0    0  0.21189685532E+02 -0.79693701875E+01  0.10820656387E+02  0.25091836104E+02  0.51100000000E-03 0.  1.
        -12    1    3    3    0    0  0.11835859000E+02 -0.41057231059E+01  0.14297857374E+01  0.12609076403E+02  0.00000000000E+00 0.  1.
</event>
<event>
 7    1  0.2425980E-008  0.4614232E+02  0.7816164E-02  0.1320468E+00
        -11   -1    0    0    0    0  0.00000000000E+00  0.00000000000E+00  0.45593999997E+02  0.45594000000E+02  0.51100000000E-03 0.  1.
         11   -1    0    0    0    0 -0.00000000000E+00 -0.00000000000E+00 -0.45593999997E+02  0.45594000000E+02  0.51100000000E-03 0. -1.
    9900012    2    1    2    0    0 -0.72372703086E+01 -0.35493978738E+01  0.44318584938E+02  0.46142320100E+02  0.10000021327E+02 0.  0.
         12    1    1    2    0    0  0.72372703086E+01  0.35493978738E+01 -0.44318584938E+02  0.45045679900E+02  0.00000000000E+00 0. -1.
         11    1    3    3    0    0 -0.65195351588E+01 -0.37654201574E+01  0.15414668104E+02  0.17155020276E+02  0.51100000000E-03 0. -1.
        -11    1    3    3    0    0 -0.94982526731E+00 -0.48399672850E+00  0.80415239506E+01  0.81118757745E+01  0.51100000000E-03 0.  1.
         12    1    3    3    0    0  0.23209011743E+00  0.70001901211E+00  0.20862392883E+02  0.20875424049E+02  0.00000000000E+00 0. -1.
</event>
<event>
 7    1  0.2425980E-008  0.4614232E+02  0.7816164E-02  0.1320468E+00
        -11   -1    0    0    0    0  0.00000000000E+00  0.00000000000E+00  0.45593999997E+02  0.45594000000E+02  0.51100000000E-03 0.  1.
         11   -1    0    0    0    0 -0.00000000000E+00 -0.00000000000E+00 -0.45593999997E+02  0.45594000000E+02  0.51100000000E-03 0. -1.
    9900012    2    1    2    0    0  0.11765537095E+02  0.42805562634E+02  0.76399845944E+01  0.46142318518E+02  0.10000006902E+02 0.  0.
         12    1    1    2    0    0 -0.11765537095E+02 -0.42805562634E+02 -0.76399845944E+01  0.45045681482E+02  0.00000000000E+00 0. -1.
         11    1    3    3    0    0  0.29577324551E+01  0.10621796137E+02  0.65044156622E+00  0.11045080758E+02  0.51100000000E-03 0. -1.
        -11    1    3    3    0    0  0.24960893953E+01  0.64583413247E+01  0.49876395969E+01  0.85332985384E+01  0.51100000000E-03 0.  1.
        -12    1    3    3    0    0  0.63117152446E+01  0.25725425172E+02  0.20019034313E+01  0.26563939222E+02  0.00000000000E+00 0.  1.
</event>
<event>
 7    1  0.2425980E-008  0.4614232E+02  0.7816164E-02  0.1320468E+00
        -11   -1    0    0    0    0  0.00000000000E+00  0.00000000000E+00  0.45593999997E+02  0.45594000000E+02  0.51100000000E-03 0. -1.
         11   -1    0    0    0    0 -0.00000000000E+00 -0.00000000000E+00 -0.45593999997E+02  0.45594000000E+02  0.51100000000E-03 0.  1.
    9900012    2    1    2    0    0  0.42810355870E+02 -0.13826224945E+02  0.22853014116E+01  0.46142315761E+02  0.99999817656E+01 0.  0.
         12    1    1    2    0    0 -0.42810355870E+02  0.13826224945E+02 -0.22853014116E+01  0.45045684239E+02  0.00000000000E+00 0. -1.
         11    1    3    3    0    0  0.16691259051E+02 -0.37369069277E+01  0.26437301788E+01  0.17307568044E+02  0.51100000000E-03 0. -1.
        -11    1    3    3    0    0  0.18390241934E+02 -0.39485583373E+01  0.11701239932E+01  0.18845723699E+02  0.51100000000E-03 0.  1.
        -12    1    3    3    0    0  0.77288548859E+01 -0.61407596798E+01 -0.15285527604E+01  0.99890240180E+01  0.00000000000E+00 0.  1.
</event>
<event>
 7    1  0.2425980E-008  0.4614232E+02  0.7816164E-02  0.1320468E+00
        -11   -1    0    0    0    0  0.00000000000E+00  0.00000000000E+00  0.45593999997E+02  0.45594000000E+02  0.51100000000E-03 0.  1.
         11   -1    0    0    0    0 -0.00000000000E+00 -0.00000000000E+00 -0.45593999997E+02  0.45594000000E+02  0.51100000000E-03 0. -1.
    9900012    2    1    2    0    0 -0.18173827646E+01  0.14738183624E+02  0.42527599105E+02  0.46142316275E+02  0.99999864466E+01 0.  0.
         12    1    1    2    0    0  0.18173827646E+01 -0.14738183624E+02 -0.42527599105E+02  0.45045683725E+02  0.00000000000E+00 0. -1.
         11    1    3    3    0    0 -0.54017439263E+00 -0.70955480998E+00  0.14843684081E+01  0.17316484155E+01  0.51100000000E-03 0. -1.
        -11    1    3    3    0    0 -0.37842537234E+01  0.60050865515E+01  0.19633707487E+02  0.20877358805E+02  0.51100000000E-03 0.  1.
        -12    1    3    3    0    0  0.25070453514E+01  0.94426518825E+01  0.21409523210E+02  0.23533309054E+02  0.00000000000E+00 0.  1.
</event>
<event>
 7    1  0.2425980E-008  0.4614232E+02  0.7816164E-02  0.1320468E+00
        -11   -1    0    0    0    0  0.00000000000E+00  0.00000000000E+00  0.45593999997E+02  0.45594000000E+02  0.51100000000E-03 0. -1.
         11   -1    0    0    0    0 -0.00000000000E+00 -0.00000000000E+00 -0.45593999997E+02  0.45594000000E+02  0.51100000000E-03 0.  1.
    9900012    2    1    2    0    0  0.83722363547E+00  0.33754698776E+02 -0.29816655719E+02  0.46142316620E+02  0.99999895989E+01 0.  0.
         12    1    1    2    0    0 -0.83722363547E+00 -0.33754698776E+02  0.29816655719E+02  0.45045683380E+02  0.00000000000E+00 0. -1.
         11    1    3    3    0    0  0.22901539868E+01  0.23838672159E+02 -0.19729116291E+02  0.31028456705E+02  0.51100000000E-03 0. -1.
        -11    1    3    3    0    0 -0.20786477987E+01  0.79733416296E+01 -0.10148012192E+02  0.13071996983E+02  0.51100000000E-03 0.  1.
         12    1    3    3    0    0  0.62571744742E+00  0.19426849867E+01  0.60472763403E-01  0.20418629329E+01  0.00000000000E+00 0. -1.
</event>
<event>
 7    1  0.2425980E-008  0.4614232E+02  0.7816164E-02  0.1320468E+00
        -11   -1    0    0    0    0  0.00000000000E+00  0.00000000000E+00  0.45593999997E+02  0.45594000000E+02  0.51100000000E-03 0.  1.
         11   -1    0    0    0    0 -0.00000000000E+00 -0.00000000000E+00 -0.45593999997E+02  0.45594000000E+02  0.51100000000E-03 0. -1.
    9900012    2    1    2    0    0  0.43484901437E+02  0.59337887244E+01  0.10147264663E+02  0.46142317834E+02  0.10000000668E+02 0.  0.
         12    1    1    2    0    0 -0.43484901437E+02 -0.59337887244E+01 -0.10147264663E+02  0.45045682166E+02  0.00000000000E+00 0. -1.
         11    1    3    3    0    0  0.17452921965E+02 -0.20304740333E+00  0.39970967329E+00  0.17458679258E+02  0.51100000000E-03 0. -1.
        -11    1    3    3    0    0  0.21030414063E+02  0.36259808753E+01  0.70845601184E+01  0.22485929941E+02  0.51100000000E-03 0.  1.
         12    1    3    3    0    0  0.50015654096E+01  0.25108552524E+01  0.26629948716E+01  0.61977086356E+01  0.00000000000E+00 0. -1.
</event>
<event>
 7    1  0.2425980E-008  0.4614232E+02  0.7816164E-02  0.1320468E+00
        -11   -1    0    0    0    0  0.00000000000E+00  0.00000000000E+00  0.45593999997E+02  0.45594000000E+02  0.51100000000E-03 0. -1.
         11   -1    0    0    0    0 -0.00000000000E+00 -0.00000000000E+00 -0.45593999997E+02  0.45594000000E+02  0.51100000000E-03 0.  1.
    9900012    2    1    2    0    0  0.21116350039E+02  0.29311110985E+02 -0.26908585573E+02  0.46142318258E+02  0.10000004527E+02 0.  0.
         12    1    1    2    0    0 -0.21116350039E+02 -0.29311110985E+02  0.26908585573E+02  0.45045681742E+02  0.00000000000E+00 0. -1.
         11    1    3    3    0    0  0.10132392802E+02  0.17885612816E+02 -0.10449225109E+02  0.23059636497E+02  0.51100000000E-03 0. -1.
        -11    1    3    3    0    0  0.14328410440E+01  0.39784567795E+00 -0.83183947802E+00  0.17038990050E+01  0.51100000000E-03 0.  1.
        -12    1    3    3    0    0  0.95511161927E+01  0.11027652490E+02 -0.15627520986E+02  0.21378782756E+02  0.00000000000E+00 0.  1.
</event>
<event>
 7    1  0.2425980E-008  0.4614232E+02  0.7816164E-02  0.1320468E+00
        -11   -1    0    0    0    0  0.00000000000E+00  0.00000000000E+00  0.45593999997E+02  0.45594000000E+02  0.51100000000E-03 0. -1.
         11   -1    0    0    0    0 -0.00000000000E+00 -0.00000000000E+00 -0.45593999997E+02  0.45594000000E+02  0.51100000000E-03 0.  1.
    9900012    2    1    2    0    0  0.41609592250E+02  0.14826765222E+02 -0.88273678324E+01  0.46142316999E+02  0.99999930506E+01 0.  0.
         12    1    1    2    0    0 -0.41609592250E+02 -0.14826765222E+02  0.88273678324E+01  0.45045683001E+02  0.00000000000E+00 0. -1.
         11    1    3    3    0    0  0.14424445604E+02  0.54813465407E+01 -0.18911590735E+01  0.15546262373E+02  0.51100000000E-03 0. -1.
        -11    1    3    3    0    0  0.87954488271E+01  0.81791558845E-01  0.21498229609E+00  0.87984559769E+01  0.51100000000E-03 0.  1.
        -12    1    3    3    0    0  0.18389697819E+02  0.92636271224E+01 -0.71511910549E+01  0.21797598649E+02  0.00000000000E+00 0.  1.
</event>
<event>
 7    1  0.2425980E-008  0.4614232E+02  0.7816164E-02  0.1320468E+00
        -11   -1    0    0    0    0  0.00000000000E+00  0.00000000000E+00  0.45593999997E+02  0.45594000000E+02  0.51100000000E-03 0. -1.
         11   -1    0    0    0    0 -0.00000000000E+00 -0.00000000000E+00 -0.45593999997E+02  0.45594000000E+02  0.51100000000E-03 0.  1.
    9900012    2    1    2    0    0 -0.36969574065E+02  0.22898624317E+02  0.11748067397E+02  0.46142317746E+02  0.99999998648E+01 0.  0.
         12    1    1    2    0    0  0.36969574065E+02 -0.22898624317E+02 -0.11748067397E+02  0.45045682254E+02  0.00000000000E+00 0. -1.
         11    1    3    3    0    0  0.11277011285E+00  0.91483357535E+00 -0.71594293497E-01  0.92453424649E+00  0.51100000000E-03 0. -1.
        -11    1    3    3    0    0 -0.97849717591E+01  0.94594379818E+01  0.39078646937E+01  0.14159733260E+02  0.51100000000E-03 0.  1.
        -12    1    3    3    0    0 -0.27297372418E+02  0.12524352760E+02  0.79117969973E+01  0.31058050240E+02  0.00000000000E+00 0.  1.
</event>
<event>
 7    1  0.2425980E-008  0.4614232E+02  0.7816164E-02  0.1320468E+00
        -11   -1    0    0    0    0  0.00000000000E+00  0.00000000000E+00  0.45593999997E+02  0.45594000000E+02  0.51100000000E-03 0.  1.
         11   -1    0    0    0    0 -0.00000000000E+00 -0.00000000000E+00 -0.45593999997E+02  0.45594000000E+02  0.51100000000E-03 0. -1.
    9900012    2    1    2    0    0 -0.16488072182E+02 -0.41590570642E+02 -0.52422706079E+01  0.46142317724E+02  0.99999996583E+01 0.  0.
         12    1    1    2    0    0  0.16488072182E+02  0.41590570642E+02  0.52422706079E+01  0.45045682276E+02  0.00000000000E+00 0. -1.
         11    1    3    3    0    0 -0.54828204967E+00 -0.17690057108E+01  0.58678091121E+00  0.19427574501E+01  0.51100000000E-03 0. -1.
        -11    1    3    3    0    0 -0.14892156425E+02 -0.26992459660E+02 -0.26549585928E+01  0.30942171980E+02  0.51100000000E-03 0.  1.
         12    1    3    3    0    0 -0.10476337073E+01 -0.12829105272E+02 -0.31740929263E+01  0.13257388293E+02  0.00000000000E+00 0. -1.
</event>
<event>
 7    1  0.2425980E-008  0.4614232E+02  0.7816164E-02  0.1320468E+00
        -11   -1    0    0    0    0  0.00000000000E+00  0.00000000000E+00  0.45593999997E+02  0.45594000000E+02  0.51100000000E-03 0.  1.
         11   -1    0    0    0    0 -0.00000000000E+00 -0.00000000000E+00 -0.45593999997E+02  0.45594000000E+02  0.51100000000E-03 0. -1.
    9900012    2    1    2    0    0 -0.25625094883E+02  0.82847152351E+01  0.36108605734E+02  0.46142318716E+02  0.10000008710E+02 0.  0.
         12    1    1    2    0    0  0.25625094883E+02 -0.82847152351E+01 -0.36108605734E+02  0.45045681284E+02  0.00000000000E+00 0. -1.
         11    1    3    3    0    0 -0.27528484593E+01  0.20418098675E+01  0.24181593710E+01  0.41945985719E+01  0.51100000000E-03 0. -1.
        -11    1    3    3    0    0 -0.10116493492E+02  0.12854469797E+01  0.84826937087E+01  0.13264686477E+02  0.51100000000E-03 0.  1.
        -12    1    3    3    0    0 -0.12755752932E+02  0.49574583880E+01  0.25207752654E+02  0.28683033668E+02  0.00000000000E+00 0.  1.
</event>
<event>
 7    1  0.2425980E-008  0.4614232E+02  0.7816164E-02  0.1320468E+00
        -11   -1    0    0    0    0  0.00000000000E+00  0.00000000000E+00  0.45593999997E+02  0.45594000000E+02  0.51100000000E-03 0.  1.
         11   -1    0    0    0    0 -0.00000000000E+00 -0.00000000000E+00 -0.45593999997E+02  0.45594000000E+02  0.51100000000E-03 0. -1.
    9900012    2    1    2    0    0  0.10068456099E+02  0.16027731618E+02  0.40876052172E+02  0.46142316187E+02  0.99999856427E+01 0.  0.
         12    1    1    2    0    0 -0.10068456099E+02 -0.16027731618E+02 -0.40876052172E+02  0.45045683813E+02  0.00000000000E+00 0. -1.
         11    1    3    3    0    0  0.78311718446E+01  0.49073024503E+01  0.15660409076E+02  0.18183984230E+02  0.51100000000E-03 0. -1.
        -11    1    3    3    0    0  0.29098215630E+01  0.51040486499E+01  0.14600250990E+02  0.15738033657E+02  0.51100000000E-03 0.  1.
         12    1    3    3    0    0 -0.67253730827E+00  0.60163805179E+01  0.10615392106E+02  0.12220298300E+02  0.00000000000E+00 0. -1.
</event>
<event>
 7    1  0.2425980E-008  0.4614232E+02  0.7816164E-02  0.1320468E+00
        -11   -1    0    0    0    0  0.00000000000E+00  0.00000000000E+00  0.45593999997E+02  0.45594000000E+02  0.51100000000E-03 0.  1.
         11   -1    0    0    0    0 -0.00000000000E+00 -0.00000000000E+00 -0.45593999997E+02  0.45594000000E+02  0.51100000000E-03 0. -1.
    9900012    2    1    2    0    0  0.67761464604E+01  0.29784911529E+02  0.33106742220E+02  0.46142317676E+02  0.99999992221E+01 0.  0.
         12    1    1    2    0    0 -0.67761464604E+01 -0.29784911529E+02 -0.33106742220E+02  0.45045682324E+02  0.00000000000E+00 0. -1.
         11    1    3    3    0    0  0.58192030097E+00  0.64167644237E+00  0.99628227134E+00  0.13202115432E+01  0.51100000000E-03 0. -1.
        -11    1    3    3    0    0  0.69546027988E+01  0.11494455387E+02  0.16222628548E+02  0.21063301783E+02  0.51100000000E-03 0.  1.
        -12    1    3    3    0    0 -0.76037663944E+00  0.17648779699E+02  0.15887831400E+02  0.23758804349E+02  0.00000000000E+00 0.  1.
</event>
<event>
 7    1  0.2425980E-008  0.4614232E+02  0.7816164E-02  0.1320468E+00
        -11   -1    0    0    0    0  0.00000000000E+00  0.00000000000E+00  0.45593999997E+02  0.45594000000E+02  0.51100000000E-03 0.  1.
         11   -1    0    0    0    0 -0.00000000000E+00 -0.00000000000E+00 -0.45593999997E+02  0.45594000000E+02  0.51100000000E-03 0. -1.
    9900012    2    1    2    0    0  0.30195007108E+02 -0.72405962590E+01  0.32633552918E+02  0.46142318026E+02  0.10000002419E+02 0.  0.
         12    1    1    2    0    0 -0.30195007108E+02  0.72405962590E+01 -0.32633552918E+02  0.45045681974E+02  0.00000000000E+00 0. -1.
         11    1    3    3    0    0  0.87824770177E+01 -0.18288932745E+01  0.44783729762E+01  0.10026593537E+02  0.51100000000E-03 0. -1.
        -11    1    3    3    0    0  0.91374390997E+00  0.65336771406E+00  0.71559647220E+00  0.13318768242E+01  0.51100000000E-03 0.  1.
        -12    1    3    3    0    0  0.20498786180E+02 -0.60650706985E+01  0.27439583470E+02  0.34783847665E+02  0.00000000000E+00 0.  1.
</event>
<event>
 7    1  0.2425980E-008  0.4614232E+02  0.7816164E-02  0.1320468E+00
        -11   -1    0    0    0    0  0.00000000000E+00  0.00000000000E+00  0.45593999997E+02  0.45594000000E+02  0.51100000000E-03 0.  1.
         11   -1    0    0    0    0 -0.00000000000E+00 -0.00000000000E+00 -0.45593999997E+02  0.45594000000E+02  0.51100000000E-03 0. -1.
    9900012    2    1    2    0    0  0.10055919426E+02 -0.14075893968E+02  0.41591599837E+02  0.46142317816E+02  0.10000000497E+02 0.  0.
         12    1    1    2    0    0 -0.10055919426E+02  0.14075893968E+02 -0.41591599837E+02  0.45045682184E+02  0.00000000000E+00 0. -1.
         11    1    3    3    0    0  0.89580216214E+00 -0.43493273109E+00  0.82495241134E+00  0.12931259553E+01  0.51100000000E-03 0. -1.
        -11    1    3    3    0    0  0.85123012802E+01 -0.14915548009E+02  0.36262892268E+02  0.40123935517E+02  0.51100000000E-03 0.  1.
        -12    1    3    3    0    0  0.64781598320E+00  0.12745867726E+01  0.45037551577E+01  0.47252563433E+01  0.00000000000E+00 0.  1.
</event>
<event>
 7    1  0.2425980E-008  0.4614232E+02  0.7816164E-02  0.1320468E+00
        -11   -1    0    0    0    0  0.00000000000E+00  0.00000000000E+00  0.45593999997E+02  0.45594000000E+02  0.51100000000E-03 0. -1.
         11   -1    0    0    0    0 -0.00000000000E+00 -0.00000000000E+00 -0.45593999997E+02  0.45594000000E+02  0.51100000000E-03 0.  1.
    9900012    2    1    2    0    0  0.38780577995E+02  0.22385566443E+02  0.49057802952E+01  0.46142317689E+02  0.99999993398E+01 0.  0.
         12    1    1    2    0    0 -0.38780577995E+02 -0.22385566443E+02 -0.49057802952E+01  0.45045682311E+02  0.00000000000E+00 0. -1.
         11    1    3    3    0    0  0.26551515575E+02  0.13958015551E+02  0.73517298750E+01  0.30884577217E+02  0.51100000000E-03 0. -1.
        -11    1    3    3    0    0  0.85063952255E+01  0.47132969767E+01 -0.23186316517E+01  0.99974987433E+01  0.51100000000E-03 0.  1.
         12    1    3    3    0    0  0.37226671937E+01  0.37142539155E+01 -0.12731792806E+00  0.52602417282E+01  0.00000000000E+00 0. -1.
</event>
<event>
 7    1  0.2425980E-008  0.4614232E+02  0.7816164E-02  0.1320468E+00
        -11   -1    0    0    0    0  0.00000000000E+00  0.00000000000E+00  0.45593999997E+02  0.45594000000E+02  0.51100000000E-03 0.  1.
         11   -1    0    0    0    0 -0.00000000000E+00 -0.00000000000E+00 -0.45593999997E+02  0.45594000000E+02  0.51100000000E-03 0. -1.
    9900012    2    1    2    0    0 -0.16286921818E+02  0.25687420732E+02  0.33226587520E+02  0.46142317361E+02  0.99999963556E+01 0.  0.
         12    1    1    2    0    0  0.16286921818E+02 -0.25687420732E+02 -0.33226587520E+02  0.45045682639E+02  0.00000000000E+00 0. -1.
         11    1    3    3    0    0 -0.29865260412E+01  0.22399721678E+01  0.41992256857E+01  0.56187462773E+01  0.51100000000E-03 0. -1.
        -11    1    3    3    0    0 -0.72004725911E+01  0.51297590592E+01  0.10963509052E+02  0.14084025154E+02  0.51100000000E-03 0.  1.
        -12    1    3    3    0    0 -0.60999231859E+01  0.18317689505E+02  0.18063852782E+02  0.26439545930E+02  0.00000000000E+00 0.  1.
</event>
<event>
 7    1  0.2425980E-008  0.4614232E+02  0.7816164E-02  0.1320468E+00
        -11   -1    0    0    0    0  0.00000000000E+00  0.00000000000E+00  0.45593999997E+02  0.45594000000E+02  0.51100000000E-03 0.  1.
         11   -1    0    0    0    0 -0.00000000000E+00 -0.00000000000E+00 -0.45593999997E+02  0.45594000000E+02  0.51100000000E-03 0. -1.
    9900012    2    1    2    0    0 -0.30528079193E+02  0.17603473556E+02  0.28058287213E+02  0.46142318944E+02  0.10000010787E+02 0.  0.
         12    1    1    2    0    0  0.30528079193E+02 -0.17603473556E+02 -0.28058287213E+02  0.45045681056E+02  0.00000000000E+00 0. -1.
         11    1    3    3    0    0 -0.25393833124E+01 -0.11661066788E+01  0.27912475924E+01  0.39495994452E+01  0.51100000000E-03 0. -1.
        -11    1    3    3    0    0 -0.10952979655E+02  0.87312906208E+01  0.99721194202E+01  0.17194370161E+02  0.51100000000E-03 0.  1.
         12    1    3    3    0    0 -0.17035716226E+02  0.10038289614E+02  0.15294920200E+02  0.24998349338E+02  0.00000000000E+00 0. -1.
</event>
<event>
 7    1  0.2425980E-008  0.4614232E+02  0.7816164E-02  0.1320468E+00
        -11   -1    0    0    0    0  0.00000000000E+00  0.00000000000E+00  0.45593999997E+02  0.45594000000E+02  0.51100000000E-03 0.  1.
         11   -1    0    0    0    0 -0.00000000000E+00 -0.00000000000E+00 -0.45593999997E+02  0.45594000000E+02  0.51100000000E-03 0. -1.
    9900012    2    1    2    0    0 -0.43275470064E+02  0.21665047823E+01  0.12314766785E+02  0.46142317263E+02  0.99999954613E+01 0.  0.
         12    1    1    2    0    0  0.43275470064E+02 -0.21665047823E+01 -0.12314766785E+02  0.45045682737E+02  0.00000000000E+00 0. -1.
         11    1    3    3    0    0 -0.24226734075E+02 -0.27690135219E+01  0.41644611960E+01  0.24737518412E+02  0.51100000000E-03 0. -1.
        -11    1    3    3    0    0 -0.97413834574E+01  0.17693267858E+01  0.32535831910E+01  0.10421654033E+02  0.51100000000E-03 0.  1.
         12    1    3    3    0    0 -0.93073525313E+01  0.31661915185E+01  0.48967223978E+01  0.10983144819E+02  0.00000000000E+00 0. -1.
</event>
<event>
 7    1  0.2425980E-008  0.4614232E+02  0.7816164E-02  0.1320468E+00
        -11   -1    0    0    0    0  0.00000000000E+00  0.00000000000E+00  0.45593999997E+02  0.45594000000E+02  0.51100000000E-03 0.  1.
         11   -1    0    0    0    0 -0.00000000000E+00 -0.00000000000E+00 -0.45593999997E+02  0.45594000000E+02  0.51100000000E-03 0. -1.
    9900012    2    1    2    0    0  0.13214469597E+02 -0.41097073656E+02  0.12865526672E+02  0.46142318227E+02  0.10000004252E+02 0.  0.
         12    1    1    2    0    0 -0.13214469597E+02  0.41097073656E+02 -0.12865526672E+02  0.45045681773E+02  0.00000000000E+00 0. -1.
         11    1    3    3    0    0 -0.17130426960E+00 -0.18903120894E+00  0.17988284225E+00  0.31214747923E+00  0.51100000000E-03 0. -1.
        -11    1    3    3    0    0  0.12939466029E+02 -0.40031883696E+02  0.13862902083E+02  0.44296292709E+02  0.51100000000E-03 0.  1.
        -12    1    3    3    0    0  0.44630783738E+00 -0.87615875107E+00 -0.11772582534E+01  0.15338780388E+01  0.00000000000E+00 0.  1.
</event>
<event>
 7    1  0.2425980E-008  0.4614232E+02  0.7816164E-02  0.1320468E+00
        -11   -1    0    0    0    0  0.00000000000E+00  0.00000000000E+00  0.45593999997E+02  0.45594000000E+02  0.51100000000E-03 0.  1.
         11   -1    0    0    0    0 -0.00000000000E+00 -0.00000000000E+00 -0.45593999997E+02  0.45594000000E+02  0.51100000000E-03 0. -1.
    9900012    2    1    2    0    0 -0.29065708735E+02 -0.77316137515E+01  0.33533867356E+02  0.46142317240E+02  0.99999952471E+01 0.  0.
         12    1    1    2    0    0  0.29065708735E+02  0.77316137515E+01 -0.33533867356E+02  0.45045682760E+02  0.00000000000E+00 0. -1.
         11    1    3    3    0    0 -0.98998552673E+01 -0.26120604928E+01  0.11106897804E+02  0.15106064128E+02  0.51100000000E-03 0.  1.
        -11    1    3    3    0    0 -0.16587767625E+02 -0.11904845234E+01  0.16026894356E+02  0.23096160528E+02  0.51100000000E-03 0. -1.
         12    1    3    3    0    0 -0.25780858435E+01 -0.39290687353E+01  0.64000751949E+01  0.79400925841E+01  0.00000000000E+00 0. -1.
</event>
<event>
 7    1  0.2425980E-008  0.4614232E+02  0.7816164E-02  0.1320468E+00
        -11   -1    0    0    0    0  0.00000000000E+00  0.00000000000E+00  0.45593999997E+02  0.45594000000E+02  0.51100000000E-03 0.  1.
         11   -1    0    0    0    0 -0.00000000000E+00 -0.00000000000E+00 -0.45593999997E+02  0.45594000000E+02  0.51100000000E-03 0. -1.
    9900012    2    1    2    0    0 -0.40392416514E+01  0.31330390591E+02  0.32112376375E+02  0.46142316920E+02  0.99999923302E+01 0.  0.
         12    1    1    2    0    0  0.40392416514E+01 -0.31330390591E+02 -0.32112376375E+02  0.45045683080E+02  0.00000000000E+00 0. -1.
         11    1    3    3    0    0 -0.16362827335E+01  0.11663934942E+02  0.62802489218E+01  0.13347895950E+02  0.51100000000E-03 0. -1.
        -11    1    3    3    0    0 -0.16591369347E+01  0.17042438718E+02  0.19817401541E+02  0.26190205362E+02  0.51100000000E-03 0.  1.
        -12    1    3    3    0    0 -0.74382198320E+00  0.26240169317E+01  0.60147259118E+01  0.66042156078E+01  0.00000000000E+00 0.  1.
</event>
<event>
 7    1  0.2425980E-008  0.4614232E+02  0.7816164E-02  0.1320468E+00
        -11   -1    0    0    0    0  0.00000000000E+00  0.00000000000E+00  0.45593999997E+02  0.45594000000E+02  0.51100000000E-03 0.  1.
         11   -1    0    0    0    0 -0.00000000000E+00 -0.00000000000E+00 -0.45593999997E+02  0.45594000000E+02  0.51100000000E-03 0. -1.
    9900012    2    1    2    0    0  0.21212904225E+02  0.33590143347E+02  0.21232721519E+02  0.46142317644E+02  0.99999989359E+01 0.  0.
         12    1    1    2    0    0 -0.21212904225E+02 -0.33590143347E+02 -0.21232721519E+02  0.45045682356E+02  0.00000000000E+00 0. -1.
         11    1    3    3    0    0 -0.11099295555E+00  0.40029151080E+00  0.13491859307E+01  0.14116853993E+01  0.51100000000E-03 0.  1.
        -11    1    3    3    0    0  0.98762224454E+01  0.20075065950E+02  0.85123576916E+01  0.23937591283E+02  0.51100000000E-03 0. -1.
         12    1    3    3    0    0  0.11447674735E+02  0.13114785886E+02  0.11371177897E+02  0.20793040962E+02  0.00000000000E+00 0. -1.
</event>
<event>
 7    1  0.2425980E-008  0.4614231E+02  0.7816164E-02  0.1320468E+00
        -11   -1    0    0    0    0  0.00000000000E+00  0.00000000000E+00  0.45593999997E+02  0.45594000000E+02  0.51100000000E-03 0. -1.
         11   -1    0    0    0    0 -0.00000000000E+00 -0.00000000000E+00 -0.45593999997E+02  0.45594000000E+02  0.51100000000E-03 0.  1.
    9900012    2    1    2    0    0  0.26798627687E+02  0.24057875796E+02 -0.27058564978E+02  0.46142314608E+02  0.99999712507E+01 0.  0.
         12    1    1    2    0    0 -0.26798627687E+02 -0.24057875796E+02  0.27058564978E+02  0.45045685392E+02  0.00000000000E+00 0. -1.
         11    1    3    3    0    0  0.81904153284E+01  0.58713089451E+01 -0.80349190622E+01  0.12888564566E+02  0.51100000000E-03 0. -1.
        -11    1    3    3    0    0  0.11332229203E+02  0.63561782403E+01 -0.63934709247E+01  0.14480914724E+02  0.51100000000E-03 0.  1.
         12    1    3    3    0    0  0.72759831560E+01  0.11830388611E+02 -0.12630174991E+02  0.18772835318E+02  0.00000000000E+00 0. -1.
</event>
<event>
 7    1  0.2425980E-008  0.4614232E+02  0.7816164E-02  0.1320468E+00
        -11   -1    0    0    0    0  0.00000000000E+00  0.00000000000E+00  0.45593999997E+02  0.45594000000E+02  0.51100000000E-03 0. -1.
         11   -1    0    0    0    0 -0.00000000000E+00 -0.00000000000E+00 -0.45593999997E+02  0.45594000000E+02  0.51100000000E-03 0.  1.
    9900012    2    1    2    0    0  0.18966213030E+02 -0.14916567127E+02 -0.38038038844E+02  0.46142316404E+02  0.99999876240E+01 0.  0.
         12    1    1    2    0    0 -0.18966213030E+02  0.14916567127E+02  0.38038038844E+02  0.45045683596E+02  0.00000000000E+00 0. -1.
         11    1    3    3    0    0  0.59553242482E+01 -0.97632690450E+00 -0.77708703221E+01  0.98389799751E+01  0.51100000000E-03 0. -1.
        -11    1    3    3    0    0  0.11317402735E+02 -0.14169873139E+02 -0.25936001962E+02  0.31647197466E+02  0.51100000000E-03 0.  1.
        -12    1    3    3    0    0  0.16934860466E+01  0.22963291696E+00 -0.43311665602E+01  0.46561389625E+01  0.00000000000E+00 0.  1.
</event>
<event>
 7    1  0.2425980E-008  0.4614232E+02  0.7816164E-02  0.1320468E+00
        -11   -1    0    0    0    0  0.00000000000E+00  0.00000000000E+00  0.45593999997E+02  0.45594000000E+02  0.51100000000E-03 0. -1.
         11   -1    0    0    0    0 -0.00000000000E+00 -0.00000000000E+00 -0.45593999997E+02  0.45594000000E+02  0.51100000000E-03 0.  1.
    9900012    2    1    2    0    0  0.10416670609E+02 -0.19329650319E+02 -0.39331553344E+02  0.46142317671E+02  0.99999991800E+01 0.  0.
         12    1    1    2    0    0 -0.10416670609E+02  0.19329650319E+02  0.39331553344E+02  0.45045682329E+02  0.00000000000E+00 0. -1.
         11    1    3    3    0    0  0.56471586931E+00 -0.47202494388E+01 -0.10042376225E+02  0.11110759618E+02  0.51100000000E-03 0.  1.
        -11    1    3    3    0    0  0.32092085757E+01 -0.13432803055E+00 -0.61941215153E+01  0.69774067755E+01  0.51100000000E-03 0. -1.
         12    1    3    3    0    0  0.66427461638E+01 -0.14475072849E+02 -0.23095055604E+02  0.28054151278E+02  0.00000000000E+00 0. -1.
</event>
<event>
 7    1  0.2425980E-008  0.4614232E+02  0.7816164E-02  0.1320468E+00
        -11   -1    0    0    0    0  0.00000000000E+00  0.00000000000E+00  0.45593999997E+02  0.45594000000E+02  0.51100000000E-03 0. -1.
         11   -1    0    0    0    0 -0.00000000000E+00 -0.00000000000E+00 -0.45593999997E+02  0.45594000000E+02  0.51100000000E-03 0.  1.
    9900012    2    1    2    0    0 -0.34598606512E+02  0.13865799947E+02 -0.25294061951E+02  0.46142317069E+02  0.99999936866E+01 0.  0.
         12    1    1    2    0    0  0.34598606512E+02 -0.13865799947E+02  0.25294061951E+02  0.45045682931E+02  0.00000000000E+00 0. -1.
         11    1    3    3    0    0 -0.67884831703E+01  0.26179927032E+01 -0.78437995473E+01  0.10698718668E+02  0.51100000000E-03 0. -1.
        -11    1    3    3    0    0 -0.20094236776E+02  0.48707848533E+01 -0.10013180318E+02  0.22973172986E+02  0.51100000000E-03 0.  1.
        -12    1    3    3    0    0 -0.77158865661E+01  0.63770223910E+01 -0.74370820851E+01  0.12470425414E+02  0.00000000000E+00 0.  1.
</event>
<event>
 7    1  0.2425980E-008  0.4614232E+02  0.7816164E-02  0.1320468E+00
        -11   -1    0    0    0    0  0.00000000000E+00  0.00000000000E+00  0.45593999997E+02  0.45594000000E+02  0.51100000000E-03 0.  1.
         11   -1    0    0    0    0 -0.00000000000E+00 -0.00000000000E+00 -0.45593999997E+02  0.45594000000E+02  0.51100000000E-03 0. -1.
    9900012    2    1    2    0    0  0.39319387425E+02 -0.13139294248E+02 -0.17619825094E+02  0.46142317442E+02  0.99999970860E+01 0.  0.
         12    1    1    2    0    0 -0.39319387425E+02  0.13139294248E+02  0.17619825094E+02  0.45045682558E+02  0.00000000000E+00 0. -1.
         11    1    3    3    0    0  0.13761192733E+01 -0.95738230160E+00 -0.21654520029E+01  0.27385156132E+01  0.51100000000E-03 0. -1.
        -11    1    3    3    0    0  0.21338838801E+02 -0.92228414378E+01 -0.57579043980E+01  0.23949119167E+02  0.51100000000E-03 0.  1.
        -12    1    3    3    0    0  0.16604429351E+02 -0.29590705087E+01 -0.96964686927E+01  0.19454682662E+02  0.00000000000E+00 0.  1.
</event>
<event>
 7    1  0.2425980E-008  0.4614232E+02  0.7816164E-02  0.1320468E+00
        -11   -1    0    0    0    0  0.00000000000E+00  0.00000000000E+00  0.45593999997E+02  0.45594000000E+02  0.51100000000E-03 0.  1.
         11   -1    0    0    0    0 -0.00000000000E+00 -0.00000000000E+00 -0.45593999997E+02  0.45594000000E+02  0.51100000000E-03 0. -1.
    9900012    2    1    2    0    0 -0.17351212729E+01  0.16131337878E+02  0.42022405063E+02  0.46142320575E+02  0.10000025663E+02 0.  0.
         12    1    1    2    0    0  0.17351212729E+01 -0.16131337878E+02 -0.42022405063E+02  0.45045679425E+02  0.00000000000E+00 0. -1.
         11    1    3    3    0    0  0.82598964064E+00  0.29998796077E+01  0.17759561384E+01  0.35826745615E+01  0.51100000000E-03 0. -1.
        -11    1    3    3    0    0 -0.11431173340E+01  0.13948090403E+01  0.32065407678E+01  0.36788739385E+01  0.51100000000E-03 0.  1.
        -12    1    3    3    0    0 -0.14179935796E+01  0.11736649230E+02  0.37039908156E+02  0.38880772075E+02  0.00000000000E+00 0.  1.
</event>
<event>
 7    1  0.2425980E-008  0.4614232E+02  0.7816164E-02  0.1320468E+00
        -11   -1    0    0    0    0  0.00000000000E+00  0.00000000000E+00  0.45593999997E+02  0.45594000000E+02  0.51100000000E-03 0.  1.
         11   -1    0    0    0    0 -0.00000000000E+00 -0.00000000000E+00 -0.45593999997E+02  0.45594000000E+02  0.51100000000E-03 0. -1.
    9900012    2    1    2    0    0 -0.17512284560E+02  0.24903787099E+02  0.33199914142E+02  0.46142322944E+02  0.10000047263E+02 0.  0.
         12    1    1    2    0    0  0.17512284560E+02 -0.24903787099E+02 -0.33199914142E+02  0.45045677056E+02  0.00000000000E+00 0. -1.
         11    1    3    3    0    0 -0.44746713776E+01  0.18746254877E+01  0.23820996996E+01  0.54047482732E+01  0.51100000000E-03 0. -1.
        -11    1    3    3    0    0 -0.36427885439E+01  0.39883026481E+01  0.66652998162E+01  0.85792009120E+01  0.51100000000E-03 0.  1.
        -12    1    3    3    0    0 -0.93948246387E+01  0.19040858963E+02  0.24152514626E+02  0.32158373759E+02  0.00000000000E+00 0.  1.
</event>
<event>
 7    1  0.2425980E-008  0.4614232E+02  0.7816164E-02  0.1320468E+00
        -11   -1    0    0    0    0  0.00000000000E+00  0.00000000000E+00  0.45593999997E+02  0.45594000000E+02  0.51100000000E-03 0. -1.
         11   -1    0    0    0    0 -0.00000000000E+00 -0.00000000000E+00 -0.45593999997E+02  0.45594000000E+02  0.51100000000E-03 0.  1.
    9900012    2    1    2    0    0  0.18886146561E+02 -0.31696887922E+02 -0.25840553346E+02  0.46142318374E+02  0.10000005593E+02 0.  0.
         12    1    1    2    0    0 -0.18886146561E+02  0.31696887922E+02  0.25840553346E+02  0.45045681626E+02  0.00000000000E+00 0. -1.
         11    1    3    3    0    0  0.27170566506E+01 -0.12499701475E+01 -0.27366695448E+01  0.40539095539E+01  0.51100000000E-03 0. -1.
        -11    1    3    3    0    0  0.14847217606E+02 -0.22373274144E+02 -0.19288668217E+02  0.33061397254E+02  0.51100000000E-03 0.  1.
         12    1    3    3    0    0  0.13218723047E+01 -0.80736436303E+01 -0.38152155845E+01  0.90270115661E+01  0.00000000000E+00 0. -1.
</event>
<event>
 7    1  0.2425980E-008  0.4614232E+02  0.7816164E-02  0.1320468E+00
        -11   -1    0    0    0    0  0.00000000000E+00  0.00000000000E+00  0.45593999997E+02  0.45594000000E+02  0.51100000000E-03 0.  1.
         11   -1    0    0    0    0 -0.00000000000E+00 -0.00000000000E+00 -0.45593999997E+02  0.45594000000E+02  0.51100000000E-03 0. -1.
    9900012    2    1    2    0    0  0.43691416424E+02 -0.10859847034E+02  0.14957658898E+01  0.46142318050E+02  0.10000002633E+02 0.  0.
         12    1    1    2    0    0 -0.43691416424E+02  0.10859847034E+02 -0.14957658898E+01  0.45045681950E+02  0.00000000000E+00 0. -1.
         11    1    3    3    0    0  0.20415776460E+02 -0.73013149015E+01  0.19726187186E+01  0.21771641018E+02  0.51100000000E-03 0. -1.
        -11    1    3    3    0    0  0.80597733954E+01 -0.42814985081E+01 -0.45279746985E+00  0.91376256473E+01  0.51100000000E-03 0.  1.
        -12    1    3    3    0    0  0.15215866569E+02  0.72296637559E+00 -0.24055358961E-01  0.15233051385E+02  0.00000000000E+00 0.  1.
</event>
<event>
 7    1  0.2425980E-008  0.4614232E+02  0.7816164E-02  0.1320468E+00
        -11   -1    0    0    0    0  0.00000000000E+00  0.00000000000E+00  0.45593999997E+02  0.45594000000E+02  0.51100000000E-03 0.  1.
         11   -1    0    0    0    0 -0.00000000000E+00 -0.00000000000E+00 -0.45593999997E+02  0.45594000000E+02  0.51100000000E-03 0. -1.
    9900012    2    1    2    0    0  0.31498367978E+02  0.31992931728E+02  0.36631474731E+01  0.46142317463E+02  0.99999972781E+01 0.  0.
         12    1    1    2    0    0 -0.31498367978E+02 -0.31992931728E+02 -0.36631474731E+01  0.45045682537E+02  0.00000000000E+00 0. -1.
         11    1    3    3    0    0  0.16822867314E+02  0.19110568286E+02 -0.14307975364E+01  0.25500389540E+02  0.51100000000E-03 0. -1.
        -11    1    3    3    0    0  0.11114945945E+02  0.99261977657E+01  0.19084750385E+01  0.15023771254E+02  0.51100000000E-03 0.  1.
         12    1    3    3    0    0  0.35605547195E+01  0.29561656766E+01  0.31854699710E+01  0.56181566687E+01  0.00000000000E+00 0. -1.
</event>
<event>
 7    1  0.2425980E-008  0.4614232E+02  0.7816164E-02  0.1320468E+00
        -11   -1    0    0    0    0  0.00000000000E+00  0.00000000000E+00  0.45593999997E+02  0.45594000000E+02  0.51100000000E-03 0.  1.
         11   -1    0    0    0    0 -0.00000000000E+00 -0.00000000000E+00 -0.45593999997E+02  0.45594000000E+02  0.51100000000E-03 0. -1.
    9900012    2    1    2    0    0 -0.44375834816E+02 -0.19128086276E+01 -0.74993300983E+01  0.46142317583E+02  0.99999983792E+01 0.  0.
         12    1    1    2    0    0  0.44375834816E+02  0.19128086276E+01  0.74993300983E+01  0.45045682417E+02  0.00000000000E+00 0. -1.
         11    1    3    3    0    0 -0.93679752355E+01 -0.33405952909E+01 -0.43806834982E+01  0.10867793018E+02  0.51100000000E-03 0. -1.
        -11    1    3    3    0    0 -0.23988642561E+02 -0.21393069483E+00 -0.24316314190E+01  0.24112518945E+02  0.51100000000E-03 0.  1.
         12    1    3    3    0    0 -0.11019217019E+02  0.16417173581E+01 -0.68701518101E+00  0.11162005620E+02  0.00000000000E+00 0. -1.
</event>
<event>
 7    1  0.2425980E-008  0.4614232E+02  0.7816164E-02  0.1320468E+00
        -11   -1    0    0    0    0  0.00000000000E+00  0.00000000000E+00  0.45593999997E+02  0.45594000000E+02  0.51100000000E-03 0.  1.
         11   -1    0    0    0    0 -0.00000000000E+00 -0.00000000000E+00 -0.45593999997E+02  0.45594000000E+02  0.51100000000E-03 0. -1.
    9900012    2    1    2    0    0  0.88285637203E+01  0.23529225251E+02  0.37383759387E+02  0.46142318251E+02  0.10000004469E+02 0.  0.
         12    1    1    2    0    0 -0.88285637203E+01 -0.23529225251E+02 -0.37383759387E+02  0.45045681749E+02  0.00000000000E+00 0. -1.
         11    1    3    3    0    0  0.62842502745E+01  0.56581030036E+01  0.84717137811E+01  0.11969789713E+02  0.51100000000E-03 0. -1.
        -11    1    3    3    0    0  0.12628899550E+01  0.87576452344E+01  0.11879210028E+02  0.14812389147E+02  0.51100000000E-03 0.  1.
         12    1    3    3    0    0  0.12814234908E+01  0.91134770135E+01  0.17032835578E+02  0.19360139392E+02  0.00000000000E+00 0. -1.
</event>
<event>
 7    1  0.2425980E-008  0.4614232E+02  0.7816164E-02  0.1320468E+00
        -11   -1    0    0    0    0  0.00000000000E+00  0.00000000000E+00  0.45593999997E+02  0.45594000000E+02  0.51100000000E-03 0.  1.
         11   -1    0    0    0    0 -0.00000000000E+00 -0.00000000000E+00 -0.45593999997E+02  0.45594000000E+02  0.51100000000E-03 0. -1.
    9900012    2    1    2    0    0  0.15264422995E+02 -0.16700895040E+02  0.38951136226E+02  0.46142317435E+02  0.99999970252E+01 0.  0.
         12    1    1    2    0    0 -0.15264422995E+02  0.16700895040E+02 -0.38951136226E+02  0.45045682565E+02  0.00000000000E+00 0. -1.
         11    1    3    3    0    0 -0.91530673889E+00 -0.16839250856E+01  0.63581157636E+01  0.66407097847E+01  0.51100000000E-03 0. -1.
        -11    1    3    3    0    0  0.22436429829E+01 -0.15233547055E+01  0.60088866761E+01  0.65925156610E+01  0.51100000000E-03 0.  1.
        -12    1    3    3    0    0  0.13936086751E+02 -0.13493615249E+02  0.26584133786E+02  0.32909091989E+02  0.00000000000E+00 0.  1.
</event>
<event>
 7    1  0.2425980E-008  0.4614232E+02  0.7816164E-02  0.1320468E+00
        -11   -1    0    0    0    0  0.00000000000E+00  0.00000000000E+00  0.45593999997E+02  0.45594000000E+02  0.51100000000E-03 0.  1.
         11   -1    0    0    0    0 -0.00000000000E+00 -0.00000000000E+00 -0.45593999997E+02  0.45594000000E+02  0.51100000000E-03 0. -1.
    9900012    2    1    2    0    0  0.42898431242E+02 -0.91528422505E+01  0.10250050677E+02  0.46142318041E+02  0.10000002548E+02 0.  0.
         12    1    1    2    0    0 -0.42898431242E+02  0.91528422505E+01 -0.10250050677E+02  0.45045681959E+02  0.00000000000E+00 0. -1.
         11    1    3    3    0    0  0.36161815244E+01 -0.12346611628E+01  0.33020233140E+01  0.50501995240E+01  0.51100000000E-03 0. -1.
        -11    1    3    3    0    0  0.83159496015E+00 -0.86538762987E+00 -0.49407120477E+00  0.12979031336E+01  0.51100000000E-03 0.  1.
        -12    1    3    3    0    0  0.38450654758E+02 -0.70527934579E+01  0.74420985682E+01  0.39794215383E+02  0.00000000000E+00 0.  1.
</event>
<event>
 7    1  0.2425980E-008  0.4614232E+02  0.7816164E-02  0.1320468E+00
        -11   -1    0    0    0    0  0.00000000000E+00  0.00000000000E+00  0.45593999997E+02  0.45594000000E+02  0.51100000000E-03 0.  1.
         11   -1    0    0    0    0 -0.00000000000E+00 -0.00000000000E+00 -0.45593999997E+02  0.45594000000E+02  0.51100000000E-03 0. -1.
    9900012    2    1    2    0    0 -0.37194329195E+02 -0.21537461591E+01  0.25319100569E+02  0.46142316517E+02  0.99999886542E+01 0.  0.
         12    1    1    2    0    0  0.37194329195E+02  0.21537461591E+01 -0.25319100569E+02  0.45045683483E+02  0.00000000000E+00 0. -1.
         11    1    3    3    0    0 -0.40671585896E+01 -0.24857683403E+01  0.13866271614E+01  0.49642278736E+01  0.51100000000E-03 0. -1.
        -11    1    3    3    0    0 -0.12391790503E+02 -0.15638806857E+01  0.11169464549E+02  0.16755868621E+02  0.51100000000E-03 0.  1.
        -12    1    3    3    0    0 -0.20735380103E+02  0.18959028669E+01  0.12763008859E+02  0.24422220023E+02  0.00000000000E+00 0.  1.
</event>
<event>
 7    1  0.2425980E-008  0.4614232E+02  0.7816164E-02  0.1320468E+00
        -11   -1    0    0    0    0  0.00000000000E+00  0.00000000000E+00  0.45593999997E+02  0.45594000000E+02  0.51100000000E-03 0. -1.
         11   -1    0    0    0    0 -0.00000000000E+00 -0.00000000000E+00 -0.45593999997E+02  0.45594000000E+02  0.51100000000E-03 0.  1.
    9900012    2    1    2    0    0 -0.43471475218E+02  0.55750783193E+01 -0.10404945259E+02  0.46142317169E+02  0.99999946005E+01 0.  0.
         12    1    1    2    0    0  0.43471475218E+02 -0.55750783193E+01  0.10404945259E+02  0.45045682831E+02  0.00000000000E+00 0. -1.
         11    1    3    3    0    0 -0.11045197357E+02  0.27894135243E+01 -0.47581041389E+01  0.12345718599E+02  0.51100000000E-03 0. -1.
        -11    1    3    3    0    0 -0.17557901573E+02  0.26719427443E+01 -0.64779521697E+01  0.18904577494E+02  0.51100000000E-03 0.  1.
         12    1    3    3    0    0 -0.14868376288E+02  0.11372205074E+00  0.83111104936E+00  0.14892021076E+02  0.00000000000E+00 0. -1.
</event>
<event>
 7    1  0.2425980E-008  0.4614231E+02  0.7816164E-02  0.1320468E+00
        -11   -1    0    0    0    0  0.00000000000E+00  0.00000000000E+00  0.45593999997E+02  0.45594000000E+02  0.51100000000E-03 0.  1.
         11   -1    0    0    0    0 -0.00000000000E+00 -0.00000000000E+00 -0.45593999997E+02  0.45594000000E+02  0.51100000000E-03 0. -1.
    9900012    2    1    2    0    0 -0.16472443213E+02  0.21153391233E+02  0.36198159637E+02  0.46142310892E+02  0.99999373634E+01 0.  0.
         12    1    1    2    0    0  0.16472443213E+02 -0.21153391233E+02 -0.36198159637E+02  0.45045689108E+02  0.00000000000E+00 0. -1.
         11    1    3    3    0    0 -0.43380027341E+00  0.27821077865E+01  0.26352813653E+01  0.38565547512E+01  0.51100000000E-03 0. -1.
        -11    1    3    3    0    0 -0.52544590563E+01  0.30073219281E+01  0.13584477345E+02  0.14872503157E+02  0.51100000000E-03 0.  1.
        -12    1    3    3    0    0 -0.10784183883E+02  0.15363961519E+02  0.19978400927E+02  0.27413252984E+02  0.00000000000E+00 0.  1.
</event>
<event>
 7    1  0.2425980E-008  0.4614232E+02  0.7816164E-02  0.1320468E+00
        -11   -1    0    0    0    0  0.00000000000E+00  0.00000000000E+00  0.45593999997E+02  0.45594000000E+02  0.51100000000E-03 0.  1.
         11   -1    0    0    0    0 -0.00000000000E+00 -0.00000000000E+00 -0.45593999997E+02  0.45594000000E+02  0.51100000000E-03 0. -1.
    9900012    2    1    2    0    0  0.35395586539E+01  0.67529578499E+01  0.44395749629E+02  0.46142317628E+02  0.99999987879E+01 0.  0.
         12    1    1    2    0    0 -0.35395586539E+01 -0.67529578499E+01 -0.44395749629E+02  0.45045682372E+02  0.00000000000E+00 0. -1.
         11    1    3    3    0    0  0.34774561972E+01 -0.64243286496E+00  0.15353246395E+02  0.15755240294E+02  0.51100000000E-03 0. -1.
        -11    1    3    3    0    0 -0.96248409468E+00  0.40526871894E+01  0.23258227314E+02  0.23628283627E+02  0.51100000000E-03 0.  1.
         12    1    3    3    0    0  0.10245865514E+01  0.33427035255E+01  0.57842759202E+01  0.67587937076E+01  0.00000000000E+00 0. -1.
</event>
<event>
 7    1  0.2425980E-008  0.4614232E+02  0.7816164E-02  0.1320468E+00
        -11   -1    0    0    0    0  0.00000000000E+00  0.00000000000E+00  0.45593999997E+02  0.45594000000E+02  0.51100000000E-03 0. -1.
         11   -1    0    0    0    0 -0.00000000000E+00 -0.00000000000E+00 -0.45593999997E+02  0.45594000000E+02  0.51100000000E-03 0.  1.
    9900012    2    1    2    0    0  0.15442932153E+01  0.36574352166E+02 -0.26249674788E+02  0.46142317583E+02  0.99999983774E+01 0.  0.
         12    1    1    2    0    0 -0.15442932153E+01 -0.36574352166E+02  0.26249674788E+02  0.45045682417E+02  0.00000000000E+00 0. -1.
         11    1    3    3    0    0  0.13670615143E+01  0.16689234628E+02 -0.89107868158E+01  0.18968435138E+02  0.51100000000E-03 0. -1.
        -11    1    3    3    0    0  0.52655982588E+00  0.19997132523E+02 -0.15520708554E+02  0.25319063345E+02  0.51100000000E-03 0.  1.
        -12    1    3    3    0    0 -0.34932812485E+00 -0.11201498470E+00 -0.18181794190E+01  0.18548191004E+01  0.00000000000E+00 0.  1.
</event>
<event>
 7    1  0.2425980E-008  0.4614232E+02  0.7816164E-02  0.1320468E+00
        -11   -1    0    0    0    0  0.00000000000E+00  0.00000000000E+00  0.45593999997E+02  0.45594000000E+02  0.51100000000E-03 0.  1.
         11   -1    0    0    0    0 -0.00000000000E+00 -0.00000000000E+00 -0.45593999997E+02  0.45594000000E+02  0.51100000000E-03 0. -1.
    9900012    2    1    2    0    0  0.32000968223E+02 -0.89450786089E+01  0.30414422852E+02  0.46142317455E+02  0.99999972065E+01 0.  0.
         12    1    1    2    0    0 -0.32000968223E+02  0.89450786089E+01 -0.30414422852E+02  0.45045682545E+02  0.00000000000E+00 0. -1.
         11    1    3    3    0    0  0.71930029974E+01 -0.40609609608E+01  0.11634365946E+02  0.14268467587E+02  0.51100000000E-03 0. -1.
        -11    1    3    3    0    0  0.16141362063E+02 -0.41325845123E+01  0.14885267286E+02  0.22342627564E+02  0.51100000000E-03 0.  1.
        -12    1    3    3    0    0  0.86666031626E+01 -0.75153313579E+00  0.38947896199E+01  0.95312223044E+01  0.00000000000E+00 0.  1.
</event>
<event>
 7    1  0.2425980E-008  0.4614232E+02  0.7816164E-02  0.1320468E+00
        -11   -1    0    0    0    0  0.00000000000E+00  0.00000000000E+00  0.45593999997E+02  0.45594000000E+02  0.51100000000E-03 0.  1.
         11   -1    0    0    0    0 -0.00000000000E+00 -0.00000000000E+00 -0.45593999997E+02  0.45594000000E+02  0.51100000000E-03 0. -1.
    9900012    2    1    2    0    0 -0.20930049012E+02  0.28972605178E+02  0.27415952850E+02  0.46142320150E+02  0.10000021785E+02 0.  0.
         12    1    1    2    0    0  0.20930049012E+02 -0.28972605178E+02 -0.27415952850E+02  0.45045679850E+02  0.00000000000E+00 0. -1.
         11    1    3    3    0    0 -0.29778492683E+01  0.31825235291E+01  0.41679871522E+01  0.60306019136E+01  0.51100000000E-03 0. -1.
        -11    1    3    3    0    0 -0.10233034452E+01  0.32951083973E+00  0.36259319116E+01  0.37819452433E+01  0.51100000000E-03 0.  1.
        -12    1    3    3    0    0 -0.16928896299E+02  0.25460570809E+02  0.19622033786E+02  0.36329772993E+02  0.00000000000E+00 0.  1.
</event>
<event>
 7    1  0.2425980E-008  0.4614232E+02  0.7816164E-02  0.1320468E+00
        -11   -1    0    0    0    0  0.00000000000E+00  0.00000000000E+00  0.45593999997E+02  0.45594000000E+02  0.51100000000E-03 0.  1.
         11   -1    0    0    0    0 -0.00000000000E+00 -0.00000000000E+00 -0.45593999997E+02  0.45594000000E+02  0.51100000000E-03 0. -1.
    9900012    2    1    2    0    0  0.80774464171E+01  0.41493023657E+02  0.15562690279E+02  0.46142317837E+02  0.10000000689E+02 0.  0.
         12    1    1    2    0    0 -0.80774464171E+01 -0.41493023657E+02 -0.15562690279E+02  0.45045682163E+02  0.00000000000E+00 0. -1.
         11    1    3    3    0    0  0.18273709492E+01  0.78915103701E+01  0.15560178925E+01  0.82484187849E+01  0.51100000000E-03 0.  1.
        -11    1    3    3    0    0 -0.23073545231E-01  0.38629724815E+01 -0.10109450793E+01  0.39931314774E+01  0.51100000000E-03 0. -1.
        -12    1    3    3    0    0  0.62731490131E+01  0.29738540806E+02  0.15017617465E+02  0.33900767574E+02  0.00000000000E+00 0.  1.
</event>
<event>
 7    1  0.2425980E-008  0.4614232E+02  0.7816164E-02  0.1320468E+00
        -11   -1    0    0    0    0  0.00000000000E+00  0.00000000000E+00  0.45593999997E+02  0.45594000000E+02  0.51100000000E-03 0.  1.
         11   -1    0    0    0    0 -0.00000000000E+00 -0.00000000000E+00 -0.45593999997E+02  0.45594000000E+02  0.51100000000E-03 0. -1.
    9900012    2    1    2    0    0 -0.40437564528E+02 -0.14462543060E+01  0.19794576417E+02  0.46142317277E+02  0.99999955841E+01 0.  0.
         12    1    1    2    0    0  0.40437564528E+02  0.14462543060E+01 -0.19794576417E+02  0.45045682723E+02  0.00000000000E+00 0. -1.
         11    1    3    3    0    0 -0.11107869192E+01  0.21215318548E+00 -0.59208259173E+00  0.12764868235E+01  0.51100000000E-03 0. -1.
        -11    1    3    3    0    0 -0.22157306122E+02  0.21400942505E+01  0.13118254560E+02  0.25838243380E+02  0.51100000000E-03 0.  1.
         12    1    3    3    0    0 -0.17169471486E+02 -0.37985017420E+01  0.72684044486E+01  0.19027587073E+02  0.00000000000E+00 0. -1.
</event>
<event>
 7    1  0.2425980E-008  0.4614232E+02  0.7816164E-02  0.1320468E+00
        -11   -1    0    0    0    0  0.00000000000E+00  0.00000000000E+00  0.45593999997E+02  0.45594000000E+02  0.51100000000E-03 0.  1.
         11   -1    0    0    0    0 -0.00000000000E+00 -0.00000000000E+00 -0.45593999997E+02  0.45594000000E+02  0.51100000000E-03 0. -1.
    9900012    2    1    2    0    0  0.80011876992E+01 -0.23270700386E+02  0.37730211599E+02  0.46142319093E+02  0.10000012149E+02 0.  0.
         12    1    1    2    0    0 -0.80011876992E+01  0.23270700386E+02 -0.37730211599E+02  0.45045680907E+02  0.00000000000E+00 0. -1.
         11    1    3    3    0    0  0.55770066277E+01 -0.18386712674E+02  0.34816089227E+02  0.39765993955E+02  0.51100000000E-03 0.  1.
        -11    1    3    3    0    0  0.13563641129E+01 -0.22059025526E+01  0.22198631978E+01  0.34107950036E+01  0.51100000000E-03 0. -1.
        -12    1    3    3    0    0  0.10678169586E+01 -0.26780851600E+01  0.69425917345E+00  0.29655301349E+01  0.00000000000E+00 0.  1.
</event>
<event>
 7    1  0.2425980E-008  0.4614232E+02  0.7816164E-02  0.1320468E+00
        -11   -1    0    0    0    0  0.00000000000E+00  0.00000000000E+00  0.45593999997E+02  0.45594000000E+02  0.51100000000E-03 0.  1.
         11   -1    0    0    0    0 -0.00000000000E+00 -0.00000000000E+00 -0.45593999997E+02  0.45594000000E+02  0.51100000000E-03 0. -1.
    9900012    2    1    2    0    0  0.27546507357E+02 -0.23926242920E+02  0.26416629181E+02  0.46142318019E+02  0.10000002354E+02 0.  0.
         12    1    1    2    0    0 -0.27546507357E+02  0.23926242920E+02 -0.26416629181E+02  0.45045681981E+02  0.00000000000E+00 0. -1.
         11    1    3    3    0    0  0.82658274846E+00 -0.42114458977E+01  0.37024369948E+01  0.56681174609E+01  0.51100000000E-03 0. -1.
        -11    1    3    3    0    0  0.63067325942E+01 -0.65086799152E+01  0.77559284730E+01  0.11928630139E+02  0.51100000000E-03 0.  1.
        -12    1    3    3    0    0  0.20413192015E+02 -0.13206117107E+02  0.14958263713E+02  0.28545570419E+02  0.00000000000E+00 0.  1.
</event>
<event>
 7    1  0.2425980E-008  0.4614232E+02  0.7816164E-02  0.1320468E+00
        -11   -1    0    0    0    0  0.00000000000E+00  0.00000000000E+00  0.45593999997E+02  0.45594000000E+02  0.51100000000E-03 0.  1.
         11   -1    0    0    0    0 -0.00000000000E+00 -0.00000000000E+00 -0.45593999997E+02  0.45594000000E+02  0.51100000000E-03 0. -1.
    9900012    2    1    2    0    0  0.34489996424E+02 -0.27413480994E+02  0.93837565046E+01  0.46142315638E+02  0.99999806366E+01 0.  0.
         12    1    1    2    0    0 -0.34489996424E+02  0.27413480994E+02 -0.93837565046E+01  0.45045684362E+02  0.00000000000E+00 0. -1.
         11    1    3    3    0    0  0.30446633224E+02 -0.22679748901E+02  0.98350804201E+01  0.39218583504E+02  0.51100000000E-03 0. -1.
        -11    1    3    3    0    0  0.13957029340E+01 -0.18421871279E+01  0.12753712139E+01  0.26397371248E+01  0.51100000000E-03 0.  1.
         12    1    3    3    0    0  0.26476602655E+01 -0.28915449651E+01 -0.17266951294E+01  0.42839950089E+01  0.00000000000E+00 0. -1.
</event>
<event>
 7    1  0.2425980E-008  0.4614232E+02  0.7816164E-02  0.1320468E+00
        -11   -1    0    0    0    0  0.00000000000E+00  0.00000000000E+00  0.45593999997E+02  0.45594000000E+02  0.51100000000E-03 0. -1.
         11   -1    0    0    0    0 -0.00000000000E+00 -0.00000000000E+00 -0.45593999997E+02  0.45594000000E+02  0.51100000000E-03 0.  1.
    9900012    2    1    2    0    0  0.38268913802E+02  0.23746341213E+02  0.84558872831E+00  0.46142317578E+02  0.99999983269E+01 0.  0.
         12    1    1    2    0    0 -0.38268913802E+02 -0.23746341213E+02 -0.84558872831E+00  0.45045682422E+02  0.00000000000E+00 0. -1.
         11    1    3    3    0    0  0.41875776072E+00 -0.13224146844E+00 -0.25735495281E-01  0.43989594790E+00  0.51100000000E-03 0. -1.
        -11    1    3    3    0    0  0.32004280959E+02  0.18484415694E+02 -0.25433467341E+01  0.37046136588E+02  0.51100000000E-03 0.  1.
         12    1    3    3    0    0  0.58458750821E+01  0.53941669877E+01  0.34146709576E+01  0.86562850412E+01  0.00000000000E+00 0. -1.
</event>
<event>
 7    1  0.2425980E-008  0.4614232E+02  0.7816164E-02  0.1320468E+00
        -11   -1    0    0    0    0  0.00000000000E+00  0.00000000000E+00  0.45593999997E+02  0.45594000000E+02  0.51100000000E-03 0.  1.
         11   -1    0    0    0    0 -0.00000000000E+00 -0.00000000000E+00 -0.45593999997E+02  0.45594000000E+02  0.51100000000E-03 0. -1.
    9900012    2    1    2    0    0  0.19354036915E+02  0.29938380615E+02  0.27535941567E+02  0.46142318112E+02  0.10000003204E+02 0.  0.
         12    1    1    2    0    0 -0.19354036915E+02 -0.29938380615E+02 -0.27535941567E+02  0.45045681888E+02  0.00000000000E+00 0. -1.
         11    1    3    3    0    0  0.24919998084E+01  0.68519780661E+01  0.59472865357E+01  0.94090320364E+01  0.51100000000E-03 0. -1.
        -11    1    3    3    0    0  0.13529545576E+02  0.18608177022E+02  0.20947491099E+02  0.31114469932E+02  0.51100000000E-03 0.  1.
         12    1    3    3    0    0  0.33324915302E+01  0.44782255273E+01  0.64116393234E+00  0.56188161440E+01  0.00000000000E+00 0. -1.
</event>
<event>
 7    1  0.2425980E-008  0.4614232E+02  0.7816164E-02  0.1320468E+00
        -11   -1    0    0    0    0  0.00000000000E+00  0.00000000000E+00  0.45593999997E+02  0.45594000000E+02  0.51100000000E-03 0.  1.
         11   -1    0    0    0    0 -0.00000000000E+00 -0.00000000000E+00 -0.45593999997E+02  0.45594000000E+02  0.51100000000E-03 0. -1.
    9900012    2    1    2    0    0 -0.33327909100E+02 -0.28277311408E+02  0.10897598438E+02  0.46142317442E+02  0.99999970910E+01 0.  0.
         12    1    1    2    0    0  0.33327909100E+02  0.28277311408E+02 -0.10897598438E+02  0.45045682558E+02  0.00000000000E+00 0. -1.
         11    1    3    3    0    0 -0.19491456469E+02 -0.15439030080E+02  0.10950932634E+02  0.27169899722E+02  0.51100000000E-03 0. -1.
        -11    1    3    3    0    0 -0.76001141218E+01 -0.62546240638E+01  0.73196329124E+00  0.98700469788E+01  0.51100000000E-03 0.  1.
        -12    1    3    3    0    0 -0.62363385090E+01 -0.65836572635E+01 -0.78529748778E+00  0.91023707410E+01  0.00000000000E+00 0.  1.
</event>
<event>
 7    1  0.2425980E-008  0.4614231E+02  0.7816164E-02  0.1320468E+00
        -11   -1    0    0    0    0  0.00000000000E+00  0.00000000000E+00  0.45593999997E+02  0.45594000000E+02  0.51100000000E-03 0.  1.
         11   -1    0    0    0    0 -0.00000000000E+00 -0.00000000000E+00 -0.45593999997E+02  0.45594000000E+02  0.51100000000E-03 0. -1.
    9900012    2    1    2    0    0 -0.24106457777E+02  0.46922325361E+01  0.37762090800E+02  0.46142313700E+02  0.99999629639E+01 0.  0.
         12    1    1    2    0    0  0.24106457777E+02 -0.46922325361E+01 -0.37762090800E+02  0.45045686300E+02  0.00000000000E+00 0. -1.
         11    1    3    3    0    0 -0.15841092968E+02 -0.24073640526E+00  0.19824248984E+02  0.25377135940E+02  0.51100000000E-03 0. -1.
        -11    1    3    3    0    0 -0.40639303078E+01  0.44203074134E+01  0.83515314694E+01  0.10286045174E+02  0.51100000000E-03 0.  1.
        -12    1    3    3    0    0 -0.42014345004E+01  0.51266152799E+00  0.95863103458E+01  0.10479132586E+02  0.00000000000E+00 0.  1.
</event>
<event>
 7    1  0.2425980E-008  0.4614232E+02  0.7816164E-02  0.1320468E+00
        -11   -1    0    0    0    0  0.00000000000E+00  0.00000000000E+00  0.45593999997E+02  0.45594000000E+02  0.51100000000E-03 0. -1.
         11   -1    0    0    0    0 -0.00000000000E+00 -0.00000000000E+00 -0.45593999997E+02  0.45594000000E+02  0.51100000000E-03 0.  1.
    9900012    2    1    2    0    0  0.32736730749E+02 -0.30157635966E+02 -0.69236540657E+01  0.46142317268E+02  0.99999955033E+01 0.  0.
         12    1    1    2    0    0 -0.32736730749E+02  0.30157635966E+02  0.69236540657E+01  0.45045682732E+02  0.00000000000E+00 0. -1.
         11    1    3    3    0    0  0.63486517390E+01 -0.10812776557E+02 -0.34641010543E+01  0.13008516908E+02  0.51100000000E-03 0. -1.
        -11    1    3    3    0    0  0.16506564086E+02 -0.12097268768E+02 -0.40638123361E+01  0.20864446806E+02  0.51100000000E-03 0.  1.
         12    1    3    3    0    0  0.98815149240E+01 -0.72475906408E+01  0.60425932473E+00  0.12269353554E+02  0.00000000000E+00 0. -1.
</event>
<event>
 7    1  0.2425980E-008  0.4614232E+02  0.7816164E-02  0.1320468E+00
        -11   -1    0    0    0    0  0.00000000000E+00  0.00000000000E+00  0.45593999997E+02  0.45594000000E+02  0.51100000000E-03 0.  1.
         11   -1    0    0    0    0 -0.00000000000E+00 -0.00000000000E+00 -0.45593999997E+02  0.45594000000E+02  0.51100000000E-03 0. -1.
    9900012    2    1    2    0    0  0.39410834275E+02 -0.21271861850E+02  0.48381325004E+01  0.46142317733E+02  0.99999997457E+01 0.  0.
         12    1    1    2    0    0 -0.39410834275E+02  0.21271861850E+02 -0.48381325004E+01  0.45045682267E+02  0.00000000000E+00 0. -1.
         11    1    3    3    0    0  0.82257677537E+01 -0.50942014284E+01 -0.16861960936E+01  0.98212728736E+01  0.51100000000E-03 0. -1.
        -11    1    3    3    0    0  0.27411951689E+02 -0.14564209247E+02  0.35294803932E+01  0.31240814946E+02  0.51100000000E-03 0.  1.
        -12    1    3    3    0    0  0.37731148320E+01 -0.16134511742E+01  0.29948482008E+01  0.50802299134E+01  0.00000000000E+00 0.  1.
</event>
<event>
 7    1  0.2425980E-008  0.4614233E+02  0.7816164E-02  0.1320468E+00
        -11   -1    0    0    0    0  0.00000000000E+00  0.00000000000E+00  0.45593999997E+02  0.45594000000E+02  0.51100000000E-03 0.  1.
         11   -1    0    0    0    0 -0.00000000000E+00 -0.00000000000E+00 -0.45593999997E+02  0.45594000000E+02  0.51100000000E-03 0. -1.
    9900012    2    1    2    0    0  0.26373843529E+02 -0.38617165955E+01  0.36312807596E+02  0.46142329031E+02  0.10000102764E+02 0.  0.
         12    1    1    2    0    0 -0.26373843529E+02  0.38617165955E+01 -0.36312807596E+02  0.45045670969E+02  0.00000000000E+00 0. -1.
         11    1    3    3    0    0  0.67762734562E+01 -0.12376598787E+00  0.75946268825E+01  0.10178976261E+02  0.51100000000E-03 0. -1.
        -11    1    3    3    0    0  0.10860655468E+02 -0.32264524053E-01  0.90956997963E+01  0.14166390974E+02  0.51100000000E-03 0.  1.
         12    1    3    3    0    0  0.87369146052E+01 -0.37056860836E+01  0.19622480917E+02  0.21796961795E+02  0.00000000000E+00 0. -1.
</event>
<event>
 7    1  0.2425980E-008  0.4614232E+02  0.7816164E-02  0.1320468E+00
        -11   -1    0    0    0    0  0.00000000000E+00  0.00000000000E+00  0.45593999997E+02  0.45594000000E+02  0.51100000000E-03 0. -1.
         11   -1    0    0    0    0 -0.00000000000E+00 -0.00000000000E+00 -0.45593999997E+02  0.45594000000E+02  0.51100000000E-03 0.  1.
    9900012    2    1    2    0    0  0.59055840868E+01  0.44460724561E+02  0.41810196746E+01  0.46142324543E+02  0.10000061839E+02 0.  0.
         12    1    1    2    0    0 -0.59055840868E+01 -0.44460724561E+02 -0.41810196746E+01  0.45045675457E+02  0.00000000000E+00 0. -1.
         11    1    3    3    0    0  0.20768314446E+01  0.16892654468E+02  0.41797845817E+01  0.17525569983E+02  0.51100000000E-03 0.  1.
        -11    1    3    3    0    0 -0.75689615377E+00  0.56362448477E+00  0.76539891625E+00  0.12150720594E+01  0.51100000000E-03 0. -1.
         12    1    3    3    0    0  0.45856487960E+01  0.27004445608E+02 -0.76416382336E+00  0.27401682500E+02  0.00000000000E+00 0. -1.
</event>
<event>
 7    1  0.2425980E-008  0.4614232E+02  0.7816164E-02  0.1320468E+00
        -11   -1    0    0    0    0  0.00000000000E+00  0.00000000000E+00  0.45593999997E+02  0.45594000000E+02  0.51100000000E-03 0. -1.
         11   -1    0    0    0    0 -0.00000000000E+00 -0.00000000000E+00 -0.45593999997E+02  0.45594000000E+02  0.51100000000E-03 0.  1.
    9900012    2    1    2    0    0 -0.21248633950E+02 -0.21970764020E+02 -0.33089190690E+02  0.46142318110E+02  0.10000003180E+02 0.  0.
         12    1    1    2    0    0  0.21248633950E+02  0.21970764020E+02  0.33089190690E+02  0.45045681890E+02  0.00000000000E+00 0. -1.
         11    1    3    3    0    0 -0.61866329011E+01 -0.48215976126E+01 -0.49014077941E+01  0.92491096229E+01  0.51100000000E-03 0. -1.
        -11    1    3    3    0    0 -0.15401187242E+02 -0.14799879461E+02 -0.24455308638E+02  0.32469911015E+02  0.51100000000E-03 0.  1.
         12    1    3    3    0    0  0.33918619232E+00 -0.23492869472E+01 -0.37324742586E+01  0.44232974718E+01  0.00000000000E+00 0. -1.
</event>
<event>
 7    1  0.2425980E-008  0.4614232E+02  0.7816164E-02  0.1320468E+00
        -11   -1    0    0    0    0  0.00000000000E+00  0.00000000000E+00  0.45593999997E+02  0.45594000000E+02  0.51100000000E-03 0.  1.
         11   -1    0    0    0    0 -0.00000000000E+00 -0.00000000000E+00 -0.45593999997E+02  0.45594000000E+02  0.51100000000E-03 0. -1.
    9900012    2    1    2    0    0 -0.59243582136E+01 -0.23123752529E+02  0.38200883388E+02  0.46142318266E+02  0.10000004604E+02 0.  0.
         12    1    1    2    0    0  0.59243582136E+01  0.23123752529E+02 -0.38200883388E+02  0.45045681734E+02  0.00000000000E+00 0. -1.
         11    1    3    3    0    0 -0.21562757199E+01 -0.39242238565E+01  0.42323838792E+01  0.61613416898E+01  0.51100000000E-03 0.  1.
        -11    1    3    3    0    0  0.79282654221E+00  0.34050274423E+00  0.62423611716E+00  0.10649821764E+01  0.51100000000E-03 0. -1.
         12    1    3    3    0    0 -0.45609090359E+01 -0.19540031417E+02  0.33344263392E+02  0.38915994400E+02  0.00000000000E+00 0. -1.
</event>
<event>
 7    1  0.2425980E-008  0.4614232E+02  0.7816164E-02  0.1320468E+00
        -11   -1    0    0    0    0  0.00000000000E+00  0.00000000000E+00  0.45593999997E+02  0.45594000000E+02  0.51100000000E-03 0. -1.
         11   -1    0    0    0    0 -0.00000000000E+00 -0.00000000000E+00 -0.45593999997E+02  0.45594000000E+02  0.51100000000E-03 0.  1.
    9900012    2    1    2    0    0 -0.15198303779E+02  0.28849865751E+01 -0.42306050616E+02  0.46142317587E+02  0.99999984139E+01 0.  0.
         12    1    1    2    0    0  0.15198303779E+02 -0.28849865751E+01  0.42306050616E+02  0.45045682413E+02  0.00000000000E+00 0. -1.
         11    1    3    3    0    0 -0.39598412869E+01  0.22871463524E+01 -0.38410437447E+01  0.59720179810E+01  0.51100000000E-03 0. -1.
        -11    1    3    3    0    0 -0.10313590073E+02  0.13263863371E+01 -0.34218495932E+02  0.35763597484E+02  0.51100000000E-03 0.  1.
         12    1    3    3    0    0 -0.92487241921E+00 -0.72854611446E+00 -0.42465109394E+01  0.44067021219E+01  0.00000000000E+00 0. -1.
</event>
<event>
 7    1  0.2425980E-008  0.4614232E+02  0.7816164E-02  0.1320468E+00
        -11   -1    0    0    0    0  0.00000000000E+00  0.00000000000E+00  0.45593999997E+02  0.45594000000E+02  0.51100000000E-03 0.  1.
         11   -1    0    0    0    0 -0.00000000000E+00 -0.00000000000E+00 -0.45593999997E+02  0.45594000000E+02  0.51100000000E-03 0. -1.
    9900012    2    1    2    0    0  0.25939156619E+02  0.15963618212E+02  0.33187897867E+02  0.46142317439E+02  0.99999970638E+01 0.  0.
         12    1    1    2    0    0 -0.25939156619E+02 -0.15963618212E+02 -0.33187897867E+02  0.45045682561E+02  0.00000000000E+00 0. -1.
         11    1    3    3    0    0  0.41220214462E+01  0.27685779111E+01  0.14227754193E+01  0.51653048901E+01  0.51100000000E-03 0. -1.
        -11    1    3    3    0    0  0.17214756928E+02  0.87880489294E+01  0.21652753334E+02  0.29024461878E+02  0.51100000000E-03 0.  1.
        -12    1    3    3    0    0  0.46023782447E+01  0.44069913711E+01  0.10112369114E+02  0.11952550671E+02  0.00000000000E+00 0.  1.
</event>
<event>
 7    1  0.2425980E-008  0.4614232E+02  0.7816164E-02  0.1320468E+00
        -11   -1    0    0    0    0  0.00000000000E+00  0.00000000000E+00  0.45593999997E+02  0.45594000000E+02  0.51100000000E-03 0. -1.
         11   -1    0    0    0    0 -0.00000000000E+00 -0.00000000000E+00 -0.45593999997E+02  0.45594000000E+02  0.51100000000E-03 0.  1.
    9900012    2    1    2    0    0 -0.22113068902E+02  0.16429012198E+02 -0.35640050970E+02  0.46142317729E+02  0.99999997114E+01 0.  0.
         12    1    1    2    0    0  0.22113068902E+02 -0.16429012198E+02  0.35640050970E+02  0.45045682271E+02  0.00000000000E+00 0. -1.
         11    1    3    3    0    0 -0.53365899247E+01  0.83423184582E+01 -0.16883623097E+02  0.19573711922E+02  0.51100000000E-03 0. -1.
        -11    1    3    3    0    0 -0.82752571283E+01  0.49332516193E+01 -0.81881236578E+01  0.12643663289E+02  0.51100000000E-03 0.  1.
        -12    1    3    3    0    0 -0.85012218488E+01  0.31534421208E+01 -0.10568304216E+02  0.13924942518E+02  0.00000000000E+00 0.  1.
</event>
<event>
 7    1  0.2425980E-008  0.4614232E+02  0.7816164E-02  0.1320468E+00
        -11   -1    0    0    0    0  0.00000000000E+00  0.00000000000E+00  0.45593999997E+02  0.45594000000E+02  0.51100000000E-03 0.  1.
         11   -1    0    0    0    0 -0.00000000000E+00 -0.00000000000E+00 -0.45593999997E+02  0.45594000000E+02  0.51100000000E-03 0. -1.
    9900012    2    1    2    0    0  0.26496521247E+02  0.22403562831E+02  0.28725044356E+02  0.46142318309E+02  0.10000004996E+02 0.  0.
         12    1    1    2    0    0 -0.26496521247E+02 -0.22403562831E+02 -0.28725044356E+02  0.45045681691E+02  0.00000000000E+00 0. -1.
         11    1    3    3    0    0  0.32580152179E+01  0.30787007822E+01  0.53326533522E+01  0.69663658892E+01  0.51100000000E-03 0. -1.
        -11    1    3    3    0    0  0.13090874820E+02  0.53540522054E+01  0.11128937286E+02  0.17996947629E+02  0.51100000000E-03 0.  1.
        -12    1    3    3    0    0  0.10147631209E+02  0.13970809844E+02  0.12263453718E+02  0.21179004791E+02  0.00000000000E+00 0.  1.
</event>
<event>
 7    1  0.2425980E-008  0.4614232E+02  0.7816164E-02  0.1320468E+00
        -11   -1    0    0    0    0  0.00000000000E+00  0.00000000000E+00  0.45593999997E+02  0.45594000000E+02  0.51100000000E-03 0.  1.
         11   -1    0    0    0    0 -0.00000000000E+00 -0.00000000000E+00 -0.45593999997E+02  0.45594000000E+02  0.51100000000E-03 0. -1.
    9900012    2    1    2    0    0  0.29388116668E+02  0.21638210284E+02  0.26405302058E+02  0.46142317384E+02  0.99999965567E+01 0.  0.
         12    1    1    2    0    0 -0.29388116668E+02 -0.21638210284E+02 -0.26405302058E+02  0.45045682616E+02  0.00000000000E+00 0. -1.
         11    1    3    3    0    0  0.34936685833E+01  0.17423407057E+01  0.28087986409E+01  0.48094512547E+01  0.51100000000E-03 0. -1.
        -11    1    3    3    0    0  0.22132807035E+02  0.13005735018E+02  0.15179318494E+02  0.29823178918E+02  0.51100000000E-03 0.  1.
         12    1    3    3    0    0  0.37616410501E+01  0.68901345603E+01  0.84171849232E+01  0.11509687210E+02  0.00000000000E+00 0. -1.
</event>
<event>
 7    1  0.2425980E-008  0.4614232E+02  0.7816164E-02  0.1320468E+00
        -11   -1    0    0    0    0  0.00000000000E+00  0.00000000000E+00  0.45593999997E+02  0.45594000000E+02  0.51100000000E-03 0.  1.
         11   -1    0    0    0    0 -0.00000000000E+00 -0.00000000000E+00 -0.45593999997E+02  0.45594000000E+02  0.51100000000E-03 0. -1.
    9900012    2    1    2    0    0  0.13402166678E+02 -0.21450155401E+02  0.37274470472E+02  0.46142318882E+02  0.10000010222E+02 0.  0.
         12    1    1    2    0    0 -0.13402166678E+02  0.21450155401E+02 -0.37274470472E+02  0.45045681118E+02  0.00000000000E+00 0. -1.
         11    1    3    3    0    0  0.84543983821E+01 -0.11699035214E+02  0.19735512314E+02  0.24450658959E+02  0.51100000000E-03 0. -1.
        -11    1    3    3    0    0  0.26650114425E+01 -0.10056949633E+02  0.13522741883E+02  0.17061918714E+02  0.51100000000E-03 0.  1.
         12    1    3    3    0    0  0.22827568529E+01  0.30582944583E+00  0.40162162746E+01  0.46297412092E+01  0.00000000000E+00 0. -1.
</event>
<event>
 7    1  0.2425980E-008  0.4614232E+02  0.7816164E-02  0.1320468E+00
        -11   -1    0    0    0    0  0.00000000000E+00  0.00000000000E+00  0.45593999997E+02  0.45594000000E+02  0.51100000000E-03 0.  1.
         11   -1    0    0    0    0 -0.00000000000E+00 -0.00000000000E+00 -0.45593999997E+02  0.45594000000E+02  0.51100000000E-03 0. -1.
    9900012    2    1    2    0    0  0.94678942319E+01 -0.25560253335E+02  0.35862876720E+02  0.46142317650E+02  0.99999989913E+01 0.  0.
         12    1    1    2    0    0 -0.94678942319E+01  0.25560253335E+02 -0.35862876720E+02  0.45045682350E+02  0.00000000000E+00 0. -1.
         11    1    3    3    0    0  0.93507443099E+01 -0.16322631714E+02  0.22629692312E+02  0.29427329128E+02  0.51100000000E-03 0. -1.
        -11    1    3    3    0    0  0.21227966784E+01 -0.59725323254E+01  0.89594566354E+01  0.10974938341E+02  0.51100000000E-03 0.  1.
         12    1    3    3    0    0 -0.20056467564E+01 -0.32650892953E+01  0.42737277727E+01  0.57400501821E+01  0.00000000000E+00 0. -1.
</event>
<event>
 7    1  0.2425980E-008  0.4614232E+02  0.7816164E-02  0.1320468E+00
        -11   -1    0    0    0    0  0.00000000000E+00  0.00000000000E+00  0.45593999997E+02  0.45594000000E+02  0.51100000000E-03 0.  1.
         11   -1    0    0    0    0 -0.00000000000E+00 -0.00000000000E+00 -0.45593999997E+02  0.45594000000E+02  0.51100000000E-03 0. -1.
    9900012    2    1    2    0    0 -0.41102590127E+02 -0.48089683532E+01  0.17792257189E+02  0.46142317547E+02  0.99999980484E+01 0.  0.
         12    1    1    2    0    0  0.41102590127E+02  0.48089683532E+01 -0.17792257189E+02  0.45045682453E+02  0.00000000000E+00 0. -1.
         11    1    3    3    0    0 -0.12346151072E+02 -0.54801726505E+00  0.13995347831E+01  0.12437301439E+02  0.51100000000E-03 0. -1.
        -11    1    3    3    0    0 -0.56656761029E+01  0.63839440582E+00  0.19175418092E+01  0.60153470367E+01  0.51100000000E-03 0.  1.
         12    1    3    3    0    0 -0.23090762952E+02 -0.48993454940E+01  0.14475180596E+02  0.27689669071E+02  0.00000000000E+00 0. -1.
</event>
<event>
 7    1  0.2425980E-008  0.4614232E+02  0.7816164E-02  0.1320468E+00
        -11   -1    0    0    0    0  0.00000000000E+00  0.00000000000E+00  0.45593999997E+02  0.45594000000E+02  0.51100000000E-03 0.  1.
         11   -1    0    0    0    0 -0.00000000000E+00 -0.00000000000E+00 -0.45593999997E+02  0.45594000000E+02  0.51100000000E-03 0. -1.
    9900012    2    1    2    0    0 -0.62868997827E+01 -0.11830244947E+02  0.43007367519E+02  0.46142318017E+02  0.10000002338E+02 0.  0.
         12    1    1    2    0    0  0.62868997827E+01  0.11830244947E+02 -0.43007367519E+02  0.45045681983E+02  0.00000000000E+00 0. -1.
         11    1    3    3    0    0 -0.43215643726E+01 -0.18867804626E+01  0.21346571053E+02  0.21861197476E+02  0.51100000000E-03 0. -1.
        -11    1    3    3    0    0 -0.25938366229E+01 -0.96223055472E+01  0.18207557656E+02  0.20756490757E+02  0.51100000000E-03 0.  1.
         12    1    3    3    0    0  0.62850121282E+00 -0.32115893678E+00  0.34532388099E+01  0.35246297842E+01  0.00000000000E+00 0. -1.
</event>
<event>
 7    1  0.2425980E-008  0.4614232E+02  0.7816164E-02  0.1320468E+00
        -11   -1    0    0    0    0  0.00000000000E+00  0.00000000000E+00  0.45593999997E+02  0.45594000000E+02  0.51100000000E-03 0.  1.
         11   -1    0    0    0    0 -0.00000000000E+00 -0.00000000000E+00 -0.45593999997E+02  0.45594000000E+02  0.51100000000E-03 0. -1.
    9900012    2    1    2    0    0  0.44707831046E+01  0.43370729043E+02  0.11318366845E+02  0.46142317994E+02  0.10000002128E+02 0.  0.
         12    1    1    2    0    0 -0.44707831046E+01 -0.43370729043E+02 -0.11318366845E+02  0.45045682006E+02  0.00000000000E+00 0. -1.
         11    1    3    3    0    0 -0.27978963554E+00  0.18055146568E+01  0.26559683409E+00  0.18462684950E+01  0.51100000000E-03 0. -1.
        -11    1    3    3    0    0  0.36140700230E+01  0.40847998220E+02  0.92335127172E+01  0.42034250535E+02  0.51100000000E-03 0.  1.
         12    1    3    3    0    0  0.11365027171E+01  0.71721616682E+00  0.18192572935E+01  0.22617989645E+01  0.00000000000E+00 0. -1.
</event>
<event>
 7    1  0.2425980E-008  0.4614232E+02  0.7816164E-02  0.1320468E+00
        -11   -1    0    0    0    0  0.00000000000E+00  0.00000000000E+00  0.45593999997E+02  0.45594000000E+02  0.51100000000E-03 0. -1.
         11   -1    0    0    0    0 -0.00000000000E+00 -0.00000000000E+00 -0.45593999997E+02  0.45594000000E+02  0.51100000000E-03 0.  1.
    9900012    2    1    2    0    0  0.17849535993E+02 -0.39614380150E+02 -0.11883116242E+02  0.46142317615E+02  0.99999986718E+01 0.  0.
         12    1    1    2    0    0 -0.17849535993E+02  0.39614380150E+02  0.11883116242E+02  0.45045682385E+02  0.00000000000E+00 0. -1.
         11    1    3    3    0    0  0.22797270120E+00 -0.87670488786E+00  0.99182519549E+00  0.13432425293E+01  0.51100000000E-03 0. -1.
        -11    1    3    3    0    0  0.50994933936E+01 -0.16536039123E+02 -0.68224485389E+01  0.18600839419E+02  0.51100000000E-03 0.  1.
        -12    1    3    3    0    0  0.12522069898E+02 -0.22201636139E+02 -0.60524928989E+01  0.26198235667E+02  0.00000000000E+00 0.  1.
</event>
<event>
 7    1  0.2425980E-008  0.4614232E+02  0.7816164E-02  0.1320468E+00
        -11   -1    0    0    0    0  0.00000000000E+00  0.00000000000E+00  0.45593999997E+02  0.45594000000E+02  0.51100000000E-03 0.  1.
         11   -1    0    0    0    0 -0.00000000000E+00 -0.00000000000E+00 -0.45593999997E+02  0.45594000000E+02  0.51100000000E-03 0. -1.
    9900012    2    1    2    0    0 -0.15249745723E+02 -0.19101574126E+02  0.37837660815E+02  0.46142318136E+02  0.10000003416E+02 0.  0.
         12    1    1    2    0    0  0.15249745723E+02  0.19101574126E+02 -0.37837660815E+02  0.45045681864E+02  0.00000000000E+00 0. -1.
         11    1    3    3    0    0 -0.54392897572E+01 -0.51466731368E+01  0.61961221722E+01  0.97193645715E+01  0.51100000000E-03 0. -1.
        -11    1    3    3    0    0 -0.79560947976E+01 -0.13913614395E+02  0.26655808838E+02  0.31103380122E+02  0.51100000000E-03 0.  1.
        -12    1    3    3    0    0 -0.18543611678E+01 -0.41286594563E-01  0.49857298040E+01  0.53195734418E+01  0.00000000000E+00 0.  1.
</event>
<event>
 7    1  0.2425980E-008  0.4614232E+02  0.7816164E-02  0.1320468E+00
        -11   -1    0    0    0    0  0.00000000000E+00  0.00000000000E+00  0.45593999997E+02  0.45594000000E+02  0.51100000000E-03 0. -1.
         11   -1    0    0    0    0 -0.00000000000E+00 -0.00000000000E+00 -0.45593999997E+02  0.45594000000E+02  0.51100000000E-03 0.  1.
    9900012    2    1    2    0    0  0.75158414229E+01 -0.36628295498E+02 -0.25119585103E+02  0.46142318085E+02  0.10000002954E+02 0.  0.
         12    1    1    2    0    0 -0.75158414229E+01  0.36628295498E+02  0.25119585103E+02  0.45045681915E+02  0.00000000000E+00 0. -1.
         11    1    3    3    0    0  0.19772370672E+00 -0.76416919457E+01 -0.67199273497E+01  0.10178014261E+02  0.51100000000E-03 0. -1.
        -11    1    3    3    0    0 -0.67684775573E+00 -0.52354387736E+01 -0.79590579775E+00  0.53386710272E+01  0.51100000000E-03 0.  1.
        -12    1    3    3    0    0  0.79949654719E+01 -0.23751164779E+02 -0.17603751956E+02  0.30625632797E+02  0.00000000000E+00 0.  1.
</event>
<event>
 7    1  0.2425980E-008  0.4614232E+02  0.7816164E-02  0.1320468E+00
        -11   -1    0    0    0    0  0.00000000000E+00  0.00000000000E+00  0.45593999997E+02  0.45594000000E+02  0.51100000000E-03 0.  1.
         11   -1    0    0    0    0 -0.00000000000E+00 -0.00000000000E+00 -0.45593999997E+02  0.45594000000E+02  0.51100000000E-03 0. -1.
    9900012    2    1    2    0    0 -0.42573484767E+02  0.15263268313E+01  0.14638374000E+02  0.46142320161E+02  0.10000021889E+02 0.  0.
         12    1    1    2    0    0  0.42573484767E+02 -0.15263268313E+01 -0.14638374000E+02  0.45045679839E+02  0.00000000000E+00 0. -1.
         11    1    3    3    0    0 -0.20774764788E+02 -0.23642332840E+00  0.29441532347E+01  0.20983679052E+02  0.51100000000E-03 0. -1.
        -11    1    3    3    0    0 -0.19757903442E+02  0.57465140489E+00  0.94822303950E+01  0.21922994006E+02  0.51100000000E-03 0.  1.
         12    1    3    3    0    0 -0.20408165359E+01  0.11880987548E+01  0.22119903699E+01  0.32356471039E+01  0.00000000000E+00 0. -1.
</event>
<event>
 7    1  0.2425980E-008  0.4614232E+02  0.7816164E-02  0.1320468E+00
        -11   -1    0    0    0    0  0.00000000000E+00  0.00000000000E+00  0.45593999997E+02  0.45594000000E+02  0.51100000000E-03 0. -1.
         11   -1    0    0    0    0 -0.00000000000E+00 -0.00000000000E+00 -0.45593999997E+02  0.45594000000E+02  0.51100000000E-03 0.  1.
    9900012    2    1    2    0    0 -0.29577386602E+02  0.63216940390E+01  0.33381549227E+02  0.46142318270E+02  0.10000004642E+02 0.  0.
         12    1    1    2    0    0  0.29577386602E+02 -0.63216940390E+01 -0.33381549227E+02  0.45045681730E+02  0.00000000000E+00 0. -1.
         11    1    3    3    0    0 -0.13750428638E+02 -0.17788265807E+01  0.15870712528E+02  0.21074108004E+02  0.51100000000E-03 0. -1.
        -11    1    3    3    0    0 -0.53552029082E+00  0.87061375712E+00  0.10812523678E+01  0.14879036393E+01  0.51100000000E-03 0.  1.
         12    1    3    3    0    0 -0.15291437673E+02  0.72299068626E+01  0.16429584331E+02  0.23580306627E+02  0.00000000000E+00 0. -1.
</event>
<event>
 7    1  0.2425980E-008  0.4614232E+02  0.7816164E-02  0.1320468E+00
        -11   -1    0    0    0    0  0.00000000000E+00  0.00000000000E+00  0.45593999997E+02  0.45594000000E+02  0.51100000000E-03 0.  1.
         11   -1    0    0    0    0 -0.00000000000E+00 -0.00000000000E+00 -0.45593999997E+02  0.45594000000E+02  0.51100000000E-03 0. -1.
    9900012    2    1    2    0    0  0.31422565668E+02  0.30711584321E+02  0.99264543462E+01  0.46142317181E+02  0.99999947121E+01 0.  0.
         12    1    1    2    0    0 -0.31422565668E+02 -0.30711584321E+02 -0.99264543462E+01  0.45045682819E+02  0.00000000000E+00 0. -1.
         11    1    3    3    0    0  0.62856125679E+01  0.39980607768E+01  0.16520882537E+01  0.76303873550E+01  0.51100000000E-03 0. -1.
        -11    1    3    3    0    0  0.19789280198E+02  0.15851822010E+02  0.39787381022E+01  0.25665662449E+02  0.51100000000E-03 0.  1.
        -12    1    3    3    0    0  0.53476729025E+01  0.10861701534E+02  0.42956279904E+01  0.12846267377E+02  0.00000000000E+00 0.  1.
</event>
<event>
 7    1  0.2425980E-008  0.4614232E+02  0.7816164E-02  0.1320468E+00
        -11   -1    0    0    0    0  0.00000000000E+00  0.00000000000E+00  0.45593999997E+02  0.45594000000E+02  0.51100000000E-03 0.  1.
         11   -1    0    0    0    0 -0.00000000000E+00 -0.00000000000E+00 -0.45593999997E+02  0.45594000000E+02  0.51100000000E-03 0. -1.
    9900012    2    1    2    0    0 -0.35881362982E+02  0.25135077700E+01  0.27116849836E+02  0.46142317900E+02  0.10000001271E+02 0.  0.
         12    1    1    2    0    0  0.35881362982E+02 -0.25135077700E+01 -0.27116849836E+02  0.45045682100E+02  0.00000000000E+00 0. -1.
         11    1    3    3    0    0 -0.80633236854E+01  0.55034672752E+00  0.71189973336E+01  0.10770338605E+02  0.51100000000E-03 0. -1.
        -11    1    3    3    0    0 -0.11205201893E+02 -0.33061815070E+01  0.68762467328E+01  0.13556185120E+02  0.51100000000E-03 0.  1.
         12    1    3    3    0    0 -0.16612837404E+02  0.52693425494E+01  0.13121605770E+02  0.21815794175E+02  0.00000000000E+00 0. -1.
</event>
<event>
 7    1  0.2425980E-008  0.4614232E+02  0.7816164E-02  0.1320468E+00
        -11   -1    0    0    0    0  0.00000000000E+00  0.00000000000E+00  0.45593999997E+02  0.45594000000E+02  0.51100000000E-03 0.  1.
         11   -1    0    0    0    0 -0.00000000000E+00 -0.00000000000E+00 -0.45593999997E+02  0.45594000000E+02  0.51100000000E-03 0. -1.
    9900012    2    1    2    0    0 -0.36633828328E+02  0.17624355508E+02  0.19402527789E+02  0.46142319079E+02  0.10000012018E+02 0.  0.
         12    1    1    2    0    0  0.36633828328E+02 -0.17624355508E+02 -0.19402527789E+02  0.45045680921E+02  0.00000000000E+00 0. -1.
         11    1    3    3    0    0 -0.61869172527E+01  0.25400077823E+01  0.17319315723E+01  0.69086302447E+01  0.51100000000E-03 0. -1.
        -11    1    3    3    0    0 -0.22635610589E+02  0.14200788687E+02  0.16162733618E+02  0.31229268713E+02  0.51100000000E-03 0.  1.
         12    1    3    3    0    0 -0.78113004859E+01  0.88355903820E+00  0.15078625983E+01  0.80044201209E+01  0.00000000000E+00 0. -1.
</event>
<event>
 7    1  0.2425980E-008  0.4614232E+02  0.7816164E-02  0.1320468E+00
        -11   -1    0    0    0    0  0.00000000000E+00  0.00000000000E+00  0.45593999997E+02  0.45594000000E+02  0.51100000000E-03 0.  1.
         11   -1    0    0    0    0 -0.00000000000E+00 -0.00000000000E+00 -0.45593999997E+02  0.45594000000E+02  0.51100000000E-03 0. -1.
    9900012    2    1    2    0    0  0.16501886273E+02  0.41329823387E+02 -0.69747398203E+01  0.46142317106E+02  0.99999940296E+01 0.  0.
         12    1    1    2    0    0 -0.16501886273E+02 -0.41329823387E+02  0.69747398203E+01  0.45045682894E+02  0.00000000000E+00 0. -1.
         11    1    3    3    0    0  0.66232373101E+01  0.20154134816E+02 -0.17051925695E+01  0.21282953381E+02  0.51100000000E-03 0. -1.
        -11    1    3    3    0    0  0.36821214320E+01  0.13263274841E+02 -0.60127164075E+00  0.13778026187E+02  0.51100000000E-03 0.  1.
         12    1    3    3    0    0  0.61965275312E+01  0.79124137297E+01 -0.46682756100E+01  0.11081337539E+02  0.00000000000E+00 0. -1.
</event>
<event>
 7    1  0.2425980E-008  0.4614232E+02  0.7816164E-02  0.1320468E+00
        -11   -1    0    0    0    0  0.00000000000E+00  0.00000000000E+00  0.45593999997E+02  0.45594000000E+02  0.51100000000E-03 0.  1.
         11   -1    0    0    0    0 -0.00000000000E+00 -0.00000000000E+00 -0.45593999997E+02  0.45594000000E+02  0.51100000000E-03 0. -1.
    9900012    2    1    2    0    0 -0.43215996156E+02  0.11667499122E+02 -0.50359290963E+01  0.46142318282E+02  0.10000004751E+02 0.  0.
         12    1    1    2    0    0  0.43215996156E+02 -0.11667499122E+02  0.50359290963E+01  0.45045681718E+02  0.00000000000E+00 0. -1.
         11    1    3    3    0    0 -0.36420247650E+02  0.12916599617E+02 -0.58861565368E+01  0.39088615013E+02  0.51100000000E-03 0.  1.
        -11    1    3    3    0    0 -0.21340798745E+01 -0.93523749677E+00  0.29375970630E+00  0.23484593061E+01  0.51100000000E-03 0. -1.
        -12    1    3    3    0    0 -0.46616686320E+01 -0.31386299827E+00  0.55646773414E+00  0.47052439634E+01  0.00000000000E+00 0.  1.
</event>
<event>
 7    1  0.2425980E-008  0.4614231E+02  0.7816164E-02  0.1320468E+00
        -11   -1    0    0    0    0  0.00000000000E+00  0.00000000000E+00  0.45593999997E+02  0.45594000000E+02  0.51100000000E-03 0.  1.
         11   -1    0    0    0    0 -0.00000000000E+00 -0.00000000000E+00 -0.45593999997E+02  0.45594000000E+02  0.51100000000E-03 0. -1.
    9900012    2    1    2    0    0 -0.47696631182E+01 -0.23394332045E+02  0.38197774698E+02  0.46142307087E+02  0.99999026644E+01 0.  0.
         12    1    1    2    0    0  0.47696631182E+01  0.23394332045E+02 -0.38197774698E+02  0.45045692913E+02  0.00000000000E+00 0. -1.
         11    1    3    3    0    0 -0.50487477340E+01 -0.82223864868E+01  0.10909489695E+02  0.14564149782E+02  0.51100000000E-03 0. -1.
        -11    1    3    3    0    0  0.24204276260E+01 -0.60229487419E+01  0.11491104011E+02  0.13197721512E+02  0.51100000000E-03 0.  1.
        -12    1    3    3    0    0 -0.21413430101E+01 -0.91489968167E+01  0.15797180993E+02  0.18380435793E+02  0.00000000000E+00 0.  1.
</event>
<event>
 7    1  0.2425980E-008  0.4614232E+02  0.7816164E-02  0.1320468E+00
        -11   -1    0    0    0    0  0.00000000000E+00  0.00000000000E+00  0.45593999997E+02  0.45594000000E+02  0.51100000000E-03 0. -1.
         11   -1    0    0    0    0 -0.00000000000E+00 -0.00000000000E+00 -0.45593999997E+02  0.45594000000E+02  0.51100000000E-03 0.  1.
    9900012    2    1    2    0    0 -0.41662705789E+02  0.85091088379E+01  0.14863630732E+02  0.46142317571E+02  0.99999982709E+01 0.  0.
         12    1    1    2    0    0  0.41662705789E+02 -0.85091088379E+01 -0.14863630732E+02  0.45045682429E+02  0.00000000000E+00 0. -1.
         11    1    3    3    0    0 -0.14507992845E+02  0.48995069172E+01  0.67972990130E+01  0.16753814448E+02  0.51100000000E-03 0. -1.
        -11    1    3    3    0    0 -0.17601394827E+02  0.13795566965E+00  0.24387578237E+01  0.17770077985E+02  0.51100000000E-03 0.  1.
        -12    1    3    3    0    0 -0.95533181178E+01  0.34716462510E+01  0.56275738952E+01  0.11618425138E+02  0.00000000000E+00 0.  1.
</event>
<event>
 7    1  0.2425980E-008  0.4614232E+02  0.7816164E-02  0.1320468E+00
        -11   -1    0    0    0    0  0.00000000000E+00  0.00000000000E+00  0.45593999997E+02  0.45594000000E+02  0.51100000000E-03 0.  1.
         11   -1    0    0    0    0 -0.00000000000E+00 -0.00000000000E+00 -0.45593999997E+02  0.45594000000E+02  0.51100000000E-03 0. -1.
    9900012    2    1    2    0    0 -0.15786482623E+02 -0.36566218520E+02 -0.21043101074E+02  0.46142317929E+02  0.10000001528E+02 0.  0.
         12    1    1    2    0    0  0.15786482623E+02  0.36566218520E+02  0.21043101074E+02  0.45045682071E+02  0.00000000000E+00 0. -1.
         11    1    3    3    0    0 -0.19444885750E+01 -0.13638792918E+01 -0.31772992303E+01  0.39669173423E+01  0.51100000000E-03 0.  1.
        -11    1    3    3    0    0 -0.13303377277E+01 -0.10861046378E+01 -0.82951616778E-01  0.17193902948E+01  0.51100000000E-03 0. -1.
        -12    1    3    3    0    0 -0.12511656320E+02 -0.34116234591E+02 -0.17782850227E+02  0.40456010291E+02  0.00000000000E+00 0.  1.
</event>
<event>
 7    1  0.2425980E-008  0.4614232E+02  0.7816164E-02  0.1320468E+00
        -11   -1    0    0    0    0  0.00000000000E+00  0.00000000000E+00  0.45593999997E+02  0.45594000000E+02  0.51100000000E-03 0. -1.
         11   -1    0    0    0    0 -0.00000000000E+00 -0.00000000000E+00 -0.45593999997E+02  0.45594000000E+02  0.51100000000E-03 0.  1.
    9900012    2    1    2    0    0  0.11600466947E+02 -0.41374887122E+02 -0.13515226715E+02  0.46142317955E+02  0.10000001768E+02 0.  0.
         12    1    1    2    0    0 -0.11600466947E+02  0.41374887122E+02  0.13515226715E+02  0.45045682045E+02  0.00000000000E+00 0. -1.
         11    1    3    3    0    0  0.22145213628E+01 -0.30045260113E+01 -0.17867108217E+01  0.41380692648E+01  0.51100000000E-03 0. -1.
        -11    1    3    3    0    0  0.31918480092E+01 -0.18976045997E+02 -0.96851866153E+01  0.21542540598E+02  0.51100000000E-03 0.  1.
        -12    1    3    3    0    0  0.61940975754E+01 -0.19394315113E+02 -0.20433292780E+01  0.20461708092E+02  0.00000000000E+00 0.  1.
</event>
<event>
 7    1  0.2425980E-008  0.4614232E+02  0.7816164E-02  0.1320468E+00
        -11   -1    0    0    0    0  0.00000000000E+00  0.00000000000E+00  0.45593999997E+02  0.45594000000E+02  0.51100000000E-03 0.  1.
         11   -1    0    0    0    0 -0.00000000000E+00 -0.00000000000E+00 -0.45593999997E+02  0.45594000000E+02  0.51100000000E-03 0. -1.
    9900012    2    1    2    0    0  0.15722138612E+01  0.17887065935E+02  0.41312159364E+02  0.46142317682E+02  0.99999992742E+01 0.  0.
         12    1    1    2    0    0 -0.15722138612E+01 -0.17887065935E+02 -0.41312159364E+02  0.45045682318E+02  0.00000000000E+00 0. -1.
         11    1    3    3    0    0 -0.32104470976E+01  0.40685721538E+01  0.99892559289E+01  0.11253687583E+02  0.51100000000E-03 0. -1.
        -11    1    3    3    0    0  0.11008212146E+00 -0.24654877599E+00  0.40640529607E-01  0.27304997010E+00  0.51100000000E-03 0.  1.
        -12    1    3    3    0    0  0.46725788374E+01  0.14065042558E+02  0.31282262906E+02  0.34615580129E+02  0.00000000000E+00 0.  1.
</event>
<event>
 7    1  0.2425980E-008  0.4614232E+02  0.7816164E-02  0.1320468E+00
        -11   -1    0    0    0    0  0.00000000000E+00  0.00000000000E+00  0.45593999997E+02  0.45594000000E+02  0.51100000000E-03 0. -1.
         11   -1    0    0    0    0 -0.00000000000E+00 -0.00000000000E+00 -0.45593999997E+02  0.45594000000E+02  0.51100000000E-03 0.  1.
    9900012    2    1    2    0    0 -0.32017698215E+02  0.28710464521E+02  0.13404827210E+02  0.46142321356E+02  0.10000032782E+02 0.  0.
         12    1    1    2    0    0  0.32017698215E+02 -0.28710464521E+02 -0.13404827210E+02  0.45045678644E+02  0.00000000000E+00 0. -1.
         11    1    3    3    0    0 -0.13306148676E+02  0.12117898238E+02  0.95278017791E+01  0.20363596375E+02  0.51100000000E-03 0. -1.
        -11    1    3    3    0    0 -0.16727303781E+02  0.12328433695E+02  0.33064382433E+01  0.21041043302E+02  0.51100000000E-03 0.  1.
         12    1    3    3    0    0 -0.19842457578E+01  0.42641325880E+01  0.57058718770E+00  0.47376816793E+01  0.00000000000E+00 0. -1.
</event>
<event>
 7    1  0.2425980E-008  0.4614232E+02  0.7816164E-02  0.1320468E+00
        -11   -1    0    0    0    0  0.00000000000E+00  0.00000000000E+00  0.45593999997E+02  0.45594000000E+02  0.51100000000E-03 0.  1.
         11   -1    0    0    0    0 -0.00000000000E+00 -0.00000000000E+00 -0.45593999997E+02  0.45594000000E+02  0.51100000000E-03 0. -1.
    9900012    2    1    2    0    0  0.17825357530E+02  0.39566719155E+02  0.12076622708E+02  0.46142318167E+02  0.10000003706E+02 0.  0.
         12    1    1    2    0    0 -0.17825357530E+02 -0.39566719155E+02 -0.12076622708E+02  0.45045681833E+02  0.00000000000E+00 0. -1.
         11    1    3    3    0    0  0.32799784319E+01  0.12235354605E+02  0.77926012944E+01  0.14872350050E+02  0.51100000000E-03 0. -1.
        -11    1    3    3    0    0  0.76020963891E+01  0.13634235861E+02  0.17980428633E+01  0.15713599696E+02  0.51100000000E-03 0.  1.
        -12    1    3    3    0    0  0.69432827085E+01  0.13697128689E+02  0.24859785498E+01  0.15556368421E+02  0.00000000000E+00 0.  1.
</event>
<event>
 7    1  0.2425980E-008  0.4614232E+02  0.7816164E-02  0.1320468E+00
        -11   -1    0    0    0    0  0.00000000000E+00  0.00000000000E+00  0.45593999997E+02  0.45594000000E+02  0.51100000000E-03 0.  1.
         11   -1    0    0    0    0 -0.00000000000E+00 -0.00000000000E+00 -0.45593999997E+02  0.45594000000E+02  0.51100000000E-03 0. -1.
    9900012    2    1    2    0    0  0.26646973356E+02  0.74948328968E+01  0.35537018201E+02  0.46142319055E+02  0.10000011794E+02 0.  0.
         12    1    1    2    0    0 -0.26646973356E+02 -0.74948328968E+01 -0.35537018201E+02  0.45045680945E+02  0.00000000000E+00 0. -1.
         11    1    3    3    0    0  0.78472298461E+00  0.10739308360E+01  0.30829948331E+00  0.13653448047E+01  0.51100000000E-03 0. -1.
        -11    1    3    3    0    0  0.39461413550E+01  0.32281891977E+01  0.98653702025E+01  0.11104898315E+02  0.51100000000E-03 0.  1.
        -12    1    3    3    0    0  0.21916109016E+02  0.31927128631E+01  0.25363348516E+02  0.33672075935E+02  0.00000000000E+00 0.  1.
</event>
<event>
 7    1  0.2425980E-008  0.4614231E+02  0.7816164E-02  0.1320468E+00
        -11   -1    0    0    0    0  0.00000000000E+00  0.00000000000E+00  0.45593999997E+02  0.45594000000E+02  0.51100000000E-03 0.  1.
         11   -1    0    0    0    0 -0.00000000000E+00 -0.00000000000E+00 -0.45593999997E+02  0.45594000000E+02  0.51100000000E-03 0. -1.
    9900012    2    1    2    0    0  0.25616379312E+02  0.27802244012E+02  0.24493880672E+02  0.46142313730E+02  0.99999632380E+01 0.  0.
         12    1    1    2    0    0 -0.25616379312E+02 -0.27802244012E+02 -0.24493880672E+02  0.45045686270E+02  0.00000000000E+00 0. -1.
         11    1    3    3    0    0  0.54807772575E+00  0.14906391312E+01  0.29390112848E+01  0.33406858287E+01  0.51100000000E-03 0. -1.
        -11    1    3    3    0    0  0.16381217634E+02  0.13022379355E+02  0.14299803475E+02  0.25345828748E+02  0.51100000000E-03 0.  1.
         12    1    3    3    0    0  0.86870839523E+01  0.13289225526E+02  0.72550659127E+01  0.17455799153E+02  0.00000000000E+00 0. -1.
</event>
<event>
 7    1  0.2425980E-008  0.4614232E+02  0.7816164E-02  0.1320468E+00
        -11   -1    0    0    0    0  0.00000000000E+00  0.00000000000E+00  0.45593999997E+02  0.45594000000E+02  0.51100000000E-03 0.  1.
         11   -1    0    0    0    0 -0.00000000000E+00 -0.00000000000E+00 -0.45593999997E+02  0.45594000000E+02  0.51100000000E-03 0. -1.
    9900012    2    1    2    0    0 -0.85503965577E+00  0.41216431558E+02 -0.18154563551E+02  0.46142317622E+02  0.99999987310E+01 0.  0.
         12    1    1    2    0    0  0.85503965577E+00 -0.41216431558E+02  0.18154563551E+02  0.45045682378E+02  0.00000000000E+00 0. -1.
         11    1    3    3    0    0 -0.31289085440E+00  0.29459144442E+02 -0.15757379238E+02  0.33410089683E+02  0.51100000000E-03 0. -1.
        -11    1    3    3    0    0 -0.37966254121E+00 -0.22674650169E+00  0.17256551325E+00  0.47469647009E+00  0.51100000000E-03 0.  1.
        -12    1    3    3    0    0 -0.16248626016E+00  0.11984033618E+02 -0.25697498263E+01  0.12257531469E+02  0.00000000000E+00 0.  1.
</event>
<event>
 7    1  0.2425980E-008  0.4614232E+02  0.7816164E-02  0.1320468E+00
        -11   -1    0    0    0    0  0.00000000000E+00  0.00000000000E+00  0.45593999997E+02  0.45594000000E+02  0.51100000000E-03 0. -1.
         11   -1    0    0    0    0 -0.00000000000E+00 -0.00000000000E+00 -0.45593999997E+02  0.45594000000E+02  0.51100000000E-03 0.  1.
    9900012    2    1    2    0    0  0.10430093919E+02 -0.22209304610E+01 -0.43765215596E+02  0.46142317771E+02  0.10000000095E+02 0.  0.
         12    1    1    2    0    0 -0.10430093919E+02  0.22209304610E+01  0.43765215596E+02  0.45045682229E+02  0.00000000000E+00 0. -1.
         11    1    3    3    0    0  0.25719603825E+01  0.96961744633E-02 -0.58725514373E+01  0.64110790722E+01  0.51100000000E-03 0. -1.
        -11    1    3    3    0    0  0.22260135907E+01  0.33181015873E+01 -0.11147838814E+02  0.11842265203E+02  0.51100000000E-03 0.  1.
        -12    1    3    3    0    0  0.56321199462E+01 -0.55487282227E+01 -0.26744825345E+02  0.27888973497E+02  0.00000000000E+00 0.  1.
</event>
<event>
 7    1  0.2425980E-008  0.4614232E+02  0.7816164E-02  0.1320468E+00
        -11   -1    0    0    0    0  0.00000000000E+00  0.00000000000E+00  0.45593999997E+02  0.45594000000E+02  0.51100000000E-03 0.  1.
         11   -1    0    0    0    0 -0.00000000000E+00 -0.00000000000E+00 -0.45593999997E+02  0.45594000000E+02  0.51100000000E-03 0. -1.
    9900012    2    1    2    0    0 -0.87032148599E+01  0.88119030988E+01  0.43309558680E+02  0.46142318096E+02  0.10000003056E+02 0.  0.
         12    1    1    2    0    0  0.87032148599E+01 -0.88119030988E+01 -0.43309558680E+02  0.45045681904E+02  0.00000000000E+00 0. -1.
         11    1    3    3    0    0 -0.19589889899E+01  0.23206441870E+01  0.33574088037E+01  0.45271648348E+01  0.51100000000E-03 0. -1.
        -11    1    3    3    0    0 -0.81725605791E-01 -0.39252124264E+00  0.13085055993E+02  0.13091197142E+02  0.51100000000E-03 0.  1.
        -12    1    3    3    0    0 -0.66625002641E+01  0.68837801544E+01  0.26867093883E+02  0.28523956120E+02  0.00000000000E+00 0.  1.
</event>
<event>
 7    1  0.2425980E-008  0.4614231E+02  0.7816164E-02  0.1320468E+00
        -11   -1    0    0    0    0  0.00000000000E+00  0.00000000000E+00  0.45593999997E+02  0.45594000000E+02  0.51100000000E-03 0.  1.
         11   -1    0    0    0    0 -0.00000000000E+00 -0.00000000000E+00 -0.45593999997E+02  0.45594000000E+02  0.51100000000E-03 0. -1.
    9900012    2    1    2    0    0  0.43220126271E+01 -0.95797429756E+01  0.43802539846E+02  0.46142314684E+02  0.99999719440E+01 0.  0.
         12    1    1    2    0    0 -0.43220126271E+01  0.95797429756E+01 -0.43802539846E+02  0.45045685316E+02  0.00000000000E+00 0. -1.
         11    1    3    3    0    0  0.23661409957E+01 -0.23457900756E+01  0.17749336116E+02  0.18059354560E+02  0.51100000000E-03 0. -1.
        -11    1    3    3    0    0  0.30532414744E+01 -0.83586716555E+01  0.21635710908E+02  0.23394308327E+02  0.51100000000E-03 0.  1.
         12    1    3    3    0    0 -0.10973698430E+01  0.11247187555E+01  0.44174928213E+01  0.46886517975E+01  0.00000000000E+00 0. -1.
</event>
<event>
 7    1  0.2425980E-008  0.4614232E+02  0.7816164E-02  0.1320468E+00
        -11   -1    0    0    0    0  0.00000000000E+00  0.00000000000E+00  0.45593999997E+02  0.45594000000E+02  0.51100000000E-03 0. -1.
         11   -1    0    0    0    0 -0.00000000000E+00 -0.00000000000E+00 -0.45593999997E+02  0.45594000000E+02  0.51100000000E-03 0.  1.
    9900012    2    1    2    0    0 -0.11706915732E+02 -0.13227380749E+02 -0.41437881204E+02  0.46142317897E+02  0.10000001240E+02 0.  0.
         12    1    1    2    0    0  0.11706915732E+02  0.13227380749E+02  0.41437881204E+02  0.45045682103E+02  0.00000000000E+00 0. -1.
         11    1    3    3    0    0 -0.31966345611E+01 -0.19536697787E+01 -0.13765288359E+02  0.14265989696E+02  0.51100000000E-03 0. -1.
        -11    1    3    3    0    0 -0.97479964229E+01 -0.92803884943E+01 -0.24058806288E+02  0.27567647798E+02  0.51100000000E-03 0.  1.
        -12    1    3    3    0    0  0.12377152519E+01 -0.19933224762E+01 -0.36137865566E+01  0.43086804030E+01  0.00000000000E+00 0.  1.
</event>
<event>
 7    1  0.2425980E-008  0.4614232E+02  0.7816164E-02  0.1320468E+00
        -11   -1    0    0    0    0  0.00000000000E+00  0.00000000000E+00  0.45593999997E+02  0.45594000000E+02  0.51100000000E-03 0. -1.
         11   -1    0    0    0    0 -0.00000000000E+00 -0.00000000000E+00 -0.45593999997E+02  0.45594000000E+02  0.51100000000E-03 0.  1.
    9900012    2    1    2    0    0 -0.24974168486E+02 -0.20930007823E+02 -0.31102075520E+02  0.46142318512E+02  0.10000006851E+02 0.  0.
         12    1    1    2    0    0  0.24974168486E+02  0.20930007823E+02  0.31102075520E+02  0.45045681488E+02  0.00000000000E+00 0. -1.
         11    1    3    3    0    0  0.49459094156E+00 -0.40720538858E+00 -0.91945903794E-01  0.64721769005E+00  0.51100000000E-03 0. -1.
        -11    1    3    3    0    0 -0.17309519301E+02 -0.11403123417E+02 -0.16358446112E+02  0.26405481279E+02  0.51100000000E-03 0.  1.
         12    1    3    3    0    0 -0.81592401261E+01 -0.91196790175E+01 -0.14651683504E+02  0.19089619543E+02  0.00000000000E+00 0. -1.
</event>
<event>
 7    1  0.2425980E-008  0.4614232E+02  0.7816164E-02  0.1320468E+00
        -11   -1    0    0    0    0  0.00000000000E+00  0.00000000000E+00  0.45593999997E+02  0.45594000000E+02  0.51100000000E-03 0.  1.
         11   -1    0    0    0    0 -0.00000000000E+00 -0.00000000000E+00 -0.45593999997E+02  0.45594000000E+02  0.51100000000E-03 0. -1.
    9900012    2    1    2    0    0  0.17657423913E+02 -0.39649650933E+02  0.12051308374E+02  0.46142317944E+02  0.10000001668E+02 0.  0.
         12    1    1    2    0    0 -0.17657423913E+02  0.39649650933E+02 -0.12051308374E+02  0.45045682056E+02  0.00000000000E+00 0. -1.
         11    1    3    3    0    0  0.11036295394E+02 -0.24963855731E+02  0.75087694899E+01  0.28308576942E+02  0.51100000000E-03 0. -1.
        -11    1    3    3    0    0  0.50897653166E+01 -0.12183889255E+02  0.60630222901E+01  0.14529731860E+02  0.51100000000E-03 0.  1.
         12    1    3    3    0    0  0.15313632023E+01 -0.25019059465E+01 -0.15204834055E+01  0.33040091418E+01  0.00000000000E+00 0. -1.
</event>
<event>
 7    1  0.2425980E-008  0.4614232E+02  0.7816164E-02  0.1320468E+00
        -11   -1    0    0    0    0  0.00000000000E+00  0.00000000000E+00  0.45593999997E+02  0.45594000000E+02  0.51100000000E-03 0.  1.
         11   -1    0    0    0    0 -0.00000000000E+00 -0.00000000000E+00 -0.45593999997E+02  0.45594000000E+02  0.51100000000E-03 0. -1.
    9900012    2    1    2    0    0  0.27005478223E+02 -0.19644373452E+02  0.30231048242E+02  0.46142317186E+02  0.99999947570E+01 0.  0.
         12    1    1    2    0    0 -0.27005478223E+02  0.19644373452E+02 -0.30231048242E+02  0.45045682814E+02  0.00000000000E+00 0. -1.
         11    1    3    3    0    0  0.52959272066E+01 -0.51156311523E+01  0.91599334887E+01  0.11752485220E+02  0.51100000000E-03 0. -1.
        -11    1    3    3    0    0  0.11527892826E+02 -0.11960825131E+02  0.14066753364E+02  0.21767572241E+02  0.51100000000E-03 0.  1.
         12    1    3    3    0    0  0.10181658191E+02 -0.25679171687E+01  0.70043613894E+01  0.12622259726E+02  0.00000000000E+00 0. -1.
</event>
<event>
 7    1  0.2425980E-008  0.4614232E+02  0.7816164E-02  0.1320468E+00
        -11   -1    0    0    0    0  0.00000000000E+00  0.00000000000E+00  0.45593999997E+02  0.45594000000E+02  0.51100000000E-03 0.  1.
         11   -1    0    0    0    0 -0.00000000000E+00 -0.00000000000E+00 -0.45593999997E+02  0.45594000000E+02  0.51100000000E-03 0. -1.
    9900012    2    1    2    0    0  0.41803824810E+02  0.59283818217E+01 -0.15697390219E+02  0.46142317194E+02  0.99999948301E+01 0.  0.
         12    1    1    2    0    0 -0.41803824810E+02 -0.59283818217E+01  0.15697390219E+02  0.45045682806E+02  0.00000000000E+00 0. -1.
         11    1    3    3    0    0  0.23750506991E+02  0.11144522828E+01 -0.89143028874E+01  0.25392782094E+02  0.51100000000E-03 0. -1.
        -11    1    3    3    0    0  0.94994676252E+01 -0.54315421751E+00 -0.31581022178E+01  0.10025393336E+02  0.51100000000E-03 0.  1.
        -12    1    3    3    0    0  0.85538501936E+01  0.53570837564E+01 -0.36249851135E+01  0.10724141764E+02  0.00000000000E+00 0.  1.
</event>
<event>
 7    1  0.2425980E-008  0.4614232E+02  0.7816164E-02  0.1320468E+00
        -11   -1    0    0    0    0  0.00000000000E+00  0.00000000000E+00  0.45593999997E+02  0.45594000000E+02  0.51100000000E-03 0.  1.
         11   -1    0    0    0    0 -0.00000000000E+00 -0.00000000000E+00 -0.45593999997E+02  0.45594000000E+02  0.51100000000E-03 0. -1.
    9900012    2    1    2    0    0 -0.43458844100E+02 -0.84481083729E+01  0.83109399842E+01  0.46142318864E+02  0.10000010056E+02 0.  0.
         12    1    1    2    0    0  0.43458844100E+02  0.84481083729E+01 -0.83109399842E+01  0.45045681136E+02  0.00000000000E+00 0. -1.
         11    1    3    3    0    0 -0.15433572769E+02  0.61843063518E+00  0.35395681306E+01  0.15846329785E+02  0.51100000000E-03 0. -1.
        -11    1    3    3    0    0 -0.24093622316E+02 -0.61503191319E+01  0.28175066807E+01  0.25025335280E+02  0.51100000000E-03 0.  1.
        -12    1    3    3    0    0 -0.39316490155E+01 -0.29162198762E+01  0.19538651729E+01  0.52706537983E+01  0.00000000000E+00 0.  1.
</event>
<event>
 7    1  0.2425980E-008  0.4614232E+02  0.7816164E-02  0.1320468E+00
        -11   -1    0    0    0    0  0.00000000000E+00  0.00000000000E+00  0.45593999997E+02  0.45594000000E+02  0.51100000000E-03 0.  1.
         11   -1    0    0    0    0 -0.00000000000E+00 -0.00000000000E+00 -0.45593999997E+02  0.45594000000E+02  0.51100000000E-03 0. -1.
    9900012    2    1    2    0    0  0.26050203490E+02 -0.31947430616E+02  0.18162105230E+02  0.46142317729E+02  0.99999997099E+01 0.  0.
         12    1    1    2    0    0 -0.26050203490E+02  0.31947430616E+02 -0.18162105230E+02  0.45045682271E+02  0.00000000000E+00 0. -1.
         11    1    3    3    0    0  0.69830512346E+01 -0.34912483387E+01  0.14896541467E+01  0.79480116535E+01  0.51100000000E-03 0. -1.
        -11    1    3    3    0    0  0.39479821792E+01 -0.76385488831E+01  0.49440198703E+01  0.99185344213E+01  0.51100000000E-03 0.  1.
         12    1    3    3    0    0  0.15119170076E+02 -0.20817633394E+02  0.11728431213E+02  0.28275771654E+02  0.00000000000E+00 0. -1.
</event>
<event>
 7    1  0.2425980E-008  0.4614232E+02  0.7816164E-02  0.1320468E+00
        -11   -1    0    0    0    0  0.00000000000E+00  0.00000000000E+00  0.45593999997E+02  0.45594000000E+02  0.51100000000E-03 0. -1.
         11   -1    0    0    0    0 -0.00000000000E+00 -0.00000000000E+00 -0.45593999997E+02  0.45594000000E+02  0.51100000000E-03 0.  1.
    9900012    2    1    2    0    0  0.42486502245E+02  0.14345084578E+02 -0.42695658395E+01  0.46142317443E+02  0.99999970997E+01 0.  0.
         12    1    1    2    0    0 -0.42486502245E+02 -0.14345084578E+02  0.42695658395E+01  0.45045682557E+02  0.00000000000E+00 0. -1.
         11    1    3    3    0    0  0.20854693652E+01  0.19756481876E+01  0.13812933808E+01  0.31875288076E+01  0.51100000000E-03 0. -1.
        -11    1    3    3    0    0  0.10775938198E+02  0.57563432894E+01 -0.20473515537E+01  0.12387412190E+02  0.51100000000E-03 0.  1.
         12    1    3    3    0    0  0.29625094682E+02  0.66130931005E+01 -0.36035076666E+01  0.30567376446E+02  0.00000000000E+00 0. -1.
</event>
<event>
 7    1  0.2425980E-008  0.4614232E+02  0.7816164E-02  0.1320468E+00
        -11   -1    0    0    0    0  0.00000000000E+00  0.00000000000E+00  0.45593999997E+02  0.45594000000E+02  0.51100000000E-03 0.  1.
         11   -1    0    0    0    0 -0.00000000000E+00 -0.00000000000E+00 -0.45593999997E+02  0.45594000000E+02  0.51100000000E-03 0. -1.
    9900012    2    1    2    0    0  0.31606164735E+02  0.30737064664E+02 -0.92410229072E+01  0.46142319876E+02  0.10000019288E+02 0.  0.
         12    1    1    2    0    0 -0.31606164735E+02 -0.30737064664E+02  0.92410229072E+01  0.45045680124E+02  0.00000000000E+00 0. -1.
         11    1    3    3    0    0  0.22315150276E+01  0.54008604892E+01  0.17746755676E-01  0.58437375498E+01  0.51100000000E-03 0. -1.
        -11    1    3    3    0    0  0.11698816192E+02  0.78895459416E+01 -0.10848066176E+01  0.14152174431E+02  0.51100000000E-03 0.  1.
        -12    1    3    3    0    0  0.17675833515E+02  0.17446658234E+02 -0.81739630453E+01  0.26146407896E+02  0.00000000000E+00 0.  1.
</event>
<event>
 7    1  0.2425980E-008  0.4614232E+02  0.7816164E-02  0.1320468E+00
        -11   -1    0    0    0    0  0.00000000000E+00  0.00000000000E+00  0.45593999997E+02  0.45594000000E+02  0.51100000000E-03 0. -1.
         11   -1    0    0    0    0 -0.00000000000E+00 -0.00000000000E+00 -0.45593999997E+02  0.45594000000E+02  0.51100000000E-03 0.  1.
    9900012    2    1    2    0    0  0.23062912672E+02 -0.30558324686E+02 -0.23736137628E+02  0.46142318986E+02  0.10000011166E+02 0.  0.
         12    1    1    2    0    0 -0.23062912672E+02  0.30558324686E+02  0.23736137628E+02  0.45045681014E+02  0.00000000000E+00 0. -1.
         11    1    3    3    0    0  0.58110956510E+01 -0.58983054571E+01 -0.73593993484E+01  0.11077887838E+02  0.51100000000E-03 0. -1.
        -11    1    3    3    0    0  0.16154396088E+02 -0.17734202765E+02 -0.12435512417E+02  0.27020518685E+02  0.51100000000E-03 0.  1.
         12    1    3    3    0    0  0.10974209331E+01 -0.69258164639E+01 -0.39412258627E+01  0.80439124620E+01  0.00000000000E+00 0. -1.
</event>
<event>
 7    1  0.2425980E-008  0.4614232E+02  0.7816164E-02  0.1320468E+00
        -11   -1    0    0    0    0  0.00000000000E+00  0.00000000000E+00  0.45593999997E+02  0.45594000000E+02  0.51100000000E-03 0.  1.
         11   -1    0    0    0    0 -0.00000000000E+00 -0.00000000000E+00 -0.45593999997E+02  0.45594000000E+02  0.51100000000E-03 0. -1.
    9900012    2    1    2    0    0 -0.42124511047E+02 -0.12382870704E+02  0.10064967829E+02  0.46142317685E+02  0.99999993048E+01 0.  0.
         12    1    1    2    0    0  0.42124511047E+02  0.12382870704E+02 -0.10064967829E+02  0.45045682315E+02  0.00000000000E+00 0. -1.
         11    1    3    3    0    0 -0.10912042140E+02 -0.22426183110E+01  0.30683321962E+01  0.11554941076E+02  0.51100000000E-03 0. -1.
        -11    1    3    3    0    0 -0.31617334084E+02 -0.10100763067E+02  0.63052007350E+01  0.33785156292E+02  0.51100000000E-03 0.  1.
         12    1    3    3    0    0  0.40486517660E+00 -0.39489325959E-01  0.69143489789E+00  0.80222031644E+00  0.00000000000E+00 0. -1.
</event>
<event>
 7    1  0.2425980E-008  0.4614232E+02  0.7816164E-02  0.1320468E+00
        -11   -1    0    0    0    0  0.00000000000E+00  0.00000000000E+00  0.45593999997E+02  0.45594000000E+02  0.51100000000E-03 0.  1.
         11   -1    0    0    0    0 -0.00000000000E+00 -0.00000000000E+00 -0.45593999997E+02  0.45594000000E+02  0.51100000000E-03 0. -1.
    9900012    2    1    2    0    0  0.13676211982E+02  0.21643248532E+02  0.37062710886E+02  0.46142317416E+02  0.99999968562E+01 0.  0.
         12    1    1    2    0    0 -0.13676211982E+02 -0.21643248532E+02 -0.37062710886E+02  0.45045682584E+02  0.00000000000E+00 0. -1.
         11    1    3    3    0    0 -0.10044138488E+01  0.10579217956E+01  0.11392478863E+01  0.18509272575E+01  0.51100000000E-03 0. -1.
        -11    1    3    3    0    0 -0.35687097649E-02  0.29848676355E+01  0.42995378310E+01  0.52340685282E+01  0.51100000000E-03 0.  1.
        -12    1    3    3    0    0  0.14684194540E+02  0.17600459101E+02  0.31623925169E+02  0.39057321631E+02  0.00000000000E+00 0.  1.
</event>
<event>
 7    1  0.2425980E-008  0.4614232E+02  0.7816164E-02  0.1320468E+00
        -11   -1    0    0    0    0  0.00000000000E+00  0.00000000000E+00  0.45593999997E+02  0.45594000000E+02  0.51100000000E-03 0.  1.
         11   -1    0    0    0    0 -0.00000000000E+00 -0.00000000000E+00 -0.45593999997E+02  0.45594000000E+02  0.51100000000E-03 0. -1.
    9900012    2    1    2    0    0 -0.40815352386E+02 -0.14077585314E+02 -0.12846868791E+02  0.46142318337E+02  0.10000005256E+02 0.  0.
         12    1    1    2    0    0  0.40815352386E+02  0.14077585314E+02  0.12846868791E+02  0.45045681663E+02  0.00000000000E+00 0. -1.
         11    1    3    3    0    0 -0.24340806197E+02 -0.69371852668E+01 -0.86130163083E+01  0.26735434089E+02  0.51100000000E-03 0. -1.
        -11    1    3    3    0    0 -0.16636631047E+02 -0.76982863996E+01 -0.42788881354E+01  0.18824186305E+02  0.51100000000E-03 0.  1.
         12    1    3    3    0    0  0.16208485821E+00  0.55788635219E+00  0.45035652662E-01  0.58269794339E+00  0.00000000000E+00 0. -1.
</event>
<event>
 7    1  0.2425980E-008  0.4614232E+02  0.7816164E-02  0.1320468E+00
        -11   -1    0    0    0    0  0.00000000000E+00  0.00000000000E+00  0.45593999997E+02  0.45594000000E+02  0.51100000000E-03 0.  1.
         11   -1    0    0    0    0 -0.00000000000E+00 -0.00000000000E+00 -0.45593999997E+02  0.45594000000E+02  0.51100000000E-03 0. -1.
    9900012    2    1    2    0    0 -0.11636151198E+02 -0.30669710172E+02  0.30872023477E+02  0.46142323512E+02  0.10000052440E+02 0.  0.
         12    1    1    2    0    0  0.11636151198E+02  0.30669710172E+02 -0.30872023477E+02  0.45045676488E+02  0.00000000000E+00 0. -1.
         11    1    3    3    0    0 -0.46324265773E+01 -0.14219686215E+02  0.78888048017E+01  0.16908343902E+02  0.51100000000E-03 0. -1.
        -11    1    3    3    0    0 -0.37037625258E+01 -0.11087349608E+02  0.13593828665E+02  0.17928729911E+02  0.51100000000E-03 0.  1.
         12    1    3    3    0    0 -0.32999620948E+01 -0.53626743482E+01  0.93893900104E+01  0.11305249699E+02  0.00000000000E+00 0. -1.
</event>
<event>
 7    1  0.2425980E-008  0.4614231E+02  0.7816164E-02  0.1320468E+00
        -11   -1    0    0    0    0  0.00000000000E+00  0.00000000000E+00  0.45593999997E+02  0.45594000000E+02  0.51100000000E-03 0.  1.
         11   -1    0    0    0    0 -0.00000000000E+00 -0.00000000000E+00 -0.45593999997E+02  0.45594000000E+02  0.51100000000E-03 0. -1.
    9900012    2    1    2    0    0 -0.38463107598E+02 -0.13059584348E+02  0.19471797296E+02  0.46142308981E+02  0.99999199343E+01 0.  0.
         12    1    1    2    0    0  0.38463107598E+02  0.13059584348E+02 -0.19471797296E+02  0.45045691019E+02  0.00000000000E+00 0. -1.
         11    1    3    3    0    0 -0.56994455496E+00 -0.17274182509E-01 -0.36240898480E+00  0.67562987389E+00  0.51100000000E-03 0. -1.
        -11    1    3    3    0    0 -0.29621576886E+02 -0.70668312968E+01  0.16998142118E+02  0.34875704402E+02  0.51100000000E-03 0.  1.
        -12    1    3    3    0    0 -0.82715861566E+01 -0.59754788691E+01  0.28360641626E+01  0.10590974705E+02  0.00000000000E+00 0.  1.
</event>
<event>
 7    1  0.2425980E-008  0.4614232E+02  0.7816164E-02  0.1320468E+00
        -11   -1    0    0    0    0  0.00000000000E+00  0.00000000000E+00  0.45593999997E+02  0.45594000000E+02  0.51100000000E-03 0.  1.
         11   -1    0    0    0    0 -0.00000000000E+00 -0.00000000000E+00 -0.45593999997E+02  0.45594000000E+02  0.51100000000E-03 0. -1.
    9900012    2    1    2    0    0  0.10448865141E+02 -0.17487915851E+01  0.43782147316E+02  0.46142317873E+02  0.10000001018E+02 0.  0.
         12    1    1    2    0    0 -0.10448865141E+02  0.17487915851E+01 -0.43782147316E+02  0.45045682127E+02  0.00000000000E+00 0. -1.
         11    1    3    3    0    0  0.48843788831E+01  0.41114362194E+00  0.34119875043E+02  0.34470162015E+02  0.51100000000E-03 0. -1.
        -11    1    3    3    0    0  0.24064863279E+01 -0.17226848682E+01  0.66815233367E+01  0.73076380563E+01  0.51100000000E-03 0.  1.
         12    1    3    3    0    0  0.31579999304E+01 -0.43725033879E+00  0.29807489359E+01  0.43645178013E+01  0.00000000000E+00 0. -1.
</event>
<event>
 7    1  0.2425980E-008  0.4614232E+02  0.7816164E-02  0.1320468E+00
        -11   -1    0    0    0    0  0.00000000000E+00  0.00000000000E+00  0.45593999997E+02  0.45594000000E+02  0.51100000000E-03 0. -1.
         11   -1    0    0    0    0 -0.00000000000E+00 -0.00000000000E+00 -0.45593999997E+02  0.45594000000E+02  0.51100000000E-03 0.  1.
    9900012    2    1    2    0    0 -0.27097311604E+02  0.30006945738E+01 -0.35858680845E+02  0.46142318120E+02  0.10000003276E+02 0.  0.
         12    1    1    2    0    0  0.27097311604E+02 -0.30006945738E+01  0.35858680845E+02  0.45045681880E+02  0.00000000000E+00 0. -1.
         11    1    3    3    0    0 -0.81365643720E+01  0.10669173267E+01 -0.14984106513E+02  0.17084069791E+02  0.51100000000E-03 0. -1.
        -11    1    3    3    0    0 -0.40660809492E+01 -0.31851367000E+00 -0.89854045500E+01  0.98677231635E+01  0.51100000000E-03 0.  1.
         12    1    3    3    0    0 -0.14894666283E+02  0.22522909171E+01 -0.11889169781E+02  0.19190525166E+02  0.00000000000E+00 0. -1.
</event>
<event>
 7    1  0.2425980E-008  0.4614232E+02  0.7816164E-02  0.1320468E+00
        -11   -1    0    0    0    0  0.00000000000E+00  0.00000000000E+00  0.45593999997E+02  0.45594000000E+02  0.51100000000E-03 0.  1.
         11   -1    0    0    0    0 -0.00000000000E+00 -0.00000000000E+00 -0.45593999997E+02  0.45594000000E+02  0.51100000000E-03 0. -1.
    9900012    2    1    2    0    0 -0.38276501889E+01  0.12330052320E+02  0.43155907972E+02  0.46142317754E+02  0.99999999328E+01 0.  0.
         12    1    1    2    0    0  0.38276501889E+01 -0.12330052320E+02 -0.43155907972E+02  0.45045682246E+02  0.00000000000E+00 0. -1.
         11    1    3    3    0    0 -0.60406293482E+00  0.24299185102E+01  0.17122182257E+02  0.17304291997E+02  0.51100000000E-03 0.  1.
        -11    1    3    3    0    0  0.48345482671E+00  0.77944283783E+01  0.19813444708E+02  0.21296934845E+02  0.51100000000E-03 0. -1.
         12    1    3    3    0    0 -0.37070420807E+01  0.21057054316E+01  0.62202810060E+01  0.75410909123E+01  0.00000000000E+00 0. -1.
</event>
<event>
 7    1  0.2425980E-008  0.4614232E+02  0.7816164E-02  0.1320468E+00
        -11   -1    0    0    0    0  0.00000000000E+00  0.00000000000E+00  0.45593999997E+02  0.45594000000E+02  0.51100000000E-03 0. -1.
         11   -1    0    0    0    0 -0.00000000000E+00 -0.00000000000E+00 -0.45593999997E+02  0.45594000000E+02  0.51100000000E-03 0.  1.
    9900012    2    1    2    0    0  0.23077460807E+02 -0.37549312695E+02 -0.93055640064E+01  0.46142316492E+02  0.99999884315E+01 0.  0.
         12    1    1    2    0    0 -0.23077460807E+02  0.37549312695E+02  0.93055640064E+01  0.45045683508E+02  0.00000000000E+00 0. -1.
         11    1    3    3    0    0  0.12533960356E+01 -0.53421051367E+01 -0.24525048798E+01  0.60103135825E+01  0.51100000000E-03 0. -1.
        -11    1    3    3    0    0  0.15774704542E+02 -0.27560363895E+02 -0.40850914072E+01  0.32017228698E+02  0.51100000000E-03 0.  1.
         12    1    3    3    0    0  0.60493602293E+01 -0.46468436630E+01 -0.27679677194E+01  0.81147742118E+01  0.00000000000E+00 0. -1.
</event>
<event>
 7    1  0.2425980E-008  0.4614232E+02  0.7816164E-02  0.1320468E+00
        -11   -1    0    0    0    0  0.00000000000E+00  0.00000000000E+00  0.45593999997E+02  0.45594000000E+02  0.51100000000E-03 0. -1.
         11   -1    0    0    0    0 -0.00000000000E+00 -0.00000000000E+00 -0.45593999997E+02  0.45594000000E+02  0.51100000000E-03 0.  1.
    9900012    2    1    2    0    0  0.32128120723E+01  0.44309390522E+02  0.74477641747E+01  0.46142318287E+02  0.10000004792E+02 0.  0.
         12    1    1    2    0    0 -0.32128120723E+01 -0.44309390522E+02 -0.74477641747E+01  0.45045681713E+02  0.00000000000E+00 0. -1.
         11    1    3    3    0    0  0.42130498587E+01  0.13914357047E+02 -0.31021793807E+00  0.14541504618E+02  0.51100000000E-03 0. -1.
        -11    1    3    3    0    0 -0.10709424172E+01  0.87110324186E+01  0.73311804383E+00  0.88071826248E+01  0.51100000000E-03 0.  1.
        -12    1    3    3    0    0  0.70704630699E-01  0.21684001057E+02  0.70248640689E+01  0.22793631044E+02  0.00000000000E+00 0.  1.
</event>
<event>
 7    1  0.2425980E-008  0.4614232E+02  0.7816164E-02  0.1320468E+00
        -11   -1    0    0    0    0  0.00000000000E+00  0.00000000000E+00  0.45593999997E+02  0.45594000000E+02  0.51100000000E-03 0.  1.
         11   -1    0    0    0    0 -0.00000000000E+00 -0.00000000000E+00 -0.45593999997E+02  0.45594000000E+02  0.51100000000E-03 0. -1.
    9900012    2    1    2    0    0  0.28157394859E+02  0.26335958739E+01  0.35061927755E+02  0.46142317739E+02  0.99999997961E+01 0.  0.
         12    1    1    2    0    0 -0.28157394859E+02 -0.26335958739E+01 -0.35061927755E+02  0.45045682261E+02  0.00000000000E+00 0. -1.
         11    1    3    3    0    0  0.77800554875E+01 -0.24860224834E+01  0.89229876244E+01  0.12096663986E+02  0.51100000000E-03 0. -1.
        -11    1    3    3    0    0  0.49831021773E+01 -0.11921803706E+01  0.51842838371E+01  0.72889917348E+01  0.51100000000E-03 0.  1.
        -12    1    3    3    0    0  0.15394237194E+02  0.63117987278E+01  0.20954656294E+02  0.26756662018E+02  0.00000000000E+00 0.  1.
</event>
<event>
 7    1  0.2425980E-008  0.4614232E+02  0.7816164E-02  0.1320468E+00
        -11   -1    0    0    0    0  0.00000000000E+00  0.00000000000E+00  0.45593999997E+02  0.45594000000E+02  0.51100000000E-03 0. -1.
         11   -1    0    0    0    0 -0.00000000000E+00 -0.00000000000E+00 -0.45593999997E+02  0.45594000000E+02  0.51100000000E-03 0.  1.
    9900012    2    1    2    0    0  0.36013996695E+02 -0.23742772099E+02 -0.12976375259E+02  0.46142317635E+02  0.99999988494E+01 0.  0.
         12    1    1    2    0    0 -0.36013996695E+02  0.23742772099E+02  0.12976375259E+02  0.45045682365E+02  0.00000000000E+00 0. -1.
         11    1    3    3    0    0  0.14301046097E+02 -0.10292433944E+02 -0.63989494219E+01  0.18745684035E+02  0.51100000000E-03 0. -1.
        -11    1    3    3    0    0  0.13109305536E+02 -0.11048869740E+02 -0.68443528743E+01  0.18460134905E+02  0.51100000000E-03 0.  1.
         12    1    3    3    0    0  0.86036450613E+01 -0.24014684151E+01  0.26692703722E+00  0.89364986955E+01  0.00000000000E+00 0. -1.
</event>
<event>
 7    1  0.2425980E-008  0.4614232E+02  0.7816164E-02  0.1320468E+00
        -11   -1    0    0    0    0  0.00000000000E+00  0.00000000000E+00  0.45593999997E+02  0.45594000000E+02  0.51100000000E-03 0.  1.
         11   -1    0    0    0    0 -0.00000000000E+00 -0.00000000000E+00 -0.45593999997E+02  0.45594000000E+02  0.51100000000E-03 0. -1.
    9900012    2    1    2    0    0  0.35994916469E+02  0.19432401480E+01  0.27013012171E+02  0.46142322955E+02  0.10000047362E+02 0.  0.
         12    1    1    2    0    0 -0.35994916469E+02 -0.19432401480E+01 -0.27013012171E+02  0.45045677045E+02  0.00000000000E+00 0. -1.
         11    1    3    3    0    0  0.61212737793E+01 -0.20805788233E+01  0.62056666674E+01  0.89615344651E+01  0.51100000000E-03 0. -1.
        -11    1    3    3    0    0  0.26952992245E+02  0.31176138791E+01  0.20688741092E+02  0.34120482345E+02  0.51100000000E-03 0.  1.
        -12    1    3    3    0    0  0.29206504451E+01  0.90620509218E+00  0.11860441132E+00  0.30603061445E+01  0.00000000000E+00 0.  1.
</event>
<event>
 7    1  0.2425980E-008  0.4614232E+02  0.7816164E-02  0.1320468E+00
        -11   -1    0    0    0    0  0.00000000000E+00  0.00000000000E+00  0.45593999997E+02  0.45594000000E+02  0.51100000000E-03 0.  1.
         11   -1    0    0    0    0 -0.00000000000E+00 -0.00000000000E+00 -0.45593999997E+02  0.45594000000E+02  0.51100000000E-03 0. -1.
    9900012    2    1    2    0    0 -0.26235149269E+02 -0.27726366597E+02  0.23918177213E+02  0.46142315822E+02  0.99999823209E+01 0.  0.
         12    1    1    2    0    0  0.26235149269E+02  0.27726366597E+02 -0.23918177213E+02  0.45045684178E+02  0.00000000000E+00 0. -1.
         11    1    3    3    0    0  0.70897670243E+00 -0.15867966768E+01  0.25862368987E+00  0.17571164253E+01  0.51100000000E-03 0. -1.
        -11    1    3    3    0    0 -0.12222039211E+02 -0.12152913659E+02  0.11398220682E+02  0.20663760255E+02  0.51100000000E-03 0.  1.
         12    1    3    3    0    0 -0.14722086760E+02 -0.13986656261E+02  0.12261332841E+02  0.23721439142E+02  0.00000000000E+00 0. -1.
</event>
<event>
 7    1  0.2425980E-008  0.4614232E+02  0.7816164E-02  0.1320468E+00
        -11   -1    0    0    0    0  0.00000000000E+00  0.00000000000E+00  0.45593999997E+02  0.45594000000E+02  0.51100000000E-03 0. -1.
         11   -1    0    0    0    0 -0.00000000000E+00 -0.00000000000E+00 -0.45593999997E+02  0.45594000000E+02  0.51100000000E-03 0.  1.
    9900012    2    1    2    0    0  0.15057680445E+02  0.42366385918E+02  0.27329725386E+01  0.46142317243E+02  0.99999952730E+01 0.  0.
         12    1    1    2    0    0 -0.15057680445E+02 -0.42366385918E+02 -0.27329725386E+01  0.45045682757E+02  0.00000000000E+00 0. -1.
         11    1    3    3    0    0  0.49068603471E+01  0.11626256612E+02  0.56068211713E+00  0.12631764958E+02  0.51100000000E-03 0. -1.
        -11    1    3    3    0    0  0.47641778135E+00  0.11791366474E+02 -0.15811231543E+01  0.11906437247E+02  0.51100000000E-03 0.  1.
         12    1    3    3    0    0  0.96744023170E+01  0.18948762833E+02  0.37534135758E+01  0.21604115038E+02  0.00000000000E+00 0. -1.
</event>
<event>
 7    1  0.2425980E-008  0.4614232E+02  0.7816164E-02  0.1320468E+00
        -11   -1    0    0    0    0  0.00000000000E+00  0.00000000000E+00  0.45593999997E+02  0.45594000000E+02  0.51100000000E-03 0.  1.
         11   -1    0    0    0    0 -0.00000000000E+00 -0.00000000000E+00 -0.45593999997E+02  0.45594000000E+02  0.51100000000E-03 0. -1.
    9900012    2    1    2    0    0 -0.34649730362E+02 -0.20776400776E+02 -0.19921121758E+02  0.46142315018E+02  0.99999749890E+01 0.  0.
         12    1    1    2    0    0  0.34649730362E+02  0.20776400776E+02  0.19921121758E+02  0.45045684982E+02  0.00000000000E+00 0. -1.
         11    1    3    3    0    0 -0.76683007004E+01 -0.85792495123E+01 -0.69481744680E+01  0.13441855769E+02  0.51100000000E-03 0. -1.
        -11    1    3    3    0    0 -0.10359360239E+02 -0.49957563770E+01 -0.24781886279E+01  0.11765005120E+02  0.51100000000E-03 0.  1.
         12    1    3    3    0    0 -0.16622069423E+02 -0.72013948871E+01 -0.10494758662E+02  0.20935454129E+02  0.00000000000E+00 0. -1.
</event>
<event>
 7    1  0.2425980E-008  0.4614232E+02  0.7816164E-02  0.1320468E+00
        -11   -1    0    0    0    0  0.00000000000E+00  0.00000000000E+00  0.45593999997E+02  0.45594000000E+02  0.51100000000E-03 0. -1.
         11   -1    0    0    0    0 -0.00000000000E+00 -0.00000000000E+00 -0.45593999997E+02  0.45594000000E+02  0.51100000000E-03 0.  1.
    9900012    2    1    2    0    0 -0.85526425807E+01 -0.38739012901E+02 -0.21336697569E+02  0.46142317867E+02  0.10000000967E+02 0.  0.
         12    1    1    2    0    0  0.85526425807E+01  0.38739012901E+02  0.21336697569E+02  0.45045682133E+02  0.00000000000E+00 0. -1.
         11    1    3    3    0    0  0.97476871856E+00 -0.13227234000E+02 -0.57927334783E+01  0.14472928341E+02  0.51100000000E-03 0. -1.
        -11    1    3    3    0    0 -0.50416035346E+01 -0.19165870215E+02 -0.10950127699E+02  0.22641856024E+02  0.51100000000E-03 0.  1.
         12    1    3    3    0    0 -0.44858077646E+01 -0.63459086857E+01 -0.45938363918E+01  0.90275335027E+01  0.00000000000E+00 0. -1.
</event>
<event>
 7    1  0.2425980E-008  0.4614233E+02  0.7816164E-02  0.1320468E+00
        -11   -1    0    0    0    0  0.00000000000E+00  0.00000000000E+00  0.45593999997E+02  0.45594000000E+02  0.51100000000E-03 0.  1.
         11   -1    0    0    0    0 -0.00000000000E+00 -0.00000000000E+00 -0.45593999997E+02  0.45594000000E+02  0.51100000000E-03 0. -1.
    9900012    2    1    2    0    0  0.57266975398E+01 -0.37854861897E+02  0.23734513760E+02  0.46142325653E+02  0.10000071964E+02 0.  0.
         12    1    1    2    0    0 -0.57266975398E+01  0.37854861897E+02 -0.23734513760E+02  0.45045674347E+02  0.00000000000E+00 0. -1.
         11    1    3    3    0    0  0.77082499117E+01 -0.26061315993E+02  0.14644053695E+02  0.30871631264E+02  0.51100000000E-03 0. -1.
        -11    1    3    3    0    0 -0.54474142601E+00 -0.89325894049E+01  0.75928833237E+01  0.11736258949E+02  0.51100000000E-03 0.  1.
        -12    1    3    3    0    0 -0.14368109459E+01 -0.28609564989E+01  0.14975767412E+01  0.35344354399E+01  0.00000000000E+00 0.  1.
</event>
<event>
 7    1  0.2425980E-008  0.4614232E+02  0.7816164E-02  0.1320468E+00
        -11   -1    0    0    0    0  0.00000000000E+00  0.00000000000E+00  0.45593999997E+02  0.45594000000E+02  0.51100000000E-03 0.  1.
         11   -1    0    0    0    0 -0.00000000000E+00 -0.00000000000E+00 -0.45593999997E+02  0.45594000000E+02  0.51100000000E-03 0. -1.
    9900012    2    1    2    0    0 -0.16552735958E+01  0.23028655993E+02  0.38678863864E+02  0.46142318328E+02  0.10000005166E+02 0.  0.
         12    1    1    2    0    0  0.16552735958E+01 -0.23028655993E+02 -0.38678863864E+02  0.45045681672E+02  0.00000000000E+00 0. -1.
         11    1    3    3    0    0 -0.36659613009E+01  0.11986507019E+02  0.16073712701E+02  0.20383323159E+02  0.51100000000E-03 0. -1.
        -11    1    3    3    0    0 -0.76082153780E+00  0.34760339930E+00  0.33873915756E+00  0.90245333041E+00  0.51100000000E-03 0.  1.
        -12    1    3    3    0    0  0.27715092429E+01  0.10694545575E+02  0.22266412006E+02  0.24856541838E+02  0.00000000000E+00 0.  1.
</event>
<event>
 7    1  0.2425980E-008  0.4614232E+02  0.7816164E-02  0.1320468E+00
        -11   -1    0    0    0    0  0.00000000000E+00  0.00000000000E+00  0.45593999997E+02  0.45594000000E+02  0.51100000000E-03 0. -1.
         11   -1    0    0    0    0 -0.00000000000E+00 -0.00000000000E+00 -0.45593999997E+02  0.45594000000E+02  0.51100000000E-03 0.  1.
    9900012    2    1    2    0    0 -0.57398056647E+01 -0.44665117602E+02  0.10933322007E+01  0.46142317912E+02  0.10000001378E+02 0.  0.
         12    1    1    2    0    0  0.57398056647E+01  0.44665117602E+02 -0.10933322007E+01  0.45045682088E+02  0.00000000000E+00 0. -1.
         11    1    3    3    0    0 -0.40128201959E+01 -0.11824575527E+02 -0.15588833732E+01  0.12583855925E+02  0.51100000000E-03 0. -1.
        -11    1    3    3    0    0 -0.17988749617E+01 -0.24392798696E+02 -0.70144758626E+00  0.24469094963E+02  0.51100000000E-03 0.  1.
        -12    1    3    3    0    0  0.71889492970E-01 -0.84477433788E+01  0.33536631601E+01  0.90893670233E+01  0.00000000000E+00 0.  1.
</event>
<event>
 7    1  0.2425980E-008  0.4614232E+02  0.7816164E-02  0.1320468E+00
        -11   -1    0    0    0    0  0.00000000000E+00  0.00000000000E+00  0.45593999997E+02  0.45594000000E+02  0.51100000000E-03 0. -1.
         11   -1    0    0    0    0 -0.00000000000E+00 -0.00000000000E+00 -0.45593999997E+02  0.45594000000E+02  0.51100000000E-03 0.  1.
    9900012    2    1    2    0    0 -0.32466626560E+02 -0.15224161340E+02 -0.27262732681E+02  0.46142317388E+02  0.99999965982E+01 0.  0.
         12    1    1    2    0    0  0.32466626560E+02  0.15224161340E+02  0.27262732681E+02  0.45045682612E+02  0.00000000000E+00 0. -1.
         11    1    3    3    0    0 -0.36222452230E+01 -0.32002687012E+01 -0.48666557292E+01  0.68590610482E+01  0.51100000000E-03 0. -1.
        -11    1    3    3    0    0 -0.22625919932E+02 -0.75913907745E+01 -0.20384787027E+02  0.31386318820E+02  0.51100000000E-03 0.  1.
        -12    1    3    3    0    0 -0.62184614056E+01 -0.44325018646E+01 -0.20112899246E+01  0.78969375199E+01  0.00000000000E+00 0.  1.
</event>
<event>
 7    1  0.2425980E-008  0.4614232E+02  0.7816164E-02  0.1320468E+00
        -11   -1    0    0    0    0  0.00000000000E+00  0.00000000000E+00  0.45593999997E+02  0.45594000000E+02  0.51100000000E-03 0.  1.
         11   -1    0    0    0    0 -0.00000000000E+00 -0.00000000000E+00 -0.45593999997E+02  0.45594000000E+02  0.51100000000E-03 0. -1.
    9900012    2    1    2    0    0 -0.32384974355E+02  0.14333046957E+02  0.27836859878E+02  0.46142316889E+02  0.99999920514E+01 0.  0.
         12    1    1    2    0    0  0.32384974355E+02 -0.14333046957E+02 -0.27836859878E+02  0.45045683111E+02  0.00000000000E+00 0. -1.
         11    1    3    3    0    0 -0.50071417231E+00 -0.85603358076E+00 -0.25884350126E-01  0.99205767698E+00  0.51100000000E-03 0. -1.
        -11    1    3    3    0    0 -0.18429714707E+02  0.10349825204E+02  0.18201566822E+02  0.27893911540E+02  0.51100000000E-03 0.  1.
        -12    1    3    3    0    0 -0.13454545476E+02  0.48392553332E+01  0.96611774060E+01  0.17256347673E+02  0.00000000000E+00 0.  1.
</event>
<event>
 7    1  0.2425980E-008  0.4614233E+02  0.7816164E-02  0.1320468E+00
        -11   -1    0    0    0    0  0.00000000000E+00  0.00000000000E+00  0.45593999997E+02  0.45594000000E+02  0.51100000000E-03 0.  1.
         11   -1    0    0    0    0 -0.00000000000E+00 -0.00000000000E+00 -0.45593999997E+02  0.45594000000E+02  0.51100000000E-03 0. -1.
    9900012    2    1    2    0    0 -0.22618971793E+01  0.43777102519E+02  0.10371186143E+02  0.46142329999E+02  0.10000111596E+02 0.  0.
         12    1    1    2    0    0  0.22618971793E+01 -0.43777102519E+02 -0.10371186143E+02  0.45045670001E+02  0.00000000000E+00 0. -1.
         11    1    3    3    0    0 -0.14290103023E+01  0.79073060899E+01  0.34105191509E+01  0.87292153819E+01  0.51100000000E-03 0. -1.
        -11    1    3    3    0    0  0.52945311622E-01  0.36151679830E+01  0.33779901513E+01  0.49480360220E+01  0.51100000000E-03 0.  1.
        -12    1    3    3    0    0 -0.88583218863E+00  0.32254628446E+02  0.35826768410E+01  0.32465078595E+02  0.00000000000E+00 0.  1.
</event>
<event>
 7    1  0.2425980E-008  0.4614232E+02  0.7816164E-02  0.1320468E+00
        -11   -1    0    0    0    0  0.00000000000E+00  0.00000000000E+00  0.45593999997E+02  0.45594000000E+02  0.51100000000E-03 0.  1.
         11   -1    0    0    0    0 -0.00000000000E+00 -0.00000000000E+00 -0.45593999997E+02  0.45594000000E+02  0.51100000000E-03 0. -1.
    9900012    2    1    2    0    0  0.47046293233E+00 -0.13656440192E+02  0.42923114936E+02  0.46142317744E+02  0.99999998412E+01 0.  0.
         12    1    1    2    0    0 -0.47046293233E+00  0.13656440192E+02 -0.42923114936E+02  0.45045682256E+02  0.00000000000E+00 0. -1.
         11    1    3    3    0    0  0.67920864060E+00 -0.36710953585E+00  0.10090877639E+02  0.10120370822E+02  0.51100000000E-03 0. -1.
        -11    1    3    3    0    0 -0.20293538444E+01 -0.42515266486E+01  0.58676324736E+01  0.75248167404E+01  0.51100000000E-03 0.  1.
        -12    1    3    3    0    0  0.18206081361E+01 -0.90378040076E+01  0.26964604824E+02  0.28497130182E+02  0.00000000000E+00 0.  1.
</event>
<event>
 7    1  0.2425980E-008  0.4614231E+02  0.7816164E-02  0.1320468E+00
        -11   -1    0    0    0    0  0.00000000000E+00  0.00000000000E+00  0.45593999997E+02  0.45594000000E+02  0.51100000000E-03 0.  1.
         11   -1    0    0    0    0 -0.00000000000E+00 -0.00000000000E+00 -0.45593999997E+02  0.45594000000E+02  0.51100000000E-03 0. -1.
    9900012    2    1    2    0    0  0.30789986965E+02  0.64330087651E+01  0.32244487793E+02  0.46142313279E+02  0.99999591326E+01 0.  0.
         12    1    1    2    0    0 -0.30789986965E+02 -0.64330087651E+01 -0.32244487793E+02  0.45045686721E+02  0.00000000000E+00 0. -1.
         11    1    3    3    0    0  0.43903007671E+01  0.13920849195E+01  0.35414974118E+01  0.58098920324E+01  0.51100000000E-03 0. -1.
        -11    1    3    3    0    0  0.47481987352E+01  0.16301573645E+01  0.11961932492E+01  0.51607831589E+01  0.51100000000E-03 0.  1.
         12    1    3    3    0    0  0.21651487462E+02  0.34107664811E+01  0.27506797132E+02  0.35171638088E+02  0.00000000000E+00 0. -1.
</event>
<event>
 7    1  0.2425980E-008  0.4614232E+02  0.7816164E-02  0.1320468E+00
        -11   -1    0    0    0    0  0.00000000000E+00  0.00000000000E+00  0.45593999997E+02  0.45594000000E+02  0.51100000000E-03 0.  1.
         11   -1    0    0    0    0 -0.00000000000E+00 -0.00000000000E+00 -0.45593999997E+02  0.45594000000E+02  0.51100000000E-03 0. -1.
    9900012    2    1    2    0    0  0.24764548729E+02 -0.30482057278E+02  0.22060703492E+02  0.46142319538E+02  0.10000016207E+02 0.  0.
         12    1    1    2    0    0 -0.24764548729E+02  0.30482057278E+02 -0.22060703492E+02  0.45045680462E+02  0.00000000000E+00 0. -1.
         11    1    3    3    0    0 -0.53127822905E+00  0.18195774861E+00  0.59712168754E-01  0.56473974817E+00  0.51100000000E-03 0. -1.
        -11    1    3    3    0    0  0.15854751421E+02 -0.21812862747E+02  0.15301594577E+02  0.31005046697E+02  0.51100000000E-03 0.  1.
        -12    1    3    3    0    0  0.94410755371E+01 -0.88511522804E+01  0.66993967462E+01  0.14572533093E+02  0.00000000000E+00 0.  1.
</event>
<event>
 7    1  0.2425980E-008  0.4614232E+02  0.7816164E-02  0.1320468E+00
        -11   -1    0    0    0    0  0.00000000000E+00  0.00000000000E+00  0.45593999997E+02  0.45594000000E+02  0.51100000000E-03 0. -1.
         11   -1    0    0    0    0 -0.00000000000E+00 -0.00000000000E+00 -0.45593999997E+02  0.45594000000E+02  0.51100000000E-03 0.  1.
    9900012    2    1    2    0    0 -0.43403039349E+01  0.43806651695E+02  0.95526051254E+01  0.46142320566E+02  0.10000025576E+02 0.  0.
         12    1    1    2    0    0  0.43403039349E+01 -0.43806651695E+02 -0.95526051254E+01  0.45045679434E+02  0.00000000000E+00 0. -1.
         11    1    3    3    0    0 -0.24700049526E+01  0.18297270467E+02  0.66075704997E+01  0.19609972442E+02  0.51100000000E-03 0.  1.
        -11    1    3    3    0    0 -0.12327649633E+00  0.16106889348E+02  0.47648032140E+01  0.16797334059E+02  0.51100000000E-03 0. -1.
         12    1    3    3    0    0 -0.17470224860E+01  0.94024918805E+01 -0.18197685883E+01  0.97350140649E+01  0.00000000000E+00 0. -1.
</event>
<event>
 7    1  0.2425980E-008  0.4614232E+02  0.7816164E-02  0.1320468E+00
        -11   -1    0    0    0    0  0.00000000000E+00  0.00000000000E+00  0.45593999997E+02  0.45594000000E+02  0.51100000000E-03 0.  1.
         11   -1    0    0    0    0 -0.00000000000E+00 -0.00000000000E+00 -0.45593999997E+02  0.45594000000E+02  0.51100000000E-03 0. -1.
    9900012    2    1    2    0    0  0.25730909183E+02 -0.76572036488E+01  0.36171827677E+02  0.46142316826E+02  0.99999914772E+01 0.  0.
         12    1    1    2    0    0 -0.25730909183E+02  0.76572036488E+01 -0.36171827677E+02  0.45045683174E+02  0.00000000000E+00 0. -1.
         11    1    3    3    0    0  0.14215592271E+02 -0.27033550814E+00  0.21398578139E+02  0.25691541245E+02  0.51100000000E-03 0.  1.
        -11    1    3    3    0    0  0.10815718477E+01 -0.66349094253E+00  0.16219634470E+00  0.12791895121E+01  0.51100000000E-03 0. -1.
        -12    1    3    3    0    0  0.10433745063E+02 -0.67233771981E+01  0.14611053193E+02  0.19171586069E+02  0.00000000000E+00 0.  1.
</event>
<event>
 7    1  0.2425980E-008  0.4614232E+02  0.7816164E-02  0.1320468E+00
        -11   -1    0    0    0    0  0.00000000000E+00  0.00000000000E+00  0.45593999997E+02  0.45594000000E+02  0.51100000000E-03 0.  1.
         11   -1    0    0    0    0 -0.00000000000E+00 -0.00000000000E+00 -0.45593999997E+02  0.45594000000E+02  0.51100000000E-03 0. -1.
    9900012    2    1    2    0    0  0.93726854932E+01 -0.24808643490E+02  0.36411501942E+02  0.46142317645E+02  0.99999989391E+01 0.  0.
         12    1    1    2    0    0 -0.93726854932E+01  0.24808643490E+02 -0.36411501942E+02  0.45045682355E+02  0.00000000000E+00 0. -1.
         11    1    3    3    0    0  0.57025493935E+00 -0.30114570219E+01  0.19839715413E+01  0.36510556595E+01  0.51100000000E-03 0. -1.
        -11    1    3    3    0    0  0.60459653338E+01 -0.14725982272E+02  0.16037336068E+02  0.22596557240E+02  0.51100000000E-03 0.  1.
        -12    1    3    3    0    0  0.27564652201E+01 -0.70712041958E+01  0.18390194333E+02  0.19894704745E+02  0.00000000000E+00 0.  1.
</event>
<event>
 7    1  0.2425980E-008  0.4614232E+02  0.7816164E-02  0.1320468E+00
        -11   -1    0    0    0    0  0.00000000000E+00  0.00000000000E+00  0.45593999997E+02  0.45594000000E+02  0.51100000000E-03 0.  1.
         11   -1    0    0    0    0 -0.00000000000E+00 -0.00000000000E+00 -0.45593999997E+02  0.45594000000E+02  0.51100000000E-03 0. -1.
    9900012    2    1    2    0    0 -0.25737485390E+01 -0.43130623843E+02  0.12737292336E+02  0.46142317514E+02  0.99999977447E+01 0.  0.
         12    1    1    2    0    0  0.25737485390E+01  0.43130623843E+02 -0.12737292336E+02  0.45045682486E+02  0.00000000000E+00 0. -1.
         11    1    3    3    0    0 -0.63286007970E+00 -0.64219266054E+01 -0.95390007163E+00  0.65231571201E+01  0.51100000000E-03 0. -1.
        -11    1    3    3    0    0 -0.28528274533E+01 -0.35216592790E+02  0.13628598184E+02  0.37869324273E+02  0.51100000000E-03 0.  1.
         12    1    3    3    0    0  0.91193899395E+00 -0.14921044477E+01  0.62594223086E-01  0.17498361204E+01  0.00000000000E+00 0. -1.
</event>
<event>
 7    1  0.2425980E-008  0.4614232E+02  0.7816164E-02  0.1320468E+00
        -11   -1    0    0    0    0  0.00000000000E+00  0.00000000000E+00  0.45593999997E+02  0.45594000000E+02  0.51100000000E-03 0.  1.
         11   -1    0    0    0    0 -0.00000000000E+00 -0.00000000000E+00 -0.45593999997E+02  0.45594000000E+02  0.51100000000E-03 0. -1.
    9900012    2    1    2    0    0 -0.35864572553E+02 -0.27227210216E+02 -0.12348883044E+01  0.46142317746E+02  0.99999998629E+01 0.  0.
         12    1    1    2    0    0  0.35864572553E+02  0.27227210216E+02  0.12348883044E+01  0.45045682254E+02  0.00000000000E+00 0. -1.
         11    1    3    3    0    0 -0.12951371466E+01 -0.92994799162E+00  0.10992057336E+01  0.19366045031E+01  0.51100000000E-03 0. -1.
        -11    1    3    3    0    0 -0.25675572334E+02 -0.21570795982E+02  0.11349314506E+01  0.33553275900E+02  0.51100000000E-03 0.  1.
        -12    1    3    3    0    0 -0.88938630729E+01 -0.47264662428E+01 -0.34690254887E+01  0.10652437343E+02  0.00000000000E+00 0.  1.
</event>
<event>
 7    1  0.2425980E-008  0.4614232E+02  0.7816164E-02  0.1320468E+00
        -11   -1    0    0    0    0  0.00000000000E+00  0.00000000000E+00  0.45593999997E+02  0.45594000000E+02  0.51100000000E-03 0.  1.
         11   -1    0    0    0    0 -0.00000000000E+00 -0.00000000000E+00 -0.45593999997E+02  0.45594000000E+02  0.51100000000E-03 0. -1.
    9900012    2    1    2    0    0  0.20891825093E+02  0.14171309331E+02  0.37307092108E+02  0.46142317794E+02  0.10000000301E+02 0.  0.
         12    1    1    2    0    0 -0.20891825093E+02 -0.14171309331E+02 -0.37307092108E+02  0.45045682206E+02  0.00000000000E+00 0. -1.
         11    1    3    3    0    0  0.42914152637E+01  0.81211822127E+00  0.50880759809E+01  0.67055423658E+01  0.51100000000E-03 0. -1.
        -11    1    3    3    0    0  0.97703714379E+01  0.78801230692E+01  0.11835334746E+02  0.17252004128E+02  0.51100000000E-03 0.  1.
         12    1    3    3    0    0  0.68300383910E+01  0.54790680408E+01  0.20383681380E+02  0.22184771300E+02  0.00000000000E+00 0. -1.
</event>
<event>
 7    1  0.2425980E-008  0.4614232E+02  0.7816164E-02  0.1320468E+00
        -11   -1    0    0    0    0  0.00000000000E+00  0.00000000000E+00  0.45593999997E+02  0.45594000000E+02  0.51100000000E-03 0.  1.
         11   -1    0    0    0    0 -0.00000000000E+00 -0.00000000000E+00 -0.45593999997E+02  0.45594000000E+02  0.51100000000E-03 0. -1.
    9900012    2    1    2    0    0  0.21912518525E+02  0.21521812048E+02  0.32950975181E+02  0.46142316219E+02  0.99999859370E+01 0.  0.
         12    1    1    2    0    0 -0.21912518525E+02 -0.21521812048E+02 -0.32950975181E+02  0.45045683781E+02  0.00000000000E+00 0. -1.
         11    1    3    3    0    0  0.10458140400E+02  0.90819300353E+01  0.14632182302E+02  0.20148322833E+02  0.51100000000E-03 0. -1.
        -11    1    3    3    0    0  0.53355524249E+01  0.35241112266E+01  0.11650128781E+02  0.13289581652E+02  0.51100000000E-03 0.  1.
         12    1    3    3    0    0  0.61188257005E+01  0.89157707859E+01  0.66686640980E+01  0.12704411734E+02  0.00000000000E+00 0. -1.
</event>
<event>
 7    1  0.2425980E-008  0.4614232E+02  0.7816164E-02  0.1320468E+00
        -11   -1    0    0    0    0  0.00000000000E+00  0.00000000000E+00  0.45593999997E+02  0.45594000000E+02  0.51100000000E-03 0.  1.
         11   -1    0    0    0    0 -0.00000000000E+00 -0.00000000000E+00 -0.45593999997E+02  0.45594000000E+02  0.51100000000E-03 0. -1.
    9900012    2    1    2    0    0  0.16444959115E+02  0.36602077816E+02  0.20468624834E+02  0.46142318926E+02  0.10000010625E+02 0.  0.
         12    1    1    2    0    0 -0.16444959115E+02 -0.36602077816E+02 -0.20468624834E+02  0.45045681074E+02  0.00000000000E+00 0. -1.
         11    1    3    3    0    0 -0.11348303138E+00  0.20654375198E+01 -0.19474450710E+00  0.20776997451E+01  0.51100000000E-03 0. -1.
        -11    1    3    3    0    0  0.41593506855E+01  0.33517067702E+01  0.33077777481E+01  0.62829555378E+01  0.51100000000E-03 0.  1.
        -12    1    3    3    0    0  0.12399091461E+02  0.31184933526E+02  0.17355591593E+02  0.37781663643E+02  0.00000000000E+00 0.  1.
</event>
<event>
 7    1  0.2425980E-008  0.4614232E+02  0.7816164E-02  0.1320468E+00
        -11   -1    0    0    0    0  0.00000000000E+00  0.00000000000E+00  0.45593999997E+02  0.45594000000E+02  0.51100000000E-03 0.  1.
         11   -1    0    0    0    0 -0.00000000000E+00 -0.00000000000E+00 -0.45593999997E+02  0.45594000000E+02  0.51100000000E-03 0. -1.
    9900012    2    1    2    0    0  0.17646702611E+02  0.34925568361E+01  0.41297814153E+02  0.46142317409E+02  0.99999967868E+01 0.  0.
         12    1    1    2    0    0 -0.17646702611E+02 -0.34925568361E+01 -0.41297814153E+02  0.45045682591E+02  0.00000000000E+00 0. -1.
         11    1    3    3    0    0  0.42412704500E+00  0.95608987596E+00  0.95136589600E+01  0.95709821162E+01  0.51100000000E-03 0. -1.
        -11    1    3    3    0    0  0.11839453340E+02  0.38868894302E+01  0.23509189679E+02  0.26607565925E+02  0.51100000000E-03 0.  1.
         12    1    3    3    0    0  0.53831222267E+01 -0.13504224700E+01  0.82749655140E+01  0.99637693677E+01  0.00000000000E+00 0. -1.
</event>
<event>
 7    1  0.2425980E-008  0.4614232E+02  0.7816164E-02  0.1320468E+00
        -11   -1    0    0    0    0  0.00000000000E+00  0.00000000000E+00  0.45593999997E+02  0.45594000000E+02  0.51100000000E-03 0. -1.
         11   -1    0    0    0    0 -0.00000000000E+00 -0.00000000000E+00 -0.45593999997E+02  0.45594000000E+02  0.51100000000E-03 0.  1.
    9900012    2    1    2    0    0  0.74466799832E+01  0.29240527179E+01 -0.44329565778E+02  0.46142317309E+02  0.99999958732E+01 0.  0.
         12    1    1    2    0    0 -0.74466799832E+01 -0.29240527179E+01  0.44329565778E+02  0.45045682691E+02  0.00000000000E+00 0. -1.
         11    1    3    3    0    0  0.64280863745E+01  0.15245400523E+01 -0.21576173658E+02  0.22564923816E+02  0.51100000000E-03 0. -1.
        -11    1    3    3    0    0  0.27182274258E+01  0.10691939651E+00 -0.49658480257E+01  0.56621408470E+01  0.51100000000E-03 0.  1.
         12    1    3    3    0    0 -0.16996338171E+01  0.12925932691E+01 -0.17787544094E+02  0.17915252646E+02  0.00000000000E+00 0. -1.
</event>
<event>
 7    1  0.2425980E-008  0.4614231E+02  0.7816164E-02  0.1320468E+00
        -11   -1    0    0    0    0  0.00000000000E+00  0.00000000000E+00  0.45593999997E+02  0.45594000000E+02  0.51100000000E-03 0. -1.
         11   -1    0    0    0    0 -0.00000000000E+00 -0.00000000000E+00 -0.45593999997E+02  0.45594000000E+02  0.51100000000E-03 0.  1.
    9900012    2    1    2    0    0 -0.21348320727E+02 -0.24690337543E+02 -0.31044329407E+02  0.46142312591E+02  0.99999528523E+01 0.  0.
         12    1    1    2    0    0  0.21348320727E+02  0.24690337543E+02  0.31044329407E+02  0.45045687409E+02  0.00000000000E+00 0. -1.
         11    1    3    3    0    0 -0.10177863967E+01 -0.57318809504E+01 -0.77001622832E+01  0.96531263240E+01  0.51100000000E-03 0. -1.
        -11    1    3    3    0    0 -0.11269866816E+02 -0.79788246595E+01 -0.11645294548E+02  0.18063344828E+02  0.51100000000E-03 0.  1.
         12    1    3    3    0    0 -0.90606675144E+01 -0.10979631933E+02 -0.11698872576E+02  0.18425841439E+02  0.00000000000E+00 0. -1.
</event>
<event>
 7    1  0.2425980E-008  0.4614232E+02  0.7816164E-02  0.1320468E+00
        -11   -1    0    0    0    0  0.00000000000E+00  0.00000000000E+00  0.45593999997E+02  0.45594000000E+02  0.51100000000E-03 0. -1.
         11   -1    0    0    0    0 -0.00000000000E+00 -0.00000000000E+00 -0.45593999997E+02  0.45594000000E+02  0.51100000000E-03 0.  1.
    9900012    2    1    2    0    0  0.43236171180E+02  0.70751725179E+01 -0.10473246016E+02  0.46142318225E+02  0.10000004231E+02 0.  0.
         12    1    1    2    0    0 -0.43236171180E+02 -0.70751725179E+01  0.10473246016E+02  0.45045681775E+02  0.00000000000E+00 0. -1.
         11    1    3    3    0    0  0.32883388546E+01 -0.48122053033E+00  0.60884496143E-01  0.33239212994E+01  0.51100000000E-03 0. -1.
        -11    1    3    3    0    0  0.30938411700E+02  0.76282080914E+01 -0.50274230510E+01  0.32259105071E+02  0.51100000000E-03 0.  1.
         12    1    3    3    0    0  0.90094206253E+01 -0.71815043195E-01 -0.55067074613E+01  0.10559291855E+02  0.00000000000E+00 0. -1.
</event>
<event>
 7    1  0.2425980E-008  0.4614232E+02  0.7816164E-02  0.1320468E+00
        -11   -1    0    0    0    0  0.00000000000E+00  0.00000000000E+00  0.45593999997E+02  0.45594000000E+02  0.51100000000E-03 0. -1.
         11   -1    0    0    0    0 -0.00000000000E+00 -0.00000000000E+00 -0.45593999997E+02  0.45594000000E+02  0.51100000000E-03 0.  1.
    9900012    2    1    2    0    0  0.39131759900E+02 -0.22280268153E+02  0.11867783382E+01  0.46142318468E+02  0.10000006449E+02 0.  0.
         12    1    1    2    0    0 -0.39131759900E+02  0.22280268153E+02 -0.11867783382E+01  0.45045681532E+02  0.00000000000E+00 0. -1.
         11    1    3    3    0    0  0.10831535933E+02 -0.31274444707E+01  0.26803014161E+01  0.11588230905E+02  0.51100000000E-03 0. -1.
        -11    1    3    3    0    0  0.12097785459E+02 -0.10726887485E+02  0.54853931330E+00  0.16177868332E+02  0.51100000000E-03 0.  1.
        -12    1    3    3    0    0  0.16202438508E+02 -0.84259361981E+01 -0.20420623913E+01  0.18376219231E+02  0.00000000000E+00 0.  1.
</event>
<event>
 7    1  0.2425980E-008  0.4614232E+02  0.7816164E-02  0.1320468E+00
        -11   -1    0    0    0    0  0.00000000000E+00  0.00000000000E+00  0.45593999997E+02  0.45594000000E+02  0.51100000000E-03 0. -1.
         11   -1    0    0    0    0 -0.00000000000E+00 -0.00000000000E+00 -0.45593999997E+02  0.45594000000E+02  0.51100000000E-03 0.  1.
    9900012    2    1    2    0    0  0.16243701871E+02 -0.96887290568E+01 -0.40882565988E+02  0.46142317377E+02  0.99999964946E+01 0.  0.
         12    1    1    2    0    0 -0.16243701871E+02  0.96887290568E+01  0.40882565988E+02  0.45045682623E+02  0.00000000000E+00 0. -1.
         11    1    3    3    0    0  0.37147713105E+01 -0.66440263515E+01 -0.12344914614E+02  0.14503086883E+02  0.51100000000E-03 0. -1.
        -11    1    3    3    0    0 -0.37642098500E+00 -0.24588511216E+00 -0.77446617969E+00  0.89551681779E+00  0.51100000000E-03 0.  1.
        -12    1    3    3    0    0  0.12905351545E+02 -0.27988175931E+01 -0.27763185195E+02  0.30743713676E+02  0.00000000000E+00 0.  1.
</event>
<event>
 7    1  0.2425980E-008  0.4614232E+02  0.7816164E-02  0.1320468E+00
        -11   -1    0    0    0    0  0.00000000000E+00  0.00000000000E+00  0.45593999997E+02  0.45594000000E+02  0.51100000000E-03 0.  1.
         11   -1    0    0    0    0 -0.00000000000E+00 -0.00000000000E+00 -0.45593999997E+02  0.45594000000E+02  0.51100000000E-03 0. -1.
    9900012    2    1    2    0    0 -0.17258603336E+00 -0.10013649902E+02  0.43918224572E+02  0.46142318522E+02  0.10000006935E+02 0.  0.
         12    1    1    2    0    0  0.17258603336E+00  0.10013649902E+02 -0.43918224572E+02  0.45045681478E+02  0.00000000000E+00 0. -1.
         11    1    3    3    0    0 -0.57826993210E+00 -0.32078084488E+01  0.42867721323E+01  0.53852434238E+01  0.51100000000E-03 0. -1.
        -11    1    3    3    0    0  0.21698594516E+01 -0.48107602597E+01  0.13573230360E+02  0.14563113918E+02  0.51100000000E-03 0.  1.
        -12    1    3    3    0    0 -0.17641755528E+01 -0.19950811938E+01  0.26058222079E+02  0.26193961180E+02  0.00000000000E+00 0.  1.
</event>
<event>
 7    1  0.2425980E-008  0.4614232E+02  0.7816164E-02  0.1320468E+00
        -11   -1    0    0    0    0  0.00000000000E+00  0.00000000000E+00  0.45593999997E+02  0.45594000000E+02  0.51100000000E-03 0. -1.
         11   -1    0    0    0    0 -0.00000000000E+00 -0.00000000000E+00 -0.45593999997E+02  0.45594000000E+02  0.51100000000E-03 0.  1.
    9900012    2    1    2    0    0  0.83741437821E+01 -0.43730302045E+02 -0.68299351129E+01  0.46142316359E+02  0.99999872164E+01 0.  0.
         12    1    1    2    0    0 -0.83741437821E+01  0.43730302045E+02  0.68299351129E+01  0.45045683641E+02  0.00000000000E+00 0. -1.
         11    1    3    3    0    0  0.23319323368E+01 -0.40701665480E+01 -0.41027808836E+00  0.47087676225E+01  0.51100000000E-03 0. -1.
        -11    1    3    3    0    0  0.73115139054E+00 -0.15432535717E+02  0.11736104738E+01  0.15494357128E+02  0.51100000000E-03 0.  1.
        -12    1    3    3    0    0  0.53110600547E+01 -0.24227599780E+02 -0.75932674983E+01  0.25939191608E+02  0.00000000000E+00 0.  1.
</event>
<event>
 7    1  0.2425980E-008  0.4614232E+02  0.7816164E-02  0.1320468E+00
        -11   -1    0    0    0    0  0.00000000000E+00  0.00000000000E+00  0.45593999997E+02  0.45594000000E+02  0.51100000000E-03 0.  1.
         11   -1    0    0    0    0 -0.00000000000E+00 -0.00000000000E+00 -0.45593999997E+02  0.45594000000E+02  0.51100000000E-03 0. -1.
    9900012    2    1    2    0    0  0.13350129423E+02  0.23877310026E+00  0.43021279041E+02  0.46142318536E+02  0.10000007066E+02 0.  0.
         12    1    1    2    0    0 -0.13350129423E+02 -0.23877310026E+00 -0.43021279041E+02  0.45045681464E+02  0.00000000000E+00 0. -1.
         11    1    3    3    0    0  0.73215588747E+01 -0.29034515978E+01  0.14281128493E+02  0.16309073758E+02  0.51100000000E-03 0. -1.
        -11    1    3    3    0    0  0.55586679425E+01  0.40789675670E+01  0.23558832065E+02  0.24547002551E+02  0.51100000000E-03 0.  1.
        -12    1    3    3    0    0  0.46990260585E+00 -0.93674286898E+00  0.51813184826E+01  0.52862422267E+01  0.00000000000E+00 0.  1.
</event>
<event>
 7    1  0.2425980E-008  0.4614232E+02  0.7816164E-02  0.1320468E+00
        -11   -1    0    0    0    0  0.00000000000E+00  0.00000000000E+00  0.45593999997E+02  0.45594000000E+02  0.51100000000E-03 0.  1.
         11   -1    0    0    0    0 -0.00000000000E+00 -0.00000000000E+00 -0.45593999997E+02  0.45594000000E+02  0.51100000000E-03 0. -1.
    9900012    2    1    2    0    0  0.21996032041E+02  0.36283634607E+02  0.15125661036E+02  0.46142321099E+02  0.10000030437E+02 0.  0.
         12    1    1    2    0    0 -0.21996032041E+02 -0.36283634607E+02 -0.15125661036E+02  0.45045678901E+02  0.00000000000E+00 0. -1.
         11    1    3    3    0    0  0.76430346098E+01  0.11040300605E+02  0.44217382999E+01  0.14137043020E+02  0.51100000000E-03 0. -1.
        -11    1    3    3    0    0  0.13950480422E+02  0.18920368170E+02  0.64578056998E+01  0.24378258560E+02  0.51100000000E-03 0.  1.
         12    1    3    3    0    0  0.40251700961E+00  0.63229658315E+01  0.42461170365E+01  0.76270195186E+01  0.00000000000E+00 0. -1.
</event>
<event>
 7    1  0.2425980E-008  0.4614232E+02  0.7816164E-02  0.1320468E+00
        -11   -1    0    0    0    0  0.00000000000E+00  0.00000000000E+00  0.45593999997E+02  0.45594000000E+02  0.51100000000E-03 0.  1.
         11   -1    0    0    0    0 -0.00000000000E+00 -0.00000000000E+00 -0.45593999997E+02  0.45594000000E+02  0.51100000000E-03 0. -1.
    9900012    2    1    2    0    0 -0.24865929687E+02 -0.92606062982E+01  0.36401101978E+02  0.46142317483E+02  0.99999974674E+01 0.  0.
         12    1    1    2    0    0  0.24865929687E+02  0.92606062982E+01 -0.36401101978E+02  0.45045682517E+02  0.00000000000E+00 0. -1.
         11    1    3    3    0    0  0.72461677983E-01 -0.51338965388E+00  0.18421222197E+00  0.55023089275E+00  0.51100000000E-03 0. -1.
        -11    1    3    3    0    0 -0.19251504938E+02 -0.10155901997E+02  0.27162813262E+02  0.34807775170E+02  0.51100000000E-03 0.  1.
         12    1    3    3    0    0 -0.56868864265E+01  0.14086853525E+01  0.90540764939E+01  0.10784311420E+02  0.00000000000E+00 0. -1.
</event>
<event>
 7    1  0.2425980E-008  0.4614232E+02  0.7816164E-02  0.1320468E+00
        -11   -1    0    0    0    0  0.00000000000E+00  0.00000000000E+00  0.45593999997E+02  0.45594000000E+02  0.51100000000E-03 0.  1.
         11   -1    0    0    0    0 -0.00000000000E+00 -0.00000000000E+00 -0.45593999997E+02  0.45594000000E+02  0.51100000000E-03 0. -1.
    9900012    2    1    2    0    0 -0.46435110611E+01  0.18452600944E+02  0.40829552284E+02  0.46142323001E+02  0.10000047781E+02 0.  0.
         12    1    1    2    0    0  0.46435110611E+01 -0.18452600944E+02 -0.40829552284E+02  0.45045676999E+02  0.00000000000E+00 0. -1.
         11    1    3    3    0    0 -0.13168832007E+01  0.50509761777E+01  0.13451049805E+02  0.14428349969E+02  0.51100000000E-03 0.  1.
        -11    1    3    3    0    0 -0.36502006724E+01  0.13815870728E+02  0.27648524285E+02  0.31123032377E+02  0.51100000000E-03 0. -1.
         12    1    3    3    0    0  0.32357281201E+00 -0.41424596171E+00 -0.27002180628E+00  0.59094065466E+00  0.00000000000E+00 0. -1.
</event>
<event>
 7    1  0.2425980E-008  0.4614232E+02  0.7816164E-02  0.1320468E+00
        -11   -1    0    0    0    0  0.00000000000E+00  0.00000000000E+00  0.45593999997E+02  0.45594000000E+02  0.51100000000E-03 0. -1.
         11   -1    0    0    0    0 -0.00000000000E+00 -0.00000000000E+00 -0.45593999997E+02  0.45594000000E+02  0.51100000000E-03 0.  1.
    9900012    2    1    2    0    0  0.44686163354E+02  0.41346844018E+01 -0.38941937531E+01  0.46142317017E+02  0.99999932155E+01 0.  0.
         12    1    1    2    0    0 -0.44686163354E+02 -0.41346844018E+01  0.38941937531E+01  0.45045682983E+02  0.00000000000E+00 0. -1.
         11    1    3    3    0    0  0.75939989340E+01  0.18687076627E+01 -0.35531517323E+01  0.85898647039E+01  0.51100000000E-03 0. -1.
        -11    1    3    3    0    0  0.90606813467E+01  0.28041381690E+01 -0.73413167399E+00  0.95130482451E+01  0.51100000000E-03 0.  1.
        -12    1    3    3    0    0  0.28031483073E+02 -0.53816143000E+00  0.39308965314E+00  0.28039404068E+02  0.00000000000E+00 0.  1.
</event>
<event>
 7    1  0.2425980E-008  0.4614232E+02  0.7816164E-02  0.1320468E+00
        -11   -1    0    0    0    0  0.00000000000E+00  0.00000000000E+00  0.45593999997E+02  0.45594000000E+02  0.51100000000E-03 0. -1.
         11   -1    0    0    0    0 -0.00000000000E+00 -0.00000000000E+00 -0.45593999997E+02  0.45594000000E+02  0.51100000000E-03 0.  1.
    9900012    2    1    2    0    0  0.16928448713E+02  0.28009805567E+01 -0.41649678619E+02  0.46142316556E+02  0.99999890117E+01 0.  0.
         12    1    1    2    0    0 -0.16928448713E+02 -0.28009805567E+01  0.41649678619E+02  0.45045683444E+02  0.00000000000E+00 0. -1.
         11    1    3    3    0    0  0.14517551664E+01  0.21863026227E+01 -0.40995569917E+01  0.48676359776E+01  0.51100000000E-03 0. -1.
        -11    1    3    3    0    0  0.10827413426E+02 -0.27057825284E+01 -0.28053587623E+02  0.30192017477E+02  0.51100000000E-03 0.  1.
        -12    1    3    3    0    0  0.46492801206E+01  0.33204604624E+01 -0.94965340040E+01  0.11082663101E+02  0.00000000000E+00 0.  1.
</event>
<event>
 7    1  0.2425980E-008  0.4614232E+02  0.7816164E-02  0.1320468E+00
        -11   -1    0    0    0    0  0.00000000000E+00  0.00000000000E+00  0.45593999997E+02  0.45594000000E+02  0.51100000000E-03 0. -1.
         11   -1    0    0    0    0 -0.00000000000E+00 -0.00000000000E+00 -0.45593999997E+02  0.45594000000E+02  0.51100000000E-03 0.  1.
    9900012    2    1    2    0    0 -0.79398167957E+01  0.21780497467E+01 -0.44286894027E+02  0.46142316810E+02  0.99999913277E+01 0.  0.
         12    1    1    2    0    0  0.79398167957E+01 -0.21780497467E+01  0.44286894027E+02  0.45045683190E+02  0.00000000000E+00 0. -1.
         11    1    3    3    0    0 -0.63587240429E+01  0.29795685056E+01 -0.25500158245E+02  0.26449371840E+02  0.51100000000E-03 0. -1.
        -11    1    3    3    0    0 -0.20772805260E+01  0.97066511626E+00 -0.16908956136E+02  0.17063706603E+02  0.51100000000E-03 0.  1.
         12    1    3    3    0    0  0.49618777315E+00 -0.17721838752E+01 -0.18777796465E+01  0.26292383677E+01  0.00000000000E+00 0. -1.
</event>
<event>
 7    1  0.2425980E-008  0.4614232E+02  0.7816164E-02  0.1320468E+00
        -11   -1    0    0    0    0  0.00000000000E+00  0.00000000000E+00  0.45593999997E+02  0.45594000000E+02  0.51100000000E-03 0.  1.
         11   -1    0    0    0    0 -0.00000000000E+00 -0.00000000000E+00 -0.45593999997E+02  0.45594000000E+02  0.51100000000E-03 0. -1.
    9900012    2    1    2    0    0  0.17127141675E+01 -0.32512946034E+02  0.31130184819E+02  0.46142318115E+02  0.10000003223E+02 0.  0.
         12    1    1    2    0    0 -0.17127141675E+01  0.32512946034E+02 -0.31130184819E+02  0.45045681885E+02  0.00000000000E+00 0. -1.
         11    1    3    3    0    0 -0.25113415693E+01 -0.81908553406E+01  0.45527930838E+01  0.97017974011E+01  0.51100000000E-03 0. -1.
        -11    1    3    3    0    0  0.12917880247E+00 -0.58059998476E+01  0.80722438007E+01  0.99442164917E+01  0.51100000000E-03 0.  1.
         12    1    3    3    0    0  0.40948769343E+01 -0.18516090846E+02  0.18505147935E+02  0.26496304222E+02  0.00000000000E+00 0. -1.
</event>
<event>
 7    1  0.2425980E-008  0.4614233E+02  0.7816164E-02  0.1320468E+00
        -11   -1    0    0    0    0  0.00000000000E+00  0.00000000000E+00  0.45593999997E+02  0.45594000000E+02  0.51100000000E-03 0.  1.
         11   -1    0    0    0    0 -0.00000000000E+00 -0.00000000000E+00 -0.45593999997E+02  0.45594000000E+02  0.51100000000E-03 0. -1.
    9900012    2    1    2    0    0  0.14397231673E+02 -0.15783613188E+02  0.39657401768E+02  0.46142331617E+02  0.10000126345E+02 0.  0.
         12    1    1    2    0    0 -0.14397231673E+02  0.15783613188E+02 -0.39657401768E+02  0.45045668383E+02  0.00000000000E+00 0. -1.
         11    1    3    3    0    0  0.18841890506E+01 -0.24827178665E+01  0.51375715358E+01  0.60090513336E+01  0.51100000000E-03 0.  1.
        -11    1    3    3    0    0  0.91577281088E+01 -0.14164305188E+02  0.26715168442E+02  0.31594172733E+02  0.51100000000E-03 0. -1.
         12    1    3    3    0    0  0.33553145135E+01  0.86340986645E+00  0.78046617905E+01  0.85391075498E+01  0.00000000000E+00 0. -1.
</event>
<event>
 7    1  0.2425980E-008  0.4614232E+02  0.7816164E-02  0.1320468E+00
        -11   -1    0    0    0    0  0.00000000000E+00  0.00000000000E+00  0.45593999997E+02  0.45594000000E+02  0.51100000000E-03 0.  1.
         11   -1    0    0    0    0 -0.00000000000E+00 -0.00000000000E+00 -0.45593999997E+02  0.45594000000E+02  0.51100000000E-03 0. -1.
    9900012    2    1    2    0    0  0.43494212112E+02 -0.11491300516E+02 -0.23058776481E+01  0.46142317116E+02  0.99999941132E+01 0.  0.
         12    1    1    2    0    0 -0.43494212112E+02  0.11491300516E+02  0.23058776481E+01  0.45045682884E+02  0.00000000000E+00 0. -1.
         11    1    3    3    0    0  0.69737781515E+01  0.69051639464E+00 -0.93036805138E+00  0.70693691069E+01  0.51100000000E-03 0. -1.
        -11    1    3    3    0    0  0.25181640400E+02 -0.86892779078E+01 -0.39567479273E+01  0.26930919372E+02  0.51100000000E-03 0.  1.
         12    1    3    3    0    0  0.11338793560E+02 -0.34925390026E+01  0.25812383307E+01  0.12142028637E+02  0.00000000000E+00 0. -1.
</event>
<event>
 7    1  0.2425980E-008  0.4614232E+02  0.7816164E-02  0.1320468E+00
        -11   -1    0    0    0    0  0.00000000000E+00  0.00000000000E+00  0.45593999997E+02  0.45594000000E+02  0.51100000000E-03 0.  1.
         11   -1    0    0    0    0 -0.00000000000E+00 -0.00000000000E+00 -0.45593999997E+02  0.45594000000E+02  0.51100000000E-03 0. -1.
    9900012    2    1    2    0    0 -0.39558152519E+02  0.19540801081E+02  0.90787246517E+01  0.46142316757E+02  0.99999908409E+01 0.  0.
         12    1    1    2    0    0  0.39558152519E+02 -0.19540801081E+02 -0.90787246517E+01  0.45045683243E+02  0.00000000000E+00 0. -1.
         11    1    3    3    0    0 -0.10501552192E+02  0.67858518820E+01  0.12194152031E+01  0.12562537877E+02  0.51100000000E-03 0. -1.
        -11    1    3    3    0    0 -0.22032960134E+02  0.12648186045E+02  0.77259455777E+01  0.26554061419E+02  0.51100000000E-03 0.  1.
         12    1    3    3    0    0 -0.70236401928E+01  0.10676315397E+00  0.13336387088E+00  0.70257174617E+01  0.00000000000E+00 0. -1.
</event>
<event>
 7    1  0.2425980E-008  0.4614232E+02  0.7816164E-02  0.1320468E+00
        -11   -1    0    0    0    0  0.00000000000E+00  0.00000000000E+00  0.45593999997E+02  0.45594000000E+02  0.51100000000E-03 0.  1.
         11   -1    0    0    0    0 -0.00000000000E+00 -0.00000000000E+00 -0.45593999997E+02  0.45594000000E+02  0.51100000000E-03 0. -1.
    9900012    2    1    2    0    0 -0.22632634993E+02 -0.70440969163E+01  0.38304804473E+02  0.46142317479E+02  0.99999974252E+01 0.  0.
         12    1    1    2    0    0  0.22632634993E+02  0.70440969163E+01 -0.38304804473E+02  0.45045682521E+02  0.00000000000E+00 0. -1.
         11    1    3    3    0    0 -0.18480946177E+00  0.51982195518E+00  0.54875720596E+00  0.77814146173E+00  0.51100000000E-03 0. -1.
        -11    1    3    3    0    0 -0.18154745310E+02 -0.61744090521E+01  0.23062021198E+02  0.29992914603E+02  0.51100000000E-03 0.  1.
        -12    1    3    3    0    0 -0.42930802212E+01 -0.13895098194E+01  0.14694026069E+02  0.15371261414E+02  0.00000000000E+00 0.  1.
</event>
<event>
 7    1  0.2425980E-008  0.4614231E+02  0.7816164E-02  0.1320468E+00
        -11   -1    0    0    0    0  0.00000000000E+00  0.00000000000E+00  0.45593999997E+02  0.45594000000E+02  0.51100000000E-03 0.  1.
         11   -1    0    0    0    0 -0.00000000000E+00 -0.00000000000E+00 -0.45593999997E+02  0.45594000000E+02  0.51100000000E-03 0. -1.
    9900012    2    1    2    0    0 -0.27736138170E+02  0.17192290563E+02  0.31052310050E+02  0.46142310142E+02  0.99999305201E+01 0.  0.
         12    1    1    2    0    0  0.27736138170E+02 -0.17192290563E+02 -0.31052310050E+02  0.45045689858E+02  0.00000000000E+00 0. -1.
         11    1    3    3    0    0 -0.68573013059E+01  0.10754943652E+01  0.41135766129E+01  0.80685055704E+01  0.51100000000E-03 0. -1.
        -11    1    3    3    0    0 -0.91025645582E+01  0.49078704540E+01  0.13336040257E+02  0.16875836096E+02  0.51100000000E-03 0.  1.
         12    1    3    3    0    0 -0.11776272306E+02  0.11208925743E+02  0.13602693180E+02  0.21197968475E+02  0.00000000000E+00 0. -1.
</event>
<event>
 7    1  0.2425980E-008  0.4614232E+02  0.7816164E-02  0.1320468E+00
        -11   -1    0    0    0    0  0.00000000000E+00  0.00000000000E+00  0.45593999997E+02  0.45594000000E+02  0.51100000000E-03 0.  1.
         11   -1    0    0    0    0 -0.00000000000E+00 -0.00000000000E+00 -0.45593999997E+02  0.45594000000E+02  0.51100000000E-03 0. -1.
    9900012    2    1    2    0    0 -0.31061410309E+02 -0.10267394226E+02  0.30965835010E+02  0.46142317271E+02  0.99999955332E+01 0.  0.
         12    1    1    2    0    0  0.31061410309E+02  0.10267394226E+02 -0.30965835010E+02  0.45045682729E+02  0.00000000000E+00 0. -1.
         11    1    3    3    0    0 -0.27338909980E+01  0.78755195454E+00  0.15923837353E+01  0.32603810041E+01  0.51100000000E-03 0. -1.
        -11    1    3    3    0    0 -0.18128091184E+02 -0.89057526778E+01  0.23230466311E+02  0.30783025940E+02  0.51100000000E-03 0.  1.
        -12    1    3    3    0    0 -0.10199428127E+02 -0.21491935030E+01  0.61429849643E+01  0.12098910327E+02  0.00000000000E+00 0.  1.
</event>
<event>
 7    1  0.2425980E-008  0.4614232E+02  0.7816164E-02  0.1320468E+00
        -11   -1    0    0    0    0  0.00000000000E+00  0.00000000000E+00  0.45593999997E+02  0.45594000000E+02  0.51100000000E-03 0.  1.
         11   -1    0    0    0    0 -0.00000000000E+00 -0.00000000000E+00 -0.45593999997E+02  0.45594000000E+02  0.51100000000E-03 0. -1.
    9900012    2    1    2    0    0  0.38962436778E+01  0.88348555329E+01  0.43998613727E+02  0.46142318776E+02  0.10000009251E+02 0.  0.
         12    1    1    2    0    0 -0.38962436778E+01 -0.88348555329E+01 -0.43998613727E+02  0.45045681224E+02  0.00000000000E+00 0. -1.
         11    1    3    3    0    0  0.19952615564E+01 -0.15360031638E+01  0.67697565483E+01  0.72228788154E+01  0.51100000000E-03 0. -1.
        -11    1    3    3    0    0 -0.13391523462E+01  0.26180563165E+01  0.10036707633E+02  0.10458635105E+02  0.51100000000E-03 0.  1.
         12    1    3    3    0    0  0.32401344676E+01  0.77528023802E+01  0.27192149545E+02  0.28460804855E+02  0.00000000000E+00 0. -1.
</event>
<event>
 7    1  0.2425980E-008  0.4614232E+02  0.7816164E-02  0.1320468E+00
        -11   -1    0    0    0    0  0.00000000000E+00  0.00000000000E+00  0.45593999997E+02  0.45594000000E+02  0.51100000000E-03 0.  1.
         11   -1    0    0    0    0 -0.00000000000E+00 -0.00000000000E+00 -0.45593999997E+02  0.45594000000E+02  0.51100000000E-03 0. -1.
    9900012    2    1    2    0    0 -0.62420998073E+01 -0.23863319438E+02  0.37692063334E+02  0.46142318043E+02  0.10000002571E+02 0.  0.
         12    1    1    2    0    0  0.62420998073E+01  0.23863319438E+02 -0.37692063334E+02  0.45045681957E+02  0.00000000000E+00 0. -1.
         11    1    3    3    0    0 -0.51715592634E+01 -0.52641073801E+01  0.10065207089E+02  0.12480554705E+02  0.51100000000E-03 0.  1.
        -11    1    3    3    0    0 -0.31157863223E+00  0.15169379457E-01 -0.32280652262E-01  0.31361386412E+00  0.51100000000E-03 0. -1.
        -12    1    3    3    0    0 -0.75896191168E+00 -0.18614381437E+02  0.27659136897E+02  0.33348149474E+02  0.00000000000E+00 0.  1.
</event>
<event>
 7    1  0.2425980E-008  0.4614232E+02  0.7816164E-02  0.1320468E+00
        -11   -1    0    0    0    0  0.00000000000E+00  0.00000000000E+00  0.45593999997E+02  0.45594000000E+02  0.51100000000E-03 0.  1.
         11   -1    0    0    0    0 -0.00000000000E+00 -0.00000000000E+00 -0.45593999997E+02  0.45594000000E+02  0.51100000000E-03 0. -1.
    9900012    2    1    2    0    0  0.22743071884E+02 -0.24532110570E+02  0.30166897875E+02  0.46142317686E+02  0.99999993168E+01 0.  0.
         12    1    1    2    0    0 -0.22743071884E+02  0.24532110570E+02 -0.30166897875E+02  0.45045682314E+02  0.00000000000E+00 0. -1.
         11    1    3    3    0    0  0.93378663282E+00 -0.22491288912E+01  0.53124764497E+01  0.58440520647E+01  0.51100000000E-03 0. -1.
        -11    1    3    3    0    0  0.74327721790E+01 -0.11729858274E+02  0.10805458698E+02  0.17595272528E+02  0.51100000000E-03 0.  1.
        -12    1    3    3    0    0  0.14376513072E+02 -0.10553123404E+02  0.14048962727E+02  0.22702993094E+02  0.00000000000E+00 0.  1.
</event>
<event>
 7    1  0.2425980E-008  0.4614232E+02  0.7816164E-02  0.1320468E+00
        -11   -1    0    0    0    0  0.00000000000E+00  0.00000000000E+00  0.45593999997E+02  0.45594000000E+02  0.51100000000E-03 0.  1.
         11   -1    0    0    0    0 -0.00000000000E+00 -0.00000000000E+00 -0.45593999997E+02  0.45594000000E+02  0.51100000000E-03 0. -1.
    9900012    2    1    2    0    0 -0.29729450650E+02 -0.20990712792E+02  0.26545491607E+02  0.46142318918E+02  0.10000010549E+02 0.  0.
         12    1    1    2    0    0  0.29729450650E+02  0.20990712792E+02 -0.26545491607E+02  0.45045681082E+02  0.00000000000E+00 0. -1.
         11    1    3    3    0    0 -0.11638490891E+02 -0.75075157308E+01  0.60298326824E+01  0.15105500492E+02  0.51100000000E-03 0. -1.
        -11    1    3    3    0    0 -0.90930997535E+01 -0.38896347762E+01  0.66069242519E+01  0.11893913155E+02  0.51100000000E-03 0.  1.
        -12    1    3    3    0    0 -0.89978600052E+01 -0.95935622848E+01  0.13908734673E+02  0.19142905270E+02  0.00000000000E+00 0.  1.
</event>
<event>
 7    1  0.2425980E-008  0.4614232E+02  0.7816164E-02  0.1320468E+00
        -11   -1    0    0    0    0  0.00000000000E+00  0.00000000000E+00  0.45593999997E+02  0.45594000000E+02  0.51100000000E-03 0.  1.
         11   -1    0    0    0    0 -0.00000000000E+00 -0.00000000000E+00 -0.45593999997E+02  0.45594000000E+02  0.51100000000E-03 0. -1.
    9900012    2    1    2    0    0 -0.20007992227E+02 -0.38941773709E+02 -0.10598681038E+02  0.46142317274E+02  0.99999955562E+01 0.  0.
         12    1    1    2    0    0  0.20007992227E+02  0.38941773709E+02  0.10598681038E+02  0.45045682726E+02  0.00000000000E+00 0. -1.
         11    1    3    3    0    0 -0.10374379626E+01 -0.10258525979E+01 -0.20658641631E+01  0.25291196256E+01  0.51100000000E-03 0. -1.
        -11    1    3    3    0    0 -0.18062321146E+02 -0.32166750528E+02 -0.81473721727E+01  0.37779980920E+02  0.51100000000E-03 0.  1.
        -12    1    3    3    0    0 -0.90823311896E+00 -0.57491705823E+01 -0.38544470208E+00  0.58332167285E+01  0.00000000000E+00 0.  1.
</event>
<event>
 7    1  0.2425980E-008  0.4614232E+02  0.7816164E-02  0.1320468E+00
        -11   -1    0    0    0    0  0.00000000000E+00  0.00000000000E+00  0.45593999997E+02  0.45594000000E+02  0.51100000000E-03 0.  1.
         11   -1    0    0    0    0 -0.00000000000E+00 -0.00000000000E+00 -0.45593999997E+02  0.45594000000E+02  0.51100000000E-03 0. -1.
    9900012    2    1    2    0    0  0.38194589269E+02 -0.22525055794E+02 -0.79315076583E+01  0.46142316503E+02  0.99999885301E+01 0.  0.
         12    1    1    2    0    0 -0.38194589269E+02  0.22525055794E+02  0.79315076583E+01  0.45045683497E+02  0.00000000000E+00 0. -1.
         11    1    3    3    0    0  0.61182544460E+01 -0.43547898395E+01 -0.80535222336E+00  0.75528686257E+01  0.51100000000E-03 0. -1.
        -11    1    3    3    0    0  0.28750072961E+02 -0.13571263130E+02 -0.81541926015E+01  0.32821284792E+02  0.51100000000E-03 0.  1.
         12    1    3    3    0    0  0.33262618622E+01 -0.45990028253E+01  0.10280371665E+01  0.57681630853E+01  0.00000000000E+00 0. -1.
</event>
<event>
 7    1  0.2425980E-008  0.4614232E+02  0.7816164E-02  0.1320468E+00
        -11   -1    0    0    0    0  0.00000000000E+00  0.00000000000E+00  0.45593999997E+02  0.45594000000E+02  0.51100000000E-03 0. -1.
         11   -1    0    0    0    0 -0.00000000000E+00 -0.00000000000E+00 -0.45593999997E+02  0.45594000000E+02  0.51100000000E-03 0.  1.
    9900012    2    1    2    0    0 -0.20877755938E+02  0.31765143828E+02 -0.24170404195E+02  0.46142317694E+02  0.99999993918E+01 0.  0.
         12    1    1    2    0    0  0.20877755938E+02 -0.31765143828E+02  0.24170404195E+02  0.45045682306E+02  0.00000000000E+00 0. -1.
         11    1    3    3    0    0 -0.42419164627E+01  0.23708646672E+01 -0.45024685025E+01  0.66247322530E+01  0.51100000000E-03 0. -1.
        -11    1    3    3    0    0 -0.16341777117E+02  0.25200935212E+02 -0.17834519411E+02  0.34931517255E+02  0.51100000000E-03 0.  1.
         12    1    3    3    0    0 -0.29406235896E+00  0.41933439493E+01 -0.18334162813E+01  0.45860681863E+01  0.00000000000E+00 0. -1.
</event>
<event>
 7    1  0.2425980E-008  0.4614232E+02  0.7816164E-02  0.1320468E+00
        -11   -1    0    0    0    0  0.00000000000E+00  0.00000000000E+00  0.45593999997E+02  0.45594000000E+02  0.51100000000E-03 0. -1.
         11   -1    0    0    0    0 -0.00000000000E+00 -0.00000000000E+00 -0.45593999997E+02  0.45594000000E+02  0.51100000000E-03 0.  1.
    9900012    2    1    2    0    0  0.42321211416E+02 -0.14352111172E+02 -0.56608704864E+01  0.46142317793E+02  0.10000000295E+02 0.  0.
         12    1    1    2    0    0 -0.42321211416E+02  0.14352111172E+02  0.56608704864E+01  0.45045682207E+02  0.00000000000E+00 0. -1.
         11    1    3    3    0    0  0.53250653858E+01 -0.25066722159E+01 -0.27905021897E+01  0.65135727287E+01  0.51100000000E-03 0. -1.
        -11    1    3    3    0    0  0.23916206003E+02 -0.73904776738E+01 -0.53313588935E+01  0.25593504210E+02  0.51100000000E-03 0.  1.
         12    1    3    3    0    0  0.13079940027E+02 -0.44549612826E+01  0.24609905969E+01  0.14035240855E+02  0.00000000000E+00 0. -1.
</event>
<event>
 7    1  0.2425980E-008  0.4614232E+02  0.7816164E-02  0.1320468E+00
        -11   -1    0    0    0    0  0.00000000000E+00  0.00000000000E+00  0.45593999997E+02  0.45594000000E+02  0.51100000000E-03 0.  1.
         11   -1    0    0    0    0 -0.00000000000E+00 -0.00000000000E+00 -0.45593999997E+02  0.45594000000E+02  0.51100000000E-03 0. -1.
    9900012    2    1    2    0    0 -0.28457093146E+01  0.37598963457E+02  0.24644134127E+02  0.46142318060E+02  0.10000002727E+02 0.  0.
         12    1    1    2    0    0  0.28457093146E+01 -0.37598963457E+02 -0.24644134127E+02  0.45045681940E+02  0.00000000000E+00 0. -1.
         11    1    3    3    0    0 -0.48821522005E+01  0.21983333870E+02  0.11586998771E+02  0.25325104519E+02  0.51100000000E-03 0. -1.
        -11    1    3    3    0    0 -0.67024147818E+00  0.29360399829E+01  0.11811418921E+01  0.32349112585E+01  0.51100000000E-03 0.  1.
        -12    1    3    3    0    0  0.27066843641E+01  0.12679589604E+02  0.11875993464E+02  0.17582302282E+02  0.00000000000E+00 0.  1.
</event>
<event>
 7    1  0.2425980E-008  0.4614232E+02  0.7816164E-02  0.1320468E+00
        -11   -1    0    0    0    0  0.00000000000E+00  0.00000000000E+00  0.45593999997E+02  0.45594000000E+02  0.51100000000E-03 0. -1.
         11   -1    0    0    0    0 -0.00000000000E+00 -0.00000000000E+00 -0.45593999997E+02  0.45594000000E+02  0.51100000000E-03 0.  1.
    9900012    2    1    2    0    0  0.24434336773E+02  0.96885082365E+01 -0.36581547104E+02  0.46142316590E+02  0.99999893187E+01 0.  0.
         12    1    1    2    0    0 -0.24434336773E+02 -0.96885082365E+01  0.36581547104E+02  0.45045683410E+02  0.00000000000E+00 0. -1.
         11    1    3    3    0    0  0.17154608109E+02  0.33978659119E+01 -0.18342598545E+02  0.25343184365E+02  0.51100000000E-03 0. -1.
        -11    1    3    3    0    0  0.37087955895E+01  0.47207911544E+01 -0.96357746811E+01  0.11352937409E+02  0.51100000000E-03 0.  1.
         12    1    3    3    0    0  0.35709330743E+01  0.15698511702E+01 -0.86031738778E+01  0.94461948154E+01  0.00000000000E+00 0. -1.
</event>
<event>
 7    1  0.2425980E-008  0.4614231E+02  0.7816164E-02  0.1320468E+00
        -11   -1    0    0    0    0  0.00000000000E+00  0.00000000000E+00  0.45593999997E+02  0.45594000000E+02  0.51100000000E-03 0.  1.
         11   -1    0    0    0    0 -0.00000000000E+00 -0.00000000000E+00 -0.45593999997E+02  0.45594000000E+02  0.51100000000E-03 0. -1.
    9900012    2    1    2    0    0 -0.14181150932E+02  0.37654423515E+02  0.20252239199E+02  0.46142313808E+02  0.99999639486E+01 0.  0.
         12    1    1    2    0    0  0.14181150932E+02 -0.37654423515E+02 -0.20252239199E+02  0.45045686192E+02  0.00000000000E+00 0. -1.
         11    1    3    3    0    0 -0.58227256811E+01  0.21105464023E+02  0.82661265913E+01  0.23402427119E+02  0.51100000000E-03 0.  1.
        -11    1    3    3    0    0 -0.70859247792E+01  0.11828601355E+02  0.60710815295E+01  0.15065993867E+02  0.51100000000E-03 0. -1.
         12    1    3    3    0    0 -0.12725004718E+01  0.47203581372E+01  0.59150310778E+01  0.76738928222E+01  0.00000000000E+00 0. -1.
</event>
<event>
 7    1  0.2425980E-008  0.4614232E+02  0.7816164E-02  0.1320468E+00
        -11   -1    0    0    0    0  0.00000000000E+00  0.00000000000E+00  0.45593999997E+02  0.45594000000E+02  0.51100000000E-03 0.  1.
         11   -1    0    0    0    0 -0.00000000000E+00 -0.00000000000E+00 -0.45593999997E+02  0.45594000000E+02  0.51100000000E-03 0. -1.
    9900012    2    1    2    0    0  0.22180919633E+01  0.42781625543E+02 -0.13925736363E+02  0.46142317084E+02  0.99999938271E+01 0.  0.
         12    1    1    2    0    0 -0.22180919633E+01 -0.42781625543E+02  0.13925736363E+02  0.45045682916E+02  0.00000000000E+00 0. -1.
         11    1    3    3    0    0 -0.18507204063E+01  0.31796137386E+01 -0.51981053337E+00  0.37155501343E+01  0.51100000000E-03 0. -1.
        -11    1    3    3    0    0 -0.66953687810E+00  0.14401838209E+02 -0.68401763103E+01  0.15957732786E+02  0.51100000000E-03 0.  1.
        -12    1    3    3    0    0  0.47383492477E+01  0.25200173595E+02 -0.65657495196E+01  0.26469034164E+02  0.00000000000E+00 0.  1.
</event>
<event>
 7    1  0.2425980E-008  0.4614231E+02  0.7816164E-02  0.1320468E+00
        -11   -1    0    0    0    0  0.00000000000E+00  0.00000000000E+00  0.45593999997E+02  0.45594000000E+02  0.51100000000E-03 0.  1.
         11   -1    0    0    0    0 -0.00000000000E+00 -0.00000000000E+00 -0.45593999997E+02  0.45594000000E+02  0.51100000000E-03 0. -1.
    9900012    2    1    2    0    0 -0.40510352711E+02 -0.12563671153E+02  0.15171665320E+02  0.46142312768E+02  0.99999544669E+01 0.  0.
         12    1    1    2    0    0  0.40510352711E+02  0.12563671153E+02 -0.15171665320E+02  0.45045687232E+02  0.00000000000E+00 0. -1.
         11    1    3    3    0    0 -0.19959710172E+02 -0.89904659067E+01  0.65880568544E+01  0.22860905511E+02  0.51100000000E-03 0.  1.
        -11    1    3    3    0    0 -0.24185506801E+01 -0.17157080564E+01 -0.34449100385E+00  0.29852497115E+01  0.51100000000E-03 0. -1.
        -12    1    3    3    0    0 -0.18132091859E+02 -0.18574971903E+01  0.89280994694E+01  0.20296157546E+02  0.00000000000E+00 0.  1.
</event>
<event>
 7    1  0.2425980E-008  0.4614232E+02  0.7816164E-02  0.1320468E+00
        -11   -1    0    0    0    0  0.00000000000E+00  0.00000000000E+00  0.45593999997E+02  0.45594000000E+02  0.51100000000E-03 0.  1.
         11   -1    0    0    0    0 -0.00000000000E+00 -0.00000000000E+00 -0.45593999997E+02  0.45594000000E+02  0.51100000000E-03 0. -1.
    9900012    2    1    2    0    0 -0.10174047397E+02 -0.41232509979E+02 -0.15016068642E+02  0.46142318330E+02  0.10000005192E+02 0.  0.
         12    1    1    2    0    0  0.10174047397E+02  0.41232509979E+02  0.15016068642E+02  0.45045681670E+02  0.00000000000E+00 0. -1.
         11    1    3    3    0    0 -0.31841594207E+01 -0.23316401385E+02 -0.45775177536E+01  0.23973883995E+02  0.51100000000E-03 0. -1.
        -11    1    3    3    0    0 -0.64320605697E+01 -0.17677567713E+02 -0.95612347079E+01  0.21101777480E+02  0.51100000000E-03 0.  1.
         12    1    3    3    0    0 -0.55782740707E+00 -0.23854088167E+00 -0.87731617996E+00  0.10666568558E+01  0.00000000000E+00 0. -1.
</event>
<event>
 7    1  0.2425980E-008  0.4614232E+02  0.7816164E-02  0.1320468E+00
        -11   -1    0    0    0    0  0.00000000000E+00  0.00000000000E+00  0.45593999997E+02  0.45594000000E+02  0.51100000000E-03 0.  1.
         11   -1    0    0    0    0 -0.00000000000E+00 -0.00000000000E+00 -0.45593999997E+02  0.45594000000E+02  0.51100000000E-03 0. -1.
    9900012    2    1    2    0    0 -0.28460244480E+02 -0.23476074883E+02  0.25845730624E+02  0.46142318750E+02  0.10000009018E+02 0.  0.
         12    1    1    2    0    0  0.28460244480E+02  0.23476074883E+02 -0.25845730624E+02  0.45045681250E+02  0.00000000000E+00 0. -1.
         11    1    3    3    0    0 -0.14250189469E+02 -0.14156473660E+02  0.18920844820E+02  0.27594782393E+02  0.51100000000E-03 0. -1.
        -11    1    3    3    0    0 -0.24021293340E+01 -0.88487146464E+00  0.19114065087E+01  0.31947923170E+01  0.51100000000E-03 0.  1.
         12    1    3    3    0    0 -0.11807925678E+02 -0.84347297584E+01  0.50134792954E+01  0.15352744040E+02  0.00000000000E+00 0. -1.
</event>
<event>
 7    1  0.2425980E-008  0.4614232E+02  0.7816164E-02  0.1320468E+00
        -11   -1    0    0    0    0  0.00000000000E+00  0.00000000000E+00  0.45593999997E+02  0.45594000000E+02  0.51100000000E-03 0.  1.
         11   -1    0    0    0    0 -0.00000000000E+00 -0.00000000000E+00 -0.45593999997E+02  0.45594000000E+02  0.51100000000E-03 0. -1.
    9900012    2    1    2    0    0  0.10169686903E+01  0.98855919666E+01  0.43935797657E+02  0.46142317969E+02  0.10000001896E+02 0.  0.
         12    1    1    2    0    0 -0.10169686903E+01 -0.98855919666E+01 -0.43935797657E+02  0.45045682031E+02  0.00000000000E+00 0. -1.
         11    1    3    3    0    0  0.17554724144E+01  0.48847618123E+01  0.16278436523E+02  0.17085961409E+02  0.51100000000E-03 0. -1.
        -11    1    3    3    0    0  0.20506157875E+01  0.48552062272E+01  0.23239888525E+02  0.23830032974E+02  0.51100000000E-03 0.  1.
         12    1    3    3    0    0 -0.27891195116E+01  0.14562392708E+00  0.44174726090E+01  0.52263235864E+01  0.00000000000E+00 0. -1.
</event>
<event>
 7    1  0.2425980E-008  0.4614232E+02  0.7816164E-02  0.1320468E+00
        -11   -1    0    0    0    0  0.00000000000E+00  0.00000000000E+00  0.45593999997E+02  0.45594000000E+02  0.51100000000E-03 0.  1.
         11   -1    0    0    0    0 -0.00000000000E+00 -0.00000000000E+00 -0.45593999997E+02  0.45594000000E+02  0.51100000000E-03 0. -1.
    9900012    2    1    2    0    0  0.34185227707E+01  0.12855763370E+02  0.43036688079E+02  0.46142317958E+02  0.10000001800E+02 0.  0.
         12    1    1    2    0    0 -0.34185227707E+01 -0.12855763370E+02 -0.43036688079E+02  0.45045682042E+02  0.00000000000E+00 0. -1.
         11    1    3    3    0    0 -0.12820319125E+01 -0.15557547839E+00  0.25103805763E+01  0.28230870431E+01  0.51100000000E-03 0. -1.
        -11    1    3    3    0    0 -0.14176510869E+01  0.36540422991E+01  0.76786497115E+01  0.86211032578E+01  0.51100000000E-03 0.  1.
         12    1    3    3    0    0  0.61182057701E+01  0.93572965491E+01  0.32847657791E+02  0.34698127658E+02  0.00000000000E+00 0. -1.
</event>
<event>
 7    1  0.2425980E-008  0.4614232E+02  0.7816164E-02  0.1320468E+00
        -11   -1    0    0    0    0  0.00000000000E+00  0.00000000000E+00  0.45593999997E+02  0.45594000000E+02  0.51100000000E-03 0.  1.
         11   -1    0    0    0    0 -0.00000000000E+00 -0.00000000000E+00 -0.45593999997E+02  0.45594000000E+02  0.51100000000E-03 0. -1.
    9900012    2    1    2    0    0 -0.74243284934E+01  0.62525307976E+01  0.43987484293E+02  0.46142316862E+02  0.99999918031E+01 0.  0.
         12    1    1    2    0    0  0.74243284934E+01 -0.62525307976E+01 -0.43987484293E+02  0.45045683138E+02  0.00000000000E+00 0. -1.
         11    1    3    3    0    0  0.19975028833E+01  0.19539182088E+01  0.11776936609E+02  0.12103885751E+02  0.51100000000E-03 0. -1.
        -11    1    3    3    0    0 -0.43480226852E+01  0.27253490229E-01  0.11673262324E+02  0.12456769147E+02  0.51100000000E-03 0.  1.
         12    1    3    3    0    0 -0.50738086915E+01  0.42713590986E+01  0.20537285360E+02  0.21581661964E+02  0.00000000000E+00 0. -1.
</event>
<event>
 7    1  0.2425980E-008  0.4614232E+02  0.7816164E-02  0.1320468E+00
        -11   -1    0    0    0    0  0.00000000000E+00  0.00000000000E+00  0.45593999997E+02  0.45594000000E+02  0.51100000000E-03 0.  1.
         11   -1    0    0    0    0 -0.00000000000E+00 -0.00000000000E+00 -0.45593999997E+02  0.45594000000E+02  0.51100000000E-03 0. -1.
    9900012    2    1    2    0    0 -0.35021813251E+02 -0.22018635162E+02  0.17825987149E+02  0.46142317459E+02  0.99999972433E+01 0.  0.
         12    1    1    2    0    0  0.35021813251E+02  0.22018635162E+02 -0.17825987149E+02  0.45045682541E+02  0.00000000000E+00 0. -1.
         11    1    3    3    0    0 -0.12953144962E+02 -0.11410374409E+02  0.10276549525E+02  0.20089501710E+02  0.51100000000E-03 0. -1.
        -11    1    3    3    0    0 -0.15993805431E+00 -0.95559473417E+00  0.72804685101E-01  0.97161837183E+00  0.51100000000E-03 0.  1.
         12    1    3    3    0    0 -0.21908730234E+02 -0.96526660190E+01  0.74766329388E+01  0.25081197377E+02  0.00000000000E+00 0. -1.
</event>
<event>
 7    1  0.2425980E-008  0.4614232E+02  0.7816164E-02  0.1320468E+00
        -11   -1    0    0    0    0  0.00000000000E+00  0.00000000000E+00  0.45593999997E+02  0.45594000000E+02  0.51100000000E-03 0.  1.
         11   -1    0    0    0    0 -0.00000000000E+00 -0.00000000000E+00 -0.45593999997E+02  0.45594000000E+02  0.51100000000E-03 0. -1.
    9900012    2    1    2    0    0  0.34297037454E+02 -0.23429290607E+02  0.17432584710E+02  0.46142318229E+02  0.10000004270E+02 0.  0.
         12    1    1    2    0    0 -0.34297037454E+02  0.23429290607E+02 -0.17432584710E+02  0.45045681771E+02  0.00000000000E+00 0. -1.
         11    1    3    3    0    0  0.19672854038E+02 -0.15365605367E+02  0.76569523641E+01  0.26110379815E+02  0.51100000000E-03 0. -1.
        -11    1    3    3    0    0  0.11679455817E+02 -0.61852111685E+01  0.50333545904E+01  0.14142177487E+02  0.51100000000E-03 0.  1.
         12    1    3    3    0    0  0.29447275991E+01 -0.18784740716E+01  0.47422777559E+01  0.58897609276E+01  0.00000000000E+00 0. -1.
</event>
<event>
 7    1  0.2425980E-008  0.4614232E+02  0.7816164E-02  0.1320468E+00
        -11   -1    0    0    0    0  0.00000000000E+00  0.00000000000E+00  0.45593999997E+02  0.45594000000E+02  0.51100000000E-03 0. -1.
         11   -1    0    0    0    0 -0.00000000000E+00 -0.00000000000E+00 -0.45593999997E+02  0.45594000000E+02  0.51100000000E-03 0.  1.
    9900012    2    1    2    0    0 -0.41608294576E+02 -0.11587088679E+02 -0.12790728513E+02  0.46142317216E+02  0.99999950258E+01 0.  0.
         12    1    1    2    0    0  0.41608294576E+02  0.11587088679E+02  0.12790728513E+02  0.45045682784E+02  0.00000000000E+00 0. -1.
         11    1    3    3    0    0 -0.11760136234E+02 -0.11096915822E+01 -0.12177468199E+01  0.11874979041E+02  0.51100000000E-03 0. -1.
        -11    1    3    3    0    0 -0.16351263437E+02 -0.48916358497E+01 -0.29958672292E+01  0.17328217969E+02  0.51100000000E-03 0.  1.
        -12    1    3    3    0    0 -0.13496894906E+02 -0.55857612470E+01 -0.85771144644E+01  0.16939120206E+02  0.00000000000E+00 0.  1.
</event>
<event>
 7    1  0.2425980E-008  0.4614232E+02  0.7816164E-02  0.1320468E+00
        -11   -1    0    0    0    0  0.00000000000E+00  0.00000000000E+00  0.45593999997E+02  0.45594000000E+02  0.51100000000E-03 0. -1.
         11   -1    0    0    0    0 -0.00000000000E+00 -0.00000000000E+00 -0.45593999997E+02  0.45594000000E+02  0.51100000000E-03 0.  1.
    9900012    2    1    2    0    0 -0.28899136707E+02  0.30118660771E+02 -0.16935757560E+02  0.46142315265E+02  0.99999772409E+01 0.  0.
         12    1    1    2    0    0  0.28899136707E+02 -0.30118660771E+02  0.16935757560E+02  0.45045684735E+02  0.00000000000E+00 0. -1.
         11    1    3    3    0    0 -0.21236400682E+00  0.49591552304E+00  0.57524233392E+00  0.78862835432E+00  0.51100000000E-03 0. -1.
        -11    1    3    3    0    0 -0.17540289326E+01  0.31017441421E+01 -0.36304487944E+01  0.50870023520E+01  0.51100000000E-03 0.  1.
        -12    1    3    3    0    0 -0.26932743768E+02  0.26521001106E+02 -0.13880551100E+02  0.40266684559E+02  0.00000000000E+00 0.  1.
</event>
<event>
 7    1  0.2425980E-008  0.4614232E+02  0.7816164E-02  0.1320468E+00
        -11   -1    0    0    0    0  0.00000000000E+00  0.00000000000E+00  0.45593999997E+02  0.45594000000E+02  0.51100000000E-03 0.  1.
         11   -1    0    0    0    0 -0.00000000000E+00 -0.00000000000E+00 -0.45593999997E+02  0.45594000000E+02  0.51100000000E-03 0. -1.
    9900012    2    1    2    0    0 -0.16907738055E+02 -0.34564414404E+02  0.23420999042E+02  0.46142317129E+02  0.99999942334E+01 0.  0.
         12    1    1    2    0    0  0.16907738055E+02  0.34564414404E+02 -0.23420999042E+02  0.45045682871E+02  0.00000000000E+00 0. -1.
         11    1    3    3    0    0 -0.11706554666E+01 -0.41124777098E+01  0.47352355455E+01  0.63800754750E+01  0.51100000000E-03 0. -1.
        -11    1    3    3    0    0 -0.11476746254E+02 -0.16889129067E+02  0.14138200854E+02  0.24836406923E+02  0.51100000000E-03 0.  1.
        -12    1    3    3    0    0 -0.42603363349E+01 -0.13562807627E+02  0.45475626426E+01  0.14925834730E+02  0.00000000000E+00 0.  1.
</event>
<event>
 7    1  0.2425980E-008  0.4614232E+02  0.7816164E-02  0.1320468E+00
        -11   -1    0    0    0    0  0.00000000000E+00  0.00000000000E+00  0.45593999997E+02  0.45594000000E+02  0.51100000000E-03 0.  1.
         11   -1    0    0    0    0 -0.00000000000E+00 -0.00000000000E+00 -0.45593999997E+02  0.45594000000E+02  0.51100000000E-03 0. -1.
    9900012    2    1    2    0    0  0.28553887212E+02 -0.25654870445E+02  0.23571520300E+02  0.46142318501E+02  0.10000006746E+02 0.  0.
         12    1    1    2    0    0 -0.28553887212E+02  0.25654870445E+02 -0.23571520300E+02  0.45045681499E+02  0.00000000000E+00 0. -1.
         11    1    3    3    0    0  0.11542254788E+02 -0.69749105394E+01  0.80910473419E+01  0.15726985407E+02  0.51100000000E-03 0. -1.
        -11    1    3    3    0    0  0.74608543735E+01 -0.36861353576E+01  0.38321434037E+01  0.91617282859E+01  0.51100000000E-03 0.  1.
        -12    1    3    3    0    0  0.95507780505E+01 -0.14993824548E+02  0.11648329554E+02  0.21253604808E+02  0.00000000000E+00 0.  1.
</event>
<event>
 7    1  0.2425980E-008  0.4614232E+02  0.7816164E-02  0.1320468E+00
        -11   -1    0    0    0    0  0.00000000000E+00  0.00000000000E+00  0.45593999997E+02  0.45594000000E+02  0.51100000000E-03 0. -1.
         11   -1    0    0    0    0 -0.00000000000E+00 -0.00000000000E+00 -0.45593999997E+02  0.45594000000E+02  0.51100000000E-03 0.  1.
    9900012    2    1    2    0    0 -0.12402280845E+02 -0.43303398106E+02  0.33563136641E+00  0.46142317564E+02  0.99999982065E+01 0.  0.
         12    1    1    2    0    0  0.12402280845E+02  0.43303398106E+02 -0.33563136641E+00  0.45045682436E+02  0.00000000000E+00 0. -1.
         11    1    3    3    0    0 -0.48505371403E+00 -0.12101993904E+02  0.17073431642E+01  0.12231457579E+02  0.51100000000E-03 0. -1.
        -11    1    3    3    0    0 -0.45131613103E+00 -0.79054941688E+01 -0.33688849511E+00  0.79255295357E+01  0.51100000000E-03 0.  1.
        -12    1    3    3    0    0 -0.11465911000E+02 -0.23295910033E+02 -0.10348233027E+01  0.25985330450E+02  0.00000000000E+00 0.  1.
</event>
<event>
 7    1  0.2425980E-008  0.4614232E+02  0.7816164E-02  0.1320468E+00
        -11   -1    0    0    0    0  0.00000000000E+00  0.00000000000E+00  0.45593999997E+02  0.45594000000E+02  0.51100000000E-03 0.  1.
         11   -1    0    0    0    0 -0.00000000000E+00 -0.00000000000E+00 -0.45593999997E+02  0.45594000000E+02  0.51100000000E-03 0. -1.
    9900012    2    1    2    0    0  0.18169039514E+02  0.22433008023E+02  0.34579757738E+02  0.46142317731E+02  0.99999997267E+01 0.  0.
         12    1    1    2    0    0 -0.18169039514E+02 -0.22433008023E+02 -0.34579757738E+02  0.45045682269E+02  0.00000000000E+00 0. -1.
         11    1    3    3    0    0  0.44545491894E+01  0.45151711474E+01  0.47232573665E+01  0.79081565098E+01  0.51100000000E-03 0. -1.
        -11    1    3    3    0    0  0.13399466610E+02  0.16192055657E+02  0.29816415881E+02  0.36479405534E+02  0.51100000000E-03 0.  1.
         12    1    3    3    0    0  0.31502371411E+00  0.17257812190E+01  0.40084490386E-01  0.17547556875E+01  0.00000000000E+00 0. -1.
</event>
<event>
 7    1  0.2425980E-008  0.4614232E+02  0.7816164E-02  0.1320468E+00
        -11   -1    0    0    0    0  0.00000000000E+00  0.00000000000E+00  0.45593999997E+02  0.45594000000E+02  0.51100000000E-03 0.  1.
         11   -1    0    0    0    0 -0.00000000000E+00 -0.00000000000E+00 -0.45593999997E+02  0.45594000000E+02  0.51100000000E-03 0. -1.
    9900012    2    1    2    0    0  0.40026524903E+02 -0.25415651730E+01 -0.20506857569E+02  0.46142318112E+02  0.10000003201E+02 0.  0.
         12    1    1    2    0    0 -0.40026524903E+02  0.25415651730E+01  0.20506857569E+02  0.45045681888E+02  0.00000000000E+00 0. -1.
         11    1    3    3    0    0  0.34506226052E+01  0.14914956592E+01 -0.58565980891E+00  0.38045174908E+01  0.51100000000E-03 0. -1.
        -11    1    3    3    0    0  0.18753364711E+02  0.69475749378E+00 -0.11961432619E+02  0.22254151220E+02  0.51100000000E-03 0.  1.
         12    1    3    3    0    0  0.17822537587E+02 -0.47278183260E+01 -0.79597651417E+01  0.20083649401E+02  0.00000000000E+00 0. -1.
</event>
<event>
 7    1  0.2425980E-008  0.4614232E+02  0.7816164E-02  0.1320468E+00
        -11   -1    0    0    0    0  0.00000000000E+00  0.00000000000E+00  0.45593999997E+02  0.45594000000E+02  0.51100000000E-03 0. -1.
         11   -1    0    0    0    0 -0.00000000000E+00 -0.00000000000E+00 -0.45593999997E+02  0.45594000000E+02  0.51100000000E-03 0.  1.
    9900012    2    1    2    0    0  0.20647794118E+02  0.40028306364E+02  0.71887306429E+00  0.46142317734E+02  0.99999997512E+01 0.  0.
         12    1    1    2    0    0 -0.20647794118E+02 -0.40028306364E+02 -0.71887306429E+00  0.45045682266E+02  0.00000000000E+00 0. -1.
         11    1    3    3    0    0  0.56089340633E+01  0.12316324449E+02  0.39155051732E+01  0.14088405526E+02  0.51100000000E-03 0. -1.
        -11    1    3    3    0    0  0.11267269776E+02  0.19145890264E+02 -0.16601746968E+00  0.22215851194E+02  0.51100000000E-03 0.  1.
         12    1    3    3    0    0  0.37715902790E+01  0.85660916517E+01 -0.30306146393E+01  0.98380610137E+01  0.00000000000E+00 0. -1.
</event>
<event>
 7    1  0.2425980E-008  0.4614232E+02  0.7816164E-02  0.1320468E+00
        -11   -1    0    0    0    0  0.00000000000E+00  0.00000000000E+00  0.45593999997E+02  0.45594000000E+02  0.51100000000E-03 0. -1.
         11   -1    0    0    0    0 -0.00000000000E+00 -0.00000000000E+00 -0.45593999997E+02  0.45594000000E+02  0.51100000000E-03 0.  1.
    9900012    2    1    2    0    0  0.35473925161E+02  0.26036232854E+02 -0.96347750527E+01  0.46142315657E+02  0.99999808173E+01 0.  0.
         12    1    1    2    0    0 -0.35473925161E+02 -0.26036232854E+02  0.96347750527E+01  0.45045684343E+02  0.00000000000E+00 0. -1.
         11    1    3    3    0    0  0.15131226900E+02  0.14045776213E+02 -0.56941830280E+01  0.21416385726E+02  0.51100000000E-03 0. -1.
        -11    1    3    3    0    0  0.15280083768E+02  0.64200640885E+01 -0.45114952631E+01  0.17177071130E+02  0.51100000000E-03 0.  1.
         12    1    3    3    0    0  0.50626144931E+01  0.55703925522E+01  0.57090323841E+00  0.75488588011E+01  0.00000000000E+00 0. -1.
</event>
<event>
 7    1  0.2425980E-008  0.4614232E+02  0.7816164E-02  0.1320468E+00
        -11   -1    0    0    0    0  0.00000000000E+00  0.00000000000E+00  0.45593999997E+02  0.45594000000E+02  0.51100000000E-03 0. -1.
         11   -1    0    0    0    0 -0.00000000000E+00 -0.00000000000E+00 -0.45593999997E+02  0.45594000000E+02  0.51100000000E-03 0.  1.
    9900012    2    1    2    0    0 -0.42283881807E+02  0.15191681189E+02  0.32248720216E+01  0.46142316105E+02  0.99999848996E+01 0.  0.
         12    1    1    2    0    0  0.42283881807E+02 -0.15191681189E+02 -0.32248720216E+01  0.45045683895E+02  0.00000000000E+00 0. -1.
         11    1    3    3    0    0 -0.15903562225E+02  0.52360523732E+01  0.94532346162E+00  0.16770008127E+02  0.51100000000E-03 0. -1.
        -11    1    3    3    0    0 -0.23813121195E+02  0.93671599212E+01 -0.43107100780E+00  0.25592855420E+02  0.51100000000E-03 0.  1.
         12    1    3    3    0    0 -0.25671983868E+01  0.58846889454E+00  0.27106195678E+01  0.37794525580E+01  0.00000000000E+00 0. -1.
</event>
<event>
 7    1  0.2425980E-008  0.4614232E+02  0.7816164E-02  0.1320468E+00
        -11   -1    0    0    0    0  0.00000000000E+00  0.00000000000E+00  0.45593999997E+02  0.45594000000E+02  0.51100000000E-03 0.  1.
         11   -1    0    0    0    0 -0.00000000000E+00 -0.00000000000E+00 -0.45593999997E+02  0.45594000000E+02  0.51100000000E-03 0. -1.
    9900012    2    1    2    0    0  0.20093052553E+01  0.56476353985E+01  0.44645049408E+02  0.46142317301E+02  0.99999958003E+01 0.  0.
         12    1    1    2    0    0 -0.20093052553E+01 -0.56476353985E+01 -0.44645049408E+02  0.45045682699E+02  0.00000000000E+00 0. -1.
         11    1    3    3    0    0 -0.92324642969E+00  0.45859441075E+00  0.10382387586E+02  0.10433439751E+02  0.51100000000E-03 0. -1.
        -11    1    3    3    0    0  0.75921535916E+00 -0.21014449131E+01  0.11301311696E+02  0.11520074870E+02  0.51100000000E-03 0.  1.
         12    1    3    3    0    0  0.21733363259E+01  0.72904859009E+01  0.22961350126E+02  0.24188802679E+02  0.00000000000E+00 0. -1.
</event>
<event>
 7    1  0.2425980E-008  0.4614232E+02  0.7816164E-02  0.1320468E+00
        -11   -1    0    0    0    0  0.00000000000E+00  0.00000000000E+00  0.45593999997E+02  0.45594000000E+02  0.51100000000E-03 0.  1.
         11   -1    0    0    0    0 -0.00000000000E+00 -0.00000000000E+00 -0.45593999997E+02  0.45594000000E+02  0.51100000000E-03 0. -1.
    9900012    2    1    2    0    0 -0.30098940743E+02  0.22518234902E+02  0.24821291949E+02  0.46142315734E+02  0.99999815154E+01 0.  0.
         12    1    1    2    0    0  0.30098940743E+02 -0.22518234902E+02 -0.24821291949E+02  0.45045684266E+02  0.00000000000E+00 0. -1.
         11    1    3    3    0    0 -0.12861485237E+01  0.45159697052E+01  0.36694951627E+01  0.59593082999E+01  0.51100000000E-03 0. -1.
        -11    1    3    3    0    0 -0.12030179050E+02  0.90596279720E+01  0.79150225879E+01  0.17013219854E+02  0.51100000000E-03 0.  1.
         12    1    3    3    0    0 -0.16782613170E+02  0.89426372248E+01  0.13236774198E+02  0.23169787580E+02  0.00000000000E+00 0. -1.
</event>
<event>
 7    1  0.2425980E-008  0.4614232E+02  0.7816164E-02  0.1320468E+00
        -11   -1    0    0    0    0  0.00000000000E+00  0.00000000000E+00  0.45593999997E+02  0.45594000000E+02  0.51100000000E-03 0.  1.
         11   -1    0    0    0    0 -0.00000000000E+00 -0.00000000000E+00 -0.45593999997E+02  0.45594000000E+02  0.51100000000E-03 0. -1.
    9900012    2    1    2    0    0  0.39931690588E+02  0.18106073827E+02 -0.10331681681E+02  0.46142317976E+02  0.10000001962E+02 0.  0.
         12    1    1    2    0    0 -0.39931690588E+02 -0.18106073827E+02  0.10331681681E+02  0.45045682024E+02  0.00000000000E+00 0. -1.
         11    1    3    3    0    0  0.23191987064E+02  0.78600523164E+01 -0.42095619162E+01  0.24846913253E+02  0.51100000000E-03 0. -1.
        -11    1    3    3    0    0  0.96190768095E+01  0.31342775084E+01 -0.46136313563E+01  0.11119169426E+02  0.51100000000E-03 0.  1.
         12    1    3    3    0    0  0.71206267137E+01  0.71117440024E+01 -0.15084884088E+01  0.10176235298E+02  0.00000000000E+00 0. -1.
</event>
<event>
 7    1  0.2425980E-008  0.4614232E+02  0.7816164E-02  0.1320468E+00
        -11   -1    0    0    0    0  0.00000000000E+00  0.00000000000E+00  0.45593999997E+02  0.45594000000E+02  0.51100000000E-03 0. -1.
         11   -1    0    0    0    0 -0.00000000000E+00 -0.00000000000E+00 -0.45593999997E+02  0.45594000000E+02  0.51100000000E-03 0.  1.
    9900012    2    1    2    0    0  0.27001325365E+02  0.34234989300E+02 -0.11314043550E+02  0.46142316019E+02  0.99999841124E+01 0.  0.
         12    1    1    2    0    0 -0.27001325365E+02 -0.34234989300E+02  0.11314043550E+02  0.45045683981E+02  0.00000000000E+00 0. -1.
         11    1    3    3    0    0  0.19775076004E+01  0.61425897297E+01 -0.12229055629E+01  0.65679101070E+01  0.51100000000E-03 0. -1.
        -11    1    3    3    0    0  0.13237157291E+02  0.14597539538E+02 -0.16688540785E+01  0.19776136324E+02  0.51100000000E-03 0.  1.
        -12    1    3    3    0    0  0.11786660474E+02  0.13494860033E+02 -0.84222839090E+01  0.19798269588E+02  0.00000000000E+00 0.  1.
</event>
<event>
 7    1  0.2425980E-008  0.4614232E+02  0.7816164E-02  0.1320468E+00
        -11   -1    0    0    0    0  0.00000000000E+00  0.00000000000E+00  0.45593999997E+02  0.45594000000E+02  0.51100000000E-03 0. -1.
         11   -1    0    0    0    0 -0.00000000000E+00 -0.00000000000E+00 -0.45593999997E+02  0.45594000000E+02  0.51100000000E-03 0.  1.
    9900012    2    1    2    0    0 -0.22692221365E+02 -0.95099847734E+00 -0.38900800046E+02  0.46142317046E+02  0.99999934790E+01 0.  0.
         12    1    1    2    0    0  0.22692221365E+02  0.95099847734E+00  0.38900800046E+02  0.45045682954E+02  0.00000000000E+00 0. -1.
         11    1    3    3    0    0 -0.56821948246E+01 -0.36607430302E+01 -0.16632847686E+02  0.17953829674E+02  0.51100000000E-03 0. -1.
        -11    1    3    3    0    0 -0.33565002112E+01  0.62800016168E+00 -0.53784337859E+01  0.63708734191E+01  0.51100000000E-03 0.  1.
         12    1    3    3    0    0 -0.13653526330E+02  0.20817443912E+01 -0.16889518574E+02  0.21817613953E+02  0.00000000000E+00 0. -1.
</event>
<event>
 7    1  0.2425980E-008  0.4614232E+02  0.7816164E-02  0.1320468E+00
        -11   -1    0    0    0    0  0.00000000000E+00  0.00000000000E+00  0.45593999997E+02  0.45594000000E+02  0.51100000000E-03 0.  1.
         11   -1    0    0    0    0 -0.00000000000E+00 -0.00000000000E+00 -0.45593999997E+02  0.45594000000E+02  0.51100000000E-03 0. -1.
    9900012    2    1    2    0    0 -0.40247405367E+02  0.96875576252E+01  0.17759817008E+02  0.46142317502E+02  0.99999976402E+01 0.  0.
         12    1    1    2    0    0  0.40247405367E+02 -0.96875576252E+01 -0.17759817008E+02  0.45045682498E+02  0.00000000000E+00 0. -1.
         11    1    3    3    0    0 -0.38162592360E+01  0.53567985686E+00  0.19275827802E+00  0.38584897927E+01  0.51100000000E-03 0. -1.
        -11    1    3    3    0    0 -0.58058307011E+01 -0.26480417357E+00  0.56311918464E+01  0.80924726291E+01  0.51100000000E-03 0.  1.
         12    1    3    3    0    0 -0.30625315430E+02  0.94166819419E+01  0.11935866883E+02  0.34191355080E+02  0.00000000000E+00 0. -1.
</event>
<event>
 7    1  0.2425980E-008  0.4614232E+02  0.7816164E-02  0.1320468E+00
        -11   -1    0    0    0    0  0.00000000000E+00  0.00000000000E+00  0.45593999997E+02  0.45594000000E+02  0.51100000000E-03 0. -1.
         11   -1    0    0    0    0 -0.00000000000E+00 -0.00000000000E+00 -0.45593999997E+02  0.45594000000E+02  0.51100000000E-03 0.  1.
    9900012    2    1    2    0    0  0.16640149478E+02 -0.10312694122E+02 -0.40569289876E+02  0.46142317457E+02  0.99999972313E+01 0.  0.
         12    1    1    2    0    0 -0.16640149478E+02  0.10312694122E+02  0.40569289876E+02  0.45045682543E+02  0.00000000000E+00 0. -1.
         11    1    3    3    0    0  0.58506491358E+01  0.46228009084E+00 -0.17069302099E+02  0.18050065723E+02  0.51100000000E-03 0. -1.
        -11    1    3    3    0    0  0.19761896119E+01 -0.30225490908E+01 -0.46690034056E+01  0.59026029387E+01  0.51100000000E-03 0.  1.
        -12    1    3    3    0    0  0.88133107307E+01 -0.77524251220E+01 -0.18830984370E+02  0.22189648795E+02  0.00000000000E+00 0.  1.
</event>
<event>
 7    1  0.2425980E-008  0.4614232E+02  0.7816164E-02  0.1320468E+00
        -11   -1    0    0    0    0  0.00000000000E+00  0.00000000000E+00  0.45593999997E+02  0.45594000000E+02  0.51100000000E-03 0.  1.
         11   -1    0    0    0    0 -0.00000000000E+00 -0.00000000000E+00 -0.45593999997E+02  0.45594000000E+02  0.51100000000E-03 0. -1.
    9900012    2    1    2    0    0 -0.32186067957E+02 -0.15625459306E+02  0.27368146185E+02  0.46142319023E+02  0.10000011510E+02 0.  0.
         12    1    1    2    0    0  0.32186067957E+02  0.15625459306E+02 -0.27368146185E+02  0.45045680977E+02  0.00000000000E+00 0. -1.
         11    1    3    3    0    0 -0.10733222340E+01  0.86176819767E+00  0.20269086147E+01  0.24501069034E+01  0.51100000000E-03 0. -1.
        -11    1    3    3    0    0 -0.17503828925E+02 -0.79835147468E+01  0.16647336935E+02  0.25441194195E+02  0.51100000000E-03 0.  1.
         12    1    3    3    0    0 -0.13608916798E+02 -0.85037127572E+01  0.86939006347E+01  0.18251017925E+02  0.00000000000E+00 0. -1.
</event>
<event>
 7    1  0.2425980E-008  0.4614232E+02  0.7816164E-02  0.1320468E+00
        -11   -1    0    0    0    0  0.00000000000E+00  0.00000000000E+00  0.45593999997E+02  0.45594000000E+02  0.51100000000E-03 0.  1.
         11   -1    0    0    0    0 -0.00000000000E+00 -0.00000000000E+00 -0.45593999997E+02  0.45594000000E+02  0.51100000000E-03 0. -1.
    9900012    2    1    2    0    0 -0.36700779808E+02  0.18899619369E+02  0.18026925242E+02  0.46142324464E+02  0.10000061118E+02 0.  0.
         12    1    1    2    0    0  0.36700779808E+02 -0.18899619369E+02 -0.18026925242E+02  0.45045675536E+02  0.00000000000E+00 0. -1.
         11    1    3    3    0    0 -0.10729644963E+01  0.28400555081E+00  0.17919622743E+01  0.21078522284E+01  0.51100000000E-03 0. -1.
        -11    1    3    3    0    0 -0.13228509945E+02  0.53516195777E+01  0.21338758028E+01  0.14428677475E+02  0.51100000000E-03 0.  1.
        -12    1    3    3    0    0 -0.22399305367E+02  0.13263994241E+02  0.14101087165E+02  0.29605794760E+02  0.00000000000E+00 0.  1.
</event>
<event>
 7    1  0.2425980E-008  0.4614232E+02  0.7816164E-02  0.1320468E+00
        -11   -1    0    0    0    0  0.00000000000E+00  0.00000000000E+00  0.45593999997E+02  0.45594000000E+02  0.51100000000E-03 0. -1.
         11   -1    0    0    0    0 -0.00000000000E+00 -0.00000000000E+00 -0.45593999997E+02  0.45594000000E+02  0.51100000000E-03 0.  1.
    9900012    2    1    2    0    0  0.44138814535E+02 -0.78116374952E+01  0.44561186054E+01  0.46142316278E+02  0.99999864775E+01 0.  0.
         12    1    1    2    0    0 -0.44138814535E+02  0.78116374952E+01 -0.44561186054E+01  0.45045683722E+02  0.00000000000E+00 0. -1.
         11    1    3    3    0    0  0.37576284092E+02 -0.69503839473E+01  0.23562807088E+01  0.38286251086E+02  0.51100000000E-03 0.  1.
        -11    1    3    3    0    0  0.14042079454E+01  0.96892974336E+00 -0.52614571365E+00  0.17853443294E+01  0.51100000000E-03 0. -1.
         12    1    3    3    0    0  0.51583224979E+01 -0.18301832913E+01  0.26259836103E+01  0.60707208627E+01  0.00000000000E+00 0. -1.
</event>
<event>
 7    1  0.2425980E-008  0.4614232E+02  0.7816164E-02  0.1320468E+00
        -11   -1    0    0    0    0  0.00000000000E+00  0.00000000000E+00  0.45593999997E+02  0.45594000000E+02  0.51100000000E-03 0.  1.
         11   -1    0    0    0    0 -0.00000000000E+00 -0.00000000000E+00 -0.45593999997E+02  0.45594000000E+02  0.51100000000E-03 0. -1.
    9900012    2    1    2    0    0  0.20438069945E+02 -0.18155145398E+02  0.35802089358E+02  0.46142316412E+02  0.99999877012E+01 0.  0.
         12    1    1    2    0    0 -0.20438069945E+02  0.18155145398E+02 -0.35802089358E+02  0.45045683588E+02  0.00000000000E+00 0. -1.
         11    1    3    3    0    0  0.21335583884E+01 -0.48654868240E+01  0.95631118255E+01  0.10939750522E+02  0.51100000000E-03 0. -1.
        -11    1    3    3    0    0  0.89064311883E+01 -0.75120317320E+01  0.89431443821E+01  0.14687919150E+02  0.51100000000E-03 0.  1.
        -12    1    3    3    0    0  0.93980803684E+01 -0.57776268415E+01  0.17295833150E+02  0.20514646741E+02  0.00000000000E+00 0.  1.
</event>
<event>
 7    1  0.2425980E-008  0.4614232E+02  0.7816164E-02  0.1320468E+00
        -11   -1    0    0    0    0  0.00000000000E+00  0.00000000000E+00  0.45593999997E+02  0.45594000000E+02  0.51100000000E-03 0. -1.
         11   -1    0    0    0    0 -0.00000000000E+00 -0.00000000000E+00 -0.45593999997E+02  0.45594000000E+02  0.51100000000E-03 0.  1.
    9900012    2    1    2    0    0  0.35015613591E+02 -0.63102617341E+01 -0.27626091713E+02  0.46142317170E+02  0.99999946092E+01 0.  0.
         12    1    1    2    0    0 -0.35015613591E+02  0.63102617341E+01  0.27626091713E+02  0.45045682830E+02  0.00000000000E+00 0. -1.
         11    1    3    3    0    0  0.75070002876E+01 -0.40346241442E+01 -0.52303015299E+01  0.99994649686E+01  0.51100000000E-03 0. -1.
        -11    1    3    3    0    0  0.24781837795E+02 -0.45157337351E+00 -0.17883730935E+02  0.30564214948E+02  0.51100000000E-03 0.  1.
         12    1    3    3    0    0  0.27267755081E+01 -0.18240642164E+01 -0.45120592487E+01  0.55786372530E+01  0.00000000000E+00 0. -1.
</event>
<event>
 7    1  0.2425980E-008  0.4614232E+02  0.7816164E-02  0.1320468E+00
        -11   -1    0    0    0    0  0.00000000000E+00  0.00000000000E+00  0.45593999997E+02  0.45594000000E+02  0.51100000000E-03 0. -1.
         11   -1    0    0    0    0 -0.00000000000E+00 -0.00000000000E+00 -0.45593999997E+02  0.45594000000E+02  0.51100000000E-03 0.  1.
    9900012    2    1    2    0    0 -0.43938204087E+02 -0.35622605556E+01 -0.92659610350E+01  0.46142317492E+02  0.99999975469E+01 0.  0.
         12    1    1    2    0    0  0.43938204087E+02  0.35622605556E+01  0.92659610350E+01  0.45045682508E+02  0.00000000000E+00 0. -1.
         11    1    3    3    0    0 -0.94901372428E+01  0.34605601527E+00 -0.44742348916E+01  0.10497677733E+02  0.51100000000E-03 0. -1.
        -11    1    3    3    0    0 -0.48984437983E+01 -0.16248066105E+01  0.14417547220E+01  0.53584890693E+01  0.51100000000E-03 0.  1.
        -12    1    3    3    0    0 -0.29549623046E+02 -0.22835099604E+01 -0.62334808655E+01  0.30286150690E+02  0.00000000000E+00 0.  1.
</event>
<event>
 7    1  0.2425980E-008  0.4614232E+02  0.7816164E-02  0.1320468E+00
        -11   -1    0    0    0    0  0.00000000000E+00  0.00000000000E+00  0.45593999997E+02  0.45594000000E+02  0.51100000000E-03 0. -1.
         11   -1    0    0    0    0 -0.00000000000E+00 -0.00000000000E+00 -0.45593999997E+02  0.45594000000E+02  0.51100000000E-03 0.  1.
    9900012    2    1    2    0    0 -0.18364531791E+02  0.28195153759E+02 -0.29948133171E+02  0.46142318700E+02  0.10000008562E+02 0.  0.
         12    1    1    2    0    0  0.18364531791E+02 -0.28195153759E+02  0.29948133171E+02  0.45045681300E+02  0.00000000000E+00 0. -1.
         11    1    3    3    0    0 -0.19880063700E+01  0.66932050088E+01 -0.37817654058E+01  0.79405864055E+01  0.51100000000E-03 0. -1.
        -11    1    3    3    0    0  0.25856454367E+00  0.19106275937E+01 -0.78947653622E+00  0.20834171180E+01  0.51100000000E-03 0.  1.
         12    1    3    3    0    0 -0.16635089964E+02  0.19591321156E+02 -0.25376891229E+02  0.36118315177E+02  0.00000000000E+00 0. -1.
</event>
<event>
 7    1  0.2425980E-008  0.4614232E+02  0.7816164E-02  0.1320468E+00
        -11   -1    0    0    0    0  0.00000000000E+00  0.00000000000E+00  0.45593999997E+02  0.45594000000E+02  0.51100000000E-03 0. -1.
         11   -1    0    0    0    0 -0.00000000000E+00 -0.00000000000E+00 -0.45593999997E+02  0.45594000000E+02  0.51100000000E-03 0.  1.
    9900012    2    1    2    0    0 -0.13258752977E+02 -0.42542019879E+02 -0.65951266337E+01  0.46142315621E+02  0.99999804814E+01 0.  0.
         12    1    1    2    0    0  0.13258752977E+02  0.42542019879E+02  0.65951266337E+01  0.45045684379E+02  0.00000000000E+00 0. -1.
         11    1    3    3    0    0 -0.69841446453E+01 -0.16139778161E+02  0.20277368656E+00  0.17587263372E+02  0.51100000000E-03 0.  1.
        -11    1    3    3    0    0 -0.43327142723E+01 -0.69833443592E+01 -0.20482022327E+01  0.84696306916E+01  0.51100000000E-03 0. -1.
         12    1    3    3    0    0 -0.19418940591E+01 -0.19418897359E+02 -0.47496980875E+01  0.20085421557E+02  0.00000000000E+00 0. -1.
</event>
<event>
 7    1  0.2425980E-008  0.4614232E+02  0.7816164E-02  0.1320468E+00
        -11   -1    0    0    0    0  0.00000000000E+00  0.00000000000E+00  0.45593999997E+02  0.45594000000E+02  0.51100000000E-03 0.  1.
         11   -1    0    0    0    0 -0.00000000000E+00 -0.00000000000E+00 -0.45593999997E+02  0.45594000000E+02  0.51100000000E-03 0. -1.
    9900012    2    1    2    0    0  0.22201283330E+02  0.24816354995E+02  0.30337519129E+02  0.46142317369E+02  0.99999964274E+01 0.  0.
         12    1    1    2    0    0 -0.22201283330E+02 -0.24816354995E+02 -0.30337519129E+02  0.45045682631E+02  0.00000000000E+00 0. -1.
         11    1    3    3    0    0  0.14740733241E+02  0.13422173149E+02  0.14522656433E+02  0.24664782559E+02  0.51100000000E-03 0. -1.
        -11    1    3    3    0    0  0.56445633419E+01  0.52566622065E+01  0.11148117486E+02  0.13556331238E+02  0.51100000000E-03 0.  1.
         12    1    3    3    0    0  0.18159867470E+01  0.61375196398E+01  0.46667452100E+01  0.79212035733E+01  0.00000000000E+00 0. -1.
</event>
<event>
 7    1  0.2425980E-008  0.4614232E+02  0.7816164E-02  0.1320468E+00
        -11   -1    0    0    0    0  0.00000000000E+00  0.00000000000E+00  0.45593999997E+02  0.45594000000E+02  0.51100000000E-03 0.  1.
         11   -1    0    0    0    0 -0.00000000000E+00 -0.00000000000E+00 -0.45593999997E+02  0.45594000000E+02  0.51100000000E-03 0. -1.
    9900012    2    1    2    0    0  0.54927045591E+00 -0.12711636024E+02  0.43211410434E+02  0.46142318962E+02  0.10000010955E+02 0.  0.
         12    1    1    2    0    0 -0.54927045591E+00  0.12711636024E+02 -0.43211410434E+02  0.45045681038E+02  0.00000000000E+00 0. -1.
         11    1    3    3    0    0 -0.36863943494E+00 -0.57871466009E+01  0.11982624021E+02  0.13312033635E+02  0.51100000000E-03 0. -1.
        -11    1    3    3    0    0 -0.21897085845E+01 -0.58448809970E+01  0.14583919091E+02  0.15863421884E+02  0.51100000000E-03 0.  1.
        -12    1    3    3    0    0  0.31076184753E+01 -0.10796084263E+01  0.16644867322E+02  0.16966863443E+02  0.00000000000E+00 0.  1.
</event>
<event>
 7    1  0.2425980E-008  0.4614232E+02  0.7816164E-02  0.1320468E+00
        -11   -1    0    0    0    0  0.00000000000E+00  0.00000000000E+00  0.45593999997E+02  0.45594000000E+02  0.51100000000E-03 0.  1.
         11   -1    0    0    0    0 -0.00000000000E+00 -0.00000000000E+00 -0.45593999997E+02  0.45594000000E+02  0.51100000000E-03 0. -1.
    9900012    2    1    2    0    0  0.17014999648E+02  0.23945480783E+02  0.34149924322E+02  0.46142316587E+02  0.99999892918E+01 0.  0.
         12    1    1    2    0    0 -0.17014999648E+02 -0.23945480783E+02 -0.34149924322E+02  0.45045683413E+02  0.00000000000E+00 0. -1.
         11    1    3    3    0    0  0.12609222494E+02  0.14606198029E+02  0.25890266888E+02  0.32289927726E+02  0.51100000000E-03 0. -1.
        -11    1    3    3    0    0  0.11642759277E+01  0.66420915018E+01  0.61956943591E+01  0.91574858344E+01  0.51100000000E-03 0.  1.
         12    1    3    3    0    0  0.32415012263E+01  0.26971912523E+01  0.20639630750E+01  0.46949030264E+01  0.00000000000E+00 0. -1.
</event>
<event>
 7    1  0.2425980E-008  0.4614232E+02  0.7816164E-02  0.1320468E+00
        -11   -1    0    0    0    0  0.00000000000E+00  0.00000000000E+00  0.45593999997E+02  0.45594000000E+02  0.51100000000E-03 0. -1.
         11   -1    0    0    0    0 -0.00000000000E+00 -0.00000000000E+00 -0.45593999997E+02  0.45594000000E+02  0.51100000000E-03 0.  1.
    9900012    2    1    2    0    0  0.38262512212E+01  0.37490078110E+02  0.24677263406E+02  0.46142317806E+02  0.10000000410E+02 0.  0.
         12    1    1    2    0    0 -0.38262512212E+01 -0.37490078110E+02 -0.24677263406E+02  0.45045682194E+02  0.00000000000E+00 0. -1.
         11    1    3    3    0    0 -0.20794820527E+01  0.51473406229E+01  0.45742027830E+01  0.71932393577E+01  0.51100000000E-03 0. -1.
        -11    1    3    3    0    0  0.65742573594E+01  0.21817678589E+02  0.13005316637E+02  0.26236810399E+02  0.51100000000E-03 0.  1.
        -12    1    3    3    0    0 -0.66852408541E+00  0.10525058898E+02  0.70977439866E+01  0.12712268049E+02  0.00000000000E+00 0.  1.
</event>
<event>
 7    1  0.2425980E-008  0.4614232E+02  0.7816164E-02  0.1320468E+00
        -11   -1    0    0    0    0  0.00000000000E+00  0.00000000000E+00  0.45593999997E+02  0.45594000000E+02  0.51100000000E-03 0.  1.
         11   -1    0    0    0    0 -0.00000000000E+00 -0.00000000000E+00 -0.45593999997E+02  0.45594000000E+02  0.51100000000E-03 0. -1.
    9900012    2    1    2    0    0 -0.68206494340E+01  0.12605779561E+01  0.44508462104E+02  0.46142317473E+02  0.99999973717E+01 0.  0.
         12    1    1    2    0    0  0.68206494340E+01 -0.12605779561E+01 -0.44508462104E+02  0.45045682527E+02  0.00000000000E+00 0. -1.
         11    1    3    3    0    0  0.29707949923E+00  0.12639785694E+01  0.33725064369E+00  0.13415052406E+01  0.51100000000E-03 0. -1.
        -11    1    3    3    0    0 -0.17052708811E+01 -0.66612502615E+00  0.71737307515E+01  0.74036534552E+01  0.51100000000E-03 0.  1.
         12    1    3    3    0    0 -0.54124580521E+01  0.66272441286E+00  0.36997480709E+02  0.37397158777E+02  0.00000000000E+00 0. -1.
</event>
<event>
 7    1  0.2425980E-008  0.4614232E+02  0.7816164E-02  0.1320468E+00
        -11   -1    0    0    0    0  0.00000000000E+00  0.00000000000E+00  0.45593999997E+02  0.45594000000E+02  0.51100000000E-03 0.  1.
         11   -1    0    0    0    0 -0.00000000000E+00 -0.00000000000E+00 -0.45593999997E+02  0.45594000000E+02  0.51100000000E-03 0. -1.
    9900012    2    1    2    0    0  0.29013515543E+01 -0.18836369296E+02  0.40815276901E+02  0.46142317881E+02  0.10000001091E+02 0.  0.
         12    1    1    2    0    0 -0.29013515543E+01  0.18836369296E+02 -0.40815276901E+02  0.45045682119E+02  0.00000000000E+00 0. -1.
         11    1    3    3    0    0  0.19806307074E+01 -0.20328582514E+01  0.51242953435E+01  0.58577993904E+01  0.51100000000E-03 0. -1.
        -11    1    3    3    0    0 -0.14021210048E+00  0.42437539965E+00  0.54193558950E+01  0.54377543610E+01  0.51100000000E-03 0.  1.
        -12    1    3    3    0    0  0.10609329473E+01 -0.17227886444E+02  0.30271625663E+02  0.34846764129E+02  0.00000000000E+00 0.  1.
</event>
<event>
 7    1  0.2425980E-008  0.4614232E+02  0.7816164E-02  0.1320468E+00
        -11   -1    0    0    0    0  0.00000000000E+00  0.00000000000E+00  0.45593999997E+02  0.45594000000E+02  0.51100000000E-03 0.  1.
         11   -1    0    0    0    0 -0.00000000000E+00 -0.00000000000E+00 -0.45593999997E+02  0.45594000000E+02  0.51100000000E-03 0. -1.
    9900012    2    1    2    0    0  0.34378647355E+02  0.16964960152E+02  0.23651893683E+02  0.46142319389E+02  0.10000014844E+02 0.  0.
         12    1    1    2    0    0 -0.34378647355E+02 -0.16964960152E+02 -0.23651893683E+02  0.45045680611E+02  0.00000000000E+00 0. -1.
         11    1    3    3    0    0  0.32307965096E+01  0.42573637542E+01  0.44792134222E+01  0.69732736476E+01  0.51100000000E-03 0. -1.
        -11    1    3    3    0    0  0.49125918704E+01  0.64805071733E+00  0.10089125935E+01  0.50568204931E+01  0.51100000000E-03 0.  1.
        -12    1    3    3    0    0  0.26235258975E+02  0.12059545680E+02  0.18163767668E+02  0.34112225248E+02  0.00000000000E+00 0.  1.
</event>
<event>
 7    1  0.2425980E-008  0.4614232E+02  0.7816164E-02  0.1320468E+00
        -11   -1    0    0    0    0  0.00000000000E+00  0.00000000000E+00  0.45593999997E+02  0.45594000000E+02  0.51100000000E-03 0.  1.
         11   -1    0    0    0    0 -0.00000000000E+00 -0.00000000000E+00 -0.45593999997E+02  0.45594000000E+02  0.51100000000E-03 0. -1.
    9900012    2    1    2    0    0  0.30611004713E+01  0.12080952183E+02  0.43287339112E+02  0.46142317974E+02  0.10000001942E+02 0.  0.
         12    1    1    2    0    0 -0.30611004713E+01 -0.12080952183E+02 -0.43287339112E+02  0.45045682026E+02  0.00000000000E+00 0. -1.
         11    1    3    3    0    0  0.27225312235E+01  0.71647374237E+01  0.13624881205E+02  0.15632754931E+02  0.51100000000E-03 0. -1.
        -11    1    3    3    0    0 -0.15528792563E+01  0.27597383943E+01  0.72117594594E+01  0.78763611364E+01  0.51100000000E-03 0.  1.
         12    1    3    3    0    0  0.18914485041E+01  0.21564763653E+01  0.22450698448E+02  0.22633201907E+02  0.00000000000E+00 0. -1.
</event>
<event>
 7    1  0.2425980E-008  0.4614232E+02  0.7816164E-02  0.1320468E+00
        -11   -1    0    0    0    0  0.00000000000E+00  0.00000000000E+00  0.45593999997E+02  0.45594000000E+02  0.51100000000E-03 0. -1.
         11   -1    0    0    0    0 -0.00000000000E+00 -0.00000000000E+00 -0.45593999997E+02  0.45594000000E+02  0.51100000000E-03 0.  1.
    9900012    2    1    2    0    0  0.17711775114E+02  0.21574568304E+02 -0.35354553936E+02  0.46142318085E+02  0.10000002953E+02 0.  0.
         12    1    1    2    0    0 -0.17711775114E+02 -0.21574568304E+02  0.35354553936E+02  0.45045681915E+02  0.00000000000E+00 0. -1.
         11    1    3    3    0    0  0.13821069099E+01 -0.41138194880E+00 -0.39851426588E+01  0.42380203976E+01  0.51100000000E-03 0. -1.
        -11    1    3    3    0    0  0.16405071848E+02  0.22044561959E+02 -0.30592951701E+02  0.41121986678E+02  0.51100000000E-03 0.  1.
        -12    1    3    3    0    0 -0.75403643780E-01 -0.58611707072E-01 -0.77645957619E+00  0.78231100923E+00  0.00000000000E+00 0.  1.
</event>
<event>
 7    1  0.2425980E-008  0.4614232E+02  0.7816164E-02  0.1320468E+00
        -11   -1    0    0    0    0  0.00000000000E+00  0.00000000000E+00  0.45593999997E+02  0.45594000000E+02  0.51100000000E-03 0. -1.
         11   -1    0    0    0    0 -0.00000000000E+00 -0.00000000000E+00 -0.45593999997E+02  0.45594000000E+02  0.51100000000E-03 0.  1.
    9900012    2    1    2    0    0 -0.24285080113E+02  0.26682080638E+02 -0.26970630104E+02  0.46142318392E+02  0.10000005757E+02 0.  0.
         12    1    1    2    0    0  0.24285080113E+02 -0.26682080638E+02  0.26970630104E+02  0.45045681608E+02  0.00000000000E+00 0. -1.
         11    1    3    3    0    0 -0.30044571382E+00  0.79579089249E+00  0.43029458684E+00  0.95325991424E+00  0.51100000000E-03 0. -1.
        -11    1    3    3    0    0 -0.16878677702E+02  0.13391288379E+02 -0.15818326518E+02  0.26728932255E+02  0.51100000000E-03 0.  1.
         12    1    3    3    0    0 -0.71059566977E+01  0.12495001367E+02 -0.11582598173E+02  0.18460126223E+02  0.00000000000E+00 0. -1.
</event>
<event>
 7    1  0.2425980E-008  0.4614232E+02  0.7816164E-02  0.1320468E+00
        -11   -1    0    0    0    0  0.00000000000E+00  0.00000000000E+00  0.45593999997E+02  0.45594000000E+02  0.51100000000E-03 0. -1.
         11   -1    0    0    0    0 -0.00000000000E+00 -0.00000000000E+00 -0.45593999997E+02  0.45594000000E+02  0.51100000000E-03 0.  1.
    9900012    2    1    2    0    0 -0.21212401203E+02  0.12353256933E+02 -0.37769625833E+02  0.46142316997E+02  0.99999930298E+01 0.  0.
         12    1    1    2    0    0  0.21212401203E+02 -0.12353256933E+02  0.37769625833E+02  0.45045683003E+02  0.00000000000E+00 0. -1.
         11    1    3    3    0    0 -0.43997277285E+01 -0.11821560599E+00 -0.30146245810E+01  0.53347484139E+01  0.51100000000E-03 0. -1.
        -11    1    3    3    0    0 -0.13676639416E+02  0.88956511981E+01 -0.23699216869E+02  0.28772138545E+02  0.51100000000E-03 0.  1.
         12    1    3    3    0    0 -0.31360340580E+01  0.35758213414E+01 -0.11055784383E+02  0.12035430038E+02  0.00000000000E+00 0. -1.
</event>
<event>
 7    1  0.2425980E-008  0.4614232E+02  0.7816164E-02  0.1320468E+00
        -11   -1    0    0    0    0  0.00000000000E+00  0.00000000000E+00  0.45593999997E+02  0.45594000000E+02  0.51100000000E-03 0.  1.
         11   -1    0    0    0    0 -0.00000000000E+00 -0.00000000000E+00 -0.45593999997E+02  0.45594000000E+02  0.51100000000E-03 0. -1.
    9900012    2    1    2    0    0 -0.40288569238E+01 -0.42746558995E+02  0.13623993366E+02  0.46142321081E+02  0.10000030276E+02 0.  0.
         12    1    1    2    0    0  0.40288569238E+01  0.42746558995E+02 -0.13623993366E+02  0.45045678919E+02  0.00000000000E+00 0. -1.
         11    1    3    3    0    0  0.10501712268E+01 -0.10215869007E+01  0.13181088085E+01  0.19707639365E+01  0.51100000000E-03 0. -1.
        -11    1    3    3    0    0 -0.83117329813E+00 -0.55644421387E+01  0.37781253520E+01  0.67770271361E+01  0.51100000000E-03 0.  1.
        -12    1    3    3    0    0 -0.42478548524E+01 -0.36160529955E+02  0.85277592059E+01  0.37394530009E+02  0.00000000000E+00 0.  1.
</event>
<event>
 7    1  0.2425980E-008  0.4614232E+02  0.7816164E-02  0.1320468E+00
        -11   -1    0    0    0    0  0.00000000000E+00  0.00000000000E+00  0.45593999997E+02  0.45594000000E+02  0.51100000000E-03 0. -1.
         11   -1    0    0    0    0 -0.00000000000E+00 -0.00000000000E+00 -0.45593999997E+02  0.45594000000E+02  0.51100000000E-03 0.  1.
    9900012    2    1    2    0    0 -0.32060213109E+02 -0.29332135820E+02  0.11869379816E+02  0.46142316149E+02  0.99999853007E+01 0.  0.
         12    1    1    2    0    0  0.32060213109E+02  0.29332135820E+02 -0.11869379816E+02  0.45045683851E+02  0.00000000000E+00 0. -1.
         11    1    3    3    0    0 -0.12659539721E+02 -0.11344645328E+02  0.55391892911E+01  0.17878689600E+02  0.51100000000E-03 0.  1.
        -11    1    3    3    0    0 -0.69635899909E+01 -0.97473088448E+01  0.58632759217E+01  0.13337151873E+02  0.51100000000E-03 0. -1.
        -12    1    3    3    0    0 -0.12437083397E+02 -0.82401816479E+01  0.46691460321E+00  0.14926474676E+02  0.00000000000E+00 0.  1.
</event>
<event>
 7    1  0.2425980E-008  0.4614231E+02  0.7816164E-02  0.1320468E+00
        -11   -1    0    0    0    0  0.00000000000E+00  0.00000000000E+00  0.45593999997E+02  0.45594000000E+02  0.51100000000E-03 0.  1.
         11   -1    0    0    0    0 -0.00000000000E+00 -0.00000000000E+00 -0.45593999997E+02  0.45594000000E+02  0.51100000000E-03 0. -1.
    9900012    2    1    2    0    0  0.23282737298E+02 -0.16394666308E+02  0.34903335639E+02  0.46142314545E+02  0.99999706687E+01 0.  0.
         12    1    1    2    0    0 -0.23282737298E+02  0.16394666308E+02 -0.34903335639E+02  0.45045685455E+02  0.00000000000E+00 0. -1.
         11    1    3    3    0    0  0.15270749450E+01 -0.49533221669E+01  0.53995510109E+01  0.74848186189E+01  0.51100000000E-03 0. -1.
        -11    1    3    3    0    0  0.64564753575E+01 -0.21331185275E+01  0.57214544654E+01  0.88865803410E+01  0.51100000000E-03 0.  1.
        -12    1    3    3    0    0  0.15299186995E+02 -0.93082256135E+01  0.23782330163E+02  0.29770915585E+02  0.00000000000E+00 0.  1.
</event>
<event>
 7    1  0.2425980E-008  0.4614232E+02  0.7816164E-02  0.1320468E+00
        -11   -1    0    0    0    0  0.00000000000E+00  0.00000000000E+00  0.45593999997E+02  0.45594000000E+02  0.51100000000E-03 0. -1.
         11   -1    0    0    0    0 -0.00000000000E+00 -0.00000000000E+00 -0.45593999997E+02  0.45594000000E+02  0.51100000000E-03 0.  1.
    9900012    2    1    2    0    0  0.39640170278E+02 -0.19644900182E+02  0.84763412833E+01  0.46142316918E+02  0.99999923095E+01 0.  0.
         12    1    1    2    0    0 -0.39640170278E+02  0.19644900182E+02 -0.84763412833E+01  0.45045683082E+02  0.00000000000E+00 0. -1.
         11    1    3    3    0    0  0.53020131360E+01 -0.26417006271E+00  0.91820066438E+00  0.53874132789E+01  0.51100000000E-03 0. -1.
        -11    1    3    3    0    0  0.14874300165E+02 -0.12127375493E+02  0.49552249862E+01  0.19821006449E+02  0.51100000000E-03 0.  1.
         12    1    3    3    0    0  0.19463856977E+02 -0.72533546260E+01  0.26029156327E+01  0.20933897190E+02  0.00000000000E+00 0. -1.
</event>
<event>
 7    1  0.2425980E-008  0.4614233E+02  0.7816164E-02  0.1320468E+00
        -11   -1    0    0    0    0  0.00000000000E+00  0.00000000000E+00  0.45593999997E+02  0.45594000000E+02  0.51100000000E-03 0.  1.
         11   -1    0    0    0    0 -0.00000000000E+00 -0.00000000000E+00 -0.45593999997E+02  0.45594000000E+02  0.51100000000E-03 0. -1.
    9900012    2    1    2    0    0 -0.30870973925E+01  0.31064682324E+02  0.32474109458E+02  0.46142329362E+02  0.10000105784E+02 0.  0.
         12    1    1    2    0    0  0.30870973925E+01 -0.31064682324E+02 -0.32474109458E+02  0.45045670638E+02  0.00000000000E+00 0. -1.
         11    1    3    3    0    0 -0.14647400936E+00  0.18302081495E+02  0.21458410312E+02  0.28203741154E+02  0.51100000000E-03 0. -1.
        -11    1    3    3    0    0 -0.44422096494E+01  0.79087023794E+01  0.73142631809E+01  0.11652435198E+02  0.51100000000E-03 0.  1.
        -12    1    3    3    0    0  0.15015862663E+01  0.48538984488E+01  0.37014359648E+01  0.62861530103E+01  0.00000000000E+00 0.  1.
</event>
<event>
 7    1  0.2425980E-008  0.4614232E+02  0.7816164E-02  0.1320468E+00
        -11   -1    0    0    0    0  0.00000000000E+00  0.00000000000E+00  0.45593999997E+02  0.45594000000E+02  0.51100000000E-03 0.  1.
         11   -1    0    0    0    0 -0.00000000000E+00 -0.00000000000E+00 -0.45593999997E+02  0.45594000000E+02  0.51100000000E-03 0. -1.
    9900012    2    1    2    0    0 -0.22642432744E+02 -0.38656633368E+02 -0.47009041051E+01  0.46142316929E+02  0.99999924130E+01 0.  0.
         12    1    1    2    0    0  0.22642432744E+02  0.38656633368E+02  0.47009041051E+01  0.45045683071E+02  0.00000000000E+00 0. -1.
         11    1    3    3    0    0 -0.13640998245E+02 -0.25341630683E+02 -0.76364086600E+01  0.29775658117E+02  0.51100000000E-03 0. -1.
        -11    1    3    3    0    0 -0.65653706333E+01 -0.91520639674E+01  0.17358429520E+01  0.11396381769E+02  0.51100000000E-03 0.  1.
         12    1    3    3    0    0 -0.24360638658E+01 -0.41629387172E+01  0.11996616029E+01  0.49702770429E+01  0.00000000000E+00 0. -1.
</event>
<event>
 7    1  0.2425980E-008  0.4614232E+02  0.7816164E-02  0.1320468E+00
        -11   -1    0    0    0    0  0.00000000000E+00  0.00000000000E+00  0.45593999997E+02  0.45594000000E+02  0.51100000000E-03 0. -1.
         11   -1    0    0    0    0 -0.00000000000E+00 -0.00000000000E+00 -0.45593999997E+02  0.45594000000E+02  0.51100000000E-03 0.  1.
    9900012    2    1    2    0    0  0.46322543390E+01 -0.41700169211E+02  0.16393643287E+02  0.46142318379E+02  0.10000005636E+02 0.  0.
         12    1    1    2    0    0 -0.46322543390E+01  0.41700169211E+02 -0.16393643287E+02  0.45045681621E+02  0.00000000000E+00 0. -1.
         11    1    3    3    0    0 -0.31959282671E+00 -0.25298581700E+01 -0.45242016427E+00  0.25897888333E+01  0.51100000000E-03 0. -1.
        -11    1    3    3    0    0  0.21457965057E+01 -0.18116254501E+02  0.38275292186E+01  0.18640093883E+02  0.51100000000E-03 0.  1.
        -12    1    3    3    0    0  0.28060506600E+01 -0.21054056540E+02  0.13018534233E+02  0.24912435663E+02  0.00000000000E+00 0.  1.
</event>
<event>
 7    1  0.2425980E-008  0.4614232E+02  0.7816164E-02  0.1320468E+00
        -11   -1    0    0    0    0  0.00000000000E+00  0.00000000000E+00  0.45593999997E+02  0.45594000000E+02  0.51100000000E-03 0.  1.
         11   -1    0    0    0    0 -0.00000000000E+00 -0.00000000000E+00 -0.45593999997E+02  0.45594000000E+02  0.51100000000E-03 0. -1.
    9900012    2    1    2    0    0 -0.94259887925E+01  0.33229438988E+02  0.28914852746E+02  0.46142316639E+02  0.99999897682E+01 0.  0.
         12    1    1    2    0    0  0.94259887925E+01 -0.33229438988E+02 -0.28914852746E+02  0.45045683361E+02  0.00000000000E+00 0. -1.
         11    1    3    3    0    0 -0.83536403959E+00  0.46743144119E+01  0.67580667977E+00  0.47962238510E+01  0.51100000000E-03 0. -1.
        -11    1    3    3    0    0 -0.55765081933E+01  0.22154055146E+02  0.19029150330E+02  0.29732274813E+02  0.51100000000E-03 0.  1.
        -12    1    3    3    0    0 -0.30141165596E+01  0.64010694299E+01  0.92098957360E+01  0.11613817975E+02  0.00000000000E+00 0.  1.
</event>
<event>
 7    1  0.2425980E-008  0.4614232E+02  0.7816164E-02  0.1320468E+00
        -11   -1    0    0    0    0  0.00000000000E+00  0.00000000000E+00  0.45593999997E+02  0.45594000000E+02  0.51100000000E-03 0. -1.
         11   -1    0    0    0    0 -0.00000000000E+00 -0.00000000000E+00 -0.45593999997E+02  0.45594000000E+02  0.51100000000E-03 0.  1.
    9900012    2    1    2    0    0 -0.33533115851E+02 -0.30042826734E+02  0.14395029561E+01  0.46142318014E+02  0.10000002308E+02 0.  0.
         12    1    1    2    0    0  0.33533115851E+02  0.30042826734E+02 -0.14395029561E+01  0.45045681986E+02  0.00000000000E+00 0. -1.
         11    1    3    3    0    0 -0.34966525286E+01 -0.40865483085E+01  0.20023843086E+01  0.57389893853E+01  0.51100000000E-03 0. -1.
        -11    1    3    3    0    0 -0.26114634405E+02 -0.25411729115E+02 -0.39048486712E+00  0.36440123291E+02  0.51100000000E-03 0.  1.
         12    1    3    3    0    0 -0.39218289170E+01 -0.54454930983E+00 -0.17239648540E+00  0.39632053383E+01  0.00000000000E+00 0. -1.
</event>
<event>
 7    1  0.2425980E-008  0.4614232E+02  0.7816164E-02  0.1320468E+00
        -11   -1    0    0    0    0  0.00000000000E+00  0.00000000000E+00  0.45593999997E+02  0.45594000000E+02  0.51100000000E-03 0.  1.
         11   -1    0    0    0    0 -0.00000000000E+00 -0.00000000000E+00 -0.45593999997E+02  0.45594000000E+02  0.51100000000E-03 0. -1.
    9900012    2    1    2    0    0  0.26887396598E+02 -0.33749744364E+02 -0.12928115287E+02  0.46142317573E+02  0.99999982868E+01 0.  0.
         12    1    1    2    0    0 -0.26887396598E+02  0.33749744364E+02  0.12928115287E+02  0.45045682427E+02  0.00000000000E+00 0. -1.
         11    1    3    3    0    0  0.11571127056E+02 -0.10983799235E+02 -0.25384314017E+01  0.16154827799E+02  0.51100000000E-03 0.  1.
        -11    1    3    3    0    0  0.47074822635E+01 -0.27962366985E+01 -0.13848460681E+01  0.56477542288E+01  0.51100000000E-03 0. -1.
        -12    1    3    3    0    0  0.10608787278E+02 -0.19969708430E+02 -0.90048378170E+01  0.24339735545E+02  0.00000000000E+00 0.  1.
</event>
<event>
 7    1  0.2425980E-008  0.4614232E+02  0.7816164E-02  0.1320468E+00
        -11   -1    0    0    0    0  0.00000000000E+00  0.00000000000E+00  0.45593999997E+02  0.45594000000E+02  0.51100000000E-03 0. -1.
         11   -1    0    0    0    0 -0.00000000000E+00 -0.00000000000E+00 -0.45593999997E+02  0.45594000000E+02  0.51100000000E-03 0.  1.
    9900012    2    1    2    0    0  0.42485604134E+02  0.14961915385E+02  0.47755983327E+00  0.46142317254E+02  0.99999953795E+01 0.  0.
         12    1    1    2    0    0 -0.42485604134E+02 -0.14961915385E+02 -0.47755983327E+00  0.45045682746E+02  0.00000000000E+00 0. -1.
         11    1    3    3    0    0  0.65585475686E+01  0.12389960733E+01  0.19575346915E+01  0.69556883059E+01  0.51100000000E-03 0. -1.
        -11    1    3    3    0    0  0.30928970910E+02  0.12341239243E+02  0.12552669715E+01  0.33323912181E+02  0.51100000000E-03 0.  1.
        -12    1    3    3    0    0  0.49980856558E+01  0.13816800685E+01 -0.27352418297E+01  0.58627167680E+01  0.00000000000E+00 0.  1.
</event>
<event>
 7    1  0.2425980E-008  0.4614232E+02  0.7816164E-02  0.1320468E+00
        -11   -1    0    0    0    0  0.00000000000E+00  0.00000000000E+00  0.45593999997E+02  0.45594000000E+02  0.51100000000E-03 0.  1.
         11   -1    0    0    0    0 -0.00000000000E+00 -0.00000000000E+00 -0.45593999997E+02  0.45594000000E+02  0.51100000000E-03 0. -1.
    9900012    2    1    2    0    0 -0.26186369085E+02  0.34889152501E+02  0.11230972279E+02  0.46142316228E+02  0.99999860229E+01 0.  0.
         12    1    1    2    0    0  0.26186369085E+02 -0.34889152501E+02 -0.11230972279E+02  0.45045683772E+02  0.00000000000E+00 0. -1.
         11    1    3    3    0    0 -0.11554537377E+01  0.17687114726E+01 -0.15465141257E+00  0.21183321113E+01  0.51100000000E-03 0. -1.
        -11    1    3    3    0    0 -0.78210463232E+01  0.42155228412E+01  0.22521895399E+01  0.91657927316E+01  0.51100000000E-03 0.  1.
        -12    1    3    3    0    0 -0.17209869024E+02  0.28904918188E+02  0.91334341514E+01  0.34858191385E+02  0.00000000000E+00 0.  1.
</event>
<event>
 7    1  0.2425980E-008  0.4614232E+02  0.7816164E-02  0.1320468E+00
        -11   -1    0    0    0    0  0.00000000000E+00  0.00000000000E+00  0.45593999997E+02  0.45594000000E+02  0.51100000000E-03 0. -1.
         11   -1    0    0    0    0 -0.00000000000E+00 -0.00000000000E+00 -0.45593999997E+02  0.45594000000E+02  0.51100000000E-03 0.  1.
    9900012    2    1    2    0    0 -0.30170084445E+02 -0.33428100475E+02  0.12005742032E+01  0.46142320127E+02  0.10000021571E+02 0.  0.
         12    1    1    2    0    0  0.30170084445E+02  0.33428100475E+02 -0.12005742032E+01  0.45045679873E+02  0.00000000000E+00 0. -1.
         11    1    3    3    0    0 -0.17290538864E+02 -0.16038566930E+02 -0.21264950673E+01  0.23679534305E+02  0.51100000000E-03 0. -1.
        -11    1    3    3    0    0 -0.98532256397E+01 -0.92011133359E+01  0.22253235761E+01  0.13663769883E+02  0.51100000000E-03 0.  1.
         12    1    3    3    0    0 -0.30263199414E+01 -0.81884202096E+01  0.11017456944E+01  0.87990159389E+01  0.00000000000E+00 0. -1.
</event>
<event>
 7    1  0.2425980E-008  0.4614232E+02  0.7816164E-02  0.1320468E+00
        -11   -1    0    0    0    0  0.00000000000E+00  0.00000000000E+00  0.45593999997E+02  0.45594000000E+02  0.51100000000E-03 0. -1.
         11   -1    0    0    0    0 -0.00000000000E+00 -0.00000000000E+00 -0.45593999997E+02  0.45594000000E+02  0.51100000000E-03 0.  1.
    9900012    2    1    2    0    0  0.28109628654E+02  0.18199827178E+02 -0.30128533703E+02  0.46142317904E+02  0.10000001306E+02 0.  0.
         12    1    1    2    0    0 -0.28109628654E+02 -0.18199827178E+02  0.30128533703E+02  0.45045682096E+02  0.00000000000E+00 0. -1.
         11    1    3    3    0    0  0.20855930098E+01  0.23579271036E+01 -0.90248992401E+00  0.32747529300E+01  0.51100000000E-03 0. -1.
        -11    1    3    3    0    0  0.79489130303E+01  0.86022743713E+01 -0.88170614147E+01  0.14660317697E+02  0.51100000000E-03 0.  1.
        -12    1    3    3    0    0  0.18075122614E+02  0.72396257029E+01 -0.20408982364E+02  0.28207247277E+02  0.00000000000E+00 0.  1.
</event>
<event>
 7    1  0.2425980E-008  0.4614232E+02  0.7816164E-02  0.1320468E+00
        -11   -1    0    0    0    0  0.00000000000E+00  0.00000000000E+00  0.45593999997E+02  0.45594000000E+02  0.51100000000E-03 0.  1.
         11   -1    0    0    0    0 -0.00000000000E+00 -0.00000000000E+00 -0.45593999997E+02  0.45594000000E+02  0.51100000000E-03 0. -1.
    9900012    2    1    2    0    0 -0.13676505022E+02  0.79136557514E+01  0.42183419536E+02  0.46142316292E+02  0.99999866016E+01 0.  0.
         12    1    1    2    0    0  0.13676505022E+02 -0.79136557514E+01 -0.42183419536E+02  0.45045683708E+02  0.00000000000E+00 0. -1.
         11    1    3    3    0    0 -0.90722742995E+01  0.74804495395E+01  0.19278882651E+02  0.22581820184E+02  0.51100000000E-03 0. -1.
        -11    1    3    3    0    0 -0.28737254560E+01  0.66959259167E+00  0.75367770567E+01  0.80938038584E+01  0.51100000000E-03 0.  1.
        -12    1    3    3    0    0 -0.17305052669E+01 -0.23638637977E+00  0.15367759829E+02  0.15466692250E+02  0.00000000000E+00 0.  1.
</event>
<event>
 7    1  0.2425980E-008  0.4614232E+02  0.7816164E-02  0.1320468E+00
        -11   -1    0    0    0    0  0.00000000000E+00  0.00000000000E+00  0.45593999997E+02  0.45594000000E+02  0.51100000000E-03 0.  1.
         11   -1    0    0    0    0 -0.00000000000E+00 -0.00000000000E+00 -0.45593999997E+02  0.45594000000E+02  0.51100000000E-03 0. -1.
    9900012    2    1    2    0    0  0.14006392673E+02 -0.22716997205E+02  0.36288736713E+02  0.46142318631E+02  0.10000007936E+02 0.  0.
         12    1    1    2    0    0 -0.14006392673E+02  0.22716997205E+02 -0.36288736713E+02  0.45045681369E+02  0.00000000000E+00 0. -1.
         11    1    3    3    0    0  0.64640556318E+01 -0.12995218574E+02  0.14222258604E+02  0.20320737217E+02  0.51100000000E-03 0. -1.
        -11    1    3    3    0    0  0.40500142372E+01 -0.65036002034E+01  0.84771806703E+01  0.11426374023E+02  0.51100000000E-03 0.  1.
        -12    1    3    3    0    0  0.34923228039E+01 -0.32181784279E+01  0.13589297439E+02  0.14395207392E+02  0.00000000000E+00 0.  1.
</event>
<event>
 7    1  0.2425980E-008  0.4614232E+02  0.7816164E-02  0.1320468E+00
        -11   -1    0    0    0    0  0.00000000000E+00  0.00000000000E+00  0.45593999997E+02  0.45594000000E+02  0.51100000000E-03 0. -1.
         11   -1    0    0    0    0 -0.00000000000E+00 -0.00000000000E+00 -0.45593999997E+02  0.45594000000E+02  0.51100000000E-03 0.  1.
    9900012    2    1    2    0    0  0.12709992690E+01  0.44227460133E+02  0.84516167868E+01  0.46142317684E+02  0.99999993007E+01 0.  0.
         12    1    1    2    0    0 -0.12709992690E+01 -0.44227460133E+02 -0.84516167868E+01  0.45045682316E+02  0.00000000000E+00 0. -1.
         11    1    3    3    0    0 -0.14619259200E+01  0.49472675090E+01 -0.53126762440E+00  0.51860320815E+01  0.51100000000E-03 0. -1.
        -11    1    3    3    0    0  0.54889530834E+00  0.32490080379E+02  0.93529868384E+01  0.33813975989E+02  0.51100000000E-03 0.  1.
        -12    1    3    3    0    0  0.21840298806E+01  0.67901122449E+01 -0.37010242720E+00  0.71423096142E+01  0.00000000000E+00 0.  1.
</event>
<event>
 7    1  0.2425980E-008  0.4614232E+02  0.7816164E-02  0.1320468E+00
        -11   -1    0    0    0    0  0.00000000000E+00  0.00000000000E+00  0.45593999997E+02  0.45594000000E+02  0.51100000000E-03 0. -1.
         11   -1    0    0    0    0 -0.00000000000E+00 -0.00000000000E+00 -0.45593999997E+02  0.45594000000E+02  0.51100000000E-03 0.  1.
    9900012    2    1    2    0    0  0.19423549479E+02  0.38011484095E+02  0.14386323016E+02  0.46142317772E+02  0.10000000100E+02 0.  0.
         12    1    1    2    0    0 -0.19423549479E+02 -0.38011484095E+02 -0.14386323016E+02  0.45045682228E+02  0.00000000000E+00 0. -1.
         11    1    3    3    0    0  0.32030496506E+01  0.15966081113E+02  0.59409408449E+01  0.17334071984E+02  0.51100000000E-03 0. -1.
        -11    1    3    3    0    0  0.30020971407E+00  0.98502775774E+00  0.85405028390E+00  0.13378369499E+01  0.51100000000E-03 0.  1.
        -12    1    3    3    0    0  0.15920290115E+02  0.21060375225E+02  0.75913318869E+01  0.27470408838E+02  0.00000000000E+00 0.  1.
</event>
<event>
 7    1  0.2425980E-008  0.4614232E+02  0.7816164E-02  0.1320468E+00
        -11   -1    0    0    0    0  0.00000000000E+00  0.00000000000E+00  0.45593999997E+02  0.45594000000E+02  0.51100000000E-03 0.  1.
         11   -1    0    0    0    0 -0.00000000000E+00 -0.00000000000E+00 -0.45593999997E+02  0.45594000000E+02  0.51100000000E-03 0. -1.
    9900012    2    1    2    0    0  0.18370412837E+02  0.40887325573E+02  0.44573702594E+01  0.46142316412E+02  0.99999876985E+01 0.  0.
         12    1    1    2    0    0 -0.18370412837E+02 -0.40887325573E+02 -0.44573702594E+01  0.45045683588E+02  0.00000000000E+00 0. -1.
         11    1    3    3    0    0  0.97560920281E+01  0.12100577371E+02  0.33725396118E+01  0.15905323891E+02  0.51100000000E-03 0. -1.
        -11    1    3    3    0    0  0.17642826027E+01  0.11266937948E+02  0.24323379478E+00  0.11406828953E+02  0.51100000000E-03 0.  1.
        -12    1    3    3    0    0  0.68500382060E+01  0.17519810254E+02  0.84159685284E+00  0.18830163568E+02  0.00000000000E+00 0.  1.
</event>
<event>
 7    1  0.2425980E-008  0.4614232E+02  0.7816164E-02  0.1320468E+00
        -11   -1    0    0    0    0  0.00000000000E+00  0.00000000000E+00  0.45593999997E+02  0.45594000000E+02  0.51100000000E-03 0.  1.
         11   -1    0    0    0    0 -0.00000000000E+00 -0.00000000000E+00 -0.45593999997E+02  0.45594000000E+02  0.51100000000E-03 0. -1.
    9900012    2    1    2    0    0  0.16183163027E+02  0.40098725888E+02  0.12621842798E+02  0.46142317643E+02  0.99999989274E+01 0.  0.
         12    1    1    2    0    0 -0.16183163027E+02 -0.40098725888E+02 -0.12621842798E+02  0.45045682357E+02  0.00000000000E+00 0. -1.
         11    1    3    3    0    0  0.10035506525E+02  0.18444021992E+02  0.92363806941E+01  0.22939138324E+02  0.51100000000E-03 0. -1.
        -11    1    3    3    0    0  0.14736114485E+01  0.55879140639E+01  0.28940410913E+01  0.64631098077E+01  0.51100000000E-03 0.  1.
        -12    1    3    3    0    0  0.46740450529E+01  0.16066789832E+02  0.49142101265E+00  0.16740069512E+02  0.00000000000E+00 0.  1.
</event>
<event>
 7    1  0.2425980E-008  0.4614232E+02  0.7816164E-02  0.1320468E+00
        -11   -1    0    0    0    0  0.00000000000E+00  0.00000000000E+00  0.45593999997E+02  0.45594000000E+02  0.51100000000E-03 0.  1.
         11   -1    0    0    0    0 -0.00000000000E+00 -0.00000000000E+00 -0.45593999997E+02  0.45594000000E+02  0.51100000000E-03 0. -1.
    9900012    2    1    2    0    0  0.91669010245E+01 -0.43990023495E+02  0.31558117252E+01  0.46142318862E+02  0.10000010040E+02 0.  0.
         12    1    1    2    0    0 -0.91669010245E+01  0.43990023495E+02 -0.31558117252E+01  0.45045681138E+02  0.00000000000E+00 0. -1.
         11    1    3    3    0    0  0.19570734007E+00 -0.14585972949E+01  0.96434665902E+00  0.17594806539E+01  0.51100000000E-03 0. -1.
        -11    1    3    3    0    0 -0.67121517069E+00 -0.97432707722E+01  0.29360206208E+01  0.10198140639E+02  0.51100000000E-03 0.  1.
        -12    1    3    3    0    0  0.96424088551E+01 -0.32788155428E+02 -0.74455555465E+00  0.34184697569E+02  0.00000000000E+00 0.  1.
</event>
<event>
 7    1  0.2425980E-008  0.4614233E+02  0.7816164E-02  0.1320468E+00
        -11   -1    0    0    0    0  0.00000000000E+00  0.00000000000E+00  0.45593999997E+02  0.45594000000E+02  0.51100000000E-03 0.  1.
         11   -1    0    0    0    0 -0.00000000000E+00 -0.00000000000E+00 -0.45593999997E+02  0.45594000000E+02  0.51100000000E-03 0. -1.
    9900012    2    1    2    0    0  0.19571681423E+02 -0.53593714488E+01  0.40216146594E+02  0.46142334028E+02  0.10000148329E+02 0.  0.
         12    1    1    2    0    0 -0.19571681423E+02  0.53593714488E+01 -0.40216146594E+02  0.45045665972E+02  0.00000000000E+00 0. -1.
         11    1    3    3    0    0  0.18048556620E+02 -0.46943282918E+01  0.28932852894E+02  0.34422334189E+02  0.51100000000E-03 0.  1.
        -11    1    3    3    0    0 -0.78572128726E+00 -0.14332770514E+00  0.26056934080E+01  0.27253512012E+01  0.51100000000E-03 0. -1.
        -12    1    3    3    0    0  0.23088460898E+01 -0.52171545191E+00  0.86776002921E+01  0.89946486373E+01  0.00000000000E+00 0.  1.
</event>
<event>
 7    1  0.2425980E-008  0.4614232E+02  0.7816164E-02  0.1320468E+00
        -11   -1    0    0    0    0  0.00000000000E+00  0.00000000000E+00  0.45593999997E+02  0.45594000000E+02  0.51100000000E-03 0. -1.
         11   -1    0    0    0    0 -0.00000000000E+00 -0.00000000000E+00 -0.45593999997E+02  0.45594000000E+02  0.51100000000E-03 0.  1.
    9900012    2    1    2    0    0 -0.30643394357E+01 -0.39514463141E+02  0.21408655208E+02  0.46142317728E+02  0.99999996982E+01 0.  0.
         12    1    1    2    0    0  0.30643394357E+01  0.39514463141E+02 -0.21408655208E+02  0.45045682272E+02  0.00000000000E+00 0. -1.
         11    1    3    3    0    0  0.26556380169E+01 -0.10180097475E+02  0.50607025371E+01  0.11674652385E+02  0.51100000000E-03 0. -1.
        -11    1    3    3    0    0 -0.84725195361E+00 -0.17374249944E+01 -0.16590807123E+00  0.19401049542E+01  0.51100000000E-03 0.  1.
        -12    1    3    3    0    0 -0.48727254990E+01 -0.27596940671E+02  0.16513860743E+02  0.32527560389E+02  0.00000000000E+00 0.  1.
</event>
<event>
 7    1  0.2425980E-008  0.4614232E+02  0.7816164E-02  0.1320468E+00
        -11   -1    0    0    0    0  0.00000000000E+00  0.00000000000E+00  0.45593999997E+02  0.45594000000E+02  0.51100000000E-03 0.  1.
         11   -1    0    0    0    0 -0.00000000000E+00 -0.00000000000E+00 -0.45593999997E+02  0.45594000000E+02  0.51100000000E-03 0. -1.
    9900012    2    1    2    0    0 -0.12364828816E+02 -0.13453810224E+02  0.41173043536E+02  0.46142317463E+02  0.99999972841E+01 0.  0.
         12    1    1    2    0    0  0.12364828816E+02  0.13453810224E+02 -0.41173043536E+02  0.45045682537E+02  0.00000000000E+00 0. -1.
         11    1    3    3    0    0 -0.17453679805E+01 -0.59494509752E+01  0.17104124518E+02  0.18193222696E+02  0.51100000000E-03 0. -1.
        -11    1    3    3    0    0 -0.84599749159E+01 -0.73034611353E+01  0.22908325774E+02  0.25489274414E+02  0.51100000000E-03 0.  1.
         12    1    3    3    0    0 -0.21594859200E+01 -0.20089811315E+00  0.11605932442E+01  0.24598203530E+01  0.00000000000E+00 0. -1.
</event>
<event>
 7    1  0.2425980E-008  0.4614232E+02  0.7816164E-02  0.1320468E+00
        -11   -1    0    0    0    0  0.00000000000E+00  0.00000000000E+00  0.45593999997E+02  0.45594000000E+02  0.51100000000E-03 0. -1.
         11   -1    0    0    0    0 -0.00000000000E+00 -0.00000000000E+00 -0.45593999997E+02  0.45594000000E+02  0.51100000000E-03 0.  1.
    9900012    2    1    2    0    0 -0.35591255122E+02 -0.15491262841E+02 -0.22856002371E+02  0.46142317521E+02  0.99999978119E+01 0.  0.
         12    1    1    2    0    0  0.35591255122E+02  0.15491262841E+02  0.22856002371E+02  0.45045682479E+02  0.00000000000E+00 0. -1.
         11    1    3    3    0    0 -0.20136121502E+02 -0.58260896046E+01 -0.12887485645E+02  0.24606787594E+02  0.51100000000E-03 0. -1.
        -11    1    3    3    0    0 -0.15255286778E+02 -0.79183769866E+01 -0.97582374577E+01  0.19764808811E+02  0.51100000000E-03 0.  1.
         12    1    3    3    0    0 -0.19984684281E+00 -0.17467962503E+01 -0.21027926853E+00  0.17707211162E+01  0.00000000000E+00 0. -1.
</event>
<event>
 7    1  0.2425980E-008  0.4614232E+02  0.7816164E-02  0.1320468E+00
        -11   -1    0    0    0    0  0.00000000000E+00  0.00000000000E+00  0.45593999997E+02  0.45594000000E+02  0.51100000000E-03 0.  1.
         11   -1    0    0    0    0 -0.00000000000E+00 -0.00000000000E+00 -0.45593999997E+02  0.45594000000E+02  0.51100000000E-03 0. -1.
    9900012    2    1    2    0    0  0.41879882395E+02  0.16532879368E+02  0.13612627015E+01  0.46142315570E+02  0.99999800191E+01 0.  0.
         12    1    1    2    0    0 -0.41879882395E+02 -0.16532879368E+02 -0.13612627015E+01  0.45045684430E+02  0.00000000000E+00 0. -1.
         11    1    3    3    0    0  0.16580166237E+02  0.93770484339E+01  0.28720084204E+00  0.19050286989E+02  0.51100000000E-03 0. -1.
        -11    1    3    3    0    0  0.19826497829E+02  0.56486962348E+01 -0.18645292453E+01  0.20699619680E+02  0.51100000000E-03 0.  1.
        -12    1    3    3    0    0  0.54732183293E+01  0.15071346996E+01  0.29385911047E+01  0.63924089015E+01  0.00000000000E+00 0.  1.
</event>
<event>
 7    1  0.2425980E-008  0.4614232E+02  0.7816164E-02  0.1320468E+00
        -11   -1    0    0    0    0  0.00000000000E+00  0.00000000000E+00  0.45593999997E+02  0.45594000000E+02  0.51100000000E-03 0.  1.
         11   -1    0    0    0    0 -0.00000000000E+00 -0.00000000000E+00 -0.45593999997E+02  0.45594000000E+02  0.51100000000E-03 0. -1.
    9900012    2    1    2    0    0  0.16194547013E+01 -0.31096661092E+02  0.32549783293E+02  0.46142319219E+02  0.10000013293E+02 0.  0.
         12    1    1    2    0    0 -0.16194547013E+01  0.31096661092E+02 -0.32549783293E+02  0.45045680781E+02  0.00000000000E+00 0. -1.
         11    1    3    3    0    0 -0.21290599404E+01 -0.38866589892E+01  0.70213632192E+01  0.83029245477E+01  0.51100000000E-03 0. -1.
        -11    1    3    3    0    0 -0.68036719369E+00 -0.13469249192E+02  0.11896910721E+02  0.17983883292E+02  0.51100000000E-03 0.  1.
        -12    1    3    3    0    0  0.44288818354E+01 -0.13740752911E+02  0.13631509354E+02  0.19855511379E+02  0.00000000000E+00 0.  1.
</event>
<event>
 7    1  0.2425980E-008  0.4614232E+02  0.7816164E-02  0.1320468E+00
        -11   -1    0    0    0    0  0.00000000000E+00  0.00000000000E+00  0.45593999997E+02  0.45594000000E+02  0.51100000000E-03 0.  1.
         11   -1    0    0    0    0 -0.00000000000E+00 -0.00000000000E+00 -0.45593999997E+02  0.45594000000E+02  0.51100000000E-03 0. -1.
    9900012    2    1    2    0    0 -0.24925808965E+02 -0.36945964595E+02  0.65431695725E+01  0.46142319625E+02  0.10000016993E+02 0.  0.
         12    1    1    2    0    0  0.24925808965E+02  0.36945964595E+02 -0.65431695725E+01  0.45045680375E+02  0.00000000000E+00 0. -1.
         11    1    3    3    0    0 -0.53378412979E+01 -0.35267696219E+01  0.14157699275E+01  0.65524849055E+01  0.51100000000E-03 0. -1.
        -11    1    3    3    0    0 -0.15698176195E+02 -0.20849642459E+02  0.33739024569E+01  0.26315842083E+02  0.51100000000E-03 0.  1.
        -12    1    3    3    0    0 -0.38897914725E+01 -0.12569552514E+02  0.17534971881E+01  0.13273992636E+02  0.00000000000E+00 0.  1.
</event>
<event>
 7    1  0.2425980E-008  0.4614232E+02  0.7816164E-02  0.1320468E+00
        -11   -1    0    0    0    0  0.00000000000E+00  0.00000000000E+00  0.45593999997E+02  0.45594000000E+02  0.51100000000E-03 0.  1.
         11   -1    0    0    0    0 -0.00000000000E+00 -0.00000000000E+00 -0.45593999997E+02  0.45594000000E+02  0.51100000000E-03 0. -1.
    9900012    2    1    2    0    0  0.23454724237E+02  0.13374768439E+02  0.36056969052E+02  0.46142317221E+02  0.99999950777E+01 0.  0.
         12    1    1    2    0    0 -0.23454724237E+02 -0.13374768439E+02 -0.36056969052E+02  0.45045682779E+02  0.00000000000E+00 0. -1.
         11    1    3    3    0    0  0.16206753252E+01  0.33270726653E+01  0.27498812447E+01  0.46106234015E+01  0.51100000000E-03 0. -1.
        -11    1    3    3    0    0  0.17182873444E+02  0.88021124669E+01  0.22167728561E+02  0.29396198963E+02  0.51100000000E-03 0.  1.
         12    1    3    3    0    0  0.46511754679E+01  0.12455833064E+01  0.11139359246E+02  0.12135494857E+02  0.00000000000E+00 0. -1.
</event>
<event>
 7    1  0.2425980E-008  0.4614232E+02  0.7816164E-02  0.1320468E+00
        -11   -1    0    0    0    0  0.00000000000E+00  0.00000000000E+00  0.45593999997E+02  0.45594000000E+02  0.51100000000E-03 0.  1.
         11   -1    0    0    0    0 -0.00000000000E+00 -0.00000000000E+00 -0.45593999997E+02  0.45594000000E+02  0.51100000000E-03 0. -1.
    9900012    2    1    2    0    0  0.25460003366E+02 -0.22243087647E+02  0.29768218325E+02  0.46142317169E+02  0.99999946003E+01 0.  0.
         12    1    1    2    0    0 -0.25460003366E+02  0.22243087647E+02 -0.29768218325E+02  0.45045682831E+02  0.00000000000E+00 0. -1.
         11    1    3    3    0    0  0.32401597186E+01 -0.38339992557E+01  0.29601476531E+01  0.58275775142E+01  0.51100000000E-03 0. -1.
        -11    1    3    3    0    0  0.17506603177E+02 -0.18328309615E+02  0.21726089882E+02  0.33383095572E+02  0.51100000000E-03 0.  1.
         12    1    3    3    0    0  0.47132404705E+01 -0.80778776425E-01  0.50819807900E+01  0.69316440830E+01  0.00000000000E+00 0. -1.
</event>
<event>
 7    1  0.2425980E-008  0.4614232E+02  0.7816164E-02  0.1320468E+00
        -11   -1    0    0    0    0  0.00000000000E+00  0.00000000000E+00  0.45593999997E+02  0.45594000000E+02  0.51100000000E-03 0.  1.
         11   -1    0    0    0    0 -0.00000000000E+00 -0.00000000000E+00 -0.45593999997E+02  0.45594000000E+02  0.51100000000E-03 0. -1.
    9900012    2    1    2    0    0  0.32682392424E+01 -0.44571707967E+02  0.56386739482E+01  0.46142321154E+02  0.10000030937E+02 0.  0.
         12    1    1    2    0    0 -0.32682392424E+01  0.44571707967E+02 -0.56386739482E+01  0.45045678846E+02  0.00000000000E+00 0. -1.
         11    1    3    3    0    0  0.29031893435E+01 -0.46335894479E+01 -0.82946574161E+00  0.55305219658E+01  0.51100000000E-03 0. -1.
        -11    1    3    3    0    0  0.80482737306E+00 -0.33455148931E+01  0.11732572696E+01  0.36354848208E+01  0.51100000000E-03 0.  1.
        -12    1    3    3    0    0 -0.43977747419E+00 -0.36592603626E+02  0.52948824203E+01  0.36976314367E+02  0.00000000000E+00 0.  1.
</event>
<event>
 7    1  0.2425980E-008  0.4614232E+02  0.7816164E-02  0.1320468E+00
        -11   -1    0    0    0    0  0.00000000000E+00  0.00000000000E+00  0.45593999997E+02  0.45594000000E+02  0.51100000000E-03 0. -1.
         11   -1    0    0    0    0 -0.00000000000E+00 -0.00000000000E+00 -0.45593999997E+02  0.45594000000E+02  0.51100000000E-03 0.  1.
    9900012    2    1    2    0    0 -0.89071721003E+01 -0.17115248684E+01 -0.44123079328E+02  0.46142321388E+02  0.10000033073E+02 0.  0.
         12    1    1    2    0    0  0.89071721003E+01  0.17115248684E+01  0.44123079328E+02  0.45045678612E+02  0.00000000000E+00 0. -1.
         11    1    3    3    0    0  0.38651548514E-01  0.11553702658E+01 -0.26989017302E+01  0.29360594687E+01  0.51100000000E-03 0. -1.
        -11    1    3    3    0    0 -0.21383214975E+01  0.82759184772E+00 -0.24346591223E+02  0.24454321327E+02  0.51100000000E-03 0.  1.
        -12    1    3    3    0    0 -0.68075021513E+01 -0.36944869819E+01 -0.17077586375E+02  0.18751940593E+02  0.00000000000E+00 0.  1.
</event>
<event>
 7    1  0.2425980E-008  0.4614232E+02  0.7816164E-02  0.1320468E+00
        -11   -1    0    0    0    0  0.00000000000E+00  0.00000000000E+00  0.45593999997E+02  0.45594000000E+02  0.51100000000E-03 0. -1.
         11   -1    0    0    0    0 -0.00000000000E+00 -0.00000000000E+00 -0.45593999997E+02  0.45594000000E+02  0.51100000000E-03 0.  1.
    9900012    2    1    2    0    0 -0.29704243080E+02 -0.49005663584E+01 -0.33507549346E+02  0.46142317957E+02  0.10000001785E+02 0.  0.
         12    1    1    2    0    0  0.29704243080E+02  0.49005663584E+01  0.33507549346E+02  0.45045682043E+02  0.00000000000E+00 0. -1.
         11    1    3    3    0    0 -0.17189558253E+01 -0.11120285026E+01 -0.31313043643E+01  0.37411874857E+01  0.51100000000E-03 0. -1.
        -11    1    3    3    0    0 -0.94587718996E+01 -0.55553726036E+01 -0.11539966167E+02  0.15921725723E+02  0.51100000000E-03 0.  1.
        -12    1    3    3    0    0 -0.18526515355E+02  0.17668347477E+01 -0.18836278815E+02  0.26479404748E+02  0.00000000000E+00 0.  1.
</event>
<event>
 7    1  0.2425980E-008  0.4614232E+02  0.7816164E-02  0.1320468E+00
        -11   -1    0    0    0    0  0.00000000000E+00  0.00000000000E+00  0.45593999997E+02  0.45594000000E+02  0.51100000000E-03 0.  1.
         11   -1    0    0    0    0 -0.00000000000E+00 -0.00000000000E+00 -0.45593999997E+02  0.45594000000E+02  0.51100000000E-03 0. -1.
    9900012    2    1    2    0    0  0.15747459568E+02 -0.42044662632E+02 -0.36575020081E+01  0.46142318080E+02  0.10000002912E+02 0.  0.
         12    1    1    2    0    0 -0.15747459568E+02  0.42044662632E+02  0.36575020081E+01  0.45045681920E+02  0.00000000000E+00 0. -1.
         11    1    3    3    0    0  0.49381349502E+01 -0.49206314347E+01 -0.20868915313E+01  0.72768748119E+01  0.51100000000E-03 0. -1.
        -11    1    3    3    0    0  0.53514821998E+01 -0.16518880939E+02 -0.24249384358E+01  0.17532601515E+02  0.51100000000E-03 0.  1.
         12    1    3    3    0    0  0.54578424178E+01 -0.20605150258E+02  0.85432795903E+00  0.21332841753E+02  0.00000000000E+00 0. -1.
</event>
<event>
 7    1  0.2425980E-008  0.4614232E+02  0.7816164E-02  0.1320468E+00
        -11   -1    0    0    0    0  0.00000000000E+00  0.00000000000E+00  0.45593999997E+02  0.45594000000E+02  0.51100000000E-03 0.  1.
         11   -1    0    0    0    0 -0.00000000000E+00 -0.00000000000E+00 -0.45593999997E+02  0.45594000000E+02  0.51100000000E-03 0. -1.
    9900012    2    1    2    0    0 -0.22733081954E+01  0.27035059284E+02  0.35959020780E+02  0.46142317232E+02  0.99999951736E+01 0.  0.
         12    1    1    2    0    0  0.22733081954E+01 -0.27035059284E+02 -0.35959020780E+02  0.45045682768E+02  0.00000000000E+00 0. -1.
         11    1    3    3    0    0 -0.11287553546E+01  0.11964984489E+02  0.10119124956E+02  0.15710876252E+02  0.51100000000E-03 0. -1.
        -11    1    3    3    0    0  0.52014188319E+00  0.14101381650E+02  0.23364100691E+02  0.27294701196E+02  0.51100000000E-03 0.  1.
         12    1    3    3    0    0 -0.16646947240E+01  0.96869314500E+00  0.24757951333E+01  0.31367397845E+01  0.00000000000E+00 0. -1.
</event>
<event>
 7    1  0.2425980E-008  0.4614232E+02  0.7816164E-02  0.1320468E+00
        -11   -1    0    0    0    0  0.00000000000E+00  0.00000000000E+00  0.45593999997E+02  0.45594000000E+02  0.51100000000E-03 0. -1.
         11   -1    0    0    0    0 -0.00000000000E+00 -0.00000000000E+00 -0.45593999997E+02  0.45594000000E+02  0.51100000000E-03 0.  1.
    9900012    2    1    2    0    0  0.16797364895E+02 -0.32234286097E+02 -0.26606628666E+02  0.46142319225E+02  0.10000013346E+02 0.  0.
         12    1    1    2    0    0 -0.16797364895E+02  0.32234286097E+02  0.26606628666E+02  0.45045680775E+02  0.00000000000E+00 0. -1.
         11    1    3    3    0    0  0.80969007873E+01 -0.77069280300E+01 -0.91516847668E+01  0.14446794674E+02  0.51100000000E-03 0. -1.
        -11    1    3    3    0    0  0.87279021527E+01 -0.18849274663E+02 -0.13424340788E+02  0.24732253378E+02  0.51100000000E-03 0.  1.
         12    1    3    3    0    0 -0.27438045352E-01 -0.56780834033E+01 -0.40306031111E+01  0.69632711724E+01  0.00000000000E+00 0. -1.
</event>
<event>
 7    1  0.2425980E-008  0.4614232E+02  0.7816164E-02  0.1320468E+00
        -11   -1    0    0    0    0  0.00000000000E+00  0.00000000000E+00  0.45593999997E+02  0.45594000000E+02  0.51100000000E-03 0.  1.
         11   -1    0    0    0    0 -0.00000000000E+00 -0.00000000000E+00 -0.45593999997E+02  0.45594000000E+02  0.51100000000E-03 0. -1.
    9900012    2    1    2    0    0 -0.32147757707E+02 -0.27636632273E+02  0.15226673798E+02  0.46142319142E+02  0.10000012595E+02 0.  0.
         12    1    1    2    0    0  0.32147757707E+02  0.27636632273E+02 -0.15226673798E+02  0.45045680858E+02  0.00000000000E+00 0. -1.
         11    1    3    3    0    0 -0.73338117782E+01 -0.90614091464E+01  0.83452417120E+00  0.11687187933E+02  0.51100000000E-03 0. -1.
        -11    1    3    3    0    0 -0.31470603091E+01 -0.42826543506E+01  0.18498067981E+01  0.56273352777E+01  0.51100000000E-03 0.  1.
         12    1    3    3    0    0 -0.21666885620E+02 -0.14292568776E+02  0.12542342829E+02  0.28827795932E+02  0.00000000000E+00 0. -1.
</event>
<event>
 7    1  0.2425980E-008  0.4614232E+02  0.7816164E-02  0.1320468E+00
        -11   -1    0    0    0    0  0.00000000000E+00  0.00000000000E+00  0.45593999997E+02  0.45594000000E+02  0.51100000000E-03 0.  1.
         11   -1    0    0    0    0 -0.00000000000E+00 -0.00000000000E+00 -0.45593999997E+02  0.45594000000E+02  0.51100000000E-03 0. -1.
    9900012    2    1    2    0    0  0.27881067677E+02  0.25782730291E+02  0.24228296613E+02  0.46142317933E+02  0.10000001570E+02 0.  0.
         12    1    1    2    0    0 -0.27881067677E+02 -0.25782730291E+02 -0.24228296613E+02  0.45045682067E+02  0.00000000000E+00 0. -1.
         11    1    3    3    0    0  0.14346707528E+02  0.18024659773E+02  0.12401038662E+02  0.26162991743E+02  0.51100000000E-03 0. -1.
        -11    1    3    3    0    0  0.81539416507E+01  0.65791418106E+01  0.88695950223E+01  0.13727402796E+02  0.51100000000E-03 0.  1.
         12    1    3    3    0    0  0.53804184988E+01  0.11789287075E+01  0.29576629288E+01  0.62519233937E+01  0.00000000000E+00 0. -1.
</event>
<event>
 7    1  0.2425980E-008  0.4614232E+02  0.7816164E-02  0.1320468E+00
        -11   -1    0    0    0    0  0.00000000000E+00  0.00000000000E+00  0.45593999997E+02  0.45594000000E+02  0.51100000000E-03 0.  1.
         11   -1    0    0    0    0 -0.00000000000E+00 -0.00000000000E+00 -0.45593999997E+02  0.45594000000E+02  0.51100000000E-03 0. -1.
    9900012    2    1    2    0    0  0.10119945805E+01  0.31349412137E+02  0.32331156725E+02  0.46142317970E+02  0.10000001904E+02 0.  0.
         12    1    1    2    0    0 -0.10119945805E+01 -0.31349412137E+02 -0.32331156725E+02  0.45045682030E+02  0.00000000000E+00 0. -1.
         11    1    3    3    0    0 -0.15516011517E+01  0.58428640583E+01  0.10351201661E+02  0.11987239158E+02  0.51100000000E-03 0. -1.
        -11    1    3    3    0    0 -0.38551289176E+00  0.43744852866E-01 -0.10546877749E-02  0.38798862787E+00  0.51100000000E-03 0.  1.
        -12    1    3    3    0    0  0.29491086240E+01  0.25462803226E+02  0.21981009752E+02  0.33767090184E+02  0.00000000000E+00 0.  1.
</event>
<event>
 7    1  0.2425980E-008  0.4614232E+02  0.7816164E-02  0.1320468E+00
        -11   -1    0    0    0    0  0.00000000000E+00  0.00000000000E+00  0.45593999997E+02  0.45594000000E+02  0.51100000000E-03 0.  1.
         11   -1    0    0    0    0 -0.00000000000E+00 -0.00000000000E+00 -0.45593999997E+02  0.45594000000E+02  0.51100000000E-03 0. -1.
    9900012    2    1    2    0    0 -0.24260006261E+02 -0.95135076987E+01  0.36743147799E+02  0.46142316048E+02  0.99999843826E+01 0.  0.
         12    1    1    2    0    0  0.24260006261E+02  0.95135076987E+01 -0.36743147799E+02  0.45045683952E+02  0.00000000000E+00 0. -1.
         11    1    3    3    0    0 -0.10228912146E+02 -0.49630572580E+01  0.19149852972E+02  0.22270596089E+02  0.51100000000E-03 0. -1.
        -11    1    3    3    0    0 -0.11692557078E+02 -0.61252603512E+01  0.15507937651E+02  0.20364941342E+02  0.51100000000E-03 0.  1.
         12    1    3    3    0    0 -0.23385370363E+01  0.15748099106E+01  0.20853571752E+01  0.35067786176E+01  0.00000000000E+00 0. -1.
</event>
<event>
 7    1  0.2425980E-008  0.4614232E+02  0.7816164E-02  0.1320468E+00
        -11   -1    0    0    0    0  0.00000000000E+00  0.00000000000E+00  0.45593999997E+02  0.45594000000E+02  0.51100000000E-03 0.  1.
         11   -1    0    0    0    0 -0.00000000000E+00 -0.00000000000E+00 -0.45593999997E+02  0.45594000000E+02  0.51100000000E-03 0. -1.
    9900012    2    1    2    0    0 -0.96867745083E+01  0.25144659006E+02  0.36097451695E+02  0.46142317678E+02  0.99999992462E+01 0.  0.
         12    1    1    2    0    0  0.96867745083E+01 -0.25144659006E+02 -0.36097451695E+02  0.45045682322E+02  0.00000000000E+00 0. -1.
         11    1    3    3    0    0 -0.41881087655E-01  0.53939438233E+00  0.38756147554E+01  0.39131943881E+01  0.51100000000E-03 0. -1.
        -11    1    3    3    0    0 -0.36657684912E+01  0.17723710944E+02  0.22928008880E+02  0.29210638126E+02  0.51100000000E-03 0.  1.
        -12    1    3    3    0    0 -0.59791249294E+01  0.68815536799E+01  0.92938280603E+01  0.13018485165E+02  0.00000000000E+00 0.  1.
</event>
<event>
 7    1  0.2425980E-008  0.4614232E+02  0.7816164E-02  0.1320468E+00
        -11   -1    0    0    0    0  0.00000000000E+00  0.00000000000E+00  0.45593999997E+02  0.45594000000E+02  0.51100000000E-03 0.  1.
         11   -1    0    0    0    0 -0.00000000000E+00 -0.00000000000E+00 -0.45593999997E+02  0.45594000000E+02  0.51100000000E-03 0. -1.
    9900012    2    1    2    0    0  0.42996965719E+02  0.11688300867E+02  0.66149685613E+01  0.46142320437E+02  0.10000024404E+02 0.  0.
         12    1    1    2    0    0 -0.42996965719E+02 -0.11688300867E+02 -0.66149685613E+01  0.45045679563E+02  0.00000000000E+00 0. -1.
         11    1    3    3    0    0  0.26469939809E+01  0.14671861600E+01 -0.15166770083E+01  0.33851915413E+01  0.51100000000E-03 0. -1.
        -11    1    3    3    0    0  0.20505500736E+02  0.24078495201E+01  0.42620520298E+01  0.21081707414E+02  0.51100000000E-03 0.  1.
        -12    1    3    3    0    0  0.19844471002E+02  0.78132651874E+01  0.38695935399E+01  0.21675421482E+02  0.00000000000E+00 0.  1.
</event>
<event>
 7    1  0.2425980E-008  0.4614232E+02  0.7816164E-02  0.1320468E+00
        -11   -1    0    0    0    0  0.00000000000E+00  0.00000000000E+00  0.45593999997E+02  0.45594000000E+02  0.51100000000E-03 0.  1.
         11   -1    0    0    0    0 -0.00000000000E+00 -0.00000000000E+00 -0.45593999997E+02  0.45594000000E+02  0.51100000000E-03 0. -1.
    9900012    2    1    2    0    0 -0.17038494276E+02  0.20340816874E+02  0.36401296178E+02  0.46142317835E+02  0.10000000671E+02 0.  0.
         12    1    1    2    0    0  0.17038494276E+02 -0.20340816874E+02 -0.36401296178E+02  0.45045682165E+02  0.00000000000E+00 0. -1.
         11    1    3    3    0    0  0.21898204334E+00  0.26887559819E+01  0.70588768486E+01  0.75567919444E+01  0.51100000000E-03 0. -1.
        -11    1    3    3    0    0 -0.18590521863E-01  0.10990211419E+01  0.80559802277E+00  0.13627844706E+01  0.51100000000E-03 0.  1.
         12    1    3    3    0    0 -0.17238885798E+02  0.16553039750E+02  0.28536821307E+02  0.37222741420E+02  0.00000000000E+00 0. -1.
</event>
<event>
 7    1  0.2425980E-008  0.4614232E+02  0.7816164E-02  0.1320468E+00
        -11   -1    0    0    0    0  0.00000000000E+00  0.00000000000E+00  0.45593999997E+02  0.45594000000E+02  0.51100000000E-03 0.  1.
         11   -1    0    0    0    0 -0.00000000000E+00 -0.00000000000E+00 -0.45593999997E+02  0.45594000000E+02  0.51100000000E-03 0. -1.
    9900012    2    1    2    0    0  0.45042500714E+01 -0.26715353405E+01  0.44740229086E+02  0.46142317982E+02  0.10000002018E+02 0.  0.
         12    1    1    2    0    0 -0.45042500714E+01  0.26715353405E+01 -0.44740229086E+02  0.45045682018E+02  0.00000000000E+00 0. -1.
         11    1    3    3    0    0 -0.16583079072E+00 -0.20611883416E+01  0.58038258409E+01  0.61612005229E+01  0.51100000000E-03 0. -1.
        -11    1    3    3    0    0  0.53536420175E+01  0.87418558544E+00  0.37211877674E+02  0.37605179478E+02  0.51100000000E-03 0.  1.
        -12    1    3    3    0    0 -0.68356115531E+00 -0.14845325844E+01  0.17245255708E+01  0.23759379814E+01  0.00000000000E+00 0.  1.
</event>
<event>
 7    1  0.2425980E-008  0.4614232E+02  0.7816164E-02  0.1320468E+00
        -11   -1    0    0    0    0  0.00000000000E+00  0.00000000000E+00  0.45593999997E+02  0.45594000000E+02  0.51100000000E-03 0. -1.
         11   -1    0    0    0    0 -0.00000000000E+00 -0.00000000000E+00 -0.45593999997E+02  0.45594000000E+02  0.51100000000E-03 0.  1.
    9900012    2    1    2    0    0 -0.27889630856E+02  0.32122260516E+02 -0.14813587714E+02  0.46142317511E+02  0.99999977183E+01 0.  0.
         12    1    1    2    0    0  0.27889630856E+02 -0.32122260516E+02  0.14813587714E+02  0.45045682489E+02  0.00000000000E+00 0. -1.
         11    1    3    3    0    0 -0.12371401565E+02  0.11906273752E+02 -0.45018252852E+01  0.17750418657E+02  0.51100000000E-03 0. -1.
        -11    1    3    3    0    0 -0.39253249626E+01  0.63411130734E+01  0.23242331717E+00  0.74613612653E+01  0.51100000000E-03 0.  1.
        -12    1    3    3    0    0 -0.11592904328E+02  0.13874873691E+02 -0.10544185746E+02  0.20930537588E+02  0.00000000000E+00 0.  1.
</event>
<event>
 7    1  0.2425980E-008  0.4614232E+02  0.7816164E-02  0.1320468E+00
        -11   -1    0    0    0    0  0.00000000000E+00  0.00000000000E+00  0.45593999997E+02  0.45594000000E+02  0.51100000000E-03 0. -1.
         11   -1    0    0    0    0 -0.00000000000E+00 -0.00000000000E+00 -0.45593999997E+02  0.45594000000E+02  0.51100000000E-03 0.  1.
    9900012    2    1    2    0    0  0.19670260665E+00 -0.45000064747E+02  0.20172265984E+01  0.46142315165E+02  0.99999763254E+01 0.  0.
         12    1    1    2    0    0 -0.19670260665E+00  0.45000064747E+02 -0.20172265984E+01  0.45045684835E+02  0.00000000000E+00 0. -1.
         11    1    3    3    0    0 -0.37645459410E+01 -0.16014880388E+02  0.51668571141E+00  0.16459500733E+02  0.51100000000E-03 0. -1.
        -11    1    3    3    0    0  0.12917718602E-01 -0.14601858842E+02  0.21177797590E+01  0.14754641300E+02  0.51100000000E-03 0.  1.
        -12    1    3    3    0    0  0.39483308290E+01 -0.14383325516E+02 -0.61723887200E+00  0.14928173132E+02  0.00000000000E+00 0.  1.
</event>
<event>
 7    1  0.2425980E-008  0.4614232E+02  0.7816164E-02  0.1320468E+00
        -11   -1    0    0    0    0  0.00000000000E+00  0.00000000000E+00  0.45593999997E+02  0.45594000000E+02  0.51100000000E-03 0.  1.
         11   -1    0    0    0    0 -0.00000000000E+00 -0.00000000000E+00 -0.45593999997E+02  0.45594000000E+02  0.51100000000E-03 0. -1.
    9900012    2    1    2    0    0 -0.88396147858E+01  0.35941940770E+02  0.25673945493E+02  0.46142319041E+02  0.10000011675E+02 0.  0.
         12    1    1    2    0    0  0.88396147858E+01 -0.35941940770E+02 -0.25673945493E+02  0.45045680959E+02  0.00000000000E+00 0. -1.
         11    1    3    3    0    0 -0.75226464552E+01  0.26031985887E+02  0.15754762994E+02  0.31344330527E+02  0.51100000000E-03 0. -1.
        -11    1    3    3    0    0  0.42063357230E+00  0.87223554152E+01  0.69607742710E+01  0.11167309224E+02  0.51100000000E-03 0.  1.
         12    1    3    3    0    0 -0.17376019029E+01  0.11875994673E+01  0.29584082280E+01  0.36306792906E+01  0.00000000000E+00 0. -1.
</event>
<event>
 7    1  0.2425980E-008  0.4614232E+02  0.7816164E-02  0.1320468E+00
        -11   -1    0    0    0    0  0.00000000000E+00  0.00000000000E+00  0.45593999997E+02  0.45594000000E+02  0.51100000000E-03 0.  1.
         11   -1    0    0    0    0 -0.00000000000E+00 -0.00000000000E+00 -0.45593999997E+02  0.45594000000E+02  0.51100000000E-03 0. -1.
    9900012    2    1    2    0    0 -0.41476792580E+02 -0.13657090774E+02 -0.11057711283E+02  0.46142318410E+02  0.10000005915E+02 0.  0.
         12    1    1    2    0    0  0.41476792580E+02  0.13657090774E+02  0.11057711283E+02  0.45045681590E+02  0.00000000000E+00 0. -1.
         11    1    3    3    0    0 -0.11550681104E+02 -0.33489748626E+01 -0.13629361526E+01  0.12103365722E+02  0.51100000000E-03 0. -1.
        -11    1    3    3    0    0 -0.17941890329E+02 -0.21715815749E+01 -0.42638859722E+01  0.18569004253E+02  0.51100000000E-03 0.  1.
         12    1    3    3    0    0 -0.11984221147E+02 -0.81365343366E+01 -0.54308891580E+01  0.15469948434E+02  0.00000000000E+00 0. -1.
</event>
<event>
 7    1  0.2425980E-008  0.4614232E+02  0.7816164E-02  0.1320468E+00
        -11   -1    0    0    0    0  0.00000000000E+00  0.00000000000E+00  0.45593999997E+02  0.45594000000E+02  0.51100000000E-03 0.  1.
         11   -1    0    0    0    0 -0.00000000000E+00 -0.00000000000E+00 -0.45593999997E+02  0.45594000000E+02  0.51100000000E-03 0. -1.
    9900012    2    1    2    0    0  0.45029470591E+02 -0.11991319688E+01  0.14872995443E+00  0.46142320299E+02  0.10000023139E+02 0.  0.
         12    1    1    2    0    0 -0.45029470591E+02  0.11991319688E+01 -0.14872995443E+00  0.45045679701E+02  0.00000000000E+00 0. -1.
         11    1    3    3    0    0  0.17355109307E+02  0.12585596829E+01 -0.10166618616E+00  0.17400980657E+02  0.51100000000E-03 0.  1.
        -11    1    3    3    0    0  0.16361795580E+02  0.14986169826E+01  0.22752037661E+01  0.16587066043E+02  0.51100000000E-03 0. -1.
        -12    1    3    3    0    0  0.11312565703E+02 -0.39563086344E+01 -0.20248076255E+01  0.12154273599E+02  0.00000000000E+00 0.  1.
</event>
<event>
 7    1  0.2425980E-008  0.4614232E+02  0.7816164E-02  0.1320468E+00
        -11   -1    0    0    0    0  0.00000000000E+00  0.00000000000E+00  0.45593999997E+02  0.45594000000E+02  0.51100000000E-03 0. -1.
         11   -1    0    0    0    0 -0.00000000000E+00 -0.00000000000E+00 -0.45593999997E+02  0.45594000000E+02  0.51100000000E-03 0.  1.
    9900012    2    1    2    0    0 -0.92196114128E+01  0.43021913242E+02 -0.96554236601E+01  0.46142318079E+02  0.10000002902E+02 0.  0.
         12    1    1    2    0    0  0.92196114128E+01 -0.43021913242E+02  0.96554236601E+01  0.45045681921E+02  0.00000000000E+00 0. -1.
         11    1    3    3    0    0 -0.72962941430E+01  0.20240530061E+02 -0.50505040102E+01  0.22100284079E+02  0.51100000000E-03 0. -1.
        -11    1    3    3    0    0 -0.17557813606E+01  0.15620490936E+02 -0.37473247929E+00  0.15723324392E+02  0.51100000000E-03 0.  1.
        -12    1    3    3    0    0 -0.16753590918E+00  0.71608922459E+01 -0.42301871706E+01  0.83187096077E+01  0.00000000000E+00 0.  1.
</event>
<event>
 7    1  0.2425980E-008  0.4614232E+02  0.7816164E-02  0.1320468E+00
        -11   -1    0    0    0    0  0.00000000000E+00  0.00000000000E+00  0.45593999997E+02  0.45594000000E+02  0.51100000000E-03 0.  1.
         11   -1    0    0    0    0 -0.00000000000E+00 -0.00000000000E+00 -0.45593999997E+02  0.45594000000E+02  0.51100000000E-03 0. -1.
    9900012    2    1    2    0    0  0.25225882367E+02 -0.49245546505E+01  0.36993473023E+02  0.46142318453E+02  0.10000006311E+02 0.  0.
         12    1    1    2    0    0 -0.25225882367E+02  0.49245546505E+01 -0.36993473023E+02  0.45045681547E+02  0.00000000000E+00 0. -1.
         11    1    3    3    0    0  0.13728814595E+02 -0.25524433603E+01  0.26090631606E+02  0.29592505388E+02  0.51100000000E-03 0. -1.
        -11    1    3    3    0    0  0.17116264771E+01 -0.10500786269E+01  0.40805612197E+01  0.45478907692E+01  0.51100000000E-03 0.  1.
         12    1    3    3    0    0  0.97854412948E+01 -0.13220326633E+01  0.68222801972E+01  0.12001922295E+02  0.00000000000E+00 0. -1.
</event>
<event>
 7    1  0.2425980E-008  0.4614232E+02  0.7816164E-02  0.1320468E+00
        -11   -1    0    0    0    0  0.00000000000E+00  0.00000000000E+00  0.45593999997E+02  0.45594000000E+02  0.51100000000E-03 0. -1.
         11   -1    0    0    0    0 -0.00000000000E+00 -0.00000000000E+00 -0.45593999997E+02  0.45594000000E+02  0.51100000000E-03 0.  1.
    9900012    2    1    2    0    0 -0.19622591030E+02  0.25433962105E+02 -0.31578172254E+02  0.46142317965E+02  0.10000001860E+02 0.  0.
         12    1    1    2    0    0  0.19622591030E+02 -0.25433962105E+02  0.31578172254E+02  0.45045682035E+02  0.00000000000E+00 0. -1.
         11    1    3    3    0    0 -0.11526242857E+01  0.69176460320E+01 -0.95491232291E+01  0.11847705435E+02  0.51100000000E-03 0. -1.
        -11    1    3    3    0    0 -0.45001985169E+01  0.41032901555E+01 -0.65779281479E+01  0.89642576811E+01  0.51100000000E-03 0.  1.
        -12    1    3    3    0    0 -0.13969768228E+02  0.14413025917E+02 -0.15451120877E+02  0.25330354849E+02  0.00000000000E+00 0.  1.
</event>
<event>
 7    1  0.2425980E-008  0.4614232E+02  0.7816164E-02  0.1320468E+00
        -11   -1    0    0    0    0  0.00000000000E+00  0.00000000000E+00  0.45593999997E+02  0.45594000000E+02  0.51100000000E-03 0. -1.
         11   -1    0    0    0    0 -0.00000000000E+00 -0.00000000000E+00 -0.45593999997E+02  0.45594000000E+02  0.51100000000E-03 0.  1.
    9900012    2    1    2    0    0 -0.27680438415E+02  0.15245030957E+02 -0.32101336345E+02  0.46142318355E+02  0.10000005417E+02 0.  0.
         12    1    1    2    0    0  0.27680438415E+02 -0.15245030957E+02  0.32101336345E+02  0.45045681645E+02  0.00000000000E+00 0. -1.
         11    1    3    3    0    0 -0.78884252889E+01  0.12835703728E+01 -0.10638984749E+02  0.13306494775E+02  0.51100000000E-03 0.  1.
        -11    1    3    3    0    0 -0.13451488259E+02  0.71462058500E+01 -0.10745497769E+02  0.18640722008E+02  0.51100000000E-03 0. -1.
        -12    1    3    3    0    0 -0.63405248665E+01  0.68152547345E+01 -0.10716853828E+02  0.14195101572E+02  0.00000000000E+00 0.  1.
</event>
<event>
 7    1  0.2425980E-008  0.4614232E+02  0.7816164E-02  0.1320468E+00
        -11   -1    0    0    0    0  0.00000000000E+00  0.00000000000E+00  0.45593999997E+02  0.45594000000E+02  0.51100000000E-03 0. -1.
         11   -1    0    0    0    0 -0.00000000000E+00 -0.00000000000E+00 -0.45593999997E+02  0.45594000000E+02  0.51100000000E-03 0.  1.
    9900012    2    1    2    0    0 -0.28605649499E+02  0.23568752201E+02 -0.25599688280E+02  0.46142319812E+02  0.10000018699E+02 0.  0.
         12    1    1    2    0    0  0.28605649499E+02 -0.23568752201E+02  0.25599688280E+02  0.45045680188E+02  0.00000000000E+00 0. -1.
         11    1    3    3    0    0 -0.13277218533E+02  0.11340833883E+02 -0.10547701310E+02  0.20399829615E+02  0.51100000000E-03 0. -1.
        -11    1    3    3    0    0 -0.67902615437E+01  0.66662861291E+01 -0.11556176268E+02  0.14969710511E+02  0.51100000000E-03 0.  1.
         12    1    3    3    0    0 -0.85381694216E+01  0.55616321898E+01 -0.34958107021E+01  0.10772779685E+02  0.00000000000E+00 0. -1.
</event>
<event>
 7    1  0.2425980E-008  0.4614232E+02  0.7816164E-02  0.1320468E+00
        -11   -1    0    0    0    0  0.00000000000E+00  0.00000000000E+00  0.45593999997E+02  0.45594000000E+02  0.51100000000E-03 0. -1.
         11   -1    0    0    0    0 -0.00000000000E+00 -0.00000000000E+00 -0.45593999997E+02  0.45594000000E+02  0.51100000000E-03 0.  1.
    9900012    2    1    2    0    0  0.16361543088E+02 -0.28974185466E+01 -0.41869061737E+02  0.46142318107E+02  0.10000003152E+02 0.  0.
         12    1    1    2    0    0 -0.16361543088E+02  0.28974185466E+01  0.41869061737E+02  0.45045681893E+02  0.00000000000E+00 0. -1.
         11    1    3    3    0    0  0.58768112286E+01 -0.48012314551E+00 -0.26736973321E+02  0.27379429707E+02  0.51100000000E-03 0.  1.
        -11    1    3    3    0    0  0.44929031799E+01 -0.24080586114E+01 -0.72114543797E+01  0.88311946979E+01  0.51100000000E-03 0. -1.
         12    1    3    3    0    0  0.59918286797E+01 -0.92367896851E-02 -0.79206340364E+01  0.99316937016E+01  0.00000000000E+00 0. -1.
</event>
<event>
 7    1  0.2425980E-008  0.4614232E+02  0.7816164E-02  0.1320468E+00
        -11   -1    0    0    0    0  0.00000000000E+00  0.00000000000E+00  0.45593999997E+02  0.45594000000E+02  0.51100000000E-03 0.  1.
         11   -1    0    0    0    0 -0.00000000000E+00 -0.00000000000E+00 -0.45593999997E+02  0.45594000000E+02  0.51100000000E-03 0. -1.
    9900012    2    1    2    0    0 -0.14895629828E+01 -0.43485953482E+02  0.11656181398E+02  0.46142317489E+02  0.99999975209E+01 0.  0.
         12    1    1    2    0    0  0.14895629828E+01  0.43485953482E+02 -0.11656181398E+02  0.45045682511E+02  0.00000000000E+00 0. -1.
         11    1    3    3    0    0 -0.38962777688E+01 -0.14636849764E+02  0.19054141472E+01  0.15265941006E+02  0.51100000000E-03 0. -1.
        -11    1    3    3    0    0 -0.66154767473E+00 -0.64494806341E+00  0.36849667462E+00  0.99468255779E+00  0.51100000000E-03 0.  1.
        -12    1    3    3    0    0  0.30682624608E+01 -0.28204155655E+02  0.93822705763E+01  0.29881693926E+02  0.00000000000E+00 0.  1.
</event>
<event>
 7    1  0.2425980E-008  0.4614232E+02  0.7816164E-02  0.1320468E+00
        -11   -1    0    0    0    0  0.00000000000E+00  0.00000000000E+00  0.45593999997E+02  0.45594000000E+02  0.51100000000E-03 0. -1.
         11   -1    0    0    0    0 -0.00000000000E+00 -0.00000000000E+00 -0.45593999997E+02  0.45594000000E+02  0.51100000000E-03 0.  1.
    9900012    2    1    2    0    0  0.99745223865E+01  0.43922396737E+02  0.66741171797E+00  0.46142317961E+02  0.10000001819E+02 0.  0.
         12    1    1    2    0    0 -0.99745223865E+01 -0.43922396737E+02 -0.66741171797E+00  0.45045682039E+02  0.00000000000E+00 0. -1.
         11    1    3    3    0    0  0.26721637174E+01  0.35958465457E+01  0.19485493021E+01  0.48854289430E+01  0.51100000000E-03 0. -1.
        -11    1    3    3    0    0  0.65178211710E+01  0.24025676667E+02 -0.14500301741E+01  0.24936273175E+02  0.51100000000E-03 0.  1.
         12    1    3    3    0    0  0.78453749803E+00  0.16300873525E+02  0.16889258991E+00  0.16320615842E+02  0.00000000000E+00 0. -1.
</event>
<event>
 7    1  0.2425980E-008  0.4614232E+02  0.7816164E-02  0.1320468E+00
        -11   -1    0    0    0    0  0.00000000000E+00  0.00000000000E+00  0.45593999997E+02  0.45594000000E+02  0.51100000000E-03 0. -1.
         11   -1    0    0    0    0 -0.00000000000E+00 -0.00000000000E+00 -0.45593999997E+02  0.45594000000E+02  0.51100000000E-03 0.  1.
    9900012    2    1    2    0    0 -0.13684902441E+02  0.36955086130E+02 -0.21821059554E+02  0.46142316680E+02  0.99999901453E+01 0.  0.
         12    1    1    2    0    0  0.13684902441E+02 -0.36955086130E+02  0.21821059554E+02  0.45045683320E+02  0.00000000000E+00 0. -1.
         11    1    3    3    0    0 -0.10046649572E+01  0.89743154899E+00  0.33587906408E+00  0.13883623692E+01  0.51100000000E-03 0. -1.
        -11    1    3    3    0    0 -0.65224605927E+01  0.27785743732E+02 -0.17056789117E+02  0.33249422584E+02  0.51100000000E-03 0.  1.
        -12    1    3    3    0    0 -0.61577768914E+01  0.82719108491E+01 -0.51001495005E+01  0.11504531727E+02  0.00000000000E+00 0.  1.
</event>
<event>
 7    1  0.2425980E-008  0.4614232E+02  0.7816164E-02  0.1320468E+00
        -11   -1    0    0    0    0  0.00000000000E+00  0.00000000000E+00  0.45593999997E+02  0.45594000000E+02  0.51100000000E-03 0.  1.
         11   -1    0    0    0    0 -0.00000000000E+00 -0.00000000000E+00 -0.45593999997E+02  0.45594000000E+02  0.51100000000E-03 0. -1.
    9900012    2    1    2    0    0 -0.44993316494E+02 -0.12666635413E+01  0.17636423166E+01  0.46142318743E+02  0.10000008954E+02 0.  0.
         12    1    1    2    0    0  0.44993316494E+02  0.12666635413E+01 -0.17636423166E+01  0.45045681257E+02  0.00000000000E+00 0. -1.
         11    1    3    3    0    0  0.10669530727E+00  0.63580627418E+00 -0.51424797364E+00  0.82467250857E+00  0.51100000000E-03 0. -1.
        -11    1    3    3    0    0 -0.31027840543E+02 -0.96451502923E+00  0.30554340988E+01  0.31192833404E+02  0.51100000000E-03 0.  1.
        -12    1    3    3    0    0 -0.14072171259E+02 -0.93795478627E+00 -0.77754380856E+00  0.14124812830E+02  0.00000000000E+00 0.  1.
</event>
<event>
 7    1  0.2425980E-008  0.4614232E+02  0.7816164E-02  0.1320468E+00
        -11   -1    0    0    0    0  0.00000000000E+00  0.00000000000E+00  0.45593999997E+02  0.45594000000E+02  0.51100000000E-03 0.  1.
         11   -1    0    0    0    0 -0.00000000000E+00 -0.00000000000E+00 -0.45593999997E+02  0.45594000000E+02  0.51100000000E-03 0. -1.
    9900012    2    1    2    0    0 -0.15312078921E+02 -0.28368325155E+02  0.31462545047E+02  0.46142319033E+02  0.10000011595E+02 0.  0.
         12    1    1    2    0    0  0.15312078921E+02  0.28368325155E+02 -0.31462545047E+02  0.45045680967E+02  0.00000000000E+00 0. -1.
         11    1    3    3    0    0 -0.29326263526E+01 -0.59708347449E+01  0.35489416876E+01  0.75396387339E+01  0.51100000000E-03 0. -1.
        -11    1    3    3    0    0 -0.81537874606E+01 -0.11769248992E+02  0.10444834890E+02  0.17722698664E+02  0.51100000000E-03 0.  1.
        -12    1    3    3    0    0 -0.42256651083E+01 -0.10628241418E+02  0.17468768469E+02  0.20879981635E+02  0.00000000000E+00 0.  1.
</event>
<event>
 7    1  0.2425980E-008  0.4614232E+02  0.7816164E-02  0.1320468E+00
        -11   -1    0    0    0    0  0.00000000000E+00  0.00000000000E+00  0.45593999997E+02  0.45594000000E+02  0.51100000000E-03 0.  1.
         11   -1    0    0    0    0 -0.00000000000E+00 -0.00000000000E+00 -0.45593999997E+02  0.45594000000E+02  0.51100000000E-03 0. -1.
    9900012    2    1    2    0    0 -0.41833610758E+02 -0.11918704420E+02 -0.11704985206E+02  0.46142321153E+02  0.10000030932E+02 0.  0.
         12    1    1    2    0    0  0.41833610758E+02  0.11918704420E+02  0.11704985206E+02  0.45045678847E+02  0.00000000000E+00 0. -1.
         11    1    3    3    0    0 -0.52006016314E+01  0.11123289822E+01 -0.21131860311E+01  0.57226819374E+01  0.51100000000E-03 0. -1.
        -11    1    3    3    0    0 -0.29094769170E+02 -0.92146012872E+01 -0.95221578097E+01  0.31970079130E+02  0.51100000000E-03 0.  1.
         12    1    3    3    0    0 -0.75382399564E+01 -0.38164321152E+01 -0.69641364918E-01  0.84495600862E+01  0.00000000000E+00 0. -1.
</event>
<event>
 7    1  0.2425980E-008  0.4614232E+02  0.7816164E-02  0.1320468E+00
        -11   -1    0    0    0    0  0.00000000000E+00  0.00000000000E+00  0.45593999997E+02  0.45594000000E+02  0.51100000000E-03 0. -1.
         11   -1    0    0    0    0 -0.00000000000E+00 -0.00000000000E+00 -0.45593999997E+02  0.45594000000E+02  0.51100000000E-03 0.  1.
    9900012    2    1    2    0    0  0.10846814499E+02 -0.29429718537E+02 -0.32331903771E+02  0.46142315196E+02  0.99999766127E+01 0.  0.
         12    1    1    2    0    0 -0.10846814499E+02  0.29429718537E+02  0.32331903771E+02  0.45045684804E+02  0.00000000000E+00 0. -1.
         11    1    3    3    0    0 -0.95430631869E+00 -0.35535929972E+01 -0.58600273270E+01  0.69194395925E+01  0.51100000000E-03 0. -1.
        -11    1    3    3    0    0  0.11217986626E+02 -0.22874623788E+02 -0.25418808573E+02  0.35988990913E+02  0.51100000000E-03 0.  1.
        -12    1    3    3    0    0  0.58313419087E+00 -0.30015017520E+01 -0.10530678708E+01  0.32338846907E+01  0.00000000000E+00 0.  1.
</event>
<event>
 7    1  0.2425980E-008  0.4614232E+02  0.7816164E-02  0.1320468E+00
        -11   -1    0    0    0    0  0.00000000000E+00  0.00000000000E+00  0.45593999997E+02  0.45594000000E+02  0.51100000000E-03 0.  1.
         11   -1    0    0    0    0 -0.00000000000E+00 -0.00000000000E+00 -0.45593999997E+02  0.45594000000E+02  0.51100000000E-03 0. -1.
    9900012    2    1    2    0    0 -0.16075115266E+02 -0.16490798715E+02  0.38713791886E+02  0.46142318129E+02  0.10000003351E+02 0.  0.
         12    1    1    2    0    0  0.16075115266E+02  0.16490798715E+02 -0.38713791886E+02  0.45045681871E+02  0.00000000000E+00 0. -1.
         11    1    3    3    0    0 -0.44246926156E+01 -0.31285534777E+01  0.13241032998E+02  0.14307015996E+02  0.51100000000E-03 0. -1.
        -11    1    3    3    0    0 -0.28486935107E+01 -0.57078187093E+01  0.14410822143E+02  0.15759633379E+02  0.51100000000E-03 0.  1.
        -12    1    3    3    0    0 -0.88017291397E+01 -0.76544265282E+01  0.11061936745E+02  0.16075668754E+02  0.00000000000E+00 0.  1.
</event>
<event>
 7    1  0.2425980E-008  0.4614232E+02  0.7816164E-02  0.1320468E+00
        -11   -1    0    0    0    0  0.00000000000E+00  0.00000000000E+00  0.45593999997E+02  0.45594000000E+02  0.51100000000E-03 0. -1.
         11   -1    0    0    0    0 -0.00000000000E+00 -0.00000000000E+00 -0.45593999997E+02  0.45594000000E+02  0.51100000000E-03 0.  1.
    9900012    2    1    2    0    0  0.68595976778E+01  0.42678561986E+02 -0.12672800388E+02  0.46142316487E+02  0.99999883818E+01 0.  0.
         12    1    1    2    0    0 -0.68595976778E+01 -0.42678561986E+02  0.12672800388E+02  0.45045683513E+02  0.00000000000E+00 0. -1.
         11    1    3    3    0    0  0.76117425649E+01  0.34037820289E+02 -0.71424369971E+01  0.35602334775E+02  0.51100000000E-03 0. -1.
        -11    1    3    3    0    0 -0.46511652875E-01  0.23025485303E+01 -0.36200729782E+00  0.23312963374E+01  0.51100000000E-03 0.  1.
        -12    1    3    3    0    0 -0.70563323422E+00  0.63381931666E+01 -0.51683560930E+01  0.82086853748E+01  0.00000000000E+00 0.  1.
</event>
<event>
 7    1  0.2425980E-008  0.4614232E+02  0.7816164E-02  0.1320468E+00
        -11   -1    0    0    0    0  0.00000000000E+00  0.00000000000E+00  0.45593999997E+02  0.45594000000E+02  0.51100000000E-03 0.  1.
         11   -1    0    0    0    0 -0.00000000000E+00 -0.00000000000E+00 -0.45593999997E+02  0.45594000000E+02  0.51100000000E-03 0. -1.
    9900012    2    1    2    0    0  0.64083422099E+01  0.54274877157E+01  0.44255949572E+02  0.46142317129E+02  0.99999942368E+01 0.  0.
         12    1    1    2    0    0 -0.64083422099E+01 -0.54274877157E+01 -0.44255949572E+02  0.45045682871E+02  0.00000000000E+00 0. -1.
         11    1    3    3    0    0  0.16133979677E+01 -0.24896414073E+01  0.11413436182E+02  0.11792705079E+02  0.51100000000E-03 0. -1.
        -11    1    3    3    0    0  0.12659266276E+01  0.26011773458E+00  0.20470805410E+01  0.24209028202E+01  0.51100000000E-03 0.  1.
        -12    1    3    3    0    0  0.35290176146E+01  0.76570113885E+01  0.30795432849E+02  0.31928709230E+02  0.00000000000E+00 0.  1.
</event>
<event>
 7    1  0.2425980E-008  0.4614232E+02  0.7816164E-02  0.1320468E+00
        -11   -1    0    0    0    0  0.00000000000E+00  0.00000000000E+00  0.45593999997E+02  0.45594000000E+02  0.51100000000E-03 0.  1.
         11   -1    0    0    0    0 -0.00000000000E+00 -0.00000000000E+00 -0.45593999997E+02  0.45594000000E+02  0.51100000000E-03 0. -1.
    9900012    2    1    2    0    0  0.28476977653E+00 -0.30625207029E+02  0.33032236306E+02  0.46142322796E+02  0.10000045909E+02 0.  0.
         12    1    1    2    0    0 -0.28476977653E+00  0.30625207029E+02 -0.33032236306E+02  0.45045677204E+02  0.00000000000E+00 0. -1.
         11    1    3    3    0    0 -0.69143644562E+00 -0.34825989678E+01  0.29861302811E+01  0.46393484721E+01  0.51100000000E-03 0. -1.
        -11    1    3    3    0    0 -0.10935271907E+01 -0.17565912681E+02  0.24737259575E+02  0.30359333023E+02  0.51100000000E-03 0.  1.
         12    1    3    3    0    0  0.20697334129E+01 -0.95766953808E+01  0.53088464499E+01  0.11143641301E+02  0.00000000000E+00 0. -1.
</event>
<event>
 7    1  0.2425980E-008  0.4614232E+02  0.7816164E-02  0.1320468E+00
        -11   -1    0    0    0    0  0.00000000000E+00  0.00000000000E+00  0.45593999997E+02  0.45594000000E+02  0.51100000000E-03 0.  1.
         11   -1    0    0    0    0 -0.00000000000E+00 -0.00000000000E+00 -0.45593999997E+02  0.45594000000E+02  0.51100000000E-03 0. -1.
    9900012    2    1    2    0    0  0.31943812316E+02 -0.24843179262E+02  0.19786935915E+02  0.46142317255E+02  0.99999953846E+01 0.  0.
         12    1    1    2    0    0 -0.31943812316E+02  0.24843179262E+02 -0.19786935915E+02  0.45045682745E+02  0.00000000000E+00 0. -1.
         11    1    3    3    0    0  0.17785812999E+01 -0.37392307747E+01  0.85676123624E+00  0.42283848339E+01  0.51100000000E-03 0. -1.
        -11    1    3    3    0    0  0.25352358431E+01 -0.42199082136E+01  0.35313905803E+01  0.60585283530E+01  0.51100000000E-03 0.  1.
        -12    1    3    3    0    0  0.27629995173E+02 -0.16884040273E+02  0.15398784098E+02  0.35855404068E+02  0.00000000000E+00 0.  1.
</event>
<event>
 7    1  0.2425980E-008  0.4614232E+02  0.7816164E-02  0.1320468E+00
        -11   -1    0    0    0    0  0.00000000000E+00  0.00000000000E+00  0.45593999997E+02  0.45594000000E+02  0.51100000000E-03 0. -1.
         11   -1    0    0    0    0 -0.00000000000E+00 -0.00000000000E+00 -0.45593999997E+02  0.45594000000E+02  0.51100000000E-03 0.  1.
    9900012    2    1    2    0    0 -0.28176792413E+01 -0.39506883847E+02 -0.21456474639E+02  0.46142317726E+02  0.99999996811E+01 0.  0.
         12    1    1    2    0    0  0.28176792413E+01  0.39506883847E+02  0.21456474639E+02  0.45045682274E+02  0.00000000000E+00 0. -1.
         11    1    3    3    0    0 -0.16643066817E+01 -0.47457346136E+01 -0.35810067949E+01  0.61737770999E+01  0.51100000000E-03 0. -1.
        -11    1    3    3    0    0 -0.20722557578E+01 -0.34741800810E+02 -0.17161311903E+02  0.38804607896E+02  0.51100000000E-03 0.  1.
         12    1    3    3    0    0  0.91888319824E+00 -0.19348423368E-01 -0.71415594092E+00  0.11639327306E+01  0.00000000000E+00 0. -1.
</event>
<event>
 7    1  0.2425980E-008  0.4614232E+02  0.7816164E-02  0.1320468E+00
        -11   -1    0    0    0    0  0.00000000000E+00  0.00000000000E+00  0.45593999997E+02  0.45594000000E+02  0.51100000000E-03 0.  1.
         11   -1    0    0    0    0 -0.00000000000E+00 -0.00000000000E+00 -0.45593999997E+02  0.45594000000E+02  0.51100000000E-03 0. -1.
    9900012    2    1    2    0    0  0.30765006345E+01  0.14146630304E+02  0.42655849735E+02  0.46142317391E+02  0.99999966226E+01 0.  0.
         12    1    1    2    0    0 -0.30765006345E+01 -0.14146630304E+02 -0.42655849735E+02  0.45045682609E+02  0.00000000000E+00 0. -1.
         11    1    3    3    0    0  0.21258935438E+01  0.16980352520E+01  0.41821109122E+01  0.49892683852E+01  0.51100000000E-03 0. -1.
        -11    1    3    3    0    0 -0.27308056563E+01  0.17697889854E+01  0.71761303283E+01  0.78794859817E+01  0.51100000000E-03 0.  1.
         12    1    3    3    0    0  0.36814127470E+01  0.10678806066E+02  0.31297608495E+02  0.33273563024E+02  0.00000000000E+00 0. -1.
</event>
<event>
 7    1  0.2425980E-008  0.4614231E+02  0.7816164E-02  0.1320468E+00
        -11   -1    0    0    0    0  0.00000000000E+00  0.00000000000E+00  0.45593999997E+02  0.45594000000E+02  0.51100000000E-03 0.  1.
         11   -1    0    0    0    0 -0.00000000000E+00 -0.00000000000E+00 -0.45593999997E+02  0.45594000000E+02  0.51100000000E-03 0. -1.
    9900012    2    1    2    0    0  0.16354789993E+02 -0.27264260859E+02  0.31910729726E+02  0.46142314885E+02  0.99999737727E+01 0.  0.
         12    1    1    2    0    0 -0.16354789993E+02  0.27264260859E+02 -0.31910729726E+02  0.45045685115E+02  0.00000000000E+00 0. -1.
         11    1    3    3    0    0  0.24396520776E+01 -0.21613988729E+01  0.34932158490E+01  0.47776672735E+01  0.51100000000E-03 0. -1.
        -11    1    3    3    0    0  0.40087760955E+01 -0.30792690659E+01  0.92196934652E+01  0.10514510527E+02  0.51100000000E-03 0.  1.
         12    1    3    3    0    0  0.99063618194E+01 -0.22023592920E+02  0.19197820411E+02  0.30850137085E+02  0.00000000000E+00 0. -1.
</event>
<event>
 7    1  0.2854935E-008  0.4614232E+02  0.7816164E-02  0.1320468E+00
        -11   -1    0    0    0    0  0.00000000000E+00  0.00000000000E+00  0.45593999997E+02  0.45594000000E+02  0.51100000000E-03 0. -1.
         11   -1    0    0    0    0 -0.00000000000E+00 -0.00000000000E+00 -0.45593999997E+02  0.45594000000E+02  0.51100000000E-03 0.  1.
    9900012    2    1    2    0    0  0.13890433870E+02 -0.10610318930E+02 -0.41516146074E+02  0.46142318678E+02  0.10000008361E+02 0.  0.
         12    1    1    2    0    0 -0.13890433870E+02  0.10610318930E+02  0.41516146074E+02  0.45045681322E+02  0.00000000000E+00 0. -1.
         11    1    3    3    0    0  0.95075518976E+00  0.42212998858E+00 -0.35970315742E+00  0.11006887756E+01  0.51100000000E-03 0. -1.
        -11    1    3    3    0    0 -0.74775631742E+00 -0.12568990128E+01 -0.27859254977E+01  0.31464767246E+01  0.51100000000E-03 0.  1.
        -12    1    3    3    0    0  0.13687434997E+02 -0.97755499059E+01 -0.38370517419E+02  0.41895153178E+02  0.00000000000E+00 0.  1.
</event>
<event>
 7    1  0.2425980E-008  0.4614232E+02  0.7816164E-02  0.1320468E+00
        -11   -1    0    0    0    0  0.00000000000E+00  0.00000000000E+00  0.45593999997E+02  0.45594000000E+02  0.51100000000E-03 0.  1.
         11   -1    0    0    0    0 -0.00000000000E+00 -0.00000000000E+00 -0.45593999997E+02  0.45594000000E+02  0.51100000000E-03 0. -1.
    9900012    2    1    2    0    0  0.13872081283E+02 -0.42854745471E+02 -0.38710638429E+00  0.46142315414E+02  0.99999785966E+01 0.  0.
         12    1    1    2    0    0 -0.13872081283E+02  0.42854745471E+02  0.38710638429E+00  0.45045684586E+02  0.00000000000E+00 0. -1.
         11    1    3    3    0    0  0.49669578406E+01 -0.23735644008E+02  0.17521246098E+01  0.24312988454E+02  0.51100000000E-03 0. -1.
        -11    1    3    3    0    0  0.73370584570E+01 -0.10897416958E+02  0.19992268560E+00  0.13138724919E+02  0.51100000000E-03 0.  1.
         12    1    3    3    0    0  0.15680649858E+01 -0.82216845052E+01 -0.23391536797E+01  0.86906020412E+01  0.00000000000E+00 0. -1.
</event>
<event>
 7    1  0.2425980E-008  0.4614232E+02  0.7816164E-02  0.1320468E+00
        -11   -1    0    0    0    0  0.00000000000E+00  0.00000000000E+00  0.45593999997E+02  0.45594000000E+02  0.51100000000E-03 0.  1.
         11   -1    0    0    0    0 -0.00000000000E+00 -0.00000000000E+00 -0.45593999997E+02  0.45594000000E+02  0.51100000000E-03 0. -1.
    9900012    2    1    2    0    0 -0.36349066323E+02  0.26184309247E+02  0.47160166695E+01  0.46142317781E+02  0.10000000185E+02 0.  0.
         12    1    1    2    0    0  0.36349066323E+02 -0.26184309247E+02 -0.47160166695E+01  0.45045682219E+02  0.00000000000E+00 0. -1.
         11    1    3    3    0    0 -0.24747049123E+01  0.92139256531E+00  0.21214787747E+01  0.33872999742E+01  0.51100000000E-03 0. -1.
        -11    1    3    3    0    0 -0.19548696028E+02  0.12667682251E+02  0.39705650056E+01  0.23630215334E+02  0.51100000000E-03 0.  1.
         12    1    3    3    0    0 -0.14325665383E+02  0.12595234431E+02 -0.13760271109E+01  0.19124802473E+02  0.00000000000E+00 0. -1.
</event>
<event>
 7    1  0.2425980E-008  0.4614232E+02  0.7816164E-02  0.1320468E+00
        -11   -1    0    0    0    0  0.00000000000E+00  0.00000000000E+00  0.45593999997E+02  0.45594000000E+02  0.51100000000E-03 0. -1.
         11   -1    0    0    0    0 -0.00000000000E+00 -0.00000000000E+00 -0.45593999997E+02  0.45594000000E+02  0.51100000000E-03 0.  1.
    9900012    2    1    2    0    0  0.26763803944E+02 -0.28782179387E+02 -0.22009053280E+02  0.46142317875E+02  0.10000001036E+02 0.  0.
         12    1    1    2    0    0 -0.26763803944E+02  0.28782179387E+02  0.22009053280E+02  0.45045682125E+02  0.00000000000E+00 0. -1.
         11    1    3    3    0    0  0.10651760660E+02 -0.88393118353E+01 -0.63507195135E+01  0.15229086561E+02  0.51100000000E-03 0. -1.
        -11    1    3    3    0    0  0.12578360814E+02 -0.99321930323E+01 -0.98555548308E+01  0.18814770275E+02  0.51100000000E-03 0.  1.
         12    1    3    3    0    0  0.35336824696E+01 -0.10010674520E+02 -0.58027789361E+01  0.12098461039E+02  0.00000000000E+00 0. -1.
</event>
<event>
 7    1  0.2425980E-008  0.4614232E+02  0.7816164E-02  0.1320468E+00
        -11   -1    0    0    0    0  0.00000000000E+00  0.00000000000E+00  0.45593999997E+02  0.45594000000E+02  0.51100000000E-03 0.  1.
         11   -1    0    0    0    0 -0.00000000000E+00 -0.00000000000E+00 -0.45593999997E+02  0.45594000000E+02  0.51100000000E-03 0. -1.
    9900012    2    1    2    0    0 -0.31818289982E+02 -0.12386750244E+02  0.29381599489E+02  0.46142317104E+02  0.99999940117E+01 0.  0.
         12    1    1    2    0    0  0.31818289982E+02  0.12386750244E+02 -0.29381599489E+02  0.45045682896E+02  0.00000000000E+00 0. -1.
         11    1    3    3    0    0 -0.20155508192E+00  0.87193099257E+00  0.16840745658E+01  0.19070908502E+01  0.51100000000E-03 0. -1.
        -11    1    3    3    0    0 -0.87967732516E+01 -0.20319586658E+01  0.80813190169E+01  0.12116921761E+02  0.51100000000E-03 0.  1.
         12    1    3    3    0    0 -0.22819961649E+02 -0.11226722571E+02  0.19616205906E+02  0.32118304493E+02  0.00000000000E+00 0. -1.
</event>
<event>
 7    1  0.2425980E-008  0.4614232E+02  0.7816164E-02  0.1320468E+00
        -11   -1    0    0    0    0  0.00000000000E+00  0.00000000000E+00  0.45593999997E+02  0.45594000000E+02  0.51100000000E-03 0.  1.
         11   -1    0    0    0    0 -0.00000000000E+00 -0.00000000000E+00 -0.45593999997E+02  0.45594000000E+02  0.51100000000E-03 0. -1.
    9900012    2    1    2    0    0  0.83701691549E+01 -0.43818982229E+02 -0.62410276890E+01  0.46142319165E+02  0.10000012801E+02 0.  0.
         12    1    1    2    0    0 -0.83701691549E+01  0.43818982229E+02  0.62410276890E+01  0.45045680835E+02  0.00000000000E+00 0. -1.
         11    1    3    3    0    0 -0.87731129918E+00 -0.11452794877E+01 -0.83169156966E-01  0.14450804789E+01  0.51100000000E-03 0. -1.
        -11    1    3    3    0    0  0.85262126315E+01 -0.35980405065E+02 -0.77481998120E+01  0.37779894800E+02  0.51100000000E-03 0.  1.
         12    1    3    3    0    0  0.72126782253E+00 -0.66932976764E+01  0.15903412799E+01  0.69173438864E+01  0.00000000000E+00 0. -1.
</event>
<event>
 7    1  0.2425980E-008  0.4614232E+02  0.7816164E-02  0.1320468E+00
        -11   -1    0    0    0    0  0.00000000000E+00  0.00000000000E+00  0.45593999997E+02  0.45594000000E+02  0.51100000000E-03 0.  1.
         11   -1    0    0    0    0 -0.00000000000E+00 -0.00000000000E+00 -0.45593999997E+02  0.45594000000E+02  0.51100000000E-03 0. -1.
    9900012    2    1    2    0    0 -0.24776589257E+02 -0.36631203419E+02  0.85667326710E+01  0.46142319321E+02  0.10000014225E+02 0.  0.
         12    1    1    2    0    0  0.24776589257E+02  0.36631203419E+02 -0.85667326710E+01  0.45045680679E+02  0.00000000000E+00 0. -1.
         11    1    3    3    0    0 -0.11316091699E+01 -0.73944284220E+01  0.18649084102E+01  0.77094743428E+01  0.51100000000E-03 0. -1.
        -11    1    3    3    0    0 -0.59053475753E+01 -0.50283113489E+01  0.23654699603E+01  0.81087911183E+01  0.51100000000E-03 0.  1.
        -12    1    3    3    0    0 -0.17739632512E+02 -0.24208463648E+02  0.43363543005E+01  0.30324053860E+02  0.00000000000E+00 0.  1.
</event>
<event>
 7    1  0.2425980E-008  0.4614232E+02  0.7816164E-02  0.1320468E+00
        -11   -1    0    0    0    0  0.00000000000E+00  0.00000000000E+00  0.45593999997E+02  0.45594000000E+02  0.51100000000E-03 0.  1.
         11   -1    0    0    0    0 -0.00000000000E+00 -0.00000000000E+00 -0.45593999997E+02  0.45594000000E+02  0.51100000000E-03 0. -1.
    9900012    2    1    2    0    0 -0.20075684517E+02 -0.17131423249E+02  0.36504721885E+02  0.46142317729E+02  0.99999997059E+01 0.  0.
         12    1    1    2    0    0  0.20075684517E+02  0.17131423249E+02 -0.36504721885E+02  0.45045682271E+02  0.00000000000E+00 0. -1.
         11    1    3    3    0    0 -0.14107129204E+01 -0.24974824487E+01  0.39663817669E+01  0.48948660969E+01  0.51100000000E-03 0. -1.
        -11    1    3    3    0    0 -0.10240906363E+02 -0.11144269234E+02  0.14135456793E+02  0.20709467374E+02  0.51100000000E-03 0.  1.
        -12    1    3    3    0    0 -0.84240652334E+01 -0.34896715662E+01  0.18402883326E+02  0.20537984258E+02  0.00000000000E+00 0.  1.
</event>
<event>
 7    1  0.2425980E-008  0.4614232E+02  0.7816164E-02  0.1320468E+00
        -11   -1    0    0    0    0  0.00000000000E+00  0.00000000000E+00  0.45593999997E+02  0.45594000000E+02  0.51100000000E-03 0.  1.
         11   -1    0    0    0    0 -0.00000000000E+00 -0.00000000000E+00 -0.45593999997E+02  0.45594000000E+02  0.51100000000E-03 0. -1.
    9900012    2    1    2    0    0 -0.36056179816E+02 -0.98659873046E+01  0.25134186447E+02  0.46142321664E+02  0.10000035587E+02 0.  0.
         12    1    1    2    0    0  0.36056179816E+02  0.98659873046E+01 -0.25134186447E+02  0.45045678336E+02  0.00000000000E+00 0. -1.
         11    1    3    3    0    0 -0.56291672770E+01  0.16586492845E+00  0.65097268566E+00  0.56691093750E+01  0.51100000000E-03 0. -1.
        -11    1    3    3    0    0 -0.30073279949E+01 -0.20262667542E+01  0.21625142664E+01  0.42221140251E+01  0.51100000000E-03 0.  1.
        -12    1    3    3    0    0 -0.27419684544E+02 -0.80055854788E+01  0.22320699495E+02  0.36251098264E+02  0.00000000000E+00 0.  1.
</event>
<event>
 7    1  0.2425980E-008  0.4614232E+02  0.7816164E-02  0.1320468E+00
        -11   -1    0    0    0    0  0.00000000000E+00  0.00000000000E+00  0.45593999997E+02  0.45594000000E+02  0.51100000000E-03 0.  1.
         11   -1    0    0    0    0 -0.00000000000E+00 -0.00000000000E+00 -0.45593999997E+02  0.45594000000E+02  0.51100000000E-03 0. -1.
    9900012    2    1    2    0    0 -0.18389122870E+02  0.18686592442E+02  0.36630109009E+02  0.46142318042E+02  0.10000002563E+02 0.  0.
         12    1    1    2    0    0  0.18389122870E+02 -0.18686592442E+02 -0.36630109009E+02  0.45045681958E+02  0.00000000000E+00 0. -1.
         11    1    3    3    0    0 -0.11705563141E+02  0.85640620720E+01  0.18548164827E+02  0.23545653237E+02  0.51100000000E-03 0. -1.
        -11    1    3    3    0    0 -0.65922795004E+01  0.65081924758E+01  0.15817676191E+02  0.18330673710E+02  0.51100000000E-03 0.  1.
         12    1    3    3    0    0 -0.91280228261E-01  0.36143378938E+01  0.22642679907E+01  0.42659910952E+01  0.00000000000E+00 0. -1.
</event>
<event>
 7    1  0.2425980E-008  0.4614231E+02  0.7816164E-02  0.1320468E+00
        -11   -1    0    0    0    0  0.00000000000E+00  0.00000000000E+00  0.45593999997E+02  0.45594000000E+02  0.51100000000E-03 0. -1.
         11   -1    0    0    0    0 -0.00000000000E+00 -0.00000000000E+00 -0.45593999997E+02  0.45594000000E+02  0.51100000000E-03 0.  1.
    9900012    2    1    2    0    0  0.38349059077E+02 -0.22465235808E+02 -0.73332527586E+01  0.46142314879E+02  0.99999737206E+01 0.  0.
         12    1    1    2    0    0 -0.38349059077E+02  0.22465235808E+02  0.73332527586E+01  0.45045685121E+02  0.00000000000E+00 0. -1.
         11    1    3    3    0    0  0.25998129681E+01 -0.11349651226E+01 -0.60472989693E+00  0.29004950971E+01  0.51100000000E-03 0. -1.
        -11    1    3    3    0    0  0.23870869109E+02 -0.17586446012E+02 -0.13634128680E+01  0.29680976572E+02  0.51100000000E-03 0.  1.
        -12    1    3    3    0    0  0.11878377000E+02 -0.37438246736E+01 -0.53651099937E+01  0.13560843210E+02  0.00000000000E+00 0.  1.
</event>
<event>
 7    1  0.2425980E-008  0.4614232E+02  0.7816164E-02  0.1320468E+00
        -11   -1    0    0    0    0  0.00000000000E+00  0.00000000000E+00  0.45593999997E+02  0.45594000000E+02  0.51100000000E-03 0.  1.
         11   -1    0    0    0    0 -0.00000000000E+00 -0.00000000000E+00 -0.45593999997E+02  0.45594000000E+02  0.51100000000E-03 0. -1.
    9900012    2    1    2    0    0 -0.26692585036E+02  0.15622134615E+02  0.32750089947E+02  0.46142316773E+02  0.99999909919E+01 0.  0.
         12    1    1    2    0    0  0.26692585036E+02 -0.15622134615E+02 -0.32750089947E+02  0.45045683227E+02  0.00000000000E+00 0. -1.
         11    1    3    3    0    0 -0.14287832074E+01  0.21607810697E+00  0.34617216072E+01  0.37512168624E+01  0.51100000000E-03 0. -1.
        -11    1    3    3    0    0 -0.24130053271E+02  0.12340863655E+02  0.27713417227E+02  0.38763254266E+02  0.51100000000E-03 0.  1.
         12    1    3    3    0    0 -0.11337485575E+01  0.30651928526E+01  0.15749511126E+01  0.36278456448E+01  0.00000000000E+00 0. -1.
</event>
<event>
 7    1  0.2425980E-008  0.4614232E+02  0.7816164E-02  0.1320468E+00
        -11   -1    0    0    0    0  0.00000000000E+00  0.00000000000E+00  0.45593999997E+02  0.45594000000E+02  0.51100000000E-03 0.  1.
         11   -1    0    0    0    0 -0.00000000000E+00 -0.00000000000E+00 -0.45593999997E+02  0.45594000000E+02  0.51100000000E-03 0. -1.
    9900012    2    1    2    0    0  0.15276473192E+02  0.11131153210E+02  0.40888142959E+02  0.46142318303E+02  0.10000004937E+02 0.  0.
         12    1    1    2    0    0 -0.15276473192E+02 -0.11131153210E+02 -0.40888142959E+02  0.45045681697E+02  0.00000000000E+00 0. -1.
         11    1    3    3    0    0  0.72172104190E+00 -0.39783361895E+00  0.22744651292E+01  0.24191619904E+01  0.51100000000E-03 0. -1.
        -11    1    3    3    0    0  0.48916327908E+01 -0.65702614325E+00  0.84380966498E+01  0.97755424425E+01  0.51100000000E-03 0.  1.
        -12    1    3    3    0    0  0.96631193597E+01  0.12186012972E+02  0.30175581180E+02  0.33947613870E+02  0.00000000000E+00 0.  1.
</event>
<event>
 7    1  0.2425980E-008  0.4614232E+02  0.7816164E-02  0.1320468E+00
        -11   -1    0    0    0    0  0.00000000000E+00  0.00000000000E+00  0.45593999997E+02  0.45594000000E+02  0.51100000000E-03 0. -1.
         11   -1    0    0    0    0 -0.00000000000E+00 -0.00000000000E+00 -0.45593999997E+02  0.45594000000E+02  0.51100000000E-03 0.  1.
    9900012    2    1    2    0    0 -0.69164349971E+01  0.35610809533E+02 -0.26704807770E+02  0.46142316669E+02  0.99999900454E+01 0.  0.
         12    1    1    2    0    0  0.69164349971E+01 -0.35610809533E+02  0.26704807770E+02  0.45045683331E+02  0.00000000000E+00 0. -1.
         11    1    3    3    0    0 -0.92462882726E+00 -0.16481655523E+00  0.67324668636E-01  0.94161342238E+00  0.51100000000E-03 0. -1.
        -11    1    3    3    0    0 -0.34474870557E+01  0.13183939665E+02 -0.11272408885E+02  0.17685266026E+02  0.51100000000E-03 0.  1.
         12    1    3    3    0    0 -0.25443191141E+01  0.22591686423E+02 -0.15499723554E+02  0.27515437221E+02  0.00000000000E+00 0. -1.
</event>
<event>
 7    1  0.2425980E-008  0.4614232E+02  0.7816164E-02  0.1320468E+00
        -11   -1    0    0    0    0  0.00000000000E+00  0.00000000000E+00  0.45593999997E+02  0.45594000000E+02  0.51100000000E-03 0.  1.
         11   -1    0    0    0    0 -0.00000000000E+00 -0.00000000000E+00 -0.45593999997E+02  0.45594000000E+02  0.51100000000E-03 0. -1.
    9900012    2    1    2    0    0  0.36099514845E+02  0.61501700336E+01  0.26231925864E+02  0.46142317654E+02  0.99999990222E+01 0.  0.
         12    1    1    2    0    0 -0.36099514845E+02 -0.61501700336E+01 -0.26231925864E+02  0.45045682346E+02  0.00000000000E+00 0. -1.
         11    1    3    3    0    0  0.32202165692E+01 -0.88592190015E+00  0.90219870576E-01  0.33410765109E+01  0.51100000000E-03 0. -1.
        -11    1    3    3    0    0  0.11390799400E+02  0.40792405977E+00  0.91334355655E+01  0.14606038426E+02  0.51100000000E-03 0.  1.
        -12    1    3    3    0    0  0.21488498876E+02  0.66281678740E+01  0.17008270427E+02  0.28195202717E+02  0.00000000000E+00 0.  1.
</event>
<event>
 7    1  0.2425980E-008  0.4614232E+02  0.7816164E-02  0.1320468E+00
        -11   -1    0    0    0    0  0.00000000000E+00  0.00000000000E+00  0.45593999997E+02  0.45594000000E+02  0.51100000000E-03 0.  1.
         11   -1    0    0    0    0 -0.00000000000E+00 -0.00000000000E+00 -0.45593999997E+02  0.45594000000E+02  0.51100000000E-03 0. -1.
    9900012    2    1    2    0    0 -0.34210681072E+02 -0.18549464788E+02  0.22686122563E+02  0.46142317629E+02  0.99999987931E+01 0.  0.
         12    1    1    2    0    0  0.34210681072E+02  0.18549464788E+02 -0.22686122563E+02  0.45045682371E+02  0.00000000000E+00 0. -1.
         11    1    3    3    0    0 -0.47807751215E+01 -0.54493971070E+01  0.19400741006E+01  0.75043738825E+01  0.51100000000E-03 0. -1.
        -11    1    3    3    0    0 -0.76501284250E+01 -0.57447435474E+01  0.69867290501E+01  0.11846557577E+02  0.51100000000E-03 0.  1.
        -12    1    3    3    0    0 -0.21779777525E+02 -0.73553241339E+01  0.13759319413E+02  0.26791386169E+02  0.00000000000E+00 0.  1.
</event>
<event>
 7    1  0.2425980E-008  0.4614232E+02  0.7816164E-02  0.1320468E+00
        -11   -1    0    0    0    0  0.00000000000E+00  0.00000000000E+00  0.45593999997E+02  0.45594000000E+02  0.51100000000E-03 0.  1.
         11   -1    0    0    0    0 -0.00000000000E+00 -0.00000000000E+00 -0.45593999997E+02  0.45594000000E+02  0.51100000000E-03 0. -1.
    9900012    2    1    2    0    0 -0.64505569209E+01  0.31617024857E+02  0.31430358571E+02  0.46142318905E+02  0.10000010431E+02 0.  0.
         12    1    1    2    0    0  0.64505569209E+01 -0.31617024857E+02 -0.31430358571E+02  0.45045681095E+02  0.00000000000E+00 0. -1.
         11    1    3    3    0    0  0.92728331383E+00  0.14860742921E+02  0.13573747891E+02  0.20148155413E+02  0.51100000000E-03 0. -1.
        -11    1    3    3    0    0 -0.71916343456E+01  0.16809012964E+02  0.18070208476E+02  0.25705932312E+02  0.51100000000E-03 0.  1.
         12    1    3    3    0    0 -0.18620588910E+00 -0.52731027644E-01 -0.21359779611E+00  0.28823117964E+00  0.00000000000E+00 0. -1.
</event>
<event>
 7    1  0.2425980E-008  0.4614232E+02  0.7816164E-02  0.1320468E+00
        -11   -1    0    0    0    0  0.00000000000E+00  0.00000000000E+00  0.45593999997E+02  0.45594000000E+02  0.51100000000E-03 0.  1.
         11   -1    0    0    0    0 -0.00000000000E+00 -0.00000000000E+00 -0.45593999997E+02  0.45594000000E+02  0.51100000000E-03 0. -1.
    9900012    2    1    2    0    0 -0.22247965450E+02 -0.31072717772E+02  0.23845917167E+02  0.46142317389E+02  0.99999966069E+01 0.  0.
         12    1    1    2    0    0  0.22247965450E+02  0.31072717772E+02 -0.23845917167E+02  0.45045682611E+02  0.00000000000E+00 0. -1.
         11    1    3    3    0    0  0.26698453696E+00 -0.17185403486E+01 -0.39251117808E-02  0.17391599525E+01  0.51100000000E-03 0. -1.
        -11    1    3    3    0    0 -0.12811103504E+02 -0.13530888895E+02  0.14553719993E+02  0.23643605756E+02  0.51100000000E-03 0.  1.
        -12    1    3    3    0    0 -0.97038464832E+01 -0.15823288528E+02  0.92961222854E+01  0.20759551680E+02  0.00000000000E+00 0.  1.
</event>
<event>
 7    1  0.2425980E-008  0.4614231E+02  0.7816164E-02  0.1320468E+00
        -11   -1    0    0    0    0  0.00000000000E+00  0.00000000000E+00  0.45593999997E+02  0.45594000000E+02  0.51100000000E-03 0.  1.
         11   -1    0    0    0    0 -0.00000000000E+00 -0.00000000000E+00 -0.45593999997E+02  0.45594000000E+02  0.51100000000E-03 0. -1.
    9900012    2    1    2    0    0  0.31224771040E+02  0.11972689376E+02  0.30179167823E+02  0.46142314437E+02  0.99999696841E+01 0.  0.
         12    1    1    2    0    0 -0.31224771040E+02 -0.11972689376E+02 -0.30179167823E+02  0.45045685563E+02  0.00000000000E+00 0. -1.
         11    1    3    3    0    0  0.67536943427E+01  0.38469513573E+01  0.35590225000E+01  0.85485708417E+01  0.51100000000E-03 0. -1.
        -11    1    3    3    0    0  0.35327541141E+01  0.29774974130E+01  0.25457237992E+01  0.52750879043E+01  0.51100000000E-03 0.  1.
        -12    1    3    3    0    0  0.20938322583E+02  0.51482406053E+01  0.24074421524E+02  0.32318655691E+02  0.00000000000E+00 0.  1.
</event>
<event>
 7    1  0.2425980E-008  0.4614232E+02  0.7816164E-02  0.1320468E+00
        -11   -1    0    0    0    0  0.00000000000E+00  0.00000000000E+00  0.45593999997E+02  0.45594000000E+02  0.51100000000E-03 0.  1.
         11   -1    0    0    0    0 -0.00000000000E+00 -0.00000000000E+00 -0.45593999997E+02  0.45594000000E+02  0.51100000000E-03 0. -1.
    9900012    2    1    2    0    0 -0.25158490764E+01  0.32519006147E+02  0.31069247955E+02  0.46142318456E+02  0.10000006334E+02 0.  0.
         12    1    1    2    0    0  0.25158490764E+01 -0.32519006147E+02 -0.31069247955E+02  0.45045681544E+02  0.00000000000E+00 0. -1.
         11    1    3    3    0    0  0.24873376765E+01  0.91532458776E+01  0.58739873122E+01  0.11156723803E+02  0.51100000000E-03 0. -1.
        -11    1    3    3    0    0 -0.10408368956E+01  0.80573280715E+00  0.89562043272E+00  0.15920687863E+01  0.51100000000E-03 0.  1.
        -12    1    3    3    0    0 -0.39623498573E+01  0.22560027462E+02  0.24299640210E+02  0.33393525866E+02  0.00000000000E+00 0.  1.
</event>
<event>
 7    1  0.2425980E-008  0.4614232E+02  0.7816164E-02  0.1320468E+00
        -11   -1    0    0    0    0  0.00000000000E+00  0.00000000000E+00  0.45593999997E+02  0.45594000000E+02  0.51100000000E-03 0. -1.
         11   -1    0    0    0    0 -0.00000000000E+00 -0.00000000000E+00 -0.45593999997E+02  0.45594000000E+02  0.51100000000E-03 0.  1.
    9900012    2    1    2    0    0  0.30319487282E+02 -0.33244570204E+02  0.21542569865E+01  0.46142316741E+02  0.99999906993E+01 0.  0.
         12    1    1    2    0    0 -0.30319487282E+02  0.33244570204E+02 -0.21542569865E+01  0.45045683259E+02  0.00000000000E+00 0. -1.
         11    1    3    3    0    0  0.33063169681E+01 -0.16319512232E+01 -0.64970290798E+00  0.37439432178E+01  0.51100000000E-03 0.  1.
        -11    1    3    3    0    0  0.15770045509E+02 -0.12672793949E+02  0.23615498163E+01  0.20368381370E+02  0.51100000000E-03 0. -1.
        -12    1    3    3    0    0  0.11243124805E+02 -0.18939825031E+02  0.44241007814E+00  0.22029992154E+02  0.00000000000E+00 0.  1.
</event>
<event>
 7    1  0.3014067E-008  0.4614232E+02  0.7816164E-02  0.1320468E+00
        -11   -1    0    0    0    0  0.00000000000E+00  0.00000000000E+00  0.45593999997E+02  0.45594000000E+02  0.51100000000E-03 0.  1.
         11   -1    0    0    0    0 -0.00000000000E+00 -0.00000000000E+00 -0.45593999997E+02  0.45594000000E+02  0.51100000000E-03 0. -1.
    9900012    2    1    2    0    0  0.27621873935E+02 -0.33138294916E+02  0.12961445421E+02  0.46142316777E+02  0.99999910280E+01 0.  0.
         12    1    1    2    0    0 -0.27621873935E+02  0.33138294916E+02 -0.12961445421E+02  0.45045683223E+02  0.00000000000E+00 0. -1.
         11    1    3    3    0    0  0.16033429714E+00  0.41451221530E+00  0.16264910844E+00  0.47326784918E+00  0.51100000000E-03 0. -1.
        -11    1    3    3    0    0  0.26013635957E+01 -0.96851852710E+00  0.15001443737E+01  0.31552423199E+01  0.51100000000E-03 0.  1.
        -12    1    3    3    0    0  0.24860176042E+02 -0.32584288604E+02  0.11298651939E+02  0.42513806608E+02  0.00000000000E+00 0.  1.
</event>
<event>
 7    1  0.2425980E-008  0.4614232E+02  0.7816164E-02  0.1320468E+00
        -11   -1    0    0    0    0  0.00000000000E+00  0.00000000000E+00  0.45593999997E+02  0.45594000000E+02  0.51100000000E-03 0.  1.
         11   -1    0    0    0    0 -0.00000000000E+00 -0.00000000000E+00 -0.45593999997E+02  0.45594000000E+02  0.51100000000E-03 0. -1.
    9900012    2    1    2    0    0 -0.17301201668E+02  0.36909710927E+02  0.19169120125E+02  0.46142317563E+02  0.99999981908E+01 0.  0.
         12    1    1    2    0    0  0.17301201668E+02 -0.36909710927E+02 -0.19169120125E+02  0.45045682437E+02  0.00000000000E+00 0. -1.
         11    1    3    3    0    0 -0.29445669025E+01  0.10898715338E+02  0.63731194730E+01  0.12964147575E+02  0.51100000000E-03 0.  1.
        -11    1    3    3    0    0 -0.34066960752E+01  0.56634347748E+01 -0.30436051861E+00  0.66160945567E+01  0.51100000000E-03 0. -1.
         12    1    3    3    0    0 -0.10949938690E+02  0.20347560814E+02  0.13100361171E+02  0.26562075431E+02  0.00000000000E+00 0. -1.
</event>
<event>
 7    1  0.2425980E-008  0.4614232E+02  0.7816164E-02  0.1320468E+00
        -11   -1    0    0    0    0  0.00000000000E+00  0.00000000000E+00  0.45593999997E+02  0.45594000000E+02  0.51100000000E-03 0. -1.
         11   -1    0    0    0    0 -0.00000000000E+00 -0.00000000000E+00 -0.45593999997E+02  0.45594000000E+02  0.51100000000E-03 0.  1.
    9900012    2    1    2    0    0  0.40729535051E+01  0.44830219044E+02 -0.16661411766E+01  0.46142317452E+02  0.99999971799E+01 0.  0.
         12    1    1    2    0    0 -0.40729535051E+01 -0.44830219044E+02  0.16661411766E+01  0.45045682548E+02  0.00000000000E+00 0. -1.
         11    1    3    3    0    0  0.15826375482E+00  0.51877765975E+01 -0.28372547045E+01  0.59150729464E+01  0.51100000000E-03 0. -1.
        -11    1    3    3    0    0  0.10473394733E+01  0.37332174049E+01 -0.13748057400E+01  0.41138696197E+01  0.51100000000E-03 0.  1.
        -12    1    3    3    0    0  0.28673502770E+01  0.35909225042E+02  0.25459192679E+01  0.36113374886E+02  0.00000000000E+00 0.  1.
</event>
<event>
 7    1  0.2425980E-008  0.4614232E+02  0.7816164E-02  0.1320468E+00
        -11   -1    0    0    0    0  0.00000000000E+00  0.00000000000E+00  0.45593999997E+02  0.45594000000E+02  0.51100000000E-03 0.  1.
         11   -1    0    0    0    0 -0.00000000000E+00 -0.00000000000E+00 -0.45593999997E+02  0.45594000000E+02  0.51100000000E-03 0. -1.
    9900012    2    1    2    0    0 -0.22522128129E+02  0.30265547862E+02  0.24614302255E+02  0.46142317429E+02  0.99999969715E+01 0.  0.
         12    1    1    2    0    0  0.22522128129E+02 -0.30265547862E+02 -0.24614302255E+02  0.45045682571E+02  0.00000000000E+00 0. -1.
         11    1    3    3    0    0 -0.63824070563E-01  0.23955325172E+01  0.25106131107E+01  0.34707100146E+01  0.51100000000E-03 0. -1.
        -11    1    3    3    0    0 -0.16826272925E+02  0.15377231484E+02  0.13557364831E+02  0.26521403622E+02  0.51100000000E-03 0.  1.
         12    1    3    3    0    0 -0.56320311327E+01  0.12492783861E+02  0.85463243129E+01  0.16150203792E+02  0.00000000000E+00 0. -1.
</event>
<event>
 7    1  0.2425980E-008  0.4614232E+02  0.7816164E-02  0.1320468E+00
        -11   -1    0    0    0    0  0.00000000000E+00  0.00000000000E+00  0.45593999997E+02  0.45594000000E+02  0.51100000000E-03 0. -1.
         11   -1    0    0    0    0 -0.00000000000E+00 -0.00000000000E+00 -0.45593999997E+02  0.45594000000E+02  0.51100000000E-03 0.  1.
    9900012    2    1    2    0    0 -0.12415377549E+02  0.43196218151E+02  0.30097474421E+01  0.46142318277E+02  0.10000004706E+02 0.  0.
         12    1    1    2    0    0  0.12415377549E+02 -0.43196218151E+02 -0.30097474421E+01  0.45045681723E+02  0.00000000000E+00 0. -1.
         11    1    3    3    0    0 -0.14586427075E+01  0.11632931744E+02 -0.15768880055E+01  0.11829594902E+02  0.51100000000E-03 0. -1.
        -11    1    3    3    0    0 -0.51497510725E+00  0.98465154497E+01  0.50554967675E+00  0.98729249262E+01  0.51100000000E-03 0.  1.
         12    1    3    3    0    0 -0.10441759734E+02  0.21716770957E+02  0.40810857708E+01  0.24439798449E+02  0.00000000000E+00 0. -1.
</event>
<event>
 7    1  0.2425980E-008  0.4614231E+02  0.7816164E-02  0.1320468E+00
        -11   -1    0    0    0    0  0.00000000000E+00  0.00000000000E+00  0.45593999997E+02  0.45594000000E+02  0.51100000000E-03 0.  1.
         11   -1    0    0    0    0 -0.00000000000E+00 -0.00000000000E+00 -0.45593999997E+02  0.45594000000E+02  0.51100000000E-03 0. -1.
    9900012    2    1    2    0    0 -0.42864205000E+02 -0.14083820282E+01  0.13776445520E+02  0.46142311401E+02  0.99999420031E+01 0.  0.
         12    1    1    2    0    0  0.42864205000E+02  0.14083820282E+01 -0.13776445520E+02  0.45045688599E+02  0.00000000000E+00 0. -1.
         11    1    3    3    0    0 -0.34946740307E+02 -0.19478826962E+01  0.14572353772E+02  0.37913353845E+02  0.51100000000E-03 0. -1.
        -11    1    3    3    0    0 -0.44883581952E+01 -0.67981368068E+00 -0.65723898231E+00  0.45868801237E+01  0.51100000000E-03 0.  1.
         12    1    3    3    0    0 -0.34291064976E+01  0.12193143487E+01 -0.13866927014E+00  0.36420774318E+01  0.00000000000E+00 0. -1.
</event>
<event>
 7    1  0.2425980E-008  0.4614232E+02  0.7816164E-02  0.1320468E+00
        -11   -1    0    0    0    0  0.00000000000E+00  0.00000000000E+00  0.45593999997E+02  0.45594000000E+02  0.51100000000E-03 0.  1.
         11   -1    0    0    0    0 -0.00000000000E+00 -0.00000000000E+00 -0.45593999997E+02  0.45594000000E+02  0.51100000000E-03 0. -1.
    9900012    2    1    2    0    0 -0.24818427016E+02  0.22774652808E+02  0.29907765605E+02  0.46142316816E+02  0.99999913834E+01 0.  0.
         12    1    1    2    0    0  0.24818427016E+02 -0.22774652808E+02 -0.29907765605E+02  0.45045683184E+02  0.00000000000E+00 0. -1.
         11    1    3    3    0    0 -0.68147266353E+01  0.41507565497E+01  0.41028978991E+01  0.89723492175E+01  0.51100000000E-03 0. -1.
        -11    1    3    3    0    0 -0.44933833156E+01  0.40153737570E+01  0.24950102443E+01  0.65221772752E+01  0.51100000000E-03 0.  1.
         12    1    3    3    0    0 -0.13510317065E+02  0.14608522501E+02  0.23309857461E+02  0.30647790323E+02  0.00000000000E+00 0. -1.
</event>
<event>
 7    1  0.2425980E-008  0.4614232E+02  0.7816164E-02  0.1320468E+00
        -11   -1    0    0    0    0  0.00000000000E+00  0.00000000000E+00  0.45593999997E+02  0.45594000000E+02  0.51100000000E-03 0.  1.
         11   -1    0    0    0    0 -0.00000000000E+00 -0.00000000000E+00 -0.45593999997E+02  0.45594000000E+02  0.51100000000E-03 0. -1.
    9900012    2    1    2    0    0  0.44129592489E+02  0.55678065705E+01  0.71198377262E+01  0.46142317715E+02  0.99999995774E+01 0.  0.
         12    1    1    2    0    0 -0.44129592489E+02 -0.55678065705E+01 -0.71198377262E+01  0.45045682285E+02  0.00000000000E+00 0. -1.
         11    1    3    3    0    0  0.83749803096E+01 -0.92073567414E+00  0.18013719437E+01  0.86158569225E+01  0.51100000000E-03 0. -1.
        -11    1    3    3    0    0  0.19214426341E+02  0.28649084478E+01  0.66703941460E+01  0.20540108041E+02  0.51100000000E-03 0.  1.
         12    1    3    3    0    0  0.16540185839E+02  0.36236337968E+01 -0.13519283635E+01  0.16986352751E+02  0.00000000000E+00 0. -1.
</event>
<event>
 7    1  0.2425980E-008  0.4614232E+02  0.7816164E-02  0.1320468E+00
        -11   -1    0    0    0    0  0.00000000000E+00  0.00000000000E+00  0.45593999997E+02  0.45594000000E+02  0.51100000000E-03 0. -1.
         11   -1    0    0    0    0 -0.00000000000E+00 -0.00000000000E+00 -0.45593999997E+02  0.45594000000E+02  0.51100000000E-03 0.  1.
    9900012    2    1    2    0    0 -0.14860905170E+02 -0.25290997855E+02 -0.34185268925E+02  0.46142315562E+02  0.99999799513E+01 0.  0.
         12    1    1    2    0    0  0.14860905170E+02  0.25290997855E+02  0.34185268925E+02  0.45045684438E+02  0.00000000000E+00 0. -1.
         11    1    3    3    0    0 -0.17026990738E+01 -0.13319763910E+01 -0.52715236892E+00  0.22251371022E+01  0.51100000000E-03 0. -1.
        -11    1    3    3    0    0 -0.78011841353E+01 -0.14654643770E+02 -0.14918576674E+02  0.22319968374E+02  0.51100000000E-03 0.  1.
        -12    1    3    3    0    0 -0.53570219611E+01 -0.93043776935E+01 -0.18739539882E+02  0.21597210087E+02  0.00000000000E+00 0.  1.
</event>
<event>
 7    1  0.2425980E-008  0.4614232E+02  0.7816164E-02  0.1320468E+00
        -11   -1    0    0    0    0  0.00000000000E+00  0.00000000000E+00  0.45593999997E+02  0.45594000000E+02  0.51100000000E-03 0. -1.
         11   -1    0    0    0    0 -0.00000000000E+00 -0.00000000000E+00 -0.45593999997E+02  0.45594000000E+02  0.51100000000E-03 0.  1.
    9900012    2    1    2    0    0 -0.37594823639E+02  0.17241768701E+02  0.17845563902E+02  0.46142317595E+02  0.99999984825E+01 0.  0.
         12    1    1    2    0    0  0.37594823639E+02 -0.17241768701E+02 -0.17845563902E+02  0.45045682405E+02  0.00000000000E+00 0. -1.
         11    1    3    3    0    0 -0.22362498792E+01  0.16760959915E+01  0.74538730254E+00  0.28923543675E+01  0.51100000000E-03 0. -1.
        -11    1    3    3    0    0 -0.24785589421E+02  0.15306621484E+02  0.13127477708E+02  0.31952289049E+02  0.51100000000E-03 0.  1.
         12    1    3    3    0    0 -0.10572984339E+02  0.25905122535E+00  0.39726988910E+01  0.11297674179E+02  0.00000000000E+00 0. -1.
</event>
<event>
 7    1  0.2425980E-008  0.4614232E+02  0.7816164E-02  0.1320468E+00
        -11   -1    0    0    0    0  0.00000000000E+00  0.00000000000E+00  0.45593999997E+02  0.45594000000E+02  0.51100000000E-03 0.  1.
         11   -1    0    0    0    0 -0.00000000000E+00 -0.00000000000E+00 -0.45593999997E+02  0.45594000000E+02  0.51100000000E-03 0. -1.
    9900012    2    1    2    0    0  0.31964003841E+02 -0.11066284410E+01  0.31720519148E+02  0.46142317598E+02  0.99999985142E+01 0.  0.
         12    1    1    2    0    0 -0.31964003841E+02  0.11066284410E+01 -0.31720519148E+02  0.45045682402E+02  0.00000000000E+00 0. -1.
         11    1    3    3    0    0  0.90282121952E+01 -0.10832385113E-01  0.10961148275E+02  0.14200545924E+02  0.51100000000E-03 0. -1.
        -11    1    3    3    0    0  0.77722259303E+01 -0.32368337116E+01  0.10717614592E+02  0.13629081084E+02  0.51100000000E-03 0.  1.
         12    1    3    3    0    0  0.15163565715E+02  0.21410376558E+01  0.10041756282E+02  0.18312690590E+02  0.00000000000E+00 0. -1.
</event>
<event>
 7    1  0.2425980E-008  0.4614232E+02  0.7816164E-02  0.1320468E+00
        -11   -1    0    0    0    0  0.00000000000E+00  0.00000000000E+00  0.45593999997E+02  0.45594000000E+02  0.51100000000E-03 0.  1.
         11   -1    0    0    0    0 -0.00000000000E+00 -0.00000000000E+00 -0.45593999997E+02  0.45594000000E+02  0.51100000000E-03 0. -1.
    9900012    2    1    2    0    0  0.34392203998E+02 -0.11858764088E+02  0.26564252881E+02  0.46142317491E+02  0.99999975381E+01 0.  0.
         12    1    1    2    0    0 -0.34392203998E+02  0.11858764088E+02 -0.26564252881E+02  0.45045682509E+02  0.00000000000E+00 0. -1.
         11    1    3    3    0    0  0.15413684164E+01 -0.18731669743E+01  0.33849838548E+01  0.41644551944E+01  0.51100000000E-03 0. -1.
        -11    1    3    3    0    0  0.13328399351E+02 -0.47853942735E+01  0.57095720886E+01  0.15269100868E+02  0.51100000000E-03 0.  1.
        -12    1    3    3    0    0  0.19522436231E+02 -0.52002028398E+01  0.17469696938E+02  0.26708761429E+02  0.00000000000E+00 0.  1.
</event>
<event>
 7    1  0.2425980E-008  0.4614231E+02  0.7816164E-02  0.1320468E+00
        -11   -1    0    0    0    0  0.00000000000E+00  0.00000000000E+00  0.45593999997E+02  0.45594000000E+02  0.51100000000E-03 0.  1.
         11   -1    0    0    0    0 -0.00000000000E+00 -0.00000000000E+00 -0.45593999997E+02  0.45594000000E+02  0.51100000000E-03 0. -1.
    9900012    2    1    2    0    0 -0.39494533188E+01 -0.78750521177E+01  0.44175776900E+02  0.46142313280E+02  0.99999591359E+01 0.  0.
         12    1    1    2    0    0  0.39494533188E+01  0.78750521177E+01 -0.44175776900E+02  0.45045686720E+02  0.00000000000E+00 0. -1.
         11    1    3    3    0    0 -0.51785656380E+01 -0.49140337313E+01  0.21237257348E+02  0.22405052321E+02  0.51100000000E-03 0. -1.
        -11    1    3    3    0    0 -0.17667928994E+01  0.16562410596E+00  0.68709976359E+01  0.70964496241E+01  0.51100000000E-03 0.  1.
        -12    1    3    3    0    0  0.29959052186E+01 -0.31266424924E+01  0.16067521917E+02  0.16640811335E+02  0.00000000000E+00 0.  1.
</event>
<event>
 7    1  0.2425980E-008  0.4614232E+02  0.7816164E-02  0.1320468E+00
        -11   -1    0    0    0    0  0.00000000000E+00  0.00000000000E+00  0.45593999997E+02  0.45594000000E+02  0.51100000000E-03 0.  1.
         11   -1    0    0    0    0 -0.00000000000E+00 -0.00000000000E+00 -0.45593999997E+02  0.45594000000E+02  0.51100000000E-03 0. -1.
    9900012    2    1    2    0    0 -0.35446160611E+01  0.36175911580E+02  0.26605499703E+02  0.46142317675E+02  0.99999992109E+01 0.  0.
         12    1    1    2    0    0  0.35446160611E+01 -0.36175911580E+02 -0.26605499703E+02  0.45045682325E+02  0.00000000000E+00 0. -1.
         11    1    3    3    0    0 -0.11646505319E+01  0.12149601710E+02  0.41755374038E+01  0.12899780829E+02  0.51100000000E-03 0. -1.
        -11    1    3    3    0    0  0.11632571573E+01  0.33663569333E+01  0.29037640212E+01  0.45953641823E+01  0.51100000000E-03 0.  1.
        -12    1    3    3    0    0 -0.35432226864E+01  0.20659952937E+02  0.19526198278E+02  0.28647172663E+02  0.00000000000E+00 0.  1.
</event>
<event>
 7    1  0.2425980E-008  0.4614233E+02  0.7816164E-02  0.1320468E+00
        -11   -1    0    0    0    0  0.00000000000E+00  0.00000000000E+00  0.45593999997E+02  0.45594000000E+02  0.51100000000E-03 0.  1.
         11   -1    0    0    0    0 -0.00000000000E+00 -0.00000000000E+00 -0.45593999997E+02  0.45594000000E+02  0.51100000000E-03 0. -1.
    9900012    2    1    2    0    0 -0.13871173855E+02 -0.40341917199E+02  0.14464888461E+02  0.46142326006E+02  0.10000075181E+02 0.  0.
         12    1    1    2    0    0  0.13871173855E+02  0.40341917199E+02 -0.14464888461E+02  0.45045673994E+02  0.00000000000E+00 0. -1.
         11    1    3    3    0    0 -0.55969764671E+01 -0.85135231370E+01  0.37376179181E+01  0.10852465606E+02  0.51100000000E-03 0. -1.
        -11    1    3    3    0    0 -0.55408080905E+01 -0.15980985544E+02  0.21105980109E+01  0.17045441545E+02  0.51100000000E-03 0.  1.
        -12    1    3    3    0    0 -0.27333892975E+01 -0.15847408518E+02  0.86166725320E+01  0.18244418854E+02  0.00000000000E+00 0.  1.
</event>
<event>
 7    1  0.2425980E-008  0.4614232E+02  0.7816164E-02  0.1320468E+00
        -11   -1    0    0    0    0  0.00000000000E+00  0.00000000000E+00  0.45593999997E+02  0.45594000000E+02  0.51100000000E-03 0.  1.
         11   -1    0    0    0    0 -0.00000000000E+00 -0.00000000000E+00 -0.45593999997E+02  0.45594000000E+02  0.51100000000E-03 0. -1.
    9900012    2    1    2    0    0  0.10793363488E+02 -0.83259694198E+01 -0.42933613098E+02  0.46142316569E+02  0.99999891266E+01 0.  0.
         12    1    1    2    0    0 -0.10793363488E+02  0.83259694198E+01  0.42933613098E+02  0.45045683431E+02  0.00000000000E+00 0. -1.
         11    1    3    3    0    0  0.57661145972E+01 -0.63442853851E+01 -0.15626685652E+02  0.17823897984E+02  0.51100000000E-03 0. -1.
        -11    1    3    3    0    0  0.59074931221E+01 -0.17622681987E+01 -0.19309491519E+02  0.20269694798E+02  0.51100000000E-03 0.  1.
         12    1    3    3    0    0 -0.88024423085E+00 -0.21941583605E+00 -0.79974359260E+01  0.80487237874E+01  0.00000000000E+00 0. -1.
</event>
<event>
 7    1  0.2425980E-008  0.4614232E+02  0.7816164E-02  0.1320468E+00
        -11   -1    0    0    0    0  0.00000000000E+00  0.00000000000E+00  0.45593999997E+02  0.45594000000E+02  0.51100000000E-03 0.  1.
         11   -1    0    0    0    0 -0.00000000000E+00 -0.00000000000E+00 -0.45593999997E+02  0.45594000000E+02  0.51100000000E-03 0. -1.
    9900012    2    1    2    0    0 -0.19838770351E+02  0.24046718541E+02  0.32516027753E+02  0.46142317161E+02  0.99999945241E+01 0.  0.
         12    1    1    2    0    0  0.19838770351E+02 -0.24046718541E+02 -0.32516027753E+02  0.45045682839E+02  0.00000000000E+00 0. -1.
         11    1    3    3    0    0 -0.40140811313E+01  0.17861841940E+01  0.26469960635E+01  0.51293166918E+01  0.51100000000E-03 0. -1.
        -11    1    3    3    0    0 -0.77715833475E+01  0.59445105942E+01  0.86368464443E+01  0.13051047111E+02  0.51100000000E-03 0.  1.
         12    1    3    3    0    0 -0.80531058722E+01  0.16316023753E+02  0.21232185245E+02  0.27961953358E+02  0.00000000000E+00 0. -1.
</event>
<event>
 7    1  0.2425980E-008  0.4614232E+02  0.7816164E-02  0.1320468E+00
        -11   -1    0    0    0    0  0.00000000000E+00  0.00000000000E+00  0.45593999997E+02  0.45594000000E+02  0.51100000000E-03 0. -1.
         11   -1    0    0    0    0 -0.00000000000E+00 -0.00000000000E+00 -0.45593999997E+02  0.45594000000E+02  0.51100000000E-03 0.  1.
    9900012    2    1    2    0    0 -0.31299380342E+02 -0.32054423501E+02 -0.46878736880E+01  0.46142318348E+02  0.10000005348E+02 0.  0.
         12    1    1    2    0    0  0.31299380342E+02  0.32054423501E+02  0.46878736880E+01  0.45045681652E+02  0.00000000000E+00 0. -1.
         11    1    3    3    0    0 -0.30902714495E-01 -0.20134434337E+01  0.87728526234E+00  0.21964833555E+01  0.51100000000E-03 0. -1.
        -11    1    3    3    0    0 -0.29050632159E+00 -0.12130342115E+01 -0.42771884984E+00  0.13186317138E+01  0.51100000000E-03 0.  1.
        -12    1    3    3    0    0 -0.30977971306E+02 -0.28827945856E+02 -0.51374401005E+01  0.42627203278E+02  0.00000000000E+00 0.  1.
</event>
<event>
 7    1  0.2425980E-008  0.4614232E+02  0.7816164E-02  0.1320468E+00
        -11   -1    0    0    0    0  0.00000000000E+00  0.00000000000E+00  0.45593999997E+02  0.45594000000E+02  0.51100000000E-03 0.  1.
         11   -1    0    0    0    0 -0.00000000000E+00 -0.00000000000E+00 -0.45593999997E+02  0.45594000000E+02  0.51100000000E-03 0. -1.
    9900012    2    1    2    0    0  0.16580750396E+01 -0.37508242920E+02 -0.24889677559E+02  0.46142317090E+02  0.99999938833E+01 0.  0.
         12    1    1    2    0    0 -0.16580750396E+01  0.37508242920E+02  0.24889677559E+02  0.45045682910E+02  0.00000000000E+00 0. -1.
         11    1    3    3    0    0  0.41610509938E+00 -0.21150784945E+02 -0.13949265666E+02  0.25339906475E+02  0.51100000000E-03 0.  1.
        -11    1    3    3    0    0 -0.32994659741E+00 -0.14807721197E+02 -0.11214569556E+02  0.18578052707E+02  0.51100000000E-03 0. -1.
         12    1    3    3    0    0  0.15719165376E+01 -0.15497367778E+01  0.27415766260E+00  0.22243579086E+01  0.00000000000E+00 0. -1.
</event>
<event>
 7    1  0.2425980E-008  0.4614232E+02  0.7816164E-02  0.1320468E+00
        -11   -1    0    0    0    0  0.00000000000E+00  0.00000000000E+00  0.45593999997E+02  0.45594000000E+02  0.51100000000E-03 0.  1.
         11   -1    0    0    0    0 -0.00000000000E+00 -0.00000000000E+00 -0.45593999997E+02  0.45594000000E+02  0.51100000000E-03 0. -1.
    9900012    2    1    2    0    0 -0.10694876369E+02  0.66488895982E+01  0.43249572074E+02  0.46142316544E+02  0.99999889002E+01 0.  0.
         12    1    1    2    0    0  0.10694876369E+02 -0.66488895982E+01 -0.43249572074E+02  0.45045683456E+02  0.00000000000E+00 0. -1.
         11    1    3    3    0    0 -0.50476224580E+01  0.34014857044E+01  0.25617016868E+02  0.26330213652E+02  0.51100000000E-03 0. -1.
        -11    1    3    3    0    0 -0.35039849362E+01  0.11629836942E+01  0.15970029119E+02  0.16391225452E+02  0.51100000000E-03 0.  1.
         12    1    3    3    0    0 -0.21432689750E+01  0.20844201997E+01  0.16625260872E+01  0.34208774398E+01  0.00000000000E+00 0. -1.
</event>
<event>
 7    1  0.2425980E-008  0.4614232E+02  0.7816164E-02  0.1320468E+00
        -11   -1    0    0    0    0  0.00000000000E+00  0.00000000000E+00  0.45593999997E+02  0.45594000000E+02  0.51100000000E-03 0.  1.
         11   -1    0    0    0    0 -0.00000000000E+00 -0.00000000000E+00 -0.45593999997E+02  0.45594000000E+02  0.51100000000E-03 0. -1.
    9900012    2    1    2    0    0  0.46107326866E+01 -0.43205211881E+02  0.11881260514E+02  0.46142317177E+02  0.99999946743E+01 0.  0.
         12    1    1    2    0    0 -0.46107326866E+01  0.43205211881E+02 -0.11881260514E+02  0.45045682823E+02  0.00000000000E+00 0. -1.
         11    1    3    3    0    0  0.37492778459E+01 -0.58629092835E+01  0.17198941082E+01  0.71685999775E+01  0.51100000000E-03 0. -1.
        -11    1    3    3    0    0  0.57015943984E+00 -0.26562545266E+02  0.93252211879E+01  0.28157656920E+02  0.51100000000E-03 0.  1.
        -12    1    3    3    0    0  0.29129540089E+00 -0.10779757331E+02  0.83614521826E+00  0.10816060279E+02  0.00000000000E+00 0.  1.
</event>
<event>
 7    1  0.2425980E-008  0.4614232E+02  0.7816164E-02  0.1320468E+00
        -11   -1    0    0    0    0  0.00000000000E+00  0.00000000000E+00  0.45593999997E+02  0.45594000000E+02  0.51100000000E-03 0.  1.
         11   -1    0    0    0    0 -0.00000000000E+00 -0.00000000000E+00 -0.45593999997E+02  0.45594000000E+02  0.51100000000E-03 0. -1.
    9900012    2    1    2    0    0 -0.62015803786E+01  0.26372020629E+01  0.44538734661E+02  0.46142319639E+02  0.10000017127E+02 0.  0.
         12    1    1    2    0    0  0.62015803786E+01 -0.26372020629E+01 -0.44538734661E+02  0.45045680361E+02  0.00000000000E+00 0. -1.
         11    1    3    3    0    0 -0.53234783259E+01 -0.90345100915E+00  0.22047530619E+02  0.22699102446E+02  0.51100000000E-03 0. -1.
        -11    1    3    3    0    0 -0.16341898979E+01  0.30480243056E+00  0.16570933512E+02  0.16654108167E+02  0.51100000000E-03 0.  1.
         12    1    3    3    0    0  0.75608784512E+00  0.32358506415E+01  0.59202705310E+01  0.67891090258E+01  0.00000000000E+00 0. -1.
</event>
<event>
 7    1  0.2425980E-008  0.4614232E+02  0.7816164E-02  0.1320468E+00
        -11   -1    0    0    0    0  0.00000000000E+00  0.00000000000E+00  0.45593999997E+02  0.45594000000E+02  0.51100000000E-03 0.  1.
         11   -1    0    0    0    0 -0.00000000000E+00 -0.00000000000E+00 -0.45593999997E+02  0.45594000000E+02  0.51100000000E-03 0. -1.
    9900012    2    1    2    0    0 -0.37952389832E+02  0.16276097575E+02  0.17994948704E+02  0.46142318464E+02  0.10000006407E+02 0.  0.
         12    1    1    2    0    0  0.37952389832E+02 -0.16276097575E+02 -0.17994948704E+02  0.45045681536E+02  0.00000000000E+00 0. -1.
         11    1    3    3    0    0 -0.13900952879E+02  0.81144257046E+01  0.90885436618E+01  0.18484642859E+02  0.51100000000E-03 0. -1.
        -11    1    3    3    0    0 -0.10721229283E+02  0.49371712327E+01  0.72280455666E+01  0.13840703020E+02  0.51100000000E-03 0.  1.
         12    1    3    3    0    0 -0.13330207670E+02  0.32245006379E+01  0.16783594754E+01  0.13816972585E+02  0.00000000000E+00 0. -1.
</event>
<event>
 7    1  0.2425980E-008  0.4614232E+02  0.7816164E-02  0.1320468E+00
        -11   -1    0    0    0    0  0.00000000000E+00  0.00000000000E+00  0.45593999997E+02  0.45594000000E+02  0.51100000000E-03 0.  1.
         11   -1    0    0    0    0 -0.00000000000E+00 -0.00000000000E+00 -0.45593999997E+02  0.45594000000E+02  0.51100000000E-03 0. -1.
    9900012    2    1    2    0    0 -0.11018876381E+02 -0.17288471670E+02  0.40109931647E+02  0.46142317565E+02  0.99999982078E+01 0.  0.
         12    1    1    2    0    0  0.11018876381E+02  0.17288471670E+02 -0.40109931647E+02  0.45045682435E+02  0.00000000000E+00 0. -1.
         11    1    3    3    0    0 -0.38968884388E+01 -0.14950832709E+01  0.10026142536E+02  0.10860227802E+02  0.51100000000E-03 0. -1.
        -11    1    3    3    0    0 -0.41553373835E+01 -0.43870184994E+01  0.14768532966E+02  0.15956889619E+02  0.51100000000E-03 0.  1.
         12    1    3    3    0    0 -0.29666505583E+01 -0.11406369899E+02  0.15315256144E+02  0.19325200143E+02  0.00000000000E+00 0. -1.
</event>
<event>
 7    1  0.2425980E-008  0.4614232E+02  0.7816164E-02  0.1320468E+00
        -11   -1    0    0    0    0  0.00000000000E+00  0.00000000000E+00  0.45593999997E+02  0.45594000000E+02  0.51100000000E-03 0.  1.
         11   -1    0    0    0    0 -0.00000000000E+00 -0.00000000000E+00 -0.45593999997E+02  0.45594000000E+02  0.51100000000E-03 0. -1.
    9900012    2    1    2    0    0  0.24109022694E+02 -0.11954743406E+02  0.36124129357E+02  0.46142316667E+02  0.99999900234E+01 0.  0.
         12    1    1    2    0    0 -0.24109022694E+02  0.11954743406E+02 -0.36124129357E+02  0.45045683333E+02  0.00000000000E+00 0. -1.
         11    1    3    3    0    0  0.69225441010E+01 -0.18141379802E+01  0.73704063999E+01  0.10273052331E+02  0.51100000000E-03 0. -1.
        -11    1    3    3    0    0  0.13691559477E+02 -0.48878396020E+01  0.23619473509E+02  0.27734983432E+02  0.51100000000E-03 0.  1.
         12    1    3    3    0    0  0.34949191155E+01 -0.52527658235E+01  0.51342494481E+01  0.81342809034E+01  0.00000000000E+00 0. -1.
</event>
<event>
 7    1  0.2425980E-008  0.4614232E+02  0.7816164E-02  0.1320468E+00
        -11   -1    0    0    0    0  0.00000000000E+00  0.00000000000E+00  0.45593999997E+02  0.45594000000E+02  0.51100000000E-03 0. -1.
         11   -1    0    0    0    0 -0.00000000000E+00 -0.00000000000E+00 -0.45593999997E+02  0.45594000000E+02  0.51100000000E-03 0.  1.
    9900012    2    1    2    0    0 -0.10250602889E+02  0.38322867657E+02 -0.21340015350E+02  0.46142319850E+02  0.10000019048E+02 0.  0.
         12    1    1    2    0    0  0.10250602889E+02 -0.38322867657E+02  0.21340015350E+02  0.45045680150E+02  0.00000000000E+00 0. -1.
         11    1    3    3    0    0  0.12966398558E+00  0.75414559462E+00 -0.55322631968E-01  0.76720869505E+00  0.51100000000E-03 0. -1.
        -11    1    3    3    0    0 -0.19103217934E+01  0.13809149145E+02 -0.31046986997E+01  0.14282194640E+02  0.51100000000E-03 0.  1.
        -12    1    3    3    0    0 -0.84699450808E+01  0.23759572917E+02 -0.18179994018E+02  0.31092916515E+02  0.00000000000E+00 0.  1.
</event>
<event>
 7    1  0.2425980E-008  0.4614232E+02  0.7816164E-02  0.1320468E+00
        -11   -1    0    0    0    0  0.00000000000E+00  0.00000000000E+00  0.45593999997E+02  0.45594000000E+02  0.51100000000E-03 0.  1.
         11   -1    0    0    0    0 -0.00000000000E+00 -0.00000000000E+00 -0.45593999997E+02  0.45594000000E+02  0.51100000000E-03 0. -1.
    9900012    2    1    2    0    0 -0.19106135628E+02 -0.50200661272E+01  0.40482935487E+02  0.46142317097E+02  0.99999939428E+01 0.  0.
         12    1    1    2    0    0  0.19106135628E+02  0.50200661272E+01 -0.40482935487E+02  0.45045682903E+02  0.00000000000E+00 0. -1.
         11    1    3    3    0    0 -0.11125047507E+01 -0.97712765875E+00  0.81817166445E+01  0.83146216266E+01  0.51100000000E-03 0. -1.
        -11    1    3    3    0    0 -0.16916137718E+02 -0.17536112828E+01  0.26359024955E+02  0.31369237553E+02  0.51100000000E-03 0.  1.
        -12    1    3    3    0    0 -0.10774931599E+01 -0.22893271856E+01  0.59421938877E+01  0.64584579174E+01  0.00000000000E+00 0.  1.
</event>
<event>
 7    1  0.2425980E-008  0.4614232E+02  0.7816164E-02  0.1320468E+00
        -11   -1    0    0    0    0  0.00000000000E+00  0.00000000000E+00  0.45593999997E+02  0.45594000000E+02  0.51100000000E-03 0.  1.
         11   -1    0    0    0    0 -0.00000000000E+00 -0.00000000000E+00 -0.45593999997E+02  0.45594000000E+02  0.51100000000E-03 0. -1.
    9900012    2    1    2    0    0  0.30372325319E+02 -0.28234375080E+02  0.17591346352E+02  0.46142317100E+02  0.99999939686E+01 0.  0.
         12    1    1    2    0    0 -0.30372325319E+02  0.28234375080E+02 -0.17591346352E+02  0.45045682900E+02  0.00000000000E+00 0. -1.
         11    1    3    3    0    0  0.34890968293E+01 -0.12333210087E+01  0.19555030273E+01  0.41855548910E+01  0.51100000000E-03 0. -1.
        -11    1    3    3    0    0  0.84453301180E+01 -0.67402634182E+01  0.88021909024E+00  0.10841104079E+02  0.51100000000E-03 0.  1.
        -12    1    3    3    0    0  0.18437898372E+02 -0.20260790654E+02  0.14755624234E+02  0.31115658129E+02  0.00000000000E+00 0.  1.
</event>
<event>
 7    1  0.2425980E-008  0.4614232E+02  0.7816164E-02  0.1320468E+00
        -11   -1    0    0    0    0  0.00000000000E+00  0.00000000000E+00  0.45593999997E+02  0.45594000000E+02  0.51100000000E-03 0. -1.
         11   -1    0    0    0    0 -0.00000000000E+00 -0.00000000000E+00 -0.45593999997E+02  0.45594000000E+02  0.51100000000E-03 0.  1.
    9900012    2    1    2    0    0 -0.14621743548E+02 -0.14391434562E+02 -0.40102428950E+02  0.46142316735E+02  0.99999906398E+01 0.  0.
         12    1    1    2    0    0  0.14621743548E+02  0.14391434562E+02  0.40102428950E+02  0.45045683265E+02  0.00000000000E+00 0. -1.
         11    1    3    3    0    0 -0.31699823524E+01 -0.12191764026E+01 -0.31523950436E+01  0.46338724613E+01  0.51100000000E-03 0. -1.
        -11    1    3    3    0    0 -0.32917658149E+01 -0.42406075966E+01 -0.49664760659E+01  0.73133001950E+01  0.51100000000E-03 0.  1.
        -12    1    3    3    0    0 -0.81599953808E+01 -0.89316505631E+01 -0.31983557841E+02  0.34195144078E+02  0.00000000000E+00 0.  1.
</event>
<event>
 7    1  0.2425980E-008  0.4614232E+02  0.7816164E-02  0.1320468E+00
        -11   -1    0    0    0    0  0.00000000000E+00  0.00000000000E+00  0.45593999997E+02  0.45594000000E+02  0.51100000000E-03 0.  1.
         11   -1    0    0    0    0 -0.00000000000E+00 -0.00000000000E+00 -0.45593999997E+02  0.45594000000E+02  0.51100000000E-03 0. -1.
    9900012    2    1    2    0    0  0.40813027057E+02  0.19029372087E+01  0.18968105225E+02  0.46142319148E+02  0.10000012645E+02 0.  0.
         12    1    1    2    0    0 -0.40813027057E+02 -0.19029372087E+01 -0.18968105225E+02  0.45045680852E+02  0.00000000000E+00 0. -1.
         11    1    3    3    0    0  0.85664930553E+01  0.32598351735E+01  0.16439384151E+01  0.93120278350E+01  0.51100000000E-03 0. -1.
        -11    1    3    3    0    0  0.18377097060E+02  0.48168376559E+00  0.82151133452E+01  0.20135486166E+02  0.51100000000E-03 0.  1.
         12    1    3    3    0    0  0.13869436942E+02 -0.18385817304E+01  0.91090534646E+01  0.16694805147E+02  0.00000000000E+00 0. -1.
</event>
<event>
 7    1  0.2425980E-008  0.4614232E+02  0.7816164E-02  0.1320468E+00
        -11   -1    0    0    0    0  0.00000000000E+00  0.00000000000E+00  0.45593999997E+02  0.45594000000E+02  0.51100000000E-03 0. -1.
         11   -1    0    0    0    0 -0.00000000000E+00 -0.00000000000E+00 -0.45593999997E+02  0.45594000000E+02  0.51100000000E-03 0.  1.
    9900012    2    1    2    0    0 -0.78356618857E+01  0.30404466915E+02 -0.32299913498E+02  0.46142316327E+02  0.99999869209E+01 0.  0.
         12    1    1    2    0    0  0.78356618857E+01 -0.30404466915E+02  0.32299913498E+02  0.45045683673E+02  0.00000000000E+00 0. -1.
         11    1    3    3    0    0 -0.19268151721E+01  0.20490347057E+02 -0.21588759300E+02  0.29826858158E+02  0.51100000000E-03 0. -1.
        -11    1    3    3    0    0 -0.46775637952E+00  0.21810201015E+01 -0.29888593115E+00  0.22505505492E+01  0.51100000000E-03 0.  1.
        -12    1    3    3    0    0 -0.54410903341E+01  0.77330997571E+01 -0.10412268267E+02  0.14064907620E+02  0.00000000000E+00 0.  1.
</event>
<event>
 7    1  0.2425980E-008  0.4614232E+02  0.7816164E-02  0.1320468E+00
        -11   -1    0    0    0    0  0.00000000000E+00  0.00000000000E+00  0.45593999997E+02  0.45594000000E+02  0.51100000000E-03 0.  1.
         11   -1    0    0    0    0 -0.00000000000E+00 -0.00000000000E+00 -0.45593999997E+02  0.45594000000E+02  0.51100000000E-03 0. -1.
    9900012    2    1    2    0    0  0.14112647045E+02  0.19791731880E+02  0.37924058107E+02  0.46142316070E+02  0.99999845781E+01 0.  0.
         12    1    1    2    0    0 -0.14112647045E+02 -0.19791731880E+02 -0.37924058107E+02  0.45045683930E+02  0.00000000000E+00 0. -1.
         11    1    3    3    0    0  0.28447770149E+01  0.20674862867E+01  0.75586451904E+01  0.83366883825E+01  0.51100000000E-03 0. -1.
        -11    1    3    3    0    0  0.48615311860E+01  0.10529082139E+02  0.22712469633E+02  0.25502006455E+02  0.51100000000E-03 0.  1.
        -12    1    3    3    0    0  0.64063388444E+01  0.71951634540E+01  0.76529432837E+01  0.12303621232E+02  0.00000000000E+00 0.  1.
</event>
<event>
 7    1  0.2425980E-008  0.4614232E+02  0.7816164E-02  0.1320468E+00
        -11   -1    0    0    0    0  0.00000000000E+00  0.00000000000E+00  0.45593999997E+02  0.45594000000E+02  0.51100000000E-03 0. -1.
         11   -1    0    0    0    0 -0.00000000000E+00 -0.00000000000E+00 -0.45593999997E+02  0.45594000000E+02  0.51100000000E-03 0.  1.
    9900012    2    1    2    0    0 -0.33933003982E+02  0.28410923153E+02  0.83954777562E+01  0.46142319181E+02  0.10000012949E+02 0.  0.
         12    1    1    2    0    0  0.33933003982E+02 -0.28410923153E+02 -0.83954777562E+01  0.45045680819E+02  0.00000000000E+00 0. -1.
         11    1    3    3    0    0 -0.62407212017E+01  0.77218808725E+01  0.42807449818E+01  0.10811975915E+02  0.51100000000E-03 0. -1.
        -11    1    3    3    0    0 -0.18900901520E+02  0.15925373445E+02  0.57197992862E+00  0.24722232078E+02  0.51100000000E-03 0.  1.
         12    1    3    3    0    0 -0.87913812608E+01  0.47636688353E+01  0.35427528458E+01  0.10608111188E+02  0.00000000000E+00 0. -1.
</event>
<event>
 7    1  0.2425980E-008  0.4614232E+02  0.7816164E-02  0.1320468E+00
        -11   -1    0    0    0    0  0.00000000000E+00  0.00000000000E+00  0.45593999997E+02  0.45594000000E+02  0.51100000000E-03 0.  1.
         11   -1    0    0    0    0 -0.00000000000E+00 -0.00000000000E+00 -0.45593999997E+02  0.45594000000E+02  0.51100000000E-03 0. -1.
    9900012    2    1    2    0    0 -0.13675119081E+02  0.82745951123E+01  0.42114553707E+02  0.46142318297E+02  0.10000004888E+02 0.  0.
         12    1    1    2    0    0  0.13675119081E+02 -0.82745951123E+01 -0.42114553707E+02  0.45045681703E+02  0.00000000000E+00 0. -1.
         11    1    3    3    0    0  0.44565872664E+00 -0.42483295466E+00  0.44707965389E+01  0.45129942049E+01  0.51100000000E-03 0.  1.
        -11    1    3    3    0    0 -0.36882227918E+01  0.42325715253E+01  0.71393860162E+01  0.90823169967E+01  0.51100000000E-03 0. -1.
        -12    1    3    3    0    0 -0.10432555016E+02  0.44668565417E+01  0.30504371152E+02  0.32547007096E+02  0.00000000000E+00 0.  1.
</event>
<event>
 7    1  0.2425980E-008  0.4614232E+02  0.7816164E-02  0.1320468E+00
        -11   -1    0    0    0    0  0.00000000000E+00  0.00000000000E+00  0.45593999997E+02  0.45594000000E+02  0.51100000000E-03 0.  1.
         11   -1    0    0    0    0 -0.00000000000E+00 -0.00000000000E+00 -0.45593999997E+02  0.45594000000E+02  0.51100000000E-03 0. -1.
    9900012    2    1    2    0    0 -0.16321355974E+02 -0.34526401948E+02  0.23888372424E+02  0.46142318416E+02  0.10000005970E+02 0.  0.
         12    1    1    2    0    0  0.16321355974E+02  0.34526401948E+02 -0.23888372424E+02  0.45045681584E+02  0.00000000000E+00 0. -1.
         11    1    3    3    0    0 -0.12995907113E+01 -0.55879654447E+01  0.58082880347E+01  0.81639759911E+01  0.51100000000E-03 0. -1.
        -11    1    3    3    0    0 -0.13542204592E+02 -0.22349527313E+02  0.16906047329E+02  0.31124060032E+02  0.51100000000E-03 0.  1.
         12    1    3    3    0    0 -0.14795606706E+01 -0.65889091905E+01  0.11740370605E+01  0.68542823926E+01  0.00000000000E+00 0. -1.
</event>
<event>
 7    1  0.2425980E-008  0.4614232E+02  0.7816164E-02  0.1320468E+00
        -11   -1    0    0    0    0  0.00000000000E+00  0.00000000000E+00  0.45593999997E+02  0.45594000000E+02  0.51100000000E-03 0.  1.
         11   -1    0    0    0    0 -0.00000000000E+00 -0.00000000000E+00 -0.45593999997E+02  0.45594000000E+02  0.51100000000E-03 0. -1.
    9900012    2    1    2    0    0  0.31158777107E+02 -0.24285128504E+02  0.21644318773E+02  0.46142318826E+02  0.10000009711E+02 0.  0.
         12    1    1    2    0    0 -0.31158777107E+02  0.24285128504E+02 -0.21644318773E+02  0.45045681174E+02  0.00000000000E+00 0. -1.
         11    1    3    3    0    0  0.14749965989E+01 -0.58158686519E+00 -0.81561972573E+00  0.17830014152E+01  0.51100000000E-03 0. -1.
        -11    1    3    3    0    0  0.15471718342E+02 -0.96987202274E+01  0.11745381029E+02  0.21711591795E+02  0.51100000000E-03 0.  1.
         12    1    3    3    0    0  0.14212062166E+02 -0.14004821411E+02  0.10714557470E+02  0.22647725616E+02  0.00000000000E+00 0. -1.
</event>
<event>
 7    1  0.2425980E-008  0.4614232E+02  0.7816164E-02  0.1320468E+00
        -11   -1    0    0    0    0  0.00000000000E+00  0.00000000000E+00  0.45593999997E+02  0.45594000000E+02  0.51100000000E-03 0.  1.
         11   -1    0    0    0    0 -0.00000000000E+00 -0.00000000000E+00 -0.45593999997E+02  0.45594000000E+02  0.51100000000E-03 0. -1.
    9900012    2    1    2    0    0  0.12332599083E+02  0.35837018828E+01  0.43176122781E+02  0.46142317657E+02  0.99999990552E+01 0.  0.
         12    1    1    2    0    0 -0.12332599083E+02 -0.35837018828E+01 -0.43176122781E+02  0.45045682343E+02  0.00000000000E+00 0. -1.
         11    1    3    3    0    0  0.11753186357E+01  0.34125006341E+01  0.78028731300E+01  0.85971718499E+01  0.51100000000E-03 0. -1.
        -11    1    3    3    0    0  0.14648985162E+01  0.61543765686E+00  0.13791094599E+02  0.13882326234E+02  0.51100000000E-03 0.  1.
         12    1    3    3    0    0  0.96923819314E+01 -0.44423640814E+00  0.21582155051E+02  0.23662819573E+02  0.00000000000E+00 0. -1.
</event>
<event>
 7    1  0.2425980E-008  0.4614232E+02  0.7816164E-02  0.1320468E+00
        -11   -1    0    0    0    0  0.00000000000E+00  0.00000000000E+00  0.45593999997E+02  0.45594000000E+02  0.51100000000E-03 0. -1.
         11   -1    0    0    0    0 -0.00000000000E+00 -0.00000000000E+00 -0.45593999997E+02  0.45594000000E+02  0.51100000000E-03 0.  1.
    9900012    2    1    2    0    0  0.33863940844E+02  0.27459543522E+02  0.11327860932E+02  0.46142318151E+02  0.10000003559E+02 0.  0.
         12    1    1    2    0    0 -0.33863940844E+02 -0.27459543522E+02 -0.11327860932E+02  0.45045681849E+02  0.00000000000E+00 0. -1.
         11    1    3    3    0    0  0.15285478886E+02  0.11702098605E+02  0.21547673421E+01  0.19370802748E+02  0.51100000000E-03 0. -1.
        -11    1    3    3    0    0  0.10514086258E+02  0.12449914262E+02  0.73011850131E+01  0.17856474395E+02  0.51100000000E-03 0.  1.
         12    1    3    3    0    0  0.80643756993E+01  0.33075306551E+01  0.18719085767E+01  0.89150410079E+01  0.00000000000E+00 0. -1.
</event>
<event>
 7    1  0.2425980E-008  0.4614230E+02  0.7816164E-02  0.1320468E+00
        -11   -1    0    0    0    0  0.00000000000E+00  0.00000000000E+00  0.45593999997E+02  0.45594000000E+02  0.51100000000E-03 0.  1.
         11   -1    0    0    0    0 -0.00000000000E+00 -0.00000000000E+00 -0.45593999997E+02  0.45594000000E+02  0.51100000000E-03 0. -1.
    9900012    2    1    2    0    0  0.24148551708E+02 -0.36133520820E+02  0.11846131350E+02  0.46142304263E+02  0.99998769136E+01 0.  0.
         12    1    1    2    0    0 -0.24148551708E+02  0.36133520820E+02 -0.11846131350E+02  0.45045695737E+02  0.00000000000E+00 0. -1.
         11    1    3    3    0    0  0.74966647236E+01 -0.11594437771E+02  0.61476036367E+01  0.15113702390E+02  0.51100000000E-03 0. -1.
        -11    1    3    3    0    0  0.11518526367E+02 -0.20164163181E+02  0.67936967285E+01  0.24195541778E+02  0.51100000000E-03 0.  1.
        -12    1    3    3    0    0  0.51333606175E+01 -0.43749198682E+01 -0.10951690151E+01  0.68330600945E+01  0.00000000000E+00 0.  1.
</event>
<event>
 7    1  0.2425980E-008  0.4614232E+02  0.7816164E-02  0.1320468E+00
        -11   -1    0    0    0    0  0.00000000000E+00  0.00000000000E+00  0.45593999997E+02  0.45594000000E+02  0.51100000000E-03 0.  1.
         11   -1    0    0    0    0 -0.00000000000E+00 -0.00000000000E+00 -0.45593999997E+02  0.45594000000E+02  0.51100000000E-03 0. -1.
    9900012    2    1    2    0    0 -0.24674647809E+02 -0.89074340448E+01  0.36618750230E+02  0.46142317697E+02  0.99999994139E+01 0.  0.
         12    1    1    2    0    0  0.24674647809E+02  0.89074340448E+01 -0.36618750230E+02  0.45045682303E+02  0.00000000000E+00 0. -1.
         11    1    3    3    0    0 -0.79740894847E+00  0.83680774817E+00  0.12421495044E+01  0.16967745551E+01  0.51100000000E-03 0. -1.
        -11    1    3    3    0    0 -0.19758742873E+01 -0.36247317193E+01  0.63094855797E+01  0.75400509135E+01  0.51100000000E-03 0.  1.
        -12    1    3    3    0    0 -0.21901364573E+02 -0.61195100737E+01  0.29067115146E+02  0.36905492228E+02  0.00000000000E+00 0.  1.
</event>
<event>
 7    1  0.2425980E-008  0.4614232E+02  0.7816164E-02  0.1320468E+00
        -11   -1    0    0    0    0  0.00000000000E+00  0.00000000000E+00  0.45593999997E+02  0.45594000000E+02  0.51100000000E-03 0.  1.
         11   -1    0    0    0    0 -0.00000000000E+00 -0.00000000000E+00 -0.45593999997E+02  0.45594000000E+02  0.51100000000E-03 0. -1.
    9900012    2    1    2    0    0  0.38617519544E+02  0.23025021913E+02 -0.27656751783E+01  0.46142318642E+02  0.10000008029E+02 0.  0.
         12    1    1    2    0    0 -0.38617519544E+02 -0.23025021913E+02  0.27656751783E+01  0.45045681358E+02  0.00000000000E+00 0. -1.
         11    1    3    3    0    0  0.65087566060E+01  0.41711200870E+01 -0.74604884975E+00  0.77665143072E+01  0.51100000000E-03 0.  1.
        -11    1    3    3    0    0  0.10205191671E+01 -0.10652629255E+00  0.14725470925E+01  0.17947708551E+01  0.51100000000E-03 0. -1.
         12    1    3    3    0    0  0.31088243771E+02  0.18960428119E+02 -0.34921734210E+01  0.36581033479E+02  0.00000000000E+00 0. -1.
</event>
<event>
 7    1  0.2425980E-008  0.4614232E+02  0.7816164E-02  0.1320468E+00
        -11   -1    0    0    0    0  0.00000000000E+00  0.00000000000E+00  0.45593999997E+02  0.45594000000E+02  0.51100000000E-03 0.  1.
         11   -1    0    0    0    0 -0.00000000000E+00 -0.00000000000E+00 -0.45593999997E+02  0.45594000000E+02  0.51100000000E-03 0. -1.
    9900012    2    1    2    0    0  0.23080993888E+02  0.17758240693E+02  0.34366059502E+02  0.46142318331E+02  0.10000005195E+02 0.  0.
         12    1    1    2    0    0 -0.23080993888E+02 -0.17758240693E+02 -0.34366059502E+02  0.45045681669E+02  0.00000000000E+00 0. -1.
         11    1    3    3    0    0  0.17398256414E+01 -0.48301390048E-01  0.25590837949E+00  0.17592088127E+01  0.51100000000E-03 0. -1.
        -11    1    3    3    0    0  0.13352068806E+02  0.12179745696E+02  0.26107843138E+02  0.31752849009E+02  0.51100000000E-03 0.  1.
        -12    1    3    3    0    0  0.79890994403E+01  0.56267963870E+01  0.80023079845E+01  0.12630260509E+02  0.00000000000E+00 0.  1.
</event>
<event>
 7    1  0.3152981E-008  0.4614232E+02  0.7816164E-02  0.1320468E+00
        -11   -1    0    0    0    0  0.00000000000E+00  0.00000000000E+00  0.45593999997E+02  0.45594000000E+02  0.51100000000E-03 0.  1.
         11   -1    0    0    0    0 -0.00000000000E+00 -0.00000000000E+00 -0.45593999997E+02  0.45594000000E+02  0.51100000000E-03 0. -1.
    9900012    2    1    2    0    0 -0.27756438662E+01  0.41648637400E+02  0.16935177856E+02  0.46142318240E+02  0.10000004369E+02 0.  0.
         12    1    1    2    0    0  0.27756438662E+01 -0.41648637400E+02 -0.16935177856E+02  0.45045681760E+02  0.00000000000E+00 0. -1.
         11    1    3    3    0    0 -0.15666770000E+01  0.13498291874E+01  0.55405044338E+00  0.21409081747E+01  0.51100000000E-03 0. -1.
        -11    1    3    3    0    0 -0.21522703217E+00  0.31589349233E+01 -0.47784437001E+00  0.32021130568E+01  0.51100000000E-03 0.  1.
        -12    1    3    3    0    0 -0.99373983403E+00  0.37139873290E+02  0.16858971783E+02  0.40799297009E+02  0.00000000000E+00 0.  1.
</event>
<event>
 7    1  0.2425980E-008  0.4614232E+02  0.7816164E-02  0.1320468E+00
        -11   -1    0    0    0    0  0.00000000000E+00  0.00000000000E+00  0.45593999997E+02  0.45594000000E+02  0.51100000000E-03 0.  1.
         11   -1    0    0    0    0 -0.00000000000E+00 -0.00000000000E+00 -0.45593999997E+02  0.45594000000E+02  0.51100000000E-03 0. -1.
    9900012    2    1    2    0    0 -0.15028431553E+02  0.11830837529E+02  0.40783465254E+02  0.46142317524E+02  0.99999978352E+01 0.  0.
         12    1    1    2    0    0  0.15028431553E+02 -0.11830837529E+02 -0.40783465254E+02  0.45045682476E+02  0.00000000000E+00 0. -1.
         11    1    3    3    0    0 -0.11387823716E+01  0.26799207254E+01  0.10311789135E+02  0.10715026636E+02  0.51100000000E-03 0. -1.
        -11    1    3    3    0    0 -0.29996672485E+01  0.44403523728E+01  0.50059845971E+01  0.73331176755E+01  0.51100000000E-03 0.  1.
        -12    1    3    3    0    0 -0.10889981933E+02  0.47105644310E+01  0.25465691523E+02  0.28094173213E+02  0.00000000000E+00 0.  1.
</event>
<event>
 7    1  0.2425980E-008  0.4614232E+02  0.7816164E-02  0.1320468E+00
        -11   -1    0    0    0    0  0.00000000000E+00  0.00000000000E+00  0.45593999997E+02  0.45594000000E+02  0.51100000000E-03 0.  1.
         11   -1    0    0    0    0 -0.00000000000E+00 -0.00000000000E+00 -0.45593999997E+02  0.45594000000E+02  0.51100000000E-03 0. -1.
    9900012    2    1    2    0    0 -0.18472714885E+02 -0.20464233759E+02  0.35624254246E+02  0.46142317087E+02  0.99999938523E+01 0.  0.
         12    1    1    2    0    0  0.18472714885E+02  0.20464233759E+02 -0.35624254246E+02  0.45045682913E+02  0.00000000000E+00 0. -1.
         11    1    3    3    0    0 -0.91865965637E+01 -0.49117646133E+01  0.14620875508E+02  0.17952409000E+02  0.51100000000E-03 0.  1.
        -11    1    3    3    0    0 -0.84926330591E+01 -0.15825414570E+02  0.19957746544E+02  0.26849212464E+02  0.51100000000E-03 0. -1.
         12    1    3    3    0    0 -0.79348526184E+00  0.27294542476E+00  0.10456321946E+01  0.13406956225E+01  0.00000000000E+00 0. -1.
</event>
<event>
 7    1  0.2425980E-008  0.4614232E+02  0.7816164E-02  0.1320468E+00
        -11   -1    0    0    0    0  0.00000000000E+00  0.00000000000E+00  0.45593999997E+02  0.45594000000E+02  0.51100000000E-03 0. -1.
         11   -1    0    0    0    0 -0.00000000000E+00 -0.00000000000E+00 -0.45593999997E+02  0.45594000000E+02  0.51100000000E-03 0.  1.
    9900012    2    1    2    0    0  0.28703724741E+02 -0.17585490065E+02 -0.29932593346E+02  0.46142318529E+02  0.10000006999E+02 0.  0.
         12    1    1    2    0    0 -0.28703724741E+02  0.17585490065E+02  0.29932593346E+02  0.45045681471E+02  0.00000000000E+00 0. -1.
         11    1    3    3    0    0  0.11942744370E+02 -0.70455897203E+01 -0.89288151053E+01  0.16492216862E+02  0.51100000000E-03 0. -1.
        -11    1    3    3    0    0  0.69422969755E+01 -0.70637784753E+01 -0.13798204743E+02  0.16984784603E+02  0.51100000000E-03 0.  1.
        -12    1    3    3    0    0  0.98186833953E+01 -0.34761218693E+01 -0.72055734982E+01  0.12665317063E+02  0.00000000000E+00 0.  1.
</event>
<event>
 7    1  0.2425980E-008  0.4614232E+02  0.7816164E-02  0.1320468E+00
        -11   -1    0    0    0    0  0.00000000000E+00  0.00000000000E+00  0.45593999997E+02  0.45594000000E+02  0.51100000000E-03 0.  1.
         11   -1    0    0    0    0 -0.00000000000E+00 -0.00000000000E+00 -0.45593999997E+02  0.45594000000E+02  0.51100000000E-03 0. -1.
    9900012    2    1    2    0    0 -0.63752102562E+01  0.61384116569E+00  0.44588041089E+02  0.46142317466E+02  0.99999973064E+01 0.  0.
         12    1    1    2    0    0  0.63752102562E+01 -0.61384116569E+00 -0.44588041089E+02  0.45045682534E+02  0.00000000000E+00 0. -1.
         11    1    3    3    0    0 -0.19521188646E+01  0.25016604012E+00  0.17805382860E+02  0.17913821763E+02  0.51100000000E-03 0. -1.
        -11    1    3    3    0    0 -0.31984947614E+01 -0.16117667892E+01  0.25112005784E+02  0.25366138761E+02  0.51100000000E-03 0.  1.
         12    1    3    3    0    0 -0.12245966302E+01  0.19754419147E+01  0.16706524461E+01  0.28623569416E+01  0.00000000000E+00 0. -1.
</event>
<event>
 7    1  0.2425980E-008  0.4614232E+02  0.7816164E-02  0.1320468E+00
        -11   -1    0    0    0    0  0.00000000000E+00  0.00000000000E+00  0.45593999997E+02  0.45594000000E+02  0.51100000000E-03 0.  1.
         11   -1    0    0    0    0 -0.00000000000E+00 -0.00000000000E+00 -0.45593999997E+02  0.45594000000E+02  0.51100000000E-03 0. -1.
    9900012    2    1    2    0    0  0.70254721906E+01  0.96420880980E+01  0.43437151598E+02  0.46142320281E+02  0.10000022977E+02 0.  0.
         12    1    1    2    0    0 -0.70254721906E+01 -0.96420880980E+01 -0.43437151598E+02  0.45045679719E+02  0.00000000000E+00 0. -1.
         11    1    3    3    0    0  0.27281530286E+01  0.12110315175E+00  0.12817302423E+02  0.13104988615E+02  0.51100000000E-03 0. -1.
        -11    1    3    3    0    0  0.51819056336E+01  0.39827754211E+01  0.19792599456E+02  0.20843743415E+02  0.51100000000E-03 0.  1.
        -12    1    3    3    0    0 -0.88458647159E+00  0.55382095252E+01  0.10827249718E+02  0.12193588251E+02  0.00000000000E+00 0.  1.
</event>
<event>
 7    1  0.2425980E-008  0.4614232E+02  0.7816164E-02  0.1320468E+00
        -11   -1    0    0    0    0  0.00000000000E+00  0.00000000000E+00  0.45593999997E+02  0.45594000000E+02  0.51100000000E-03 0. -1.
         11   -1    0    0    0    0 -0.00000000000E+00 -0.00000000000E+00 -0.45593999997E+02  0.45594000000E+02  0.51100000000E-03 0.  1.
    9900012    2    1    2    0    0  0.30106558726E+02 -0.22669004222E+02 -0.24674376249E+02  0.46142317920E+02  0.10000001452E+02 0.  0.
         12    1    1    2    0    0 -0.30106558726E+02  0.22669004222E+02  0.24674376249E+02  0.45045682080E+02  0.00000000000E+00 0. -1.
         11    1    3    3    0    0  0.25228106780E+01 -0.39180965761E+01 -0.19951700085E+01  0.50691969897E+01  0.51100000000E-03 0. -1.
        -11    1    3    3    0    0  0.18959730676E+02 -0.14181407258E+02 -0.11788287774E+02  0.26448958921E+02  0.51100000000E-03 0.  1.
        -12    1    3    3    0    0  0.86240173728E+01 -0.45695003876E+01 -0.10890918466E+02  0.14624162009E+02  0.00000000000E+00 0.  1.
</event>
<event>
 7    1  0.2425980E-008  0.4614233E+02  0.7816164E-02  0.1320468E+00
        -11   -1    0    0    0    0  0.00000000000E+00  0.00000000000E+00  0.45593999997E+02  0.45594000000E+02  0.51100000000E-03 0.  1.
         11   -1    0    0    0    0 -0.00000000000E+00 -0.00000000000E+00 -0.45593999997E+02  0.45594000000E+02  0.51100000000E-03 0. -1.
    9900012    2    1    2    0    0  0.81371373212E+01  0.44096285777E+02  0.42914840802E+01  0.46142331410E+02  0.10000124462E+02 0.  0.
         12    1    1    2    0    0 -0.81371373212E+01 -0.44096285777E+02 -0.42914840802E+01  0.45045668590E+02  0.00000000000E+00 0. -1.
         11    1    3    3    0    0  0.25432137954E+01  0.20365320681E+02 -0.14801998739E+00  0.20524037931E+02  0.51100000000E-03 0. -1.
        -11    1    3    3    0    0 -0.49350330083E+00  0.93898591974E+01  0.34196327083E+01  0.10005343041E+02  0.51100000000E-03 0.  1.
         12    1    3    3    0    0  0.60874268267E+01  0.14341105899E+02  0.10198713593E+01  0.15612950437E+02  0.00000000000E+00 0. -1.
</event>
<event>
 7    1  0.2425980E-008  0.4614232E+02  0.7816164E-02  0.1320468E+00
        -11   -1    0    0    0    0  0.00000000000E+00  0.00000000000E+00  0.45593999997E+02  0.45594000000E+02  0.51100000000E-03 0. -1.
         11   -1    0    0    0    0 -0.00000000000E+00 -0.00000000000E+00 -0.45593999997E+02  0.45594000000E+02  0.51100000000E-03 0.  1.
    9900012    2    1    2    0    0 -0.26157965445E+02  0.67346109653E+01 -0.36048845796E+02  0.46142318472E+02  0.10000006483E+02 0.  0.
         12    1    1    2    0    0  0.26157965445E+02 -0.67346109653E+01  0.36048845796E+02  0.45045681528E+02  0.00000000000E+00 0. -1.
         11    1    3    3    0    0 -0.10341355262E+02  0.24720711131E+01 -0.12481196533E+02  0.16396189539E+02  0.51100000000E-03 0. -1.
        -11    1    3    3    0    0 -0.10276884132E+02  0.58793966948E+01 -0.12217769413E+02  0.17013393037E+02  0.51100000000E-03 0.  1.
         12    1    3    3    0    0 -0.55397260511E+01 -0.16168568425E+01 -0.11349879851E+02  0.12732735896E+02  0.00000000000E+00 0. -1.
</event>
<event>
 7    1  0.2425980E-008  0.4614232E+02  0.7816164E-02  0.1320468E+00
        -11   -1    0    0    0    0  0.00000000000E+00  0.00000000000E+00  0.45593999997E+02  0.45594000000E+02  0.51100000000E-03 0.  1.
         11   -1    0    0    0    0 -0.00000000000E+00 -0.00000000000E+00 -0.45593999997E+02  0.45594000000E+02  0.51100000000E-03 0. -1.
    9900012    2    1    2    0    0  0.18079104046E+02 -0.32718573155E+02  0.25134724799E+02  0.46142318485E+02  0.10000006604E+02 0.  0.
         12    1    1    2    0    0 -0.18079104046E+02  0.32718573155E+02 -0.25134724799E+02  0.45045681515E+02  0.00000000000E+00 0. -1.
         11    1    3    3    0    0  0.62079733709E+01 -0.14948343221E+02  0.13406481967E+02  0.21017270456E+02  0.51100000000E-03 0. -1.
        -11    1    3    3    0    0  0.25913622512E+01 -0.13592524665E+01  0.84550485703E-02  0.29262257831E+01  0.51100000000E-03 0.  1.
        -12    1    3    3    0    0  0.92797684244E+01 -0.16410977467E+02  0.11719787783E+02  0.22198822246E+02  0.00000000000E+00 0.  1.
</event>
<event>
 7    1  0.2425980E-008  0.4614232E+02  0.7816164E-02  0.1320468E+00
        -11   -1    0    0    0    0  0.00000000000E+00  0.00000000000E+00  0.45593999997E+02  0.45594000000E+02  0.51100000000E-03 0. -1.
         11   -1    0    0    0    0 -0.00000000000E+00 -0.00000000000E+00 -0.45593999997E+02  0.45594000000E+02  0.51100000000E-03 0.  1.
    9900012    2    1    2    0    0 -0.32704847527E+02 -0.30369598082E+02 -0.60986844851E+01  0.46142317723E+02  0.99999996480E+01 0.  0.
         12    1    1    2    0    0  0.32704847527E+02  0.30369598082E+02  0.60986844851E+01  0.45045682277E+02  0.00000000000E+00 0. -1.
         11    1    3    3    0    0 -0.88605887413E+01 -0.73568910907E+01  0.74354547190E+00  0.11540655939E+02  0.51100000000E-03 0. -1.
        -11    1    3    3    0    0 -0.55766177112E+01 -0.32610951074E+01  0.10924269783E+01  0.65518549557E+01  0.51100000000E-03 0.  1.
        -12    1    3    3    0    0 -0.18267641074E+02 -0.19751611884E+02 -0.79346569352E+01  0.28049806828E+02  0.00000000000E+00 0.  1.
</event>
<event>
 7    1  0.2425980E-008  0.4614232E+02  0.7816164E-02  0.1320468E+00
        -11   -1    0    0    0    0  0.00000000000E+00  0.00000000000E+00  0.45593999997E+02  0.45594000000E+02  0.51100000000E-03 0. -1.
         11   -1    0    0    0    0 -0.00000000000E+00 -0.00000000000E+00 -0.45593999997E+02  0.45594000000E+02  0.51100000000E-03 0.  1.
    9900012    2    1    2    0    0 -0.23821890578E+02  0.79732779982E+01 -0.37390612175E+02  0.46142317504E+02  0.99999976510E+01 0.  0.
         12    1    1    2    0    0  0.23821890578E+02 -0.79732779982E+01  0.37390612175E+02  0.45045682496E+02  0.00000000000E+00 0. -1.
         11    1    3    3    0    0 -0.27842191728E+01 -0.14832394610E+01 -0.59362498225E+01  0.67224205401E+01  0.51100000000E-03 0. -1.
        -11    1    3    3    0    0 -0.12672946296E+02  0.33921326621E+01 -0.14399330196E+02  0.19479497996E+02  0.51100000000E-03 0.  1.
        -12    1    3    3    0    0 -0.83647251089E+01  0.60643847970E+01 -0.17055032157E+02  0.19940398968E+02  0.00000000000E+00 0.  1.
</event>
<event>
 7    1  0.2425980E-008  0.4614232E+02  0.7816164E-02  0.1320468E+00
        -11   -1    0    0    0    0  0.00000000000E+00  0.00000000000E+00  0.45593999997E+02  0.45594000000E+02  0.51100000000E-03 0.  1.
         11   -1    0    0    0    0 -0.00000000000E+00 -0.00000000000E+00 -0.45593999997E+02  0.45594000000E+02  0.51100000000E-03 0. -1.
    9900012    2    1    2    0    0 -0.31393434206E+02  0.31338175016E+02  0.78412010576E+01  0.46142319201E+02  0.10000013133E+02 0.  0.
         12    1    1    2    0    0  0.31393434206E+02 -0.31338175016E+02 -0.78412010576E+01  0.45045680799E+02  0.00000000000E+00 0. -1.
         11    1    3    3    0    0 -0.13096523982E+01  0.25206843080E+01 -0.40632091006E+00  0.28695183791E+01  0.51100000000E-03 0. -1.
        -11    1    3    3    0    0 -0.12189442547E+02  0.12346613951E+02 -0.68527823079E+00  0.17363495966E+02  0.51100000000E-03 0.  1.
        -12    1    3    3    0    0 -0.17894339260E+02  0.16470876757E+02  0.89328001985E+01  0.25909304856E+02  0.00000000000E+00 0.  1.
</event>
<event>
 7    1  0.2425980E-008  0.4614232E+02  0.7816164E-02  0.1320468E+00
        -11   -1    0    0    0    0  0.00000000000E+00  0.00000000000E+00  0.45593999997E+02  0.45594000000E+02  0.51100000000E-03 0.  1.
         11   -1    0    0    0    0 -0.00000000000E+00 -0.00000000000E+00 -0.45593999997E+02  0.45594000000E+02  0.51100000000E-03 0. -1.
    9900012    2    1    2    0    0  0.30830137387E+02  0.13476748647E+02  0.29949847523E+02  0.46142317720E+02  0.99999996214E+01 0.  0.
         12    1    1    2    0    0 -0.30830137387E+02 -0.13476748647E+02 -0.29949847523E+02  0.45045682280E+02  0.00000000000E+00 0. -1.
         11    1    3    3    0    0  0.16949050360E+02  0.60863076913E+01  0.14485426707E+02  0.23111491440E+02  0.51100000000E-03 0. -1.
        -11    1    3    3    0    0  0.83110349097E+01  0.75932244525E+01  0.12069136769E+02  0.16504375828E+02  0.51100000000E-03 0.  1.
        -12    1    3    3    0    0  0.55700521178E+01 -0.20278349639E+00  0.33952840471E+01  0.65264504520E+01  0.00000000000E+00 0.  1.
</event>
<event>
 7    1  0.2425980E-008  0.4614232E+02  0.7816164E-02  0.1320468E+00
        -11   -1    0    0    0    0  0.00000000000E+00  0.00000000000E+00  0.45593999997E+02  0.45594000000E+02  0.51100000000E-03 0.  1.
         11   -1    0    0    0    0 -0.00000000000E+00 -0.00000000000E+00 -0.45593999997E+02  0.45594000000E+02  0.51100000000E-03 0. -1.
    9900012    2    1    2    0    0  0.24500639254E+02  0.79330457539E+01  0.36958070316E+02  0.46142317630E+02  0.99999988001E+01 0.  0.
         12    1    1    2    0    0 -0.24500639254E+02 -0.79330457539E+01 -0.36958070316E+02  0.45045682370E+02  0.00000000000E+00 0. -1.
         11    1    3    3    0    0  0.94421514206E+01 -0.59502020492E+00  0.10324786412E+02  0.14003909711E+02  0.51100000000E-03 0. -1.
        -11    1    3    3    0    0  0.70536928349E+01  0.12401232448E+01  0.10627485204E+02  0.12815456695E+02  0.51100000000E-03 0.  1.
         12    1    3    3    0    0  0.80047949980E+01  0.72879427140E+01  0.16005798700E+02  0.19322951223E+02  0.00000000000E+00 0. -1.
</event>
<event>
 7    1  0.2425980E-008  0.4614232E+02  0.7816164E-02  0.1320468E+00
        -11   -1    0    0    0    0  0.00000000000E+00  0.00000000000E+00  0.45593999997E+02  0.45594000000E+02  0.51100000000E-03 0. -1.
         11   -1    0    0    0    0 -0.00000000000E+00 -0.00000000000E+00 -0.45593999997E+02  0.45594000000E+02  0.51100000000E-03 0.  1.
    9900012    2    1    2    0    0 -0.38232461583E+02 -0.45948748969E+00 -0.23815566798E+02  0.46142317972E+02  0.10000001922E+02 0.  0.
         12    1    1    2    0    0  0.38232461583E+02  0.45948748969E+00  0.23815566798E+02  0.45045682028E+02  0.00000000000E+00 0. -1.
         11    1    3    3    0    0 -0.42978901482E+01 -0.15611834170E+01 -0.29333852847E+01  0.54326699584E+01  0.51100000000E-03 0. -1.
        -11    1    3    3    0    0 -0.24182471611E+02 -0.14890451978E+01 -0.11078553770E+02  0.26641012419E+02  0.51100000000E-03 0.  1.
        -12    1    3    3    0    0 -0.97520998239E+01  0.25907411252E+01 -0.98036277434E+01  0.14068635594E+02  0.00000000000E+00 0.  1.
</event>
<event>
 7    1  0.2425980E-008  0.4614232E+02  0.7816164E-02  0.1320468E+00
        -11   -1    0    0    0    0  0.00000000000E+00  0.00000000000E+00  0.45593999997E+02  0.45594000000E+02  0.51100000000E-03 0.  1.
         11   -1    0    0    0    0 -0.00000000000E+00 -0.00000000000E+00 -0.45593999997E+02  0.45594000000E+02  0.51100000000E-03 0. -1.
    9900012    2    1    2    0    0 -0.27337642535E+02 -0.27939996117E+02  0.22385785114E+02  0.46142318103E+02  0.10000003116E+02 0.  0.
         12    1    1    2    0    0  0.27337642535E+02  0.27939996117E+02 -0.22385785114E+02  0.45045681897E+02  0.00000000000E+00 0. -1.
         11    1    3    3    0    0 -0.17975133820E+02 -0.16014477417E+02  0.13018420061E+02  0.27368744654E+02  0.51100000000E-03 0. -1.
        -11    1    3    3    0    0 -0.83059459370E+01 -0.69286237862E+01  0.44896171629E+01  0.11711158269E+02  0.51100000000E-03 0.  1.
         12    1    3    3    0    0 -0.10565627780E+01 -0.49968949138E+01  0.48777478901E+01  0.70624151791E+01  0.00000000000E+00 0. -1.
</event>
<event>
 7    1  0.2425980E-008  0.4614232E+02  0.7816164E-02  0.1320468E+00
        -11   -1    0    0    0    0  0.00000000000E+00  0.00000000000E+00  0.45593999997E+02  0.45594000000E+02  0.51100000000E-03 0.  1.
         11   -1    0    0    0    0 -0.00000000000E+00 -0.00000000000E+00 -0.45593999997E+02  0.45594000000E+02  0.51100000000E-03 0. -1.
    9900012    2    1    2    0    0  0.14929218522E+02 -0.18395804702E+02  0.38312221337E+02  0.46142317631E+02  0.99999988143E+01 0.  0.
         12    1    1    2    0    0 -0.14929218522E+02  0.18395804702E+02 -0.38312221337E+02  0.45045682369E+02  0.00000000000E+00 0. -1.
         11    1    3    3    0    0  0.12801806977E+01 -0.54522889850E+01  0.63160453732E+01  0.84414896323E+01  0.51100000000E-03 0. -1.
        -11    1    3    3    0    0  0.57123167926E+01 -0.14404312629E+01  0.11011753186E+02  0.12488559318E+02  0.51100000000E-03 0.  1.
        -12    1    3    3    0    0  0.79367210321E+01 -0.11503084454E+02  0.20984422778E+02  0.25212268680E+02  0.00000000000E+00 0.  1.
</event>
<event>
 7    1  0.2425980E-008  0.4614232E+02  0.7816164E-02  0.1320468E+00
        -11   -1    0    0    0    0  0.00000000000E+00  0.00000000000E+00  0.45593999997E+02  0.45594000000E+02  0.51100000000E-03 0. -1.
         11   -1    0    0    0    0 -0.00000000000E+00 -0.00000000000E+00 -0.45593999997E+02  0.45594000000E+02  0.51100000000E-03 0.  1.
    9900012    2    1    2    0    0 -0.13695462426E+00 -0.44957169935E+02  0.28191480620E+01  0.46142317844E+02  0.10000000752E+02 0.  0.
         12    1    1    2    0    0  0.13695462426E+00  0.44957169935E+02 -0.28191480620E+01  0.45045682156E+02  0.00000000000E+00 0. -1.
         11    1    3    3    0    0  0.25792595856E+01 -0.13491376157E+02  0.32942047473E+00  0.13739662614E+02  0.51100000000E-03 0. -1.
        -11    1    3    3    0    0  0.21649814430E+01 -0.77048854890E+01  0.13703286318E+01  0.81197417365E+01  0.51100000000E-03 0.  1.
        -12    1    3    3    0    0 -0.48811956529E+01 -0.23760908289E+02  0.11193989555E+01  0.24282913494E+02  0.00000000000E+00 0.  1.
</event>
<event>
 7    1  0.2425980E-008  0.4614232E+02  0.7816164E-02  0.1320468E+00
        -11   -1    0    0    0    0  0.00000000000E+00  0.00000000000E+00  0.45593999997E+02  0.45594000000E+02  0.51100000000E-03 0.  1.
         11   -1    0    0    0    0 -0.00000000000E+00 -0.00000000000E+00 -0.45593999997E+02  0.45594000000E+02  0.51100000000E-03 0. -1.
    9900012    2    1    2    0    0  0.95127760263E+01  0.19817361945E+02  0.39317843342E+02  0.46142317108E+02  0.99999940424E+01 0.  0.
         12    1    1    2    0    0 -0.95127760263E+01 -0.19817361945E+02 -0.39317843342E+02  0.45045682892E+02  0.00000000000E+00 0. -1.
         11    1    3    3    0    0  0.51847066830E+01  0.38247578322E+01  0.13955910329E+02  0.15371317095E+02  0.51100000000E-03 0. -1.
        -11    1    3    3    0    0  0.62275276474E+00  0.11088598958E+02  0.18324152146E+02  0.21427071662E+02  0.51100000000E-03 0.  1.
         12    1    3    3    0    0  0.37053165785E+01  0.49040051546E+01  0.70377808667E+01  0.93439283511E+01  0.00000000000E+00 0. -1.
</event>
<event>
 7    1  0.2425980E-008  0.4614232E+02  0.7816164E-02  0.1320468E+00
        -11   -1    0    0    0    0  0.00000000000E+00  0.00000000000E+00  0.45593999997E+02  0.45594000000E+02  0.51100000000E-03 0.  1.
         11   -1    0    0    0    0 -0.00000000000E+00 -0.00000000000E+00 -0.45593999997E+02  0.45594000000E+02  0.51100000000E-03 0. -1.
    9900012    2    1    2    0    0  0.11822372772E+02 -0.36844401063E+02  0.23061550891E+02  0.46142317441E+02  0.99999970851E+01 0.  0.
         12    1    1    2    0    0 -0.11822372772E+02  0.36844401063E+02 -0.23061550891E+02  0.45045682559E+02  0.00000000000E+00 0. -1.
         11    1    3    3    0    0  0.64056250157E+01 -0.13450888784E+02  0.48226919865E+01  0.15659399707E+02  0.51100000000E-03 0. -1.
        -11    1    3    3    0    0 -0.35762281586E+00 -0.11279019066E+01  0.20083939527E+01  0.23310305274E+01  0.51100000000E-03 0.  1.
        -12    1    3    3    0    0  0.57743705717E+01 -0.22265610372E+02  0.16230464952E+02  0.28151887207E+02  0.00000000000E+00 0.  1.
</event>
<event>
 7    1  0.2425980E-008  0.4614232E+02  0.7816164E-02  0.1320468E+00
        -11   -1    0    0    0    0  0.00000000000E+00  0.00000000000E+00  0.45593999997E+02  0.45594000000E+02  0.51100000000E-03 0.  1.
         11   -1    0    0    0    0 -0.00000000000E+00 -0.00000000000E+00 -0.45593999997E+02  0.45594000000E+02  0.51100000000E-03 0. -1.
    9900012    2    1    2    0    0  0.12984545859E+02 -0.33284153967E+02  0.27435018770E+02  0.46142316618E+02  0.99999895733E+01 0.  0.
         12    1    1    2    0    0 -0.12984545859E+02  0.33284153967E+02 -0.27435018770E+02  0.45045683382E+02  0.00000000000E+00 0. -1.
         11    1    3    3    0    0  0.74905068763E-01 -0.55887214846E+01  0.37645794014E+01  0.67388038206E+01  0.51100000000E-03 0. -1.
        -11    1    3    3    0    0  0.81939305834E+01 -0.18444535558E+02  0.10878600442E+02  0.22927828903E+02  0.51100000000E-03 0.  1.
         12    1    3    3    0    0  0.47157102066E+01 -0.92508969243E+01  0.12791838927E+02  0.16475683894E+02  0.00000000000E+00 0. -1.
</event>
<event>
 7    1  0.2425980E-008  0.4614232E+02  0.7816164E-02  0.1320468E+00
        -11   -1    0    0    0    0  0.00000000000E+00  0.00000000000E+00  0.45593999997E+02  0.45594000000E+02  0.51100000000E-03 0.  1.
         11   -1    0    0    0    0 -0.00000000000E+00 -0.00000000000E+00 -0.45593999997E+02  0.45594000000E+02  0.51100000000E-03 0. -1.
    9900012    2    1    2    0    0  0.19461837658E+02 -0.27507338796E+02  0.29894759525E+02  0.46142318079E+02  0.10000002897E+02 0.  0.
         12    1    1    2    0    0 -0.19461837658E+02  0.27507338796E+02 -0.29894759525E+02  0.45045681921E+02  0.00000000000E+00 0. -1.
         11    1    3    3    0    0  0.48848027079E+01 -0.87227390731E+01  0.63845175908E+01  0.11862105191E+02  0.51100000000E-03 0.  1.
        -11    1    3    3    0    0  0.20282775802E+01 -0.56939913303E+01  0.99300780721E+01  0.11625054752E+02  0.51100000000E-03 0. -1.
        -12    1    3    3    0    0  0.12548757370E+02 -0.13090608393E+02  0.13580163863E+02  0.22655158136E+02  0.00000000000E+00 0.  1.
</event>
<event>
 7    1  0.2425980E-008  0.4614232E+02  0.7816164E-02  0.1320468E+00
        -11   -1    0    0    0    0  0.00000000000E+00  0.00000000000E+00  0.45593999997E+02  0.45594000000E+02  0.51100000000E-03 0. -1.
         11   -1    0    0    0    0 -0.00000000000E+00 -0.00000000000E+00 -0.45593999997E+02  0.45594000000E+02  0.51100000000E-03 0.  1.
    9900012    2    1    2    0    0  0.39058794881E+02  0.20622800940E+02 -0.88444355509E+01  0.46142318560E+02  0.10000007289E+02 0.  0.
         12    1    1    2    0    0 -0.39058794881E+02 -0.20622800940E+02  0.88444355509E+01  0.45045681440E+02  0.00000000000E+00 0. -1.
         11    1    3    3    0    0  0.59297238671E+01  0.15455643843E+01  0.98713736370E+00  0.62068377490E+01  0.51100000000E-03 0. -1.
        -11    1    3    3    0    0  0.12000727666E+02  0.39875857863E+01 -0.45549066944E+01  0.13441185966E+02  0.51100000000E-03 0.  1.
        -12    1    3    3    0    0  0.21128343347E+02  0.15089650770E+02 -0.52766662203E+01  0.26494294846E+02  0.00000000000E+00 0.  1.
</event>
<event>
 7    1  0.2425980E-008  0.4614232E+02  0.7816164E-02  0.1320468E+00
        -11   -1    0    0    0    0  0.00000000000E+00  0.00000000000E+00  0.45593999997E+02  0.45594000000E+02  0.51100000000E-03 0.  1.
         11   -1    0    0    0    0 -0.00000000000E+00 -0.00000000000E+00 -0.45593999997E+02  0.45594000000E+02  0.51100000000E-03 0. -1.
    9900012    2    1    2    0    0  0.31349533444E+02  0.14820341998E+02  0.28752003328E+02  0.46142317860E+02  0.10000000899E+02 0.  0.
         12    1    1    2    0    0 -0.31349533444E+02 -0.14820341998E+02 -0.28752003328E+02  0.45045682140E+02  0.00000000000E+00 0. -1.
         11    1    3    3    0    0  0.49755979856E+00  0.11097490307E+01 -0.14337452754E+00  0.12246081743E+01  0.51100000000E-03 0. -1.
        -11    1    3    3    0    0  0.14465472901E+02  0.74154820112E+01  0.98059335534E+01  0.18984088412E+02  0.51100000000E-03 0.  1.
        -12    1    3    3    0    0  0.16386500745E+02  0.62951109564E+01  0.19089444302E+02  0.25933621274E+02  0.00000000000E+00 0.  1.
</event>
<event>
 7    1  0.2425980E-008  0.4614232E+02  0.7816164E-02  0.1320468E+00
        -11   -1    0    0    0    0  0.00000000000E+00  0.00000000000E+00  0.45593999997E+02  0.45594000000E+02  0.51100000000E-03 0.  1.
         11   -1    0    0    0    0 -0.00000000000E+00 -0.00000000000E+00 -0.45593999997E+02  0.45594000000E+02  0.51100000000E-03 0. -1.
    9900012    2    1    2    0    0 -0.31470189047E+02 -0.31269679662E+02 -0.78069109490E+01  0.46142317373E+02  0.99999964565E+01 0.  0.
         12    1    1    2    0    0  0.31470189047E+02  0.31269679662E+02  0.78069109490E+01  0.45045682627E+02  0.00000000000E+00 0. -1.
         11    1    3    3    0    0 -0.17187484804E+01 -0.14103771047E+01  0.43565209794E+00  0.22656241807E+01  0.51100000000E-03 0. -1.
        -11    1    3    3    0    0 -0.20599983406E+02 -0.15480103445E+02 -0.74085585863E+01  0.26811931292E+02  0.51100000000E-03 0.  1.
        -12    1    3    3    0    0 -0.91514571597E+01 -0.14379199112E+02 -0.83400446063E+00  0.17064761900E+02  0.00000000000E+00 0.  1.
</event>
<event>
 7    1  0.2425980E-008  0.4614232E+02  0.7816164E-02  0.1320468E+00
        -11   -1    0    0    0    0  0.00000000000E+00  0.00000000000E+00  0.45593999997E+02  0.45594000000E+02  0.51100000000E-03 0. -1.
         11   -1    0    0    0    0 -0.00000000000E+00 -0.00000000000E+00 -0.45593999997E+02  0.45594000000E+02  0.51100000000E-03 0.  1.
    9900012    2    1    2    0    0 -0.98800708457E+01 -0.38442907996E+02 -0.21298839619E+02  0.46142317142E+02  0.99999943501E+01 0.  0.
         12    1    1    2    0    0  0.98800708457E+01  0.38442907996E+02  0.21298839619E+02  0.45045682858E+02  0.00000000000E+00 0. -1.
         11    1    3    3    0    0 -0.74663582554E+01 -0.25975211414E+02 -0.10958051582E+02  0.29163967637E+02  0.51100000000E-03 0.  1.
        -11    1    3    3    0    0  0.10464035209E+01 -0.13389752516E+01 -0.64294704047E+00  0.18169194288E+01  0.51100000000E-03 0. -1.
        -12    1    3    3    0    0 -0.34601161112E+01 -0.11128721330E+02 -0.96978409966E+01  0.15161430075E+02  0.00000000000E+00 0.  1.
</event>
<event>
 7    1  0.2425980E-008  0.4614232E+02  0.7816164E-02  0.1320468E+00
        -11   -1    0    0    0    0  0.00000000000E+00  0.00000000000E+00  0.45593999997E+02  0.45594000000E+02  0.51100000000E-03 0.  1.
         11   -1    0    0    0    0 -0.00000000000E+00 -0.00000000000E+00 -0.45593999997E+02  0.45594000000E+02  0.51100000000E-03 0. -1.
    9900012    2    1    2    0    0  0.12613963624E+02  0.16956515926E+00  0.43243180735E+02  0.46142317513E+02  0.99999977394E+01 0.  0.
         12    1    1    2    0    0 -0.12613963624E+02 -0.16956515926E+00 -0.43243180735E+02  0.45045682487E+02  0.00000000000E+00 0. -1.
         11    1    3    3    0    0  0.62978629070E+01  0.25881162494E+01  0.17512238975E+02  0.18789357016E+02  0.51100000000E-03 0. -1.
        -11    1    3    3    0    0  0.46925370139E+01 -0.96676601883E+00  0.69220728059E+01  0.84184103222E+01  0.51100000000E-03 0.  1.
         12    1    3    3    0    0  0.16235637035E+01 -0.14517850713E+01  0.18808868954E+02  0.18934550175E+02  0.00000000000E+00 0. -1.
</event>
<event>
 7    1  0.2425980E-008  0.4614232E+02  0.7816164E-02  0.1320468E+00
        -11   -1    0    0    0    0  0.00000000000E+00  0.00000000000E+00  0.45593999997E+02  0.45594000000E+02  0.51100000000E-03 0.  1.
         11   -1    0    0    0    0 -0.00000000000E+00 -0.00000000000E+00 -0.45593999997E+02  0.45594000000E+02  0.51100000000E-03 0. -1.
    9900012    2    1    2    0    0 -0.37649881810E+02  0.17653586748E+01  0.24667454791E+02  0.46142318549E+02  0.10000007183E+02 0.  0.
         12    1    1    2    0    0  0.37649881810E+02 -0.17653586748E+01 -0.24667454791E+02  0.45045681451E+02  0.00000000000E+00 0. -1.
         11    1    3    3    0    0 -0.52278615793E+01  0.69166502704E+00  0.73518063595E+01  0.90475407825E+01  0.51100000000E-03 0. -1.
        -11    1    3    3    0    0 -0.63143874084E+01  0.15328725576E+01  0.18900240337E+01  0.67670804436E+01  0.51100000000E-03 0.  1.
         12    1    3    3    0    0 -0.26107632822E+02 -0.45917890984E+00  0.15425624398E+02  0.30327697323E+02  0.00000000000E+00 0. -1.
</event>
<event>
 7    1  0.2425980E-008  0.4614232E+02  0.7816164E-02  0.1320468E+00
        -11   -1    0    0    0    0  0.00000000000E+00  0.00000000000E+00  0.45593999997E+02  0.45594000000E+02  0.51100000000E-03 0. -1.
         11   -1    0    0    0    0 -0.00000000000E+00 -0.00000000000E+00 -0.45593999997E+02  0.45594000000E+02  0.51100000000E-03 0.  1.
    9900012    2    1    2    0    0  0.29931626657E+02  0.21411963980E+01 -0.33595036965E+02  0.46142317576E+02  0.99999983124E+01 0.  0.
         12    1    1    2    0    0 -0.29931626657E+02 -0.21411963980E+01  0.33595036965E+02  0.45045682424E+02  0.00000000000E+00 0. -1.
         11    1    3    3    0    0  0.68411430953E+00 -0.69726472462E+00  0.14301096713E-01  0.97693155707E+00  0.51100000000E-03 0. -1.
        -11    1    3    3    0    0  0.26310236438E+02  0.36524048963E+01 -0.26941922388E+02  0.37834320202E+02  0.51100000000E-03 0.  1.
        -12    1    3    3    0    0  0.29372759088E+01 -0.81394377367E+00 -0.66674156746E+01  0.73310658167E+01  0.00000000000E+00 0.  1.
</event>
<event>
 7    1  0.2425980E-008  0.4614232E+02  0.7816164E-02  0.1320468E+00
        -11   -1    0    0    0    0  0.00000000000E+00  0.00000000000E+00  0.45593999997E+02  0.45594000000E+02  0.51100000000E-03 0.  1.
         11   -1    0    0    0    0 -0.00000000000E+00 -0.00000000000E+00 -0.45593999997E+02  0.45594000000E+02  0.51100000000E-03 0. -1.
    9900012    2    1    2    0    0 -0.42224899226E+02 -0.11321824096E+02  0.10862214419E+02  0.46142317437E+02  0.99999970473E+01 0.  0.
         12    1    1    2    0    0  0.42224899226E+02  0.11321824096E+02 -0.10862214419E+02  0.45045682563E+02  0.00000000000E+00 0. -1.
         11    1    3    3    0    0 -0.13096669795E+02 -0.91860607778E+00  0.52412544642E+01  0.14136383747E+02  0.51100000000E-03 0.  1.
        -11    1    3    3    0    0 -0.19194456771E+01  0.79561687154E+00  0.20010374554E+00  0.20874193838E+01  0.51100000000E-03 0. -1.
        -12    1    3    3    0    0 -0.27208783754E+02 -0.11198834890E+02  0.54208562088E+01  0.29918514306E+02  0.00000000000E+00 0.  1.
</event>
<event>
 7    1  0.2425980E-008  0.4614232E+02  0.7816164E-02  0.1320468E+00
        -11   -1    0    0    0    0  0.00000000000E+00  0.00000000000E+00  0.45593999997E+02  0.45594000000E+02  0.51100000000E-03 0. -1.
         11   -1    0    0    0    0 -0.00000000000E+00 -0.00000000000E+00 -0.45593999997E+02  0.45594000000E+02  0.51100000000E-03 0.  1.
    9900012    2    1    2    0    0  0.25859956937E+02 -0.18290343278E+02 -0.32028728676E+02  0.46142317736E+02  0.99999997725E+01 0.  0.
         12    1    1    2    0    0 -0.25859956937E+02  0.18290343278E+02  0.32028728676E+02  0.45045682264E+02  0.00000000000E+00 0. -1.
         11    1    3    3    0    0  0.10921012672E+01  0.78642889101E+00 -0.99262677729E+00  0.16722630650E+01  0.51100000000E-03 0. -1.
        -11    1    3    3    0    0  0.21876834482E+02 -0.14643591360E+02 -0.23685570642E+02  0.35412383594E+02  0.51100000000E-03 0.  1.
         12    1    3    3    0    0  0.28910211873E+01 -0.44331808084E+01 -0.73505312568E+01  0.90576710772E+01  0.00000000000E+00 0. -1.
</event>
<event>
 7    1  0.2425980E-008  0.4614232E+02  0.7816164E-02  0.1320468E+00
        -11   -1    0    0    0    0  0.00000000000E+00  0.00000000000E+00  0.45593999997E+02  0.45594000000E+02  0.51100000000E-03 0.  1.
         11   -1    0    0    0    0 -0.00000000000E+00 -0.00000000000E+00 -0.45593999997E+02  0.45594000000E+02  0.51100000000E-03 0. -1.
    9900012    2    1    2    0    0 -0.28168288521E+02 -0.34657526082E+02  0.58751089222E+01  0.46142317664E+02  0.99999991106E+01 0.  0.
         12    1    1    2    0    0  0.28168288521E+02  0.34657526082E+02 -0.58751089222E+01  0.45045682336E+02  0.00000000000E+00 0. -1.
         11    1    3    3    0    0 -0.44332374057E+01 -0.27538118448E+01  0.26311266688E+01  0.58446472417E+01  0.51100000000E-03 0. -1.
        -11    1    3    3    0    0 -0.77835391221E+01 -0.13384806156E+02  0.34137933204E+01  0.15855298868E+02  0.51100000000E-03 0.  1.
        -12    1    3    3    0    0 -0.15951511993E+02 -0.18518908081E+02 -0.16981106704E+00  0.24442371554E+02  0.00000000000E+00 0.  1.
</event>
<event>
 7    1  0.2425980E-008  0.4614232E+02  0.7816164E-02  0.1320468E+00
        -11   -1    0    0    0    0  0.00000000000E+00  0.00000000000E+00  0.45593999997E+02  0.45594000000E+02  0.51100000000E-03 0.  1.
         11   -1    0    0    0    0 -0.00000000000E+00 -0.00000000000E+00 -0.45593999997E+02  0.45594000000E+02  0.51100000000E-03 0. -1.
    9900012    2    1    2    0    0  0.19749254276E+02 -0.28802431270E+02  0.28451719883E+02  0.46142318123E+02  0.10000003299E+02 0.  0.
         12    1    1    2    0    0 -0.19749254276E+02  0.28802431270E+02 -0.28451719883E+02  0.45045681877E+02  0.00000000000E+00 0. -1.
         11    1    3    3    0    0  0.24205276027E+01 -0.19265216349E+01  0.61169941374E+01  0.68547835140E+01  0.51100000000E-03 0. -1.
        -11    1    3    3    0    0  0.91052304678E+01 -0.15111480654E+02  0.15056903972E+02  0.23194232622E+02  0.51100000000E-03 0.  1.
         12    1    3    3    0    0  0.82234962057E+01 -0.11764428981E+02  0.72778217727E+01  0.16093301987E+02  0.00000000000E+00 0. -1.
</event>
<event>
 7    1  0.2425980E-008  0.4614233E+02  0.7816164E-02  0.1320468E+00
        -11   -1    0    0    0    0  0.00000000000E+00  0.00000000000E+00  0.45593999997E+02  0.45594000000E+02  0.51100000000E-03 0. -1.
         11   -1    0    0    0    0 -0.00000000000E+00 -0.00000000000E+00 -0.45593999997E+02  0.45594000000E+02  0.51100000000E-03 0.  1.
    9900012    2    1    2    0    0  0.44560817058E+01 -0.30961561641E+02 -0.32413544387E+02  0.46142325145E+02  0.10000067332E+02 0.  0.
         12    1    1    2    0    0 -0.44560817058E+01  0.30961561641E+02  0.32413544387E+02  0.45045674855E+02  0.00000000000E+00 0. -1.
         11    1    3    3    0    0  0.17440124901E+01 -0.74176048735E+01 -0.97630087173E+01  0.12384618731E+02  0.51100000000E-03 0. -1.
        -11    1    3    3    0    0  0.50584531978E+01 -0.17184838837E+02 -0.13817353239E+02  0.22623569246E+02  0.51100000000E-03 0.  1.
         12    1    3    3    0    0 -0.23463839821E+01 -0.63591179296E+01 -0.88331824308E+01  0.11134137169E+02  0.00000000000E+00 0. -1.
</event>
<event>
 7    1  0.2425980E-008  0.4614232E+02  0.7816164E-02  0.1320468E+00
        -11   -1    0    0    0    0  0.00000000000E+00  0.00000000000E+00  0.45593999997E+02  0.45594000000E+02  0.51100000000E-03 0.  1.
         11   -1    0    0    0    0 -0.00000000000E+00 -0.00000000000E+00 -0.45593999997E+02  0.45594000000E+02  0.51100000000E-03 0. -1.
    9900012    2    1    2    0    0  0.38915064170E+02  0.17335123506E+02  0.14636419606E+02  0.46142317574E+02  0.99999982964E+01 0.  0.
         12    1    1    2    0    0 -0.38915064170E+02 -0.17335123506E+02 -0.14636419606E+02  0.45045682426E+02  0.00000000000E+00 0. -1.
         11    1    3    3    0    0  0.27592386203E+02  0.16636299056E+02  0.12112155236E+02  0.34421076789E+02  0.51100000000E-03 0.  1.
        -11    1    3    3    0    0  0.15001415474E+01 -0.42223994160E+00  0.27959349898E+00  0.15833142506E+01  0.51100000000E-03 0. -1.
        -12    1    3    3    0    0  0.98225364199E+01  0.11210643914E+01  0.22446708717E+01  0.10137926534E+02  0.00000000000E+00 0.  1.
</event>
<event>
 7    1  0.2425980E-008  0.4614232E+02  0.7816164E-02  0.1320468E+00
        -11   -1    0    0    0    0  0.00000000000E+00  0.00000000000E+00  0.45593999997E+02  0.45594000000E+02  0.51100000000E-03 0.  1.
         11   -1    0    0    0    0 -0.00000000000E+00 -0.00000000000E+00 -0.45593999997E+02  0.45594000000E+02  0.51100000000E-03 0. -1.
    9900012    2    1    2    0    0  0.28436166705E+02  0.24741363763E+02  0.24665008477E+02  0.46142319842E+02  0.10000018974E+02 0.  0.
         12    1    1    2    0    0 -0.28436166705E+02 -0.24741363763E+02 -0.24665008477E+02  0.45045680158E+02  0.00000000000E+00 0. -1.
         11    1    3    3    0    0  0.14470220432E+00  0.11073051357E+01  0.68615340514E+00  0.13106754548E+01  0.51100000000E-03 0. -1.
        -11    1    3    3    0    0  0.26200398255E+01  0.60847219389E+01  0.27127685174E+01  0.71587403257E+01  0.51100000000E-03 0.  1.
        -12    1    3    3    0    0  0.25671424675E+02  0.17549336689E+02  0.21266086554E+02  0.37672904061E+02  0.00000000000E+00 0.  1.
</event>
<event>
 7    1  0.2425980E-008  0.4614232E+02  0.7816164E-02  0.1320468E+00
        -11   -1    0    0    0    0  0.00000000000E+00  0.00000000000E+00  0.45593999997E+02  0.45594000000E+02  0.51100000000E-03 0. -1.
         11   -1    0    0    0    0 -0.00000000000E+00 -0.00000000000E+00 -0.45593999997E+02  0.45594000000E+02  0.51100000000E-03 0.  1.
    9900012    2    1    2    0    0 -0.28853469703E+02 -0.21324345387E+02 -0.27237161590E+02  0.46142318836E+02  0.10000009798E+02 0.  0.
         12    1    1    2    0    0  0.28853469703E+02  0.21324345387E+02  0.27237161590E+02  0.45045681164E+02  0.00000000000E+00 0. -1.
         11    1    3    3    0    0 -0.16643131267E+01 -0.17490317073E+01 -0.17727794959E+00  0.24208423801E+01  0.51100000000E-03 0. -1.
        -11    1    3    3    0    0 -0.10315355191E+02 -0.70933414882E+01 -0.56338800060E+01  0.13728169957E+02  0.51100000000E-03 0.  1.
        -12    1    3    3    0    0 -0.16873801385E+02 -0.12481972192E+02 -0.21426003634E+02  0.29993306499E+02  0.00000000000E+00 0.  1.
</event>
<event>
 7    1  0.2425980E-008  0.4614232E+02  0.7816164E-02  0.1320468E+00
        -11   -1    0    0    0    0  0.00000000000E+00  0.00000000000E+00  0.45593999997E+02  0.45594000000E+02  0.51100000000E-03 0.  1.
         11   -1    0    0    0    0 -0.00000000000E+00 -0.00000000000E+00 -0.45593999997E+02  0.45594000000E+02  0.51100000000E-03 0. -1.
    9900012    2    1    2    0    0  0.19474402797E+02 -0.10405369137E+02  0.39263081805E+02  0.46142315812E+02  0.99999822242E+01 0.  0.
         12    1    1    2    0    0 -0.19474402797E+02  0.10405369137E+02 -0.39263081805E+02  0.45045684188E+02  0.00000000000E+00 0. -1.
         11    1    3    3    0    0  0.12636816487E+01  0.26877382284E+00  0.30321883313E+01  0.32959516099E+01  0.51100000000E-03 0. -1.
        -11    1    3    3    0    0  0.14421555400E+02 -0.11595042918E+02  0.32764302047E+02  0.37628789102E+02  0.51100000000E-03 0.  1.
         12    1    3    3    0    0  0.37891657479E+01  0.92089995840E+00  0.34665914269E+01  0.52175750996E+01  0.00000000000E+00 0. -1.
</event>
<event>
 7    1  0.2425980E-008  0.4614232E+02  0.7816164E-02  0.1320468E+00
        -11   -1    0    0    0    0  0.00000000000E+00  0.00000000000E+00  0.45593999997E+02  0.45594000000E+02  0.51100000000E-03 0. -1.
         11   -1    0    0    0    0 -0.00000000000E+00 -0.00000000000E+00 -0.45593999997E+02  0.45594000000E+02  0.51100000000E-03 0.  1.
    9900012    2    1    2    0    0 -0.28768000743E+02  0.34585764768E+02  0.23109358384E+01  0.46142318566E+02  0.10000007344E+02 0.  0.
         12    1    1    2    0    0  0.28768000743E+02 -0.34585764768E+02 -0.23109358384E+01  0.45045681434E+02  0.00000000000E+00 0. -1.
         11    1    3    3    0    0 -0.55324561329E+01  0.66444624328E+01 -0.27156194997E+01  0.90626453871E+01  0.51100000000E-03 0. -1.
        -11    1    3    3    0    0 -0.89321489320E+01  0.14948575686E+02  0.23790924557E+01  0.17575644533E+02  0.51100000000E-03 0.  1.
         12    1    3    3    0    0 -0.14303395678E+02  0.12992726649E+02  0.26474628824E+01  0.19504028646E+02  0.00000000000E+00 0. -1.
</event>
<event>
 7    1  0.2425980E-008  0.4614232E+02  0.7816164E-02  0.1320468E+00
        -11   -1    0    0    0    0  0.00000000000E+00  0.00000000000E+00  0.45593999997E+02  0.45594000000E+02  0.51100000000E-03 0. -1.
         11   -1    0    0    0    0 -0.00000000000E+00 -0.00000000000E+00 -0.45593999997E+02  0.45594000000E+02  0.51100000000E-03 0.  1.
    9900012    2    1    2    0    0  0.22227613561E+02 -0.29278268702E+02 -0.26035162216E+02  0.46142317694E+02  0.99999993863E+01 0.  0.
         12    1    1    2    0    0 -0.22227613561E+02  0.29278268702E+02  0.26035162216E+02  0.45045682306E+02  0.00000000000E+00 0. -1.
         11    1    3    3    0    0 -0.14961507406E+00 -0.43543571381E+01 -0.33067905944E+01  0.54697052071E+01  0.51100000000E-03 0. -1.
        -11    1    3    3    0    0  0.20485399408E+00 -0.73427132110E+00 -0.11138364201E-01  0.76239350480E+00  0.51100000000E-03 0.  1.
        -12    1    3    3    0    0  0.22172374641E+02 -0.24189640243E+02 -0.22717233258E+02  0.39910218982E+02  0.00000000000E+00 0.  1.
</event>
<event>
 7    1  0.2425980E-008  0.4614232E+02  0.7816164E-02  0.1320468E+00
        -11   -1    0    0    0    0  0.00000000000E+00  0.00000000000E+00  0.45593999997E+02  0.45594000000E+02  0.51100000000E-03 0.  1.
         11   -1    0    0    0    0 -0.00000000000E+00 -0.00000000000E+00 -0.45593999997E+02  0.45594000000E+02  0.51100000000E-03 0. -1.
    9900012    2    1    2    0    0 -0.36652735687E+02  0.18092361604E+02  0.18930313568E+02  0.46142319258E+02  0.10000013648E+02 0.  0.
         12    1    1    2    0    0  0.36652735687E+02 -0.18092361604E+02 -0.18930313568E+02  0.45045680742E+02  0.00000000000E+00 0. -1.
         11    1    3    3    0    0 -0.10128851133E+02  0.23153587236E+01  0.18243056330E+01  0.10549056953E+02  0.51100000000E-03 0. -1.
        -11    1    3    3    0    0 -0.46903246020E+01  0.19774688422E+01  0.11019729867E+01  0.52080584308E+01  0.51100000000E-03 0.  1.
        -12    1    3    3    0    0 -0.21833559952E+02  0.13799534038E+02  0.16004034948E+02  0.30385203874E+02  0.00000000000E+00 0.  1.
</event>
<event>
 7    1  0.2425980E-008  0.4614232E+02  0.7816164E-02  0.1320468E+00
        -11   -1    0    0    0    0  0.00000000000E+00  0.00000000000E+00  0.45593999997E+02  0.45594000000E+02  0.51100000000E-03 0.  1.
         11   -1    0    0    0    0 -0.00000000000E+00 -0.00000000000E+00 -0.45593999997E+02  0.45594000000E+02  0.51100000000E-03 0. -1.
    9900012    2    1    2    0    0  0.36645253556E+02  0.70510072554E+01  0.25229391925E+02  0.46142317317E+02  0.99999959463E+01 0.  0.
         12    1    1    2    0    0 -0.36645253556E+02 -0.70510072554E+01 -0.25229391925E+02  0.45045682683E+02  0.00000000000E+00 0. -1.
         11    1    3    3    0    0  0.59147407856E+01 -0.69719905657E+00  0.25892650528E+01  0.64941927027E+01  0.51100000000E-03 0. -1.
        -11    1    3    3    0    0  0.39114108749E+01 -0.71295596846E+00  0.83462159968E+00  0.40625158118E+01  0.51100000000E-03 0.  1.
        -12    1    3    3    0    0  0.26819101896E+02  0.84611622804E+01  0.21805505272E+02  0.35585608802E+02  0.00000000000E+00 0.  1.
</event>
<event>
 7    1  0.2425980E-008  0.4614232E+02  0.7816164E-02  0.1320468E+00
        -11   -1    0    0    0    0  0.00000000000E+00  0.00000000000E+00  0.45593999997E+02  0.45594000000E+02  0.51100000000E-03 0.  1.
         11   -1    0    0    0    0 -0.00000000000E+00 -0.00000000000E+00 -0.45593999997E+02  0.45594000000E+02  0.51100000000E-03 0. -1.
    9900012    2    1    2    0    0 -0.28330392066E+02  0.25057614707E+02  0.24466680905E+02  0.46142316034E+02  0.99999842517E+01 0.  0.
         12    1    1    2    0    0  0.28330392066E+02 -0.25057614707E+02 -0.24466680905E+02  0.45045683966E+02  0.00000000000E+00 0. -1.
         11    1    3    3    0    0  0.11781128236E-01  0.17474182183E+01  0.11292841939E+01  0.20805990186E+01  0.51100000000E-03 0. -1.
        -11    1    3    3    0    0 -0.21651160783E+02  0.17390211206E+02  0.21029807250E+02  0.34834537492E+02  0.51100000000E-03 0.  1.
        -12    1    3    3    0    0 -0.66910124113E+01  0.59199852824E+01  0.23075894612E+01  0.92271795232E+01  0.00000000000E+00 0.  1.
</event>
<event>
 7    1  0.2425980E-008  0.4614232E+02  0.7816164E-02  0.1320468E+00
        -11   -1    0    0    0    0  0.00000000000E+00  0.00000000000E+00  0.45593999997E+02  0.45594000000E+02  0.51100000000E-03 0.  1.
         11   -1    0    0    0    0 -0.00000000000E+00 -0.00000000000E+00 -0.45593999997E+02  0.45594000000E+02  0.51100000000E-03 0. -1.
    9900012    2    1    2    0    0  0.40963606786E+02 -0.10232376049E+02  0.15696971509E+02  0.46142317465E+02  0.99999972989E+01 0.  0.
         12    1    1    2    0    0 -0.40963606786E+02  0.10232376049E+02 -0.15696971509E+02  0.45045682535E+02  0.00000000000E+00 0. -1.
         11    1    3    3    0    0  0.11638310958E+02  0.10799603603E+01  0.42603895436E+01  0.12440559298E+02  0.51100000000E-03 0. -1.
        -11    1    3    3    0    0  0.13619533139E+02 -0.35409974862E+01  0.64688548231E+01  0.15487944638E+02  0.51100000000E-03 0.  1.
        -12    1    3    3    0    0  0.15705762689E+02 -0.77713389234E+01  0.49677271422E+01  0.18213813529E+02  0.00000000000E+00 0.  1.
</event>
<event>
 7    1  0.2425980E-008  0.4614232E+02  0.7816164E-02  0.1320468E+00
        -11   -1    0    0    0    0  0.00000000000E+00  0.00000000000E+00  0.45593999997E+02  0.45594000000E+02  0.51100000000E-03 0. -1.
         11   -1    0    0    0    0 -0.00000000000E+00 -0.00000000000E+00 -0.45593999997E+02  0.45594000000E+02  0.51100000000E-03 0.  1.
    9900012    2    1    2    0    0  0.38164222306E+02  0.42761258981E+00 -0.23925357562E+02  0.46142318174E+02  0.10000003764E+02 0.  0.
         12    1    1    2    0    0 -0.38164222306E+02 -0.42761258981E+00  0.23925357562E+02  0.45045681826E+02  0.00000000000E+00 0. -1.
         11    1    3    3    0    0  0.81888712951E+01 -0.29874934484E+01 -0.27745146689E+01  0.91477134903E+01  0.51100000000E-03 0. -1.
        -11    1    3    3    0    0  0.87599421012E+01 -0.47684413855E+00 -0.65405728940E+01  0.10942717212E+02  0.51100000000E-03 0.  1.
        -12    1    3    3    0    0  0.21215408909E+02  0.38919501767E+01 -0.14610269999E+02  0.26051887471E+02  0.00000000000E+00 0.  1.
</event>
<event>
 7    1  0.2425980E-008  0.4614232E+02  0.7816164E-02  0.1320468E+00
        -11   -1    0    0    0    0  0.00000000000E+00  0.00000000000E+00  0.45593999997E+02  0.45594000000E+02  0.51100000000E-03 0.  1.
         11   -1    0    0    0    0 -0.00000000000E+00 -0.00000000000E+00 -0.45593999997E+02  0.45594000000E+02  0.51100000000E-03 0. -1.
    9900012    2    1    2    0    0  0.27782960876E+01 -0.34614832998E+02  0.28691599554E+02  0.46142317881E+02  0.10000001093E+02 0.  0.
         12    1    1    2    0    0 -0.27782960876E+01  0.34614832998E+02 -0.28691599554E+02  0.45045682119E+02  0.00000000000E+00 0. -1.
         11    1    3    3    0    0 -0.53385000973E+00 -0.15834169482E+02  0.10820778731E+02  0.19185806515E+02  0.51100000000E-03 0. -1.
        -11    1    3    3    0    0  0.13205837791E+01 -0.93158952157E+01  0.44360634512E+01  0.10402331681E+02  0.51100000000E-03 0.  1.
         12    1    3    3    0    0  0.19915623183E+01 -0.94647683007E+01  0.13434757371E+02  0.16554179686E+02  0.00000000000E+00 0. -1.
</event>
<event>
 7    1  0.2425980E-008  0.4614232E+02  0.7816164E-02  0.1320468E+00
        -11   -1    0    0    0    0  0.00000000000E+00  0.00000000000E+00  0.45593999997E+02  0.45594000000E+02  0.51100000000E-03 0. -1.
         11   -1    0    0    0    0 -0.00000000000E+00 -0.00000000000E+00 -0.45593999997E+02  0.45594000000E+02  0.51100000000E-03 0.  1.
    9900012    2    1    2    0    0 -0.26700725457E+02  0.34165368968E+02 -0.12202963485E+02  0.46142317693E+02  0.99999993820E+01 0.  0.
         12    1    1    2    0    0  0.26700725457E+02 -0.34165368968E+02  0.12202963485E+02  0.45045682307E+02  0.00000000000E+00 0. -1.
         11    1    3    3    0    0 -0.43906835878E+01  0.31598318037E+01 -0.85568833969E+00  0.54767547135E+01  0.51100000000E-03 0. -1.
        -11    1    3    3    0    0 -0.84414266999E+01  0.18525026900E+02 -0.67824574488E+01  0.21457773316E+02  0.51100000000E-03 0.  1.
        -12    1    3    3    0    0 -0.13868615169E+02  0.12480510265E+02 -0.45648176969E+01  0.19207789664E+02  0.00000000000E+00 0.  1.
</event>
<event>
 7    1  0.2425980E-008  0.4614232E+02  0.7816164E-02  0.1320468E+00
        -11   -1    0    0    0    0  0.00000000000E+00  0.00000000000E+00  0.45593999997E+02  0.45594000000E+02  0.51100000000E-03 0.  1.
         11   -1    0    0    0    0 -0.00000000000E+00 -0.00000000000E+00 -0.45593999997E+02  0.45594000000E+02  0.51100000000E-03 0. -1.
    9900012    2    1    2    0    0  0.29885772154E+02  0.14928089887E+02  0.30217648883E+02  0.46142317089E+02  0.99999938684E+01 0.  0.
         12    1    1    2    0    0 -0.29885772154E+02 -0.14928089887E+02 -0.30217648883E+02  0.45045682911E+02  0.00000000000E+00 0. -1.
         11    1    3    3    0    0  0.14166801005E+02  0.81675149050E+01  0.21080333828E+02  0.26679337042E+02  0.51100000000E-03 0. -1.
        -11    1    3    3    0    0  0.61888951189E+01  0.21575040845E+01  0.28003910574E+01  0.71273723772E+01  0.51100000000E-03 0.  1.
         12    1    3    3    0    0  0.95300760296E+01  0.46030708980E+01  0.63369239982E+01  0.12335607670E+02  0.00000000000E+00 0. -1.
</event>
<event>
 7    1  0.2425980E-008  0.4614232E+02  0.7816164E-02  0.1320468E+00
        -11   -1    0    0    0    0  0.00000000000E+00  0.00000000000E+00  0.45593999997E+02  0.45594000000E+02  0.51100000000E-03 0.  1.
         11   -1    0    0    0    0 -0.00000000000E+00 -0.00000000000E+00 -0.45593999997E+02  0.45594000000E+02  0.51100000000E-03 0. -1.
    9900012    2    1    2    0    0  0.40721733758E+02 -0.11566309448E+02  0.15397220489E+02  0.46142317485E+02  0.99999974815E+01 0.  0.
         12    1    1    2    0    0 -0.40721733758E+02  0.11566309448E+02 -0.15397220489E+02  0.45045682515E+02  0.00000000000E+00 0. -1.
         11    1    3    3    0    0  0.33867383585E+01 -0.56245788323E+00  0.38845556554E+01  0.51842191775E+01  0.51100000000E-03 0. -1.
        -11    1    3    3    0    0  0.52261251528E+01 -0.36199830746E+01  0.20308536944E+01  0.66739065443E+01  0.51100000000E-03 0.  1.
         12    1    3    3    0    0  0.32108870246E+02 -0.73838684897E+01  0.94818111391E+01  0.34284191763E+02  0.00000000000E+00 0. -1.
</event>
<event>
 7    1  0.2425980E-008  0.4614232E+02  0.7816164E-02  0.1320468E+00
        -11   -1    0    0    0    0  0.00000000000E+00  0.00000000000E+00  0.45593999997E+02  0.45594000000E+02  0.51100000000E-03 0.  1.
         11   -1    0    0    0    0 -0.00000000000E+00 -0.00000000000E+00 -0.45593999997E+02  0.45594000000E+02  0.51100000000E-03 0. -1.
    9900012    2    1    2    0    0 -0.29507187952E+02  0.12361982173E+02  0.31711524903E+02  0.46142317014E+02  0.99999931835E+01 0.  0.
         12    1    1    2    0    0  0.29507187952E+02 -0.12361982173E+02 -0.31711524903E+02  0.45045682986E+02  0.00000000000E+00 0. -1.
         11    1    3    3    0    0 -0.10518869405E+02  0.60766480668E+01  0.76235850368E+01  0.14341942489E+02  0.51100000000E-03 0. -1.
        -11    1    3    3    0    0 -0.10219234338E+02  0.49977818960E+00  0.11116933080E+02  0.15108564792E+02  0.51100000000E-03 0.  1.
        -12    1    3    3    0    0 -0.87690842089E+01  0.57855559168E+01  0.12971006785E+02  0.16691809733E+02  0.00000000000E+00 0.  1.
</event>
<event>
 7    1  0.2425980E-008  0.4614232E+02  0.7816164E-02  0.1320468E+00
        -11   -1    0    0    0    0  0.00000000000E+00  0.00000000000E+00  0.45593999997E+02  0.45594000000E+02  0.51100000000E-03 0.  1.
         11   -1    0    0    0    0 -0.00000000000E+00 -0.00000000000E+00 -0.45593999997E+02  0.45594000000E+02  0.51100000000E-03 0. -1.
    9900012    2    1    2    0    0  0.13805039506E+02  0.41869502529E+02  0.92454915780E+01  0.46142317940E+02  0.10000001630E+02 0.  0.
         12    1    1    2    0    0 -0.13805039506E+02 -0.41869502529E+02 -0.92454915780E+01  0.45045682060E+02  0.00000000000E+00 0. -1.
         11    1    3    3    0    0  0.85125356873E+01  0.22041772048E+02  0.17593152600E+01  0.23693842434E+02  0.51100000000E-03 0. -1.
        -11    1    3    3    0    0  0.10758146817E+01  0.97812689750E+01  0.13179058844E+01  0.99281154391E+01  0.51100000000E-03 0.  1.
         12    1    3    3    0    0  0.42166891366E+01  0.10046461506E+02  0.61682704336E+01  0.12520360067E+02  0.00000000000E+00 0. -1.
</event>
<event>
 7    1  0.2425980E-008  0.4614231E+02  0.7816164E-02  0.1320468E+00
        -11   -1    0    0    0    0  0.00000000000E+00  0.00000000000E+00  0.45593999997E+02  0.45594000000E+02  0.51100000000E-03 0.  1.
         11   -1    0    0    0    0 -0.00000000000E+00 -0.00000000000E+00 -0.45593999997E+02  0.45594000000E+02  0.51100000000E-03 0. -1.
    9900012    2    1    2    0    0 -0.21967275059E+02 -0.12075565506E+01  0.39307694944E+02  0.46142309327E+02  0.99999230943E+01 0.  0.
         12    1    1    2    0    0  0.21967275059E+02  0.12075565506E+01 -0.39307694944E+02  0.45045690673E+02  0.00000000000E+00 0. -1.
         11    1    3    3    0    0 -0.23646980155E+01  0.14404086407E+01  0.34770300380E+01  0.44448072965E+01  0.51100000000E-03 0. -1.
        -11    1    3    3    0    0 -0.18856787606E+02 -0.34980716533E+00  0.30778714282E+02  0.36097507628E+02  0.51100000000E-03 0.  1.
        -12    1    3    3    0    0 -0.74578943745E+00 -0.22981580259E+01  0.50519506244E+01  0.55999944025E+01  0.00000000000E+00 0.  1.
</event>
<event>
 7    1  0.2425980E-008  0.4614232E+02  0.7816164E-02  0.1320468E+00
        -11   -1    0    0    0    0  0.00000000000E+00  0.00000000000E+00  0.45593999997E+02  0.45594000000E+02  0.51100000000E-03 0.  1.
         11   -1    0    0    0    0 -0.00000000000E+00 -0.00000000000E+00 -0.45593999997E+02  0.45594000000E+02  0.51100000000E-03 0. -1.
    9900012    2    1    2    0    0  0.45110776057E+01  0.35151923682E+02 -0.27804783666E+02  0.46142317028E+02  0.99999933155E+01 0.  0.
         12    1    1    2    0    0 -0.45110776057E+01 -0.35151923682E+02  0.27804783666E+02  0.45045682972E+02  0.00000000000E+00 0. -1.
         11    1    3    3    0    0 -0.48957784095E+00  0.89284179949E+01 -0.10523483270E+02  0.13809418335E+02  0.51100000000E-03 0. -1.
        -11    1    3    3    0    0  0.56422774359E+01  0.19902612884E+02 -0.15114280531E+02  0.25620124327E+02  0.51100000000E-03 0.  1.
         12    1    3    3    0    0 -0.64162198927E+00  0.63208928029E+01 -0.21670198650E+01  0.67127743667E+01  0.00000000000E+00 0. -1.
</event>
<event>
 7    1  0.2425980E-008  0.4614232E+02  0.7816164E-02  0.1320468E+00
        -11   -1    0    0    0    0  0.00000000000E+00  0.00000000000E+00  0.45593999997E+02  0.45594000000E+02  0.51100000000E-03 0.  1.
         11   -1    0    0    0    0 -0.00000000000E+00 -0.00000000000E+00 -0.45593999997E+02  0.45594000000E+02  0.51100000000E-03 0. -1.
    9900012    2    1    2    0    0  0.17219616824E+02 -0.84886773016E+01  0.40749729376E+02  0.46142319962E+02  0.10000020065E+02 0.  0.
         12    1    1    2    0    0 -0.17219616824E+02  0.84886773016E+01 -0.40749729376E+02  0.45045680038E+02  0.00000000000E+00 0. -1.
         11    1    3    3    0    0  0.58801769862E+01 -0.39966372460E+01  0.13122171776E+02  0.14924509474E+02  0.51100000000E-03 0. -1.
        -11    1    3    3    0    0  0.11122934818E+02 -0.61542814384E+01  0.25636170899E+02  0.28614823390E+02  0.51100000000E-03 0.  1.
        -12    1    3    3    0    0  0.21650502037E+00  0.16622413828E+01  0.19913867008E+01  0.26029870977E+01  0.00000000000E+00 0.  1.
</event>
<event>
 7    1  0.2425980E-008  0.4614232E+02  0.7816164E-02  0.1320468E+00
        -11   -1    0    0    0    0  0.00000000000E+00  0.00000000000E+00  0.45593999997E+02  0.45594000000E+02  0.51100000000E-03 0.  1.
         11   -1    0    0    0    0 -0.00000000000E+00 -0.00000000000E+00 -0.45593999997E+02  0.45594000000E+02  0.51100000000E-03 0. -1.
    9900012    2    1    2    0    0 -0.17246785390E+02 -0.41472341790E+02 -0.34214959489E+01  0.46142319027E+02  0.10000011542E+02 0.  0.
         12    1    1    2    0    0  0.17246785390E+02  0.41472341790E+02  0.34214959489E+01  0.45045680973E+02  0.00000000000E+00 0. -1.
         11    1    3    3    0    0 -0.45294672621E+00 -0.56693438536E+00 -0.80847888883E+00  0.10863764122E+01  0.51100000000E-03 0. -1.
        -11    1    3    3    0    0 -0.93333327373E+01 -0.24541326287E+02  0.24557700070E+01  0.26370790707E+02  0.51100000000E-03 0.  1.
        -12    1    3    3    0    0 -0.74605059265E+01 -0.16364081117E+02 -0.50687870671E+01  0.18685151908E+02  0.00000000000E+00 0.  1.
</event>
<event>
 7    1  0.2425980E-008  0.4614232E+02  0.7816164E-02  0.1320468E+00
        -11   -1    0    0    0    0  0.00000000000E+00  0.00000000000E+00  0.45593999997E+02  0.45594000000E+02  0.51100000000E-03 0.  1.
         11   -1    0    0    0    0 -0.00000000000E+00 -0.00000000000E+00 -0.45593999997E+02  0.45594000000E+02  0.51100000000E-03 0. -1.
    9900012    2    1    2    0    0 -0.14739403011E+02  0.25729318892E+02  0.33909671410E+02  0.46142315779E+02  0.99999819284E+01 0.  0.
         12    1    1    2    0    0  0.14739403011E+02 -0.25729318892E+02 -0.33909671410E+02  0.45045684221E+02  0.00000000000E+00 0. -1.
         11    1    3    3    0    0 -0.36634405010E+01  0.36180940485E+01  0.48370715184E+01  0.70646062865E+01  0.51100000000E-03 0. -1.
        -11    1    3    3    0    0 -0.12030894887E+02  0.18426638045E+02  0.26667838917E+02  0.34575382199E+02  0.51100000000E-03 0.  1.
         12    1    3    3    0    0  0.95493237657E+00  0.36845867982E+01  0.24047609748E+01  0.45023272941E+01  0.00000000000E+00 0. -1.
</event>
<event>
 7    1  0.2425980E-008  0.4614232E+02  0.7816164E-02  0.1320468E+00
        -11   -1    0    0    0    0  0.00000000000E+00  0.00000000000E+00  0.45593999997E+02  0.45594000000E+02  0.51100000000E-03 0. -1.
         11   -1    0    0    0    0 -0.00000000000E+00 -0.00000000000E+00 -0.45593999997E+02  0.45594000000E+02  0.51100000000E-03 0.  1.
    9900012    2    1    2    0    0  0.22076255851E+02  0.20003475833E+02  0.33787769879E+02  0.46142317507E+02  0.99999976864E+01 0.  0.
         12    1    1    2    0    0 -0.22076255851E+02 -0.20003475833E+02 -0.33787769879E+02  0.45045682493E+02  0.00000000000E+00 0. -1.
         11    1    3    3    0    0  0.26494998901E+01  0.39011031896E+01  0.76815630165E+01  0.90135934233E+01  0.51100000000E-03 0. -1.
        -11    1    3    3    0    0  0.45033008640E+01  0.84509160521E+01  0.10649071412E+02  0.14321327557E+02  0.51100000000E-03 0.  1.
        -12    1    3    3    0    0  0.14923455097E+02  0.76514565913E+01  0.15457135450E+02  0.22807396527E+02  0.00000000000E+00 0.  1.
</event>
<event>
 7    1  0.2425980E-008  0.4614232E+02  0.7816164E-02  0.1320468E+00
        -11   -1    0    0    0    0  0.00000000000E+00  0.00000000000E+00  0.45593999997E+02  0.45594000000E+02  0.51100000000E-03 0. -1.
         11   -1    0    0    0    0 -0.00000000000E+00 -0.00000000000E+00 -0.45593999997E+02  0.45594000000E+02  0.51100000000E-03 0.  1.
    9900012    2    1    2    0    0 -0.40340817130E+02  0.13255640168E+02 -0.15033955550E+02  0.46142319380E+02  0.10000014767E+02 0.  0.
         12    1    1    2    0    0  0.40340817130E+02 -0.13255640168E+02  0.15033955550E+02  0.45045680620E+02  0.00000000000E+00 0. -1.
         11    1    3    3    0    0 -0.56321930483E+00  0.10174643334E+01 -0.14770506935E+01  0.18799278357E+01  0.51100000000E-03 0. -1.
        -11    1    3    3    0    0 -0.55709266256E+01  0.11745526178E+01  0.37553453503E+00  0.57057710932E+01  0.51100000000E-03 0.  1.
        -12    1    3    3    0    0 -0.34206671200E+02  0.11063623216E+02 -0.13932439391E+02  0.38556620452E+02  0.00000000000E+00 0.  1.
</event>
<event>
 7    1  0.2425980E-008  0.4614232E+02  0.7816164E-02  0.1320468E+00
        -11   -1    0    0    0    0  0.00000000000E+00  0.00000000000E+00  0.45593999997E+02  0.45594000000E+02  0.51100000000E-03 0. -1.
         11   -1    0    0    0    0 -0.00000000000E+00 -0.00000000000E+00 -0.45593999997E+02  0.45594000000E+02  0.51100000000E-03 0.  1.
    9900012    2    1    2    0    0  0.27282531685E+02  0.33968286409E+02 -0.11442576017E+02  0.46142316937E+02  0.99999924868E+01 0.  0.
         12    1    1    2    0    0 -0.27282531685E+02 -0.33968286409E+02  0.11442576017E+02  0.45045683063E+02  0.00000000000E+00 0. -1.
         11    1    3    3    0    0  0.86145752511E+01  0.16142798081E+02 -0.50471477582E+01  0.18980899278E+02  0.51100000000E-03 0. -1.
        -11    1    3    3    0    0  0.17136284639E+02  0.17923278524E+02 -0.64617660157E+01  0.25625194333E+02  0.51100000000E-03 0.  1.
        -12    1    3    3    0    0  0.15316717950E+01 -0.97790197028E-01  0.66337756900E-01  0.15362233263E+01  0.00000000000E+00 0.  1.
</event>
<event>
 7    1  0.2425980E-008  0.4614232E+02  0.7816164E-02  0.1320468E+00
        -11   -1    0    0    0    0  0.00000000000E+00  0.00000000000E+00  0.45593999997E+02  0.45594000000E+02  0.51100000000E-03 0.  1.
         11   -1    0    0    0    0 -0.00000000000E+00 -0.00000000000E+00 -0.45593999997E+02  0.45594000000E+02  0.51100000000E-03 0. -1.
    9900012    2    1    2    0    0 -0.29442337030E+02 -0.32911795404E+02  0.88924720990E+01  0.46142317115E+02  0.99999941119E+01 0.  0.
         12    1    1    2    0    0  0.29442337030E+02  0.32911795404E+02 -0.88924720990E+01  0.45045682885E+02  0.00000000000E+00 0. -1.
         11    1    3    3    0    0 -0.39746853971E+01 -0.23924486589E+01  0.38185694414E+00  0.46548630032E+01  0.51100000000E-03 0. -1.
        -11    1    3    3    0    0 -0.25922235651E+02 -0.28925235964E+02  0.87447460409E+01  0.39813341486E+02  0.51100000000E-03 0.  1.
        -12    1    3    3    0    0  0.45458401827E+00 -0.15941107812E+01 -0.23413088599E+00  0.16741126259E+01  0.00000000000E+00 0.  1.
</event>
<event>
 7    1  0.2425980E-008  0.4614232E+02  0.7816164E-02  0.1320468E+00
        -11   -1    0    0    0    0  0.00000000000E+00  0.00000000000E+00  0.45593999997E+02  0.45594000000E+02  0.51100000000E-03 0.  1.
         11   -1    0    0    0    0 -0.00000000000E+00 -0.00000000000E+00 -0.45593999997E+02  0.45594000000E+02  0.51100000000E-03 0. -1.
    9900012    2    1    2    0    0 -0.16712786041E+02 -0.31508355714E+02  0.27513994167E+02  0.46142316832E+02  0.99999915262E+01 0.  0.
         12    1    1    2    0    0  0.16712786041E+02  0.31508355714E+02 -0.27513994167E+02  0.45045683168E+02  0.00000000000E+00 0. -1.
         11    1    3    3    0    0 -0.16333149232E+01 -0.14515090167E+01  0.40462786787E+01  0.45985832025E+01  0.51100000000E-03 0. -1.
        -11    1    3    3    0    0 -0.10173962104E+01 -0.32199752173E+01  0.27515818629E+00  0.33880743406E+01  0.51100000000E-03 0.  1.
        -12    1    3    3    0    0 -0.14062074908E+02 -0.26836871480E+02  0.23192557302E+02  0.38155659289E+02  0.00000000000E+00 0.  1.
</event>
<event>
 7    1  0.2425980E-008  0.4614232E+02  0.7816164E-02  0.1320468E+00
        -11   -1    0    0    0    0  0.00000000000E+00  0.00000000000E+00  0.45593999997E+02  0.45594000000E+02  0.51100000000E-03 0.  1.
         11   -1    0    0    0    0 -0.00000000000E+00 -0.00000000000E+00 -0.45593999997E+02  0.45594000000E+02  0.51100000000E-03 0. -1.
    9900012    2    1    2    0    0  0.33125299124E+02  0.27072060238E+01  0.30405577716E+02  0.46142316936E+02  0.99999924720E+01 0.  0.
         12    1    1    2    0    0 -0.33125299124E+02 -0.27072060238E+01 -0.30405577716E+02  0.45045683064E+02  0.00000000000E+00 0. -1.
         11    1    3    3    0    0  0.93905129823E+01  0.62661768539E+00  0.38470647452E+01  0.10167314848E+02  0.51100000000E-03 0. -1.
        -11    1    3    3    0    0  0.17880355546E+02  0.26230205830E+01  0.17367235762E+02  0.25064082463E+02  0.51100000000E-03 0.  1.
         12    1    3    3    0    0  0.58544305957E+01 -0.54243224459E+00  0.91912772088E+01  0.10910919625E+02  0.00000000000E+00 0. -1.
</event>
<event>
 7    1  0.2425980E-008  0.4614232E+02  0.7816164E-02  0.1320468E+00
        -11   -1    0    0    0    0  0.00000000000E+00  0.00000000000E+00  0.45593999997E+02  0.45594000000E+02  0.51100000000E-03 0.  1.
         11   -1    0    0    0    0 -0.00000000000E+00 -0.00000000000E+00 -0.45593999997E+02  0.45594000000E+02  0.51100000000E-03 0. -1.
    9900012    2    1    2    0    0 -0.46144907901E+01  0.34363814084E+02  0.28756709970E+02  0.46142316389E+02  0.99999874904E+01 0.  0.
         12    1    1    2    0    0  0.46144907901E+01 -0.34363814084E+02 -0.28756709970E+02  0.45045683611E+02  0.00000000000E+00 0. -1.
         11    1    3    3    0    0  0.22659101679E+01  0.87433311915E+01  0.78966864614E+01  0.11997409993E+02  0.51100000000E-03 0. -1.
        -11    1    3    3    0    0 -0.11062598938E+01  0.13564433432E+02  0.11613256722E+02  0.17890930586E+02  0.51100000000E-03 0.  1.
        -12    1    3    3    0    0 -0.57741410642E+01  0.12056049461E+02  0.92467667864E+01  0.16253975810E+02  0.00000000000E+00 0.  1.
</event>
<event>
 7    1  0.2425980E-008  0.4614232E+02  0.7816164E-02  0.1320468E+00
        -11   -1    0    0    0    0  0.00000000000E+00  0.00000000000E+00  0.45593999997E+02  0.45594000000E+02  0.51100000000E-03 0.  1.
         11   -1    0    0    0    0 -0.00000000000E+00 -0.00000000000E+00 -0.45593999997E+02  0.45594000000E+02  0.51100000000E-03 0. -1.
    9900012    2    1    2    0    0  0.79438790769E+00  0.39413988125E+02  0.21794953959E+02  0.46142317298E+02  0.99999957726E+01 0.  0.
         12    1    1    2    0    0 -0.79438790769E+00 -0.39413988125E+02 -0.21794953959E+02  0.45045682702E+02  0.00000000000E+00 0. -1.
         11    1    3    3    0    0 -0.18119920295E+01  0.16230127760E+02  0.78535522884E+01  0.18121220875E+02  0.51100000000E-03 0. -1.
        -11    1    3    3    0    0 -0.20456438817E+01  0.32800423121E+01  0.21307309142E+01  0.44139948969E+01  0.51100000000E-03 0.  1.
         12    1    3    3    0    0  0.46520238189E+01  0.19903818053E+02  0.11810670757E+02  0.23607101525E+02  0.00000000000E+00 0. -1.
</event>
<event>
 7    1  0.2425980E-008  0.4614232E+02  0.7816164E-02  0.1320468E+00
        -11   -1    0    0    0    0  0.00000000000E+00  0.00000000000E+00  0.45593999997E+02  0.45594000000E+02  0.51100000000E-03 0. -1.
         11   -1    0    0    0    0 -0.00000000000E+00 -0.00000000000E+00 -0.45593999997E+02  0.45594000000E+02  0.51100000000E-03 0.  1.
    9900012    2    1    2    0    0 -0.35250886891E+01  0.16650107460E+02  0.41706848370E+02  0.46142317303E+02  0.99999958233E+01 0.  0.
         12    1    1    2    0    0  0.35250886891E+01 -0.16650107460E+02 -0.41706848370E+02  0.45045682697E+02  0.00000000000E+00 0. -1.
         11    1    3    3    0    0 -0.35535948088E+01  0.16495869753E+01  0.54642391995E+01  0.67236213119E+01  0.51100000000E-03 0. -1.
        -11    1    3    3    0    0  0.15458631174E+01  0.93444931901E+01  0.19434081412E+02  0.21619268405E+02  0.51100000000E-03 0.  1.
         12    1    3    3    0    0 -0.15173569976E+01  0.56560272946E+01  0.16808527758E+02  0.17799427587E+02  0.00000000000E+00 0. -1.
</event>
<event>
 7    1  0.2425980E-008  0.4614232E+02  0.7816164E-02  0.1320468E+00
        -11   -1    0    0    0    0  0.00000000000E+00  0.00000000000E+00  0.45593999997E+02  0.45594000000E+02  0.51100000000E-03 0.  1.
         11   -1    0    0    0    0 -0.00000000000E+00 -0.00000000000E+00 -0.45593999997E+02  0.45594000000E+02  0.51100000000E-03 0. -1.
    9900012    2    1    2    0    0  0.20106448092E+02  0.16246160366E+02  0.36890466437E+02  0.46142317683E+02  0.99999992847E+01 0.  0.
         12    1    1    2    0    0 -0.20106448092E+02 -0.16246160366E+02 -0.36890466437E+02  0.45045682317E+02  0.00000000000E+00 0. -1.
         11    1    3    3    0    0  0.37509731924E-02  0.51271772089E+00  0.29048751539E+00  0.58930195047E+00  0.51100000000E-03 0. -1.
        -11    1    3    3    0    0  0.12555329141E+02  0.14627318937E+02  0.23508949164E+02  0.30401734164E+02  0.51100000000E-03 0.  1.
         12    1    3    3    0    0  0.75473679780E+01  0.11061237080E+01  0.13091029757E+02  0.15151281568E+02  0.00000000000E+00 0. -1.
</event>
<event>
 7    1  0.2425980E-008  0.4614232E+02  0.7816164E-02  0.1320468E+00
        -11   -1    0    0    0    0  0.00000000000E+00  0.00000000000E+00  0.45593999997E+02  0.45594000000E+02  0.51100000000E-03 0. -1.
         11   -1    0    0    0    0 -0.00000000000E+00 -0.00000000000E+00 -0.45593999997E+02  0.45594000000E+02  0.51100000000E-03 0.  1.
    9900012    2    1    2    0    0 -0.73876303354E+01 -0.44347937084E+02 -0.27922854412E+01  0.46142318037E+02  0.10000002515E+02 0.  0.
         12    1    1    2    0    0  0.73876303354E+01  0.44347937084E+02  0.27922854412E+01  0.45045681963E+02  0.00000000000E+00 0. -1.
         11    1    3    3    0    0 -0.45771189326E+00 -0.87589448699E-01 -0.25907003177E+00  0.53318817619E+00  0.51100000000E-03 0. -1.
        -11    1    3    3    0    0 -0.25704727694E+01 -0.11117737196E+02 -0.41492935287E+01  0.12141995209E+02  0.51100000000E-03 0.  1.
         12    1    3    3    0    0 -0.43594456727E+01 -0.33142610439E+02  0.16160781193E+01  0.33467134651E+02  0.00000000000E+00 0. -1.
</event>
<event>
 7    1  0.2425980E-008  0.4614232E+02  0.7816164E-02  0.1320468E+00
        -11   -1    0    0    0    0  0.00000000000E+00  0.00000000000E+00  0.45593999997E+02  0.45594000000E+02  0.51100000000E-03 0. -1.
         11   -1    0    0    0    0 -0.00000000000E+00 -0.00000000000E+00 -0.45593999997E+02  0.45594000000E+02  0.51100000000E-03 0.  1.
    9900012    2    1    2    0    0  0.31770472923E+02 -0.30897079125E+02 -0.80697624410E+01  0.46142317476E+02  0.99999974046E+01 0.  0.
         12    1    1    2    0    0 -0.31770472923E+02  0.30897079125E+02  0.80697624410E+01  0.45045682524E+02  0.00000000000E+00 0. -1.
         11    1    3    3    0    0  0.24665992148E+01 -0.50079136630E+01 -0.29775096665E+01  0.63268376791E+01  0.51100000000E-03 0. -1.
        -11    1    3    3    0    0  0.90283677313E+01 -0.52945058769E+01 -0.27426474126E+01  0.10819673353E+02  0.51100000000E-03 0.  1.
         12    1    3    3    0    0  0.20275505976E+02 -0.20594659585E+02 -0.23496053620E+01  0.28995806444E+02  0.00000000000E+00 0. -1.
</event>
<event>
 7    1  0.2425980E-008  0.4614232E+02  0.7816164E-02  0.1320468E+00
        -11   -1    0    0    0    0  0.00000000000E+00  0.00000000000E+00  0.45593999997E+02  0.45594000000E+02  0.51100000000E-03 0.  1.
         11   -1    0    0    0    0 -0.00000000000E+00 -0.00000000000E+00 -0.45593999997E+02  0.45594000000E+02  0.51100000000E-03 0. -1.
    9900012    2    1    2    0    0 -0.12078016733E+02  0.19746466180E+02  0.38643395288E+02  0.46142318584E+02  0.10000007507E+02 0.  0.
         12    1    1    2    0    0  0.12078016733E+02 -0.19746466180E+02 -0.38643395288E+02  0.45045681416E+02  0.00000000000E+00 0. -1.
         11    1    3    3    0    0 -0.11020470620E+02  0.12308379943E+02  0.27582367763E+02  0.32151734031E+02  0.51100000000E-03 0. -1.
        -11    1    3    3    0    0 -0.24802577987E+01  0.29271942618E+01  0.49999311558E+01  0.63023374091E+01  0.51100000000E-03 0.  1.
         12    1    3    3    0    0  0.14227116863E+01  0.45108919753E+01  0.60610963695E+01  0.76882471445E+01  0.00000000000E+00 0. -1.
</event>
<event>
 7    1  0.2425980E-008  0.4614232E+02  0.7816164E-02  0.1320468E+00
        -11   -1    0    0    0    0  0.00000000000E+00  0.00000000000E+00  0.45593999997E+02  0.45594000000E+02  0.51100000000E-03 0.  1.
         11   -1    0    0    0    0 -0.00000000000E+00 -0.00000000000E+00 -0.45593999997E+02  0.45594000000E+02  0.51100000000E-03 0. -1.
    9900012    2    1    2    0    0 -0.33552246378E+02 -0.18698953001E+02  0.23531029536E+02  0.46142318394E+02  0.10000005769E+02 0.  0.
         12    1    1    2    0    0  0.33552246378E+02  0.18698953001E+02 -0.23531029536E+02  0.45045681606E+02  0.00000000000E+00 0. -1.
         11    1    3    3    0    0 -0.12011513590E+02 -0.81695345532E+01  0.10998984623E+02  0.18220741383E+02  0.51100000000E-03 0. -1.
        -11    1    3    3    0    0 -0.13203802107E+02 -0.99634233883E+01  0.91835808468E+01  0.18919523068E+02  0.51100000000E-03 0.  1.
        -12    1    3    3    0    0 -0.83369306814E+01 -0.56599505974E+00  0.33484640661E+01  0.90020539432E+01  0.00000000000E+00 0.  1.
</event>
<event>
 7    1  0.2425980E-008  0.4614232E+02  0.7816164E-02  0.1320468E+00
        -11   -1    0    0    0    0  0.00000000000E+00  0.00000000000E+00  0.45593999997E+02  0.45594000000E+02  0.51100000000E-03 0.  1.
         11   -1    0    0    0    0 -0.00000000000E+00 -0.00000000000E+00 -0.45593999997E+02  0.45594000000E+02  0.51100000000E-03 0. -1.
    9900012    2    1    2    0    0  0.26601420000E+02 -0.35670477520E+02  0.70067848052E+01  0.46142317123E+02  0.99999941807E+01 0.  0.
         12    1    1    2    0    0 -0.26601420000E+02  0.35670477520E+02 -0.70067848052E+01  0.45045682877E+02  0.00000000000E+00 0. -1.
         11    1    3    3    0    0  0.25683319788E+01 -0.49293647428E+01 -0.66164908076E+00  0.55975660503E+01  0.51100000000E-03 0. -1.
        -11    1    3    3    0    0  0.12013155174E+02 -0.12509016220E+02 -0.16613693381E+00  0.17344134045E+02  0.51100000000E-03 0.  1.
        -12    1    3    3    0    0  0.12019932848E+02 -0.18232096557E+02  0.78345708197E+01  0.23200617028E+02  0.00000000000E+00 0.  1.
</event>
<event>
 7    1  0.2425980E-008  0.4614232E+02  0.7816164E-02  0.1320468E+00
        -11   -1    0    0    0    0  0.00000000000E+00  0.00000000000E+00  0.45593999997E+02  0.45594000000E+02  0.51100000000E-03 0.  1.
         11   -1    0    0    0    0 -0.00000000000E+00 -0.00000000000E+00 -0.45593999997E+02  0.45594000000E+02  0.51100000000E-03 0. -1.
    9900012    2    1    2    0    0 -0.17337055122E+02  0.13241307097E+00  0.41575503612E+02  0.46142317476E+02  0.99999973978E+01 0.  0.
         12    1    1    2    0    0  0.17337055122E+02 -0.13241307097E+00 -0.41575503612E+02  0.45045682524E+02  0.00000000000E+00 0. -1.
         11    1    3    3    0    0 -0.48275897963E+01  0.22158102283E+01  0.52385980555E+01  0.74604522689E+01  0.51100000000E-03 0. -1.
        -11    1    3    3    0    0 -0.36210251356E+01  0.18531837217E-01  0.60818307244E+01  0.70781940976E+01  0.51100000000E-03 0.  1.
         12    1    3    3    0    0 -0.88884401900E+01 -0.21019289945E+01  0.30255074832E+02  0.31603671109E+02  0.00000000000E+00 0. -1.
</event>
<event>
 7    1  0.2425980E-008  0.4614232E+02  0.7816164E-02  0.1320468E+00
        -11   -1    0    0    0    0  0.00000000000E+00  0.00000000000E+00  0.45593999997E+02  0.45594000000E+02  0.51100000000E-03 0.  1.
         11   -1    0    0    0    0 -0.00000000000E+00 -0.00000000000E+00 -0.45593999997E+02  0.45594000000E+02  0.51100000000E-03 0. -1.
    9900012    2    1    2    0    0  0.17808728500E+02 -0.41069853876E+02 -0.50229275904E+01  0.46142317523E+02  0.99999978302E+01 0.  0.
         12    1    1    2    0    0 -0.17808728500E+02  0.41069853876E+02  0.50229275904E+01  0.45045682477E+02  0.00000000000E+00 0. -1.
         11    1    3    3    0    0  0.23976145413E+01 -0.34524663774E+01 -0.12909230252E+01  0.43971083787E+01  0.51100000000E-03 0. -1.
        -11    1    3    3    0    0  0.13685102970E+02 -0.36449769312E+02 -0.50788238494E+01  0.39264006140E+02  0.51100000000E-03 0.  1.
         12    1    3    3    0    0  0.17260109893E+01 -0.11676181868E+01  0.13468192842E+01  0.24812030045E+01  0.00000000000E+00 0. -1.
</event>
<event>
 7    1  0.2425980E-008  0.4614232E+02  0.7816164E-02  0.1320468E+00
        -11   -1    0    0    0    0  0.00000000000E+00  0.00000000000E+00  0.45593999997E+02  0.45594000000E+02  0.51100000000E-03 0.  1.
         11   -1    0    0    0    0 -0.00000000000E+00 -0.00000000000E+00 -0.45593999997E+02  0.45594000000E+02  0.51100000000E-03 0. -1.
    9900012    2    1    2    0    0  0.30090913372E+02  0.33101386014E+02 -0.52866532564E+01  0.46142317340E+02  0.99999961595E+01 0.  0.
         12    1    1    2    0    0 -0.30090913372E+02 -0.33101386014E+02  0.52866532564E+01  0.45045682660E+02  0.00000000000E+00 0. -1.
         11    1    3    3    0    0  0.11902925211E+02  0.85045322600E+01 -0.22804421373E+01  0.14805644672E+02  0.51100000000E-03 0. -1.
        -11    1    3    3    0    0  0.71377207988E+00  0.18181595813E+01  0.12422946191E+01  0.23148371491E+01  0.51100000000E-03 0.  1.
        -12    1    3    3    0    0  0.17474216081E+02  0.22778694173E+02 -0.42485057382E+01  0.29021835519E+02  0.00000000000E+00 0.  1.
</event>
<event>
 7    1  0.2425980E-008  0.4614232E+02  0.7816164E-02  0.1320468E+00
        -11   -1    0    0    0    0  0.00000000000E+00  0.00000000000E+00  0.45593999997E+02  0.45594000000E+02  0.51100000000E-03 0.  1.
         11   -1    0    0    0    0 -0.00000000000E+00 -0.00000000000E+00 -0.45593999997E+02  0.45594000000E+02  0.51100000000E-03 0. -1.
    9900012    2    1    2    0    0  0.40437735455E+02 -0.11719982928E+02 -0.16017025876E+02  0.46142316894E+02  0.99999920933E+01 0.  0.
         12    1    1    2    0    0 -0.40437735455E+02  0.11719982928E+02  0.16017025876E+02  0.45045683106E+02  0.00000000000E+00 0. -1.
         11    1    3    3    0    0  0.45122310800E+01 -0.29591308136E+00  0.46895877277E+00  0.45461760264E+01  0.51100000000E-03 0. -1.
        -11    1    3    3    0    0  0.53695076612E+01 -0.29539650338E+01 -0.67781554010E+00  0.61657891719E+01  0.51100000000E-03 0.  1.
        -12    1    3    3    0    0  0.30555996714E+02 -0.84701048124E+01 -0.15808169108E+02  0.35430351696E+02  0.00000000000E+00 0.  1.
</event>
<event>
 7    1  0.2425980E-008  0.4614232E+02  0.7816164E-02  0.1320468E+00
        -11   -1    0    0    0    0  0.00000000000E+00  0.00000000000E+00  0.45593999997E+02  0.45594000000E+02  0.51100000000E-03 0. -1.
         11   -1    0    0    0    0 -0.00000000000E+00 -0.00000000000E+00 -0.45593999997E+02  0.45594000000E+02  0.51100000000E-03 0.  1.
    9900012    2    1    2    0    0  0.13620311582E+02  0.29423988495E+02 -0.31270264667E+02  0.46142318310E+02  0.10000005008E+02 0.  0.
         12    1    1    2    0    0 -0.13620311582E+02 -0.29423988495E+02  0.31270264667E+02  0.45045681690E+02  0.00000000000E+00 0. -1.
         11    1    3    3    0    0  0.18278765205E+01  0.36754966504E+01 -0.69507727136E+01  0.80724004967E+01  0.51100000000E-03 0. -1.
        -11    1    3    3    0    0  0.55804218631E+01  0.12707485915E+02 -0.70854846450E+01  0.15582855944E+02  0.51100000000E-03 0.  1.
        -12    1    3    3    0    0  0.62120131987E+01  0.13041005929E+02 -0.17234007309E+02  0.22487061870E+02  0.00000000000E+00 0.  1.
</event>
<event>
 7    1  0.2425980E-008  0.4614233E+02  0.7816164E-02  0.1320468E+00
        -11   -1    0    0    0    0  0.00000000000E+00  0.00000000000E+00  0.45593999997E+02  0.45594000000E+02  0.51100000000E-03 0.  1.
         11   -1    0    0    0    0 -0.00000000000E+00 -0.00000000000E+00 -0.45593999997E+02  0.45594000000E+02  0.51100000000E-03 0. -1.
    9900012    2    1    2    0    0  0.41969357539E+02 -0.79841786896E+01  0.14280712526E+02  0.46142325049E+02  0.10000066454E+02 0.  0.
         12    1    1    2    0    0 -0.41969357539E+02  0.79841786896E+01 -0.14280712526E+02  0.45045674951E+02  0.00000000000E+00 0. -1.
         11    1    3    3    0    0  0.73224139012E+01 -0.14056680305E+01  0.14905157697E+01  0.76036363323E+01  0.51100000000E-03 0.  1.
        -11    1    3    3    0    0  0.15373008570E+01  0.10305279380E+01  0.23635372430E+01  0.30019310978E+01  0.51100000000E-03 0. -1.
         12    1    3    3    0    0  0.33109642781E+02 -0.76090385972E+01  0.10426659513E+02  0.35536757619E+02  0.00000000000E+00 0. -1.
</event>
<event>
 7    1  0.2425980E-008  0.4614232E+02  0.7816164E-02  0.1320468E+00
        -11   -1    0    0    0    0  0.00000000000E+00  0.00000000000E+00  0.45593999997E+02  0.45594000000E+02  0.51100000000E-03 0. -1.
         11   -1    0    0    0    0 -0.00000000000E+00 -0.00000000000E+00 -0.45593999997E+02  0.45594000000E+02  0.51100000000E-03 0.  1.
    9900012    2    1    2    0    0  0.13592248196E+02  0.33320180654E+02 -0.27094829134E+02  0.46142318569E+02  0.10000007364E+02 0.  0.
         12    1    1    2    0    0 -0.13592248196E+02 -0.33320180654E+02  0.27094829134E+02  0.45045681431E+02  0.00000000000E+00 0. -1.
         11    1    3    3    0    0  0.32352055349E+01  0.61993023823E+01 -0.87882454249E+01  0.11230813096E+02  0.51100000000E-03 0. -1.
        -11    1    3    3    0    0  0.39210612413E+01  0.12227685674E+02 -0.44966056019E+01  0.13605531243E+02  0.51100000000E-03 0.  1.
        -12    1    3    3    0    0  0.64359814201E+01  0.14893192598E+02 -0.13809978107E+02  0.21305974230E+02  0.00000000000E+00 0.  1.
</event>
<event>
 7    1  0.2425980E-008  0.4614232E+02  0.7816164E-02  0.1320468E+00
        -11   -1    0    0    0    0  0.00000000000E+00  0.00000000000E+00  0.45593999997E+02  0.45594000000E+02  0.51100000000E-03 0.  1.
         11   -1    0    0    0    0 -0.00000000000E+00 -0.00000000000E+00 -0.45593999997E+02  0.45594000000E+02  0.51100000000E-03 0. -1.
    9900012    2    1    2    0    0  0.18832677439E+02 -0.40714786931E+02 -0.40926636819E+01  0.46142317517E+02  0.99999977768E+01 0.  0.
         12    1    1    2    0    0 -0.18832677439E+02  0.40714786931E+02  0.40926636819E+01  0.45045682483E+02  0.00000000000E+00 0. -1.
         11    1    3    3    0    0  0.14146633085E+01 -0.82048626625E+01  0.93415068050E-01  0.83264500373E+01  0.51100000000E-03 0. -1.
        -11    1    3    3    0    0  0.14840306514E+02 -0.23401302113E+02 -0.67208748129E+00  0.27718357452E+02  0.51100000000E-03 0.  1.
         12    1    3    3    0    0  0.25777076156E+01 -0.91086221557E+01 -0.35139912687E+01  0.10097510028E+02  0.00000000000E+00 0. -1.
</event>
<event>
 7    1  0.2425980E-008  0.4614232E+02  0.7816164E-02  0.1320468E+00
        -11   -1    0    0    0    0  0.00000000000E+00  0.00000000000E+00  0.45593999997E+02  0.45594000000E+02  0.51100000000E-03 0.  1.
         11   -1    0    0    0    0 -0.00000000000E+00 -0.00000000000E+00 -0.45593999997E+02  0.45594000000E+02  0.51100000000E-03 0. -1.
    9900012    2    1    2    0    0 -0.15226177543E+02  0.35415708676E+02  0.23302458781E+02  0.46142317756E+02  0.99999999508E+01 0.  0.
         12    1    1    2    0    0  0.15226177543E+02 -0.35415708676E+02 -0.23302458781E+02  0.45045682244E+02  0.00000000000E+00 0. -1.
         11    1    3    3    0    0 -0.43037762747E+01  0.57426688463E+01  0.62588553820E+01  0.95222899900E+01  0.51100000000E-03 0. -1.
        -11    1    3    3    0    0 -0.16526923043E+01  0.18966761846E+01  0.36180011767E+01  0.44066659934E+01  0.51100000000E-03 0.  1.
        -12    1    3    3    0    0 -0.92697089640E+01  0.27776363645E+02  0.13425602222E+02  0.32213361772E+02  0.00000000000E+00 0.  1.
</event>
<event>
 7    1  0.2425980E-008  0.4614232E+02  0.7816164E-02  0.1320468E+00
        -11   -1    0    0    0    0  0.00000000000E+00  0.00000000000E+00  0.45593999997E+02  0.45594000000E+02  0.51100000000E-03 0.  1.
         11   -1    0    0    0    0 -0.00000000000E+00 -0.00000000000E+00 -0.45593999997E+02  0.45594000000E+02  0.51100000000E-03 0. -1.
    9900012    2    1    2    0    0 -0.14805121907E+02 -0.42526682664E+02 -0.11845543056E+01  0.46142317166E+02  0.99999945741E+01 0.  0.
         12    1    1    2    0    0  0.14805121907E+02  0.42526682664E+02  0.11845543056E+01  0.45045682834E+02  0.00000000000E+00 0. -1.
         11    1    3    3    0    0 -0.87971353332E+01 -0.20209299928E+02 -0.19455910794E+01  0.22126696965E+02  0.51100000000E-03 0. -1.
        -11    1    3    3    0    0 -0.68462300663E+01 -0.21066813555E+02 -0.33422635686E+00  0.22153853096E+02  0.51100000000E-03 0.  1.
         12    1    3    3    0    0  0.83824349293E+00 -0.12505691809E+01  0.10952631307E+01  0.18617671055E+01  0.00000000000E+00 0. -1.
</event>
<event>
 7    1  0.2425980E-008  0.4614232E+02  0.7816164E-02  0.1320468E+00
        -11   -1    0    0    0    0  0.00000000000E+00  0.00000000000E+00  0.45593999997E+02  0.45594000000E+02  0.51100000000E-03 0. -1.
         11   -1    0    0    0    0 -0.00000000000E+00 -0.00000000000E+00 -0.45593999997E+02  0.45594000000E+02  0.51100000000E-03 0.  1.
    9900012    2    1    2    0    0  0.35715263453E+02  0.60851639624E+01 -0.26767596472E+02  0.46142317800E+02  0.10000000357E+02 0.  0.
         12    1    1    2    0    0 -0.35715263453E+02 -0.60851639624E+01  0.26767596472E+02  0.45045682200E+02  0.00000000000E+00 0. -1.
         11    1    3    3    0    0  0.13631559122E+02  0.67174788942E+00 -0.12349367134E+02  0.18405909872E+02  0.51100000000E-03 0. -1.
        -11    1    3    3    0    0  0.15998444257E+02  0.73028066425E+00 -0.98364044497E+01  0.18794637034E+02  0.51100000000E-03 0.  1.
         12    1    3    3    0    0  0.60852600735E+01  0.46831354088E+01 -0.45818248880E+01  0.89417708942E+01  0.00000000000E+00 0. -1.
</event>
<event>
 7    1  0.2425980E-008  0.4614232E+02  0.7816164E-02  0.1320468E+00
        -11   -1    0    0    0    0  0.00000000000E+00  0.00000000000E+00  0.45593999997E+02  0.45594000000E+02  0.51100000000E-03 0. -1.
         11   -1    0    0    0    0 -0.00000000000E+00 -0.00000000000E+00 -0.45593999997E+02  0.45594000000E+02  0.51100000000E-03 0.  1.
    9900012    2    1    2    0    0 -0.42416918512E+02  0.63074037865E+00 -0.15149941469E+02  0.46142317232E+02  0.99999951770E+01 0.  0.
         12    1    1    2    0    0  0.42416918512E+02 -0.63074037865E+00  0.15149941469E+02  0.45045682768E+02  0.00000000000E+00 0. -1.
         11    1    3    3    0    0 -0.24498920193E+02  0.13752824477E+01 -0.53502721008E+01  0.25114018083E+02  0.51100000000E-03 0. -1.
        -11    1    3    3    0    0 -0.11837807822E+02 -0.14369605864E+00 -0.37209106897E+01  0.12409654275E+02  0.51100000000E-03 0.  1.
         12    1    3    3    0    0 -0.60801904968E+01 -0.60084601042E+00 -0.60787586788E+01  0.86186448750E+01  0.00000000000E+00 0. -1.
</event>
<event>
 7    1  0.2425980E-008  0.4614232E+02  0.7816164E-02  0.1320468E+00
        -11   -1    0    0    0    0  0.00000000000E+00  0.00000000000E+00  0.45593999997E+02  0.45594000000E+02  0.51100000000E-03 0.  1.
         11   -1    0    0    0    0 -0.00000000000E+00 -0.00000000000E+00 -0.45593999997E+02  0.45594000000E+02  0.51100000000E-03 0. -1.
    9900012    2    1    2    0    0  0.19678486201E+02  0.36612189742E+02  0.17361399037E+02  0.46142318372E+02  0.10000005568E+02 0.  0.
         12    1    1    2    0    0 -0.19678486201E+02 -0.36612189742E+02 -0.17361399037E+02  0.45045681628E+02  0.00000000000E+00 0. -1.
         11    1    3    3    0    0  0.13780810223E+02  0.20105256862E+02  0.95072224773E+01  0.26163320954E+02  0.51100000000E-03 0. -1.
        -11    1    3    3    0    0  0.42956188731E+01  0.46673603539E+01  0.36195418802E+01  0.73032648767E+01  0.51100000000E-03 0.  1.
         12    1    3    3    0    0  0.16020571048E+01  0.11839572526E+02  0.42346346793E+01  0.12675732541E+02  0.00000000000E+00 0. -1.
</event>
<event>
 7    1  0.2425980E-008  0.4614232E+02  0.7816164E-02  0.1320468E+00
        -11   -1    0    0    0    0  0.00000000000E+00  0.00000000000E+00  0.45593999997E+02  0.45594000000E+02  0.51100000000E-03 0. -1.
         11   -1    0    0    0    0 -0.00000000000E+00 -0.00000000000E+00 -0.45593999997E+02  0.45594000000E+02  0.51100000000E-03 0.  1.
    9900012    2    1    2    0    0 -0.72794688129E+01 -0.33397090286E+02 -0.29338662911E+02  0.46142318219E+02  0.10000004175E+02 0.  0.
         12    1    1    2    0    0  0.72794688129E+01  0.33397090286E+02  0.29338662911E+02  0.45045681781E+02  0.00000000000E+00 0. -1.
         11    1    3    3    0    0  0.72557196831E+00 -0.13506083539E+02 -0.10669734750E+02  0.17227419630E+02  0.51100000000E-03 0. -1.
        -11    1    3    3    0    0 -0.54520470707E+01 -0.12327739663E+02 -0.14883629015E+02  0.20080348487E+02  0.51100000000E-03 0.  1.
         12    1    3    3    0    0 -0.25529937105E+01 -0.75632670835E+01 -0.37852991463E+01  0.88345501011E+01  0.00000000000E+00 0. -1.
</event>
<event>
 7    1  0.2425980E-008  0.4614232E+02  0.7816164E-02  0.1320468E+00
        -11   -1    0    0    0    0  0.00000000000E+00  0.00000000000E+00  0.45593999997E+02  0.45594000000E+02  0.51100000000E-03 0. -1.
         11   -1    0    0    0    0 -0.00000000000E+00 -0.00000000000E+00 -0.45593999997E+02  0.45594000000E+02  0.51100000000E-03 0.  1.
    9900012    2    1    2    0    0  0.42499693521E+01  0.43931984469E+02 -0.90017746299E+01  0.46142318239E+02  0.10000004355E+02 0.  0.
         12    1    1    2    0    0 -0.42499693521E+01 -0.43931984469E+02  0.90017746299E+01  0.45045681761E+02  0.00000000000E+00 0. -1.
         11    1    3    3    0    0  0.29994636088E+01  0.26666990626E+02 -0.23974563628E+01  0.26942029773E+02  0.51100000000E-03 0.  1.
        -11    1    3    3    0    0  0.26724041985E+01  0.64675747280E+01 -0.14283375394E+01  0.71422276252E+01  0.51100000000E-03 0. -1.
        -12    1    3    3    0    0 -0.14218984552E+01  0.10797419115E+02 -0.51759807276E+01  0.12058060841E+02  0.00000000000E+00 0.  1.
</event>
<event>
 7    1  0.2425980E-008  0.4614232E+02  0.7816164E-02  0.1320468E+00
        -11   -1    0    0    0    0  0.00000000000E+00  0.00000000000E+00  0.45593999997E+02  0.45594000000E+02  0.51100000000E-03 0.  1.
         11   -1    0    0    0    0 -0.00000000000E+00 -0.00000000000E+00 -0.45593999997E+02  0.45594000000E+02  0.51100000000E-03 0. -1.
    9900012    2    1    2    0    0  0.40049421036E+01 -0.52229980157E+00  0.44864253139E+02  0.46142316877E+02  0.99999919356E+01 0.  0.
         12    1    1    2    0    0 -0.40049421036E+01  0.52229980157E+00 -0.44864253139E+02  0.45045683123E+02  0.00000000000E+00 0. -1.
         11    1    3    3    0    0  0.37948351190E+01 -0.29081438305E+01  0.12630441037E+02  0.13505040361E+02  0.51100000000E-03 0.  1.
        -11    1    3    3    0    0 -0.96119109570E+00  0.28271110093E+01  0.12041741575E+02  0.12406449347E+02  0.51100000000E-03 0. -1.
        -12    1    3    3    0    0  0.11712980802E+01 -0.44126698030E+00  0.20192070527E+02  0.20230827169E+02  0.00000000000E+00 0.  1.
</event>
<event>
 7    1  0.2425980E-008  0.4614232E+02  0.7816164E-02  0.1320468E+00
        -11   -1    0    0    0    0  0.00000000000E+00  0.00000000000E+00  0.45593999997E+02  0.45594000000E+02  0.51100000000E-03 0.  1.
         11   -1    0    0    0    0 -0.00000000000E+00 -0.00000000000E+00 -0.45593999997E+02  0.45594000000E+02  0.51100000000E-03 0. -1.
    9900012    2    1    2    0    0  0.34766912613E+02  0.39013462133E+01  0.28375253500E+02  0.46142315122E+02  0.99999759360E+01 0.  0.
         12    1    1    2    0    0 -0.34766912613E+02 -0.39013462133E+01 -0.28375253500E+02  0.45045684878E+02  0.00000000000E+00 0. -1.
         11    1    3    3    0    0  0.77834372898E+01  0.12263468416E+01  0.91020044529E+01  0.12038783491E+02  0.51100000000E-03 0. -1.
        -11    1    3    3    0    0  0.13242697416E+02  0.50528156393E+01  0.10296033277E+02  0.17518797968E+02  0.51100000000E-03 0.  1.
         12    1    3    3    0    0  0.13740777908E+02 -0.23778162676E+01  0.89772157698E+01  0.16584733664E+02  0.00000000000E+00 0. -1.
</event>
<event>
 7    1  0.2425980E-008  0.4614232E+02  0.7816164E-02  0.1320468E+00
        -11   -1    0    0    0    0  0.00000000000E+00  0.00000000000E+00  0.45593999997E+02  0.45594000000E+02  0.51100000000E-03 0.  1.
         11   -1    0    0    0    0 -0.00000000000E+00 -0.00000000000E+00 -0.45593999997E+02  0.45594000000E+02  0.51100000000E-03 0. -1.
    9900012    2    1    2    0    0 -0.27233627080E+02 -0.27965195256E+02  0.22480902645E+02  0.46142316817E+02  0.99999913926E+01 0.  0.
         12    1    1    2    0    0  0.27233627080E+02  0.27965195256E+02 -0.22480902645E+02  0.45045683183E+02  0.00000000000E+00 0. -1.
         11    1    3    3    0    0 -0.17982192435E+01 -0.63296804527E+01  0.18034221529E+01  0.68228131151E+01  0.51100000000E-03 0. -1.
        -11    1    3    3    0    0 -0.16603982875E+02 -0.15047966536E+02  0.14454728556E+02  0.26665946862E+02  0.51100000000E-03 0.  1.
         12    1    3    3    0    0 -0.88314249622E+01 -0.65875482676E+01  0.62227519363E+01  0.12653556840E+02  0.00000000000E+00 0. -1.
</event>
<event>
 7    1  0.2425980E-008  0.4614232E+02  0.7816164E-02  0.1320468E+00
        -11   -1    0    0    0    0  0.00000000000E+00  0.00000000000E+00  0.45593999997E+02  0.45594000000E+02  0.51100000000E-03 0.  1.
         11   -1    0    0    0    0 -0.00000000000E+00 -0.00000000000E+00 -0.45593999997E+02  0.45594000000E+02  0.51100000000E-03 0. -1.
    9900012    2    1    2    0    0  0.31845995213E+02 -0.31397325734E+02  0.53994492202E+01  0.46142317340E+02  0.99999961628E+01 0.  0.
         12    1    1    2    0    0 -0.31845995213E+02  0.31397325734E+02 -0.53994492202E+01  0.45045682660E+02  0.00000000000E+00 0. -1.
         11    1    3    3    0    0  0.93846377084E+01 -0.78081964653E+01  0.13768058012E+00  0.12208943982E+02  0.51100000000E-03 0. -1.
        -11    1    3    3    0    0  0.15039546315E+02 -0.14310577250E+02  0.70358866501E+01  0.21919951546E+02  0.51100000000E-03 0.  1.
        -12    1    3    3    0    0  0.74218111903E+01 -0.92785520189E+01 -0.17741180100E+01  0.12013421812E+02  0.00000000000E+00 0.  1.
</event>
<event>
 7    1  0.2425980E-008  0.4614232E+02  0.7816164E-02  0.1320468E+00
        -11   -1    0    0    0    0  0.00000000000E+00  0.00000000000E+00  0.45593999997E+02  0.45594000000E+02  0.51100000000E-03 0.  1.
         11   -1    0    0    0    0 -0.00000000000E+00 -0.00000000000E+00 -0.45593999997E+02  0.45594000000E+02  0.51100000000E-03 0. -1.
    9900012    2    1    2    0    0  0.13470115828E+02 -0.14042536300E+02  0.40626058901E+02  0.46142317544E+02  0.99999980172E+01 0.  0.
         12    1    1    2    0    0 -0.13470115828E+02  0.14042536300E+02 -0.40626058901E+02  0.45045682456E+02  0.00000000000E+00 0. -1.
         11    1    3    3    0    0  0.41677791411E+01 -0.29606769271E+01  0.58275693786E+01  0.77521968472E+01  0.51100000000E-03 0. -1.
        -11    1    3    3    0    0  0.13734885273E+01 -0.64335136094E+01  0.10270756092E+02  0.12196925804E+02  0.51100000000E-03 0.  1.
        -12    1    3    3    0    0  0.79288481592E+01 -0.46483457636E+01  0.24527733430E+02  0.26193194893E+02  0.00000000000E+00 0.  1.
</event>
<event>
 7    1  0.2425980E-008  0.4614232E+02  0.7816164E-02  0.1320468E+00
        -11   -1    0    0    0    0  0.00000000000E+00  0.00000000000E+00  0.45593999997E+02  0.45594000000E+02  0.51100000000E-03 0. -1.
         11   -1    0    0    0    0 -0.00000000000E+00 -0.00000000000E+00 -0.45593999997E+02  0.45594000000E+02  0.51100000000E-03 0.  1.
    9900012    2    1    2    0    0 -0.21825094008E+02 -0.34237673892E+02 -0.19507958752E+02  0.46142317669E+02  0.99999991635E+01 0.  0.
         12    1    1    2    0    0  0.21825094008E+02  0.34237673892E+02  0.19507958752E+02  0.45045682331E+02  0.00000000000E+00 0. -1.
         11    1    3    3    0    0 -0.26453903170E+00 -0.34036724789E+01 -0.81311377094E+00  0.35094332176E+01  0.51100000000E-03 0. -1.
        -11    1    3    3    0    0 -0.15217364523E+01 -0.16460887830E+01 -0.33846550095E+01  0.40597019479E+01  0.51100000000E-03 0.  1.
         12    1    3    3    0    0 -0.20038818524E+02 -0.29187912630E+02 -0.15310189972E+02  0.38573182504E+02  0.00000000000E+00 0. -1.
</event>
<event>
 7    1  0.2425980E-008  0.4614232E+02  0.7816164E-02  0.1320468E+00
        -11   -1    0    0    0    0  0.00000000000E+00  0.00000000000E+00  0.45593999997E+02  0.45594000000E+02  0.51100000000E-03 0. -1.
         11   -1    0    0    0    0 -0.00000000000E+00 -0.00000000000E+00 -0.45593999997E+02  0.45594000000E+02  0.51100000000E-03 0.  1.
    9900012    2    1    2    0    0  0.11781558260E+02 -0.10927264958E+02 -0.42082101071E+02  0.46142318020E+02  0.10000002364E+02 0.  0.
         12    1    1    2    0    0 -0.11781558260E+02  0.10927264958E+02  0.42082101071E+02  0.45045681980E+02  0.00000000000E+00 0. -1.
         11    1    3    3    0    0  0.88838297974E+01 -0.83216821883E+01 -0.23560332623E+02  0.26519089349E+02  0.51100000000E-03 0.  1.
        -11    1    3    3    0    0 -0.31575255227E+00 -0.35789695652E+00  0.18347848689E+00  0.51132623835E+00  0.51100000000E-03 0. -1.
         12    1    3    3    0    0  0.32134810152E+01 -0.22476858129E+01 -0.18705246934E+02  0.19111902433E+02  0.00000000000E+00 0. -1.
</event>
<event>
 7    1  0.2425980E-008  0.4614232E+02  0.7816164E-02  0.1320468E+00
        -11   -1    0    0    0    0  0.00000000000E+00  0.00000000000E+00  0.45593999997E+02  0.45594000000E+02  0.51100000000E-03 0.  1.
         11   -1    0    0    0    0 -0.00000000000E+00 -0.00000000000E+00 -0.45593999997E+02  0.45594000000E+02  0.51100000000E-03 0. -1.
    9900012    2    1    2    0    0  0.41013330908E+02  0.15138666640E+02 -0.10855458470E+02  0.46142317427E+02  0.99999969571E+01 0.  0.
         12    1    1    2    0    0 -0.41013330908E+02 -0.15138666640E+02  0.10855458470E+02  0.45045682573E+02  0.00000000000E+00 0. -1.
         11    1    3    3    0    0  0.76824839767E+01  0.63994320392E+01 -0.44044745143E+01  0.10925780818E+02  0.51100000000E-03 0. -1.
        -11    1    3    3    0    0  0.25411075875E+02  0.80841865392E+01 -0.52836974507E+01  0.27184449748E+02  0.51100000000E-03 0.  1.
         12    1    3    3    0    0  0.79197710568E+01  0.65504806186E+00 -0.11672865048E+01  0.80320868608E+01  0.00000000000E+00 0. -1.
</event>
<event>
 7    1  0.2425980E-008  0.4614232E+02  0.7816164E-02  0.1320468E+00
        -11   -1    0    0    0    0  0.00000000000E+00  0.00000000000E+00  0.45593999997E+02  0.45594000000E+02  0.51100000000E-03 0.  1.
         11   -1    0    0    0    0 -0.00000000000E+00 -0.00000000000E+00 -0.45593999997E+02  0.45594000000E+02  0.51100000000E-03 0. -1.
    9900012    2    1    2    0    0  0.84601493252E+01 -0.16279910481E+02  0.41140051420E+02  0.46142318268E+02  0.10000004623E+02 0.  0.
         12    1    1    2    0    0 -0.84601493252E+01  0.16279910481E+02 -0.41140051420E+02  0.45045681732E+02  0.00000000000E+00 0. -1.
         11    1    3    3    0    0 -0.89185928283E-01  0.49590386339E+00  0.21269204138E+00  0.54691218410E+00  0.51100000000E-03 0. -1.
        -11    1    3    3    0    0  0.49065747010E+01 -0.79790179378E+01  0.12528514397E+02  0.15642981679E+02  0.51100000000E-03 0.  1.
        -12    1    3    3    0    0  0.36427605525E+01 -0.87967964061E+01  0.28398844982E+02  0.29952424405E+02  0.00000000000E+00 0.  1.
</event>
<event>
 7    1  0.2425980E-008  0.4614232E+02  0.7816164E-02  0.1320468E+00
        -11   -1    0    0    0    0  0.00000000000E+00  0.00000000000E+00  0.45593999997E+02  0.45594000000E+02  0.51100000000E-03 0.  1.
         11   -1    0    0    0    0 -0.00000000000E+00 -0.00000000000E+00 -0.45593999997E+02  0.45594000000E+02  0.51100000000E-03 0. -1.
    9900012    2    1    2    0    0 -0.25757486388E+02 -0.28582465461E+02  0.23424516336E+02  0.46142318715E+02  0.10000008697E+02 0.  0.
         12    1    1    2    0    0  0.25757486388E+02  0.28582465461E+02 -0.23424516336E+02  0.45045681285E+02  0.00000000000E+00 0. -1.
         11    1    3    3    0    0 -0.85014399520E+01 -0.45469823255E+01  0.65635995187E+01  0.11663205753E+02  0.51100000000E-03 0. -1.
        -11    1    3    3    0    0 -0.30019916117E+01 -0.43973653371E+01  0.81146529081E+00  0.53858380707E+01  0.51100000000E-03 0.  1.
         12    1    3    3    0    0 -0.14254054824E+02 -0.19638117799E+02  0.16049451527E+02  0.29093274891E+02  0.00000000000E+00 0. -1.
</event>
<event>
 7    1  0.2425980E-008  0.4614232E+02  0.7816164E-02  0.1320468E+00
        -11   -1    0    0    0    0  0.00000000000E+00  0.00000000000E+00  0.45593999997E+02  0.45594000000E+02  0.51100000000E-03 0.  1.
         11   -1    0    0    0    0 -0.00000000000E+00 -0.00000000000E+00 -0.45593999997E+02  0.45594000000E+02  0.51100000000E-03 0. -1.
    9900012    2    1    2    0    0  0.38263327710E+02 -0.56428892843E+01  0.23090887924E+02  0.46142317054E+02  0.99999935545E+01 0.  0.
         12    1    1    2    0    0 -0.38263327710E+02  0.56428892843E+01 -0.23090887924E+02  0.45045682946E+02  0.00000000000E+00 0. -1.
         11    1    3    3    0    0  0.47875546402E+01 -0.34754947880E+01  0.37015509789E+01  0.69786261803E+01  0.51100000000E-03 0. -1.
        -11    1    3    3    0    0  0.28268331721E+02 -0.48699596865E+00  0.14266731886E+02  0.31668207754E+02  0.51100000000E-03 0.  1.
        -12    1    3    3    0    0  0.52074413489E+01 -0.16803985277E+01  0.51226050592E+01  0.74954831203E+01  0.00000000000E+00 0.  1.
</event>
<event>
 7    1  0.2425980E-008  0.4614232E+02  0.7816164E-02  0.1320468E+00
        -11   -1    0    0    0    0  0.00000000000E+00  0.00000000000E+00  0.45593999997E+02  0.45594000000E+02  0.51100000000E-03 0.  1.
         11   -1    0    0    0    0 -0.00000000000E+00 -0.00000000000E+00 -0.45593999997E+02  0.45594000000E+02  0.51100000000E-03 0. -1.
    9900012    2    1    2    0    0  0.28261234727E+02 -0.15633610191E+02  0.31400738041E+02  0.46142317572E+02  0.99999982714E+01 0.  0.
         12    1    1    2    0    0 -0.28261234727E+02  0.15633610191E+02 -0.31400738041E+02  0.45045682428E+02  0.00000000000E+00 0. -1.
         11    1    3    3    0    0  0.80847193006E+01 -0.88071968972E+01  0.13663564057E+02  0.18155505676E+02  0.51100000000E-03 0. -1.
        -11    1    3    3    0    0  0.16028171671E+02 -0.70091084047E+01  0.14495844204E+02  0.22719141427E+02  0.51100000000E-03 0.  1.
         12    1    3    3    0    0  0.41483437561E+01  0.18269511043E+00  0.32413297802E+01  0.52676704686E+01  0.00000000000E+00 0. -1.
</event>
<event>
 7    1  0.2425980E-008  0.4614232E+02  0.7816164E-02  0.1320468E+00
        -11   -1    0    0    0    0  0.00000000000E+00  0.00000000000E+00  0.45593999997E+02  0.45594000000E+02  0.51100000000E-03 0.  1.
         11   -1    0    0    0    0 -0.00000000000E+00 -0.00000000000E+00 -0.45593999997E+02  0.45594000000E+02  0.51100000000E-03 0. -1.
    9900012    2    1    2    0    0  0.35669725249E+02  0.27301530719E+02 -0.33779210522E+01  0.46142320634E+02  0.10000026195E+02 0.  0.
         12    1    1    2    0    0 -0.35669725249E+02 -0.27301530719E+02  0.33779210522E+01  0.45045679366E+02  0.00000000000E+00 0. -1.
         11    1    3    3    0    0  0.20418369319E+02  0.12584421105E+02 -0.52136091319E+01  0.24545043912E+02  0.51100000000E-03 0. -1.
        -11    1    3    3    0    0  0.39587031266E+01  0.17805838807E+01  0.58218245898E+00  0.43795828657E+01  0.51100000000E-03 0.  1.
        -12    1    3    3    0    0  0.11292652803E+02  0.12936525733E+02  0.12535056207E+01  0.17217693856E+02  0.00000000000E+00 0.  1.
</event>
<event>
 7    1  0.2425980E-008  0.4614232E+02  0.7816164E-02  0.1320468E+00
        -11   -1    0    0    0    0  0.00000000000E+00  0.00000000000E+00  0.45593999997E+02  0.45594000000E+02  0.51100000000E-03 0.  1.
         11   -1    0    0    0    0 -0.00000000000E+00 -0.00000000000E+00 -0.45593999997E+02  0.45594000000E+02  0.51100000000E-03 0. -1.
    9900012    2    1    2    0    0 -0.26842851643E+02 -0.25802300987E+02  0.25353818381E+02  0.46142317332E+02  0.99999960870E+01 0.  0.
         12    1    1    2    0    0  0.26842851643E+02  0.25802300987E+02 -0.25353818381E+02  0.45045682668E+02  0.00000000000E+00 0. -1.
         11    1    3    3    0    0 -0.65861389437E+01 -0.64823932515E+01  0.39745373058E+01  0.10059602155E+02  0.51100000000E-03 0. -1.
        -11    1    3    3    0    0 -0.14538723604E+01 -0.52970988133E+01  0.53867523094E+01  0.76935103420E+01  0.51100000000E-03 0.  1.
        -12    1    3    3    0    0 -0.18802840338E+02 -0.14022808922E+02  0.15992528766E+02  0.28389204835E+02  0.00000000000E+00 0.  1.
</event>
<event>
 7    1  0.2425980E-008  0.4614231E+02  0.7816164E-02  0.1320468E+00
        -11   -1    0    0    0    0  0.00000000000E+00  0.00000000000E+00  0.45593999997E+02  0.45594000000E+02  0.51100000000E-03 0.  1.
         11   -1    0    0    0    0 -0.00000000000E+00 -0.00000000000E+00 -0.45593999997E+02  0.45594000000E+02  0.51100000000E-03 0. -1.
    9900012    2    1    2    0    0 -0.58852434691E+01 -0.15968914029E+02  0.41706971048E+02  0.46142314968E+02  0.99999745337E+01 0.  0.
         12    1    1    2    0    0  0.58852434691E+01  0.15968914029E+02 -0.41706971048E+02  0.45045685032E+02  0.00000000000E+00 0. -1.
         11    1    3    3    0    0  0.47706259536E+00 -0.31389270767E+00  0.13971879093E+00  0.58791066794E+00  0.51100000000E-03 0. -1.
        -11    1    3    3    0    0 -0.46739055588E+01 -0.36505233812E+01  0.19433536595E+02  0.20318318311E+02  0.51100000000E-03 0.  1.
        -12    1    3    3    0    0 -0.16884005057E+01 -0.12004497940E+02  0.22133715662E+02  0.25236085989E+02  0.00000000000E+00 0.  1.
</event>
<event>
 7    1  0.2425980E-008  0.4614232E+02  0.7816164E-02  0.1320468E+00
        -11   -1    0    0    0    0  0.00000000000E+00  0.00000000000E+00  0.45593999997E+02  0.45594000000E+02  0.51100000000E-03 0. -1.
         11   -1    0    0    0    0 -0.00000000000E+00 -0.00000000000E+00 -0.45593999997E+02  0.45594000000E+02  0.51100000000E-03 0.  1.
    9900012    2    1    2    0    0  0.29520023707E+02  0.96135906248E+01 -0.32638331899E+02  0.46142316150E+02  0.99999853090E+01 0.  0.
         12    1    1    2    0    0 -0.29520023707E+02 -0.96135906248E+01  0.32638331899E+02  0.45045683850E+02  0.00000000000E+00 0. -1.
         11    1    3    3    0    0  0.30906571760E+00  0.38012143166E+00  0.39760775162E+00  0.63095650078E+00  0.51100000000E-03 0. -1.
        -11    1    3    3    0    0  0.19637020976E+02  0.38401770712E+01 -0.18191910538E+02  0.27042654493E+02  0.51100000000E-03 0.  1.
        -12    1    3    3    0    0  0.95739370136E+01  0.53932921219E+01 -0.14844029113E+02  0.18468705157E+02  0.00000000000E+00 0.  1.
</event>
<event>
 7    1  0.2425980E-008  0.4614232E+02  0.7816164E-02  0.1320468E+00
        -11   -1    0    0    0    0  0.00000000000E+00  0.00000000000E+00  0.45593999997E+02  0.45594000000E+02  0.51100000000E-03 0.  1.
         11   -1    0    0    0    0 -0.00000000000E+00 -0.00000000000E+00 -0.45593999997E+02  0.45594000000E+02  0.51100000000E-03 0. -1.
    9900012    2    1    2    0    0  0.96063219316E+01 -0.22809360968E+02  0.37637284813E+02  0.46142316778E+02  0.99999910350E+01 0.  0.
         12    1    1    2    0    0 -0.96063219316E+01  0.22809360968E+02 -0.37637284813E+02  0.45045683222E+02  0.00000000000E+00 0. -1.
         11    1    3    3    0    0 -0.17686108262E+00 -0.81198727165E+01  0.84561635694E+01  0.11724773573E+02  0.51100000000E-03 0. -1.
        -11    1    3    3    0    0  0.50663274051E+01 -0.74341981318E+01  0.19227295250E+02  0.21227902820E+02  0.51100000000E-03 0.  1.
        -12    1    3    3    0    0  0.47168556091E+01 -0.72552901197E+01  0.99538259935E+01  0.13189640384E+02  0.00000000000E+00 0.  1.
</event>
<event>
 7    1  0.2425980E-008  0.4614232E+02  0.7816164E-02  0.1320468E+00
        -11   -1    0    0    0    0  0.00000000000E+00  0.00000000000E+00  0.45593999997E+02  0.45594000000E+02  0.51100000000E-03 0.  1.
         11   -1    0    0    0    0 -0.00000000000E+00 -0.00000000000E+00 -0.45593999997E+02  0.45594000000E+02  0.51100000000E-03 0. -1.
    9900012    2    1    2    0    0  0.33684385136E+02  0.13181346786E+02  0.26846377786E+02  0.46142315353E+02  0.99999780401E+01 0.  0.
         12    1    1    2    0    0 -0.33684385136E+02 -0.13181346786E+02 -0.26846377786E+02  0.45045684647E+02  0.00000000000E+00 0. -1.
         11    1    3    3    0    0  0.24410282023E+02  0.70348324572E+01  0.15522287089E+02  0.29770658926E+02  0.51100000000E-03 0. -1.
        -11    1    3    3    0    0  0.74468326375E+01  0.33080813850E+01  0.95641093836E+01  0.12564669011E+02  0.51100000000E-03 0.  1.
         12    1    3    3    0    0  0.18272704758E+01  0.28384329436E+01  0.17599813139E+01  0.38069874169E+01  0.00000000000E+00 0. -1.
</event>
<event>
 7    1  0.2425980E-008  0.4614232E+02  0.7816164E-02  0.1320468E+00
        -11   -1    0    0    0    0  0.00000000000E+00  0.00000000000E+00  0.45593999997E+02  0.45594000000E+02  0.51100000000E-03 0.  1.
         11   -1    0    0    0    0 -0.00000000000E+00 -0.00000000000E+00 -0.45593999997E+02  0.45594000000E+02  0.51100000000E-03 0. -1.
    9900012    2    1    2    0    0 -0.37685691151E+02 -0.31493120037E+01  0.24474150556E+02  0.46142317310E+02  0.99999958834E+01 0.  0.
         12    1    1    2    0    0  0.37685691151E+02  0.31493120037E+01 -0.24474150556E+02  0.45045682690E+02  0.00000000000E+00 0. -1.
         11    1    3    3    0    0 -0.59300130135E+01 -0.11727951756E+01  0.38759389870E+01  0.71807664045E+01  0.51100000000E-03 0. -1.
        -11    1    3    3    0    0 -0.28238520447E+02 -0.46927003790E+01  0.17964907046E+02  0.33796055381E+02  0.51100000000E-03 0.  1.
         12    1    3    3    0    0 -0.35171576904E+01  0.27161835509E+01  0.26333045226E+01  0.51654955242E+01  0.00000000000E+00 0. -1.
</event>
<event>
 7    1  0.2425980E-008  0.4614232E+02  0.7816164E-02  0.1320468E+00
        -11   -1    0    0    0    0  0.00000000000E+00  0.00000000000E+00  0.45593999997E+02  0.45594000000E+02  0.51100000000E-03 0. -1.
         11   -1    0    0    0    0 -0.00000000000E+00 -0.00000000000E+00 -0.45593999997E+02  0.45594000000E+02  0.51100000000E-03 0.  1.
    9900012    2    1    2    0    0 -0.99336969546E+01  0.12672580707E+02 -0.42069476546E+02  0.46142317701E+02  0.99999994502E+01 0.  0.
         12    1    1    2    0    0  0.99336969546E+01 -0.12672580707E+02  0.42069476546E+02  0.45045682299E+02  0.00000000000E+00 0. -1.
         11    1    3    3    0    0  0.24149528228E+00  0.38010167790E+00  0.91436989479E-01  0.45951957637E+00  0.51100000000E-03 0. -1.
        -11    1    3    3    0    0 -0.68299799240E+01  0.11369099779E+02 -0.26399260123E+02  0.29543628600E+02  0.51100000000E-03 0.  1.
        -12    1    3    3    0    0 -0.33452123129E+01  0.92337925047E+00 -0.15761653412E+02  0.16139169524E+02  0.00000000000E+00 0.  1.
</event>
<event>
 7    1  0.2425980E-008  0.4614232E+02  0.7816164E-02  0.1320468E+00
        -11   -1    0    0    0    0  0.00000000000E+00  0.00000000000E+00  0.45593999997E+02  0.45594000000E+02  0.51100000000E-03 0.  1.
         11   -1    0    0    0    0 -0.00000000000E+00 -0.00000000000E+00 -0.45593999997E+02  0.45594000000E+02  0.51100000000E-03 0. -1.
    9900012    2    1    2    0    0 -0.10170523591E+02  0.15240998765E+02  0.41150769889E+02  0.46142318121E+02  0.10000003284E+02 0.  0.
         12    1    1    2    0    0  0.10170523591E+02 -0.15240998765E+02 -0.41150769889E+02  0.45045681879E+02  0.00000000000E+00 0. -1.
         11    1    3    3    0    0 -0.96905893236E+00  0.66641449149E+01  0.80655296636E+01  0.10507267565E+02  0.51100000000E-03 0. -1.
        -11    1    3    3    0    0 -0.44609103788E+00  0.24007114922E+01  0.78024268027E+01  0.81755903245E+01  0.51100000000E-03 0.  1.
         12    1    3    3    0    0 -0.87553736209E+01  0.61761423584E+01  0.25282813423E+02  0.27459460232E+02  0.00000000000E+00 0. -1.
</event>
<event>
 7    1  0.2425980E-008  0.4614232E+02  0.7816164E-02  0.1320468E+00
        -11   -1    0    0    0    0  0.00000000000E+00  0.00000000000E+00  0.45593999997E+02  0.45594000000E+02  0.51100000000E-03 0. -1.
         11   -1    0    0    0    0 -0.00000000000E+00 -0.00000000000E+00 -0.45593999997E+02  0.45594000000E+02  0.51100000000E-03 0.  1.
    9900012    2    1    2    0    0 -0.86682367416E+01  0.43049031067E+02 -0.10037733040E+02  0.46142317759E+02  0.99999999807E+01 0.  0.
         12    1    1    2    0    0  0.86682367416E+01 -0.43049031067E+02  0.10037733040E+02  0.45045682241E+02  0.00000000000E+00 0. -1.
         11    1    3    3    0    0 -0.42072221458E+00  0.14872716222E+02 -0.31668701241E+00  0.14882035678E+02  0.51100000000E-03 0.  1.
        -11    1    3    3    0    0  0.51081708481E+00  0.13677094151E+01 -0.10803571138E+00  0.14639792056E+01  0.51100000000E-03 0. -1.
        -12    1    3    3    0    0 -0.87583316118E+01  0.26808605429E+02 -0.96130103161E+01  0.29796302875E+02  0.00000000000E+00 0.  1.
</event>
<event>
 7    1  0.2425980E-008  0.4614232E+02  0.7816164E-02  0.1320468E+00
        -11   -1    0    0    0    0  0.00000000000E+00  0.00000000000E+00  0.45593999997E+02  0.45594000000E+02  0.51100000000E-03 0. -1.
         11   -1    0    0    0    0 -0.00000000000E+00 -0.00000000000E+00 -0.45593999997E+02  0.45594000000E+02  0.51100000000E-03 0.  1.
    9900012    2    1    2    0    0  0.37290072164E+02  0.13985767464E+02 -0.21046669916E+02  0.46142317764E+02  0.10000000025E+02 0.  0.
         12    1    1    2    0    0 -0.37290072164E+02 -0.13985767464E+02  0.21046669916E+02  0.45045682236E+02  0.00000000000E+00 0. -1.
         11    1    3    3    0    0  0.20665986193E+01 -0.58642929188E+00 -0.26294936763E+01  0.33954331716E+01  0.51100000000E-03 0. -1.
        -11    1    3    3    0    0  0.84575939560E+01  0.22756392321E+01 -0.18484705696E+01  0.89513280103E+01  0.51100000000E-03 0.  1.
        -12    1    3    3    0    0  0.26765879589E+02  0.12296557524E+02 -0.16568705670E+02  0.33795556582E+02  0.00000000000E+00 0.  1.
</event>
<event>
 7    1  0.2425980E-008  0.4614232E+02  0.7816164E-02  0.1320468E+00
        -11   -1    0    0    0    0  0.00000000000E+00  0.00000000000E+00  0.45593999997E+02  0.45594000000E+02  0.51100000000E-03 0.  1.
         11   -1    0    0    0    0 -0.00000000000E+00 -0.00000000000E+00 -0.45593999997E+02  0.45594000000E+02  0.51100000000E-03 0. -1.
    9900012    2    1    2    0    0 -0.27489364487E+02 -0.50558927108E+01  0.35325432485E+02  0.46142318839E+02  0.10000009829E+02 0.  0.
         12    1    1    2    0    0  0.27489364487E+02  0.50558927108E+01 -0.35325432485E+02  0.45045681161E+02  0.00000000000E+00 0. -1.
         11    1    3    3    0    0 -0.48678293023E+01 -0.34999801981E+01  0.92489510769E+01  0.11022192150E+02  0.51100000000E-03 0. -1.
        -11    1    3    3    0    0 -0.22742481135E+02 -0.84476107061E+00  0.24844414017E+02  0.33692417211E+02  0.51100000000E-03 0.  1.
        -12    1    3    3    0    0  0.12094595013E+00 -0.71115144210E+00  0.12320673912E+01  0.14277094777E+01  0.00000000000E+00 0.  1.
</event>
<event>
 7    1  0.2425980E-008  0.4614232E+02  0.7816164E-02  0.1320468E+00
        -11   -1    0    0    0    0  0.00000000000E+00  0.00000000000E+00  0.45593999997E+02  0.45594000000E+02  0.51100000000E-03 0.  1.
         11   -1    0    0    0    0 -0.00000000000E+00 -0.00000000000E+00 -0.45593999997E+02  0.45594000000E+02  0.51100000000E-03 0. -1.
    9900012    2    1    2    0    0  0.33415111110E+02 -0.15528325815E+02  0.25911677306E+02  0.46142316812E+02  0.99999913439E+01 0.  0.
         12    1    1    2    0    0 -0.33415111110E+02  0.15528325815E+02 -0.25911677306E+02  0.45045683188E+02  0.00000000000E+00 0. -1.
         11    1    3    3    0    0  0.30390883389E+01  0.13372401860E+01  0.29774844647E+01  0.44597851120E+01  0.51100000000E-03 0. -1.
        -11    1    3    3    0    0  0.18283145982E+02 -0.89820916620E+01  0.13440876359E+02  0.24405092813E+02  0.51100000000E-03 0.  1.
         12    1    3    3    0    0  0.12092876789E+02 -0.78834743385E+01  0.94933164818E+01  0.17277438887E+02  0.00000000000E+00 0. -1.
</event>
<event>
 7    1  0.2425980E-008  0.4614232E+02  0.7816164E-02  0.1320468E+00
        -11   -1    0    0    0    0  0.00000000000E+00  0.00000000000E+00  0.45593999997E+02  0.45594000000E+02  0.51100000000E-03 0. -1.
         11   -1    0    0    0    0 -0.00000000000E+00 -0.00000000000E+00 -0.45593999997E+02  0.45594000000E+02  0.51100000000E-03 0.  1.
    9900012    2    1    2    0    0  0.56514620200E+01 -0.84512205091E+01 -0.43883383484E+02  0.46142317665E+02  0.99999991202E+01 0.  0.
         12    1    1    2    0    0 -0.56514620200E+01  0.84512205091E+01  0.43883383484E+02  0.45045682335E+02  0.00000000000E+00 0. -1.
         11    1    3    3    0    0  0.59862192772E+01 -0.35435445205E+01 -0.13745166732E+02  0.15405230857E+02  0.51100000000E-03 0. -1.
        -11    1    3    3    0    0 -0.15765105405E+01 -0.84879116560E+00 -0.93781867057E+01  0.95475765550E+01  0.51100000000E-03 0.  1.
        -12    1    3    3    0    0  0.12417532833E+01 -0.40588848230E+01 -0.20760030047E+02  0.21189510253E+02  0.00000000000E+00 0.  1.
</event>
<event>
 7    1  0.2425980E-008  0.4614232E+02  0.7816164E-02  0.1320468E+00
        -11   -1    0    0    0    0  0.00000000000E+00  0.00000000000E+00  0.45593999997E+02  0.45594000000E+02  0.51100000000E-03 0.  1.
         11   -1    0    0    0    0 -0.00000000000E+00 -0.00000000000E+00 -0.45593999997E+02  0.45594000000E+02  0.51100000000E-03 0. -1.
    9900012    2    1    2    0    0  0.32724458209E+02 -0.27427457270E+02  0.14351238409E+02  0.46142316286E+02  0.99999865494E+01 0.  0.
         12    1    1    2    0    0 -0.32724458209E+02  0.27427457270E+02 -0.14351238409E+02  0.45045683714E+02  0.00000000000E+00 0. -1.
         11    1    3    3    0    0  0.10036960480E+02 -0.62621475376E+01  0.38453399207E+01  0.12439521969E+02  0.51100000000E-03 0. -1.
        -11    1    3    3    0    0  0.10729467835E+02 -0.14314079045E+02  0.83935125521E+01  0.19760197169E+02  0.51100000000E-03 0.  1.
        -12    1    3    3    0    0  0.11958029894E+02 -0.68512306869E+01  0.21123859362E+01  0.13942597148E+02  0.00000000000E+00 0.  1.
</event>
<event>
 7    1  0.2425980E-008  0.4614232E+02  0.7816164E-02  0.1320468E+00
        -11   -1    0    0    0    0  0.00000000000E+00  0.00000000000E+00  0.45593999997E+02  0.45594000000E+02  0.51100000000E-03 0.  1.
         11   -1    0    0    0    0 -0.00000000000E+00 -0.00000000000E+00 -0.45593999997E+02  0.45594000000E+02  0.51100000000E-03 0. -1.
    9900012    2    1    2    0    0  0.24421778125E+02 -0.35837252794E+02  0.12181198068E+02  0.46142317399E+02  0.99999966992E+01 0.  0.
         12    1    1    2    0    0 -0.24421778125E+02  0.35837252794E+02 -0.12181198068E+02  0.45045682601E+02  0.00000000000E+00 0. -1.
         11    1    3    3    0    0  0.12388642377E+02 -0.11597290142E+02  0.44327415892E+01  0.17539235926E+02  0.51100000000E-03 0. -1.
        -11    1    3    3    0    0  0.96135900382E+01 -0.18366402676E+02  0.36660119348E+01  0.21051971510E+02  0.51100000000E-03 0.  1.
        -12    1    3    3    0    0  0.24195457092E+01 -0.58735599761E+01  0.40824445441E+01  0.75511099639E+01  0.00000000000E+00 0.  1.
</event>
<event>
 7    1  0.2425980E-008  0.4614232E+02  0.7816164E-02  0.1320468E+00
        -11   -1    0    0    0    0  0.00000000000E+00  0.00000000000E+00  0.45593999997E+02  0.45594000000E+02  0.51100000000E-03 0.  1.
         11   -1    0    0    0    0 -0.00000000000E+00 -0.00000000000E+00 -0.45593999997E+02  0.45594000000E+02  0.51100000000E-03 0. -1.
    9900012    2    1    2    0    0  0.97817840650E+01  0.29650142160E+02  0.32469973896E+02  0.46142318360E+02  0.10000005460E+02 0.  0.
         12    1    1    2    0    0 -0.97817840650E+01 -0.29650142160E+02 -0.32469973896E+02  0.45045681640E+02  0.00000000000E+00 0. -1.
         11    1    3    3    0    0  0.50694349596E+00  0.52236178704E+01  0.19764988387E+01  0.56080052857E+01  0.51100000000E-03 0. -1.
        -11    1    3    3    0    0  0.81429091392E+01  0.15860821535E+02  0.17920808424E+02  0.25279003221E+02  0.51100000000E-03 0.  1.
         12    1    3    3    0    0  0.11319314298E+01  0.85657027547E+01  0.12572666634E+02  0.15255309853E+02  0.00000000000E+00 0. -1.
</event>
<event>
 7    1  0.2425980E-008  0.4614232E+02  0.7816164E-02  0.1320468E+00
        -11   -1    0    0    0    0  0.00000000000E+00  0.00000000000E+00  0.45593999997E+02  0.45594000000E+02  0.51100000000E-03 0. -1.
         11   -1    0    0    0    0 -0.00000000000E+00 -0.00000000000E+00 -0.45593999997E+02  0.45594000000E+02  0.51100000000E-03 0.  1.
    9900012    2    1    2    0    0 -0.16864488477E+02  0.15653288217E+00 -0.41769342855E+02  0.46142317891E+02  0.10000001184E+02 0.  0.
         12    1    1    2    0    0  0.16864488477E+02 -0.15653288217E+00  0.41769342855E+02  0.45045682109E+02  0.00000000000E+00 0. -1.
         11    1    3    3    0    0 -0.57988735216E+01  0.19197764459E+01 -0.10209131649E+02  0.11897009919E+02  0.51100000000E-03 0. -1.
        -11    1    3    3    0    0 -0.12083202392E+02 -0.12393883810E+01 -0.28693958531E+02  0.31158997417E+02  0.51100000000E-03 0.  1.
         12    1    3    3    0    0  0.10175874367E+01 -0.52385518278E+00 -0.28662526749E+01  0.30863105548E+01  0.00000000000E+00 0. -1.
</event>
<event>
 7    1  0.2425980E-008  0.4614232E+02  0.7816164E-02  0.1320468E+00
        -11   -1    0    0    0    0  0.00000000000E+00  0.00000000000E+00  0.45593999997E+02  0.45594000000E+02  0.51100000000E-03 0.  1.
         11   -1    0    0    0    0 -0.00000000000E+00 -0.00000000000E+00 -0.45593999997E+02  0.45594000000E+02  0.51100000000E-03 0. -1.
    9900012    2    1    2    0    0 -0.24773363690E+01  0.86192619518E+01  0.44143906455E+02  0.46142319306E+02  0.10000014084E+02 0.  0.
         12    1    1    2    0    0  0.24773363690E+01 -0.86192619518E+01 -0.44143906455E+02  0.45045680694E+02  0.00000000000E+00 0. -1.
         11    1    3    3    0    0 -0.16085819906E+01  0.20077454136E+01  0.21154217115E+02  0.21310079298E+02  0.51100000000E-03 0. -1.
        -11    1    3    3    0    0  0.15921449872E+01 -0.54511300559E+00  0.27513912263E+01  0.32252484851E+01  0.51100000000E-03 0.  1.
         12    1    3    3    0    0 -0.24608993656E+01  0.71566295437E+01  0.20238298114E+02  0.21606991523E+02  0.00000000000E+00 0. -1.
</event>
<event>
 7    1  0.2425980E-008  0.4614232E+02  0.7816164E-02  0.1320468E+00
        -11   -1    0    0    0    0  0.00000000000E+00  0.00000000000E+00  0.45593999997E+02  0.45594000000E+02  0.51100000000E-03 0. -1.
         11   -1    0    0    0    0 -0.00000000000E+00 -0.00000000000E+00 -0.45593999997E+02  0.45594000000E+02  0.51100000000E-03 0.  1.
    9900012    2    1    2    0    0 -0.21774749401E+02  0.37141870427E+02 -0.13245950470E+02  0.46142318141E+02  0.10000003467E+02 0.  0.
         12    1    1    2    0    0  0.21774749401E+02 -0.37141870427E+02  0.13245950470E+02  0.45045681859E+02  0.00000000000E+00 0. -1.
         11    1    3    3    0    0 -0.61437808739E+01  0.12886824673E+02 -0.23699228612E+01  0.14471794229E+02  0.51100000000E-03 0. -1.
        -11    1    3    3    0    0 -0.10898273488E+02  0.14960130913E+02 -0.10396959651E+02  0.21229099185E+02  0.51100000000E-03 0.  1.
        -12    1    3    3    0    0 -0.47326950383E+01  0.92949148410E+01 -0.47906795772E+00  0.10441424727E+02  0.00000000000E+00 0.  1.
</event>
<event>
 7    1  0.2425980E-008  0.4614232E+02  0.7816164E-02  0.1320468E+00
        -11   -1    0    0    0    0  0.00000000000E+00  0.00000000000E+00  0.45593999997E+02  0.45594000000E+02  0.51100000000E-03 0.  1.
         11   -1    0    0    0    0 -0.00000000000E+00 -0.00000000000E+00 -0.45593999997E+02  0.45594000000E+02  0.51100000000E-03 0. -1.
    9900012    2    1    2    0    0 -0.38387316840E+02 -0.74193004235E+00  0.23557944945E+02  0.46142319581E+02  0.10000016597E+02 0.  0.
         12    1    1    2    0    0  0.38387316840E+02  0.74193004235E+00 -0.23557944945E+02  0.45045680419E+02  0.00000000000E+00 0. -1.
         11    1    3    3    0    0 -0.10862777793E+02  0.11827102581E-01  0.25796903985E+01  0.11164895166E+02  0.51100000000E-03 0. -1.
        -11    1    3    3    0    0 -0.17004005193E+02 -0.41869089335E+00  0.98307851112E+01  0.19645758596E+02  0.51100000000E-03 0.  1.
         12    1    3    3    0    0 -0.10520533855E+02 -0.33506625159E+00  0.11147469435E+02  0.15331665819E+02  0.00000000000E+00 0. -1.
</event>
<event>
 7    1  0.2425980E-008  0.4614231E+02  0.7816164E-02  0.1320468E+00
        -11   -1    0    0    0    0  0.00000000000E+00  0.00000000000E+00  0.45593999997E+02  0.45594000000E+02  0.51100000000E-03 0.  1.
         11   -1    0    0    0    0 -0.00000000000E+00 -0.00000000000E+00 -0.45593999997E+02  0.45594000000E+02  0.51100000000E-03 0. -1.
    9900012    2    1    2    0    0 -0.27466252472E+02 -0.30569424830E+02  0.18445297901E+02  0.46142314591E+02  0.99999710947E+01 0.  0.
         12    1    1    2    0    0  0.27466252472E+02  0.30569424830E+02 -0.18445297901E+02  0.45045685409E+02  0.00000000000E+00 0. -1.
         11    1    3    3    0    0 -0.88505999344E+01 -0.11533458954E+02  0.62574695117E+01  0.15827498842E+02  0.51100000000E-03 0. -1.
        -11    1    3    3    0    0 -0.17478452043E+02 -0.19032851689E+02  0.12991064796E+02  0.28922543008E+02  0.51100000000E-03 0.  1.
         12    1    3    3    0    0 -0.11372004939E+01 -0.31141875253E-02 -0.80323640689E+00  0.13922727416E+01  0.00000000000E+00 0. -1.
</event>
<event>
 7    1  0.2425980E-008  0.4614232E+02  0.7816164E-02  0.1320468E+00
        -11   -1    0    0    0    0  0.00000000000E+00  0.00000000000E+00  0.45593999997E+02  0.45594000000E+02  0.51100000000E-03 0.  1.
         11   -1    0    0    0    0 -0.00000000000E+00 -0.00000000000E+00 -0.45593999997E+02  0.45594000000E+02  0.51100000000E-03 0. -1.
    9900012    2    1    2    0    0 -0.32314310953E+02 -0.14637879989E+02  0.27760246380E+02  0.46142317610E+02  0.99999986190E+01 0.  0.
         12    1    1    2    0    0  0.32314310953E+02  0.14637879989E+02 -0.27760246380E+02  0.45045682390E+02  0.00000000000E+00 0. -1.
         11    1    3    3    0    0 -0.16863262782E+01 -0.75670336319E+00 -0.41230705147E+00  0.18937512145E+01  0.51100000000E-03 0. -1.
        -11    1    3    3    0    0 -0.32623200498E+01 -0.35896483270E+01  0.47144985712E+01  0.67642297608E+01  0.51100000000E-03 0.  1.
         12    1    3    3    0    0 -0.27365664625E+02 -0.10291528299E+02  0.23458054861E+02  0.37484336634E+02  0.00000000000E+00 0. -1.
</event>
<event>
 7    1  0.2425980E-008  0.4614232E+02  0.7816164E-02  0.1320468E+00
        -11   -1    0    0    0    0  0.00000000000E+00  0.00000000000E+00  0.45593999997E+02  0.45594000000E+02  0.51100000000E-03 0.  1.
         11   -1    0    0    0    0 -0.00000000000E+00 -0.00000000000E+00 -0.45593999997E+02  0.45594000000E+02  0.51100000000E-03 0. -1.
    9900012    2    1    2    0    0  0.45008571737E+02  0.49361340918E+00 -0.17601778022E+01  0.46142318632E+02  0.10000007939E+02 0.  0.
         12    1    1    2    0    0 -0.45008571737E+02 -0.49361340918E+00  0.17601778022E+01  0.45045681368E+02  0.00000000000E+00 0. -1.
         11    1    3    3    0    0  0.18110552112E+02 -0.27962160810E+01 -0.39743471942E+01  0.18751169512E+02  0.51100000000E-03 0. -1.
        -11    1    3    3    0    0  0.24222447975E+01  0.80011745119E-02  0.11291427265E+01  0.26725077054E+01  0.51100000000E-03 0.  1.
        -12    1    3    3    0    0  0.24475774828E+02  0.32818283156E+01  0.10850266656E+01  0.24718641414E+02  0.00000000000E+00 0.  1.
</event>
<event>
 7    1  0.2425980E-008  0.4614232E+02  0.7816164E-02  0.1320468E+00
        -11   -1    0    0    0    0  0.00000000000E+00  0.00000000000E+00  0.45593999997E+02  0.45594000000E+02  0.51100000000E-03 0.  1.
         11   -1    0    0    0    0 -0.00000000000E+00 -0.00000000000E+00 -0.45593999997E+02  0.45594000000E+02  0.51100000000E-03 0. -1.
    9900012    2    1    2    0    0  0.13908105069E+02 -0.12689393078E+02  0.40922576922E+02  0.46142318906E+02  0.10000010442E+02 0.  0.
         12    1    1    2    0    0 -0.13908105069E+02  0.12689393078E+02 -0.40922576922E+02  0.45045681094E+02  0.00000000000E+00 0. -1.
         11    1    3    3    0    0 -0.39226213857E-01 -0.88799203272E+00  0.37579790556E+01  0.38616674365E+01  0.51100000000E-03 0. -1.
        -11    1    3    3    0    0  0.39067940947E+01 -0.76884952199E+00  0.15316665659E+02  0.15825751699E+02  0.51100000000E-03 0.  1.
         12    1    3    3    0    0  0.10040537188E+02 -0.11032551523E+02  0.21847932207E+02  0.26454899771E+02  0.00000000000E+00 0. -1.
</event>
<event>
 7    1  0.2425980E-008  0.4614232E+02  0.7816164E-02  0.1320468E+00
        -11   -1    0    0    0    0  0.00000000000E+00  0.00000000000E+00  0.45593999997E+02  0.45594000000E+02  0.51100000000E-03 0.  1.
         11   -1    0    0    0    0 -0.00000000000E+00 -0.00000000000E+00 -0.45593999997E+02  0.45594000000E+02  0.51100000000E-03 0. -1.
    9900012    2    1    2    0    0  0.64758452244E+01 -0.39700473229E+02  0.20274352228E+02  0.46142317585E+02  0.99999983934E+01 0.  0.
         12    1    1    2    0    0 -0.64758452244E+01  0.39700473229E+02 -0.20274352228E+02  0.45045682415E+02  0.00000000000E+00 0. -1.
         11    1    3    3    0    0 -0.58335789977E+00 -0.11135928240E+01  0.34716781519E+00  0.13041936858E+01  0.51100000000E-03 0. -1.
        -11    1    3    3    0    0 -0.59857493180E+00 -0.12077898614E+02  0.93562555343E+01  0.15289651558E+02  0.51100000000E-03 0.  1.
        -12    1    3    3    0    0  0.76577780560E+01 -0.26508981791E+02  0.10570928879E+02  0.29548472341E+02  0.00000000000E+00 0.  1.
</event>
<event>
 7    1  0.2425980E-008  0.4614232E+02  0.7816164E-02  0.1320468E+00
        -11   -1    0    0    0    0  0.00000000000E+00  0.00000000000E+00  0.45593999997E+02  0.45594000000E+02  0.51100000000E-03 0. -1.
         11   -1    0    0    0    0 -0.00000000000E+00 -0.00000000000E+00 -0.45593999997E+02  0.45594000000E+02  0.51100000000E-03 0.  1.
    9900012    2    1    2    0    0  0.13813837807E+00  0.41802396781E+02 -0.16782553712E+02  0.46142316878E+02  0.99999919485E+01 0.  0.
         12    1    1    2    0    0 -0.13813837807E+00 -0.41802396781E+02  0.16782553712E+02  0.45045683122E+02  0.00000000000E+00 0. -1.
         11    1    3    3    0    0 -0.18758859575E+00  0.33695209390E+02 -0.17488592355E+02  0.37963840534E+02  0.51100000000E-03 0.  1.
        -11    1    3    3    0    0  0.28460524202E+00  0.18052786999E+01  0.38866867025E+00  0.18684471961E+01  0.51100000000E-03 0. -1.
        -12    1    3    3    0    0  0.41121731804E-01  0.63019086908E+01  0.31736997271E+00  0.63100291476E+01  0.00000000000E+00 0.  1.
</event>
<event>
 7    1  0.2425980E-008  0.4614232E+02  0.7816164E-02  0.1320468E+00
        -11   -1    0    0    0    0  0.00000000000E+00  0.00000000000E+00  0.45593999997E+02  0.45594000000E+02  0.51100000000E-03 0. -1.
         11   -1    0    0    0    0 -0.00000000000E+00 -0.00000000000E+00 -0.45593999997E+02  0.45594000000E+02  0.51100000000E-03 0.  1.
    9900012    2    1    2    0    0 -0.31494017496E+01  0.39506575808E+02 -0.21410867425E+02  0.46142317550E+02  0.99999980791E+01 0.  0.
         12    1    1    2    0    0  0.31494017496E+01 -0.39506575808E+02  0.21410867425E+02  0.45045682450E+02  0.00000000000E+00 0. -1.
         11    1    3    3    0    0  0.15058365023E+01  0.17708635969E+01 -0.39131975089E+00  0.23572511235E+01  0.51100000000E-03 0. -1.
        -11    1    3    3    0    0 -0.16140523226E+01  0.11027702776E+02 -0.90640910445E+01  0.14365693166E+02  0.51100000000E-03 0.  1.
         12    1    3    3    0    0 -0.30411859293E+01  0.26708009436E+02 -0.11955456629E+02  0.29419373261E+02  0.00000000000E+00 0. -1.
</event>
<event>
 7    1  0.2425980E-008  0.4614232E+02  0.7816164E-02  0.1320468E+00
        -11   -1    0    0    0    0  0.00000000000E+00  0.00000000000E+00  0.45593999997E+02  0.45594000000E+02  0.51100000000E-03 0.  1.
         11   -1    0    0    0    0 -0.00000000000E+00 -0.00000000000E+00 -0.45593999997E+02  0.45594000000E+02  0.51100000000E-03 0. -1.
    9900012    2    1    2    0    0 -0.19064366025E+02 -0.79836867670E+01  0.40024045019E+02  0.46142317788E+02  0.10000000241E+02 0.  0.
         12    1    1    2    0    0  0.19064366025E+02  0.79836867670E+01 -0.40024045019E+02  0.45045682212E+02  0.00000000000E+00 0. -1.
         11    1    3    3    0    0 -0.29681849689E+01 -0.41267240339E+00  0.10885468056E+02  0.11290431151E+02  0.51100000000E-03 0. -1.
        -11    1    3    3    0    0 -0.80997586389E+01 -0.33154847232E+00  0.15204302594E+02  0.17230404291E+02  0.51100000000E-03 0.  1.
        -12    1    3    3    0    0 -0.79964224170E+01 -0.72394658913E+01  0.13934274369E+02  0.17621482346E+02  0.00000000000E+00 0.  1.
</event>
<event>
 7    1  0.2425980E-008  0.4614232E+02  0.7816164E-02  0.1320468E+00
        -11   -1    0    0    0    0  0.00000000000E+00  0.00000000000E+00  0.45593999997E+02  0.45594000000E+02  0.51100000000E-03 0.  1.
         11   -1    0    0    0    0 -0.00000000000E+00 -0.00000000000E+00 -0.45593999997E+02  0.45594000000E+02  0.51100000000E-03 0. -1.
    9900012    2    1    2    0    0  0.67586049646E+01 -0.44244802159E+02 -0.50825486362E+01  0.46142316969E+02  0.99999927740E+01 0.  0.
         12    1    1    2    0    0 -0.67586049646E+01  0.44244802159E+02  0.50825486362E+01  0.45045683031E+02  0.00000000000E+00 0. -1.
         11    1    3    3    0    0  0.23061562874E+00 -0.67482162759E+01 -0.16036553156E+01  0.69399796186E+01  0.51100000000E-03 0. -1.
        -11    1    3    3    0    0 -0.16587497568E+01 -0.13508285604E+02  0.58474459177E-01  0.13609873263E+02  0.51100000000E-03 0.  1.
        -12    1    3    3    0    0  0.81867390926E+01 -0.23988300278E+02 -0.35373677797E+01  0.25592464087E+02  0.00000000000E+00 0.  1.
</event>
<event>
 7    1  0.2425980E-008  0.4614232E+02  0.7816164E-02  0.1320468E+00
        -11   -1    0    0    0    0  0.00000000000E+00  0.00000000000E+00  0.45593999997E+02  0.45594000000E+02  0.51100000000E-03 0.  1.
         11   -1    0    0    0    0 -0.00000000000E+00 -0.00000000000E+00 -0.45593999997E+02  0.45594000000E+02  0.51100000000E-03 0. -1.
    9900012    2    1    2    0    0  0.49143325506E+01  0.35103861891E+02  0.27797152393E+02  0.46142318018E+02  0.10000002340E+02 0.  0.
         12    1    1    2    0    0 -0.49143325506E+01 -0.35103861891E+02 -0.27797152393E+02  0.45045681982E+02  0.00000000000E+00 0. -1.
         11    1    3    3    0    0  0.36852205945E+01  0.28640903257E+02  0.23501674823E+02  0.37231853432E+02  0.51100000000E-03 0. -1.
        -11    1    3    3    0    0  0.11796750892E+01  0.58412304442E+01  0.51337960693E+01  0.78655876297E+01  0.51100000000E-03 0.  1.
         12    1    3    3    0    0  0.49436866879E-01  0.62172819035E+00 -0.83831849997E+00  0.10448769563E+01  0.00000000000E+00 0. -1.
</event>
<event>
 7    1  0.2425980E-008  0.4614232E+02  0.7816164E-02  0.1320468E+00
        -11   -1    0    0    0    0  0.00000000000E+00  0.00000000000E+00  0.45593999997E+02  0.45594000000E+02  0.51100000000E-03 0. -1.
         11   -1    0    0    0    0 -0.00000000000E+00 -0.00000000000E+00 -0.45593999997E+02  0.45594000000E+02  0.51100000000E-03 0.  1.
    9900012    2    1    2    0    0 -0.33728964386E+02 -0.25976765321E+02 -0.14719994688E+02  0.46142316315E+02  0.99999868087E+01 0.  0.
         12    1    1    2    0    0  0.33728964386E+02  0.25976765321E+02  0.14719994688E+02  0.45045683685E+02  0.00000000000E+00 0. -1.
         11    1    3    3    0    0 -0.91562679851E+01 -0.34458480245E+01 -0.32561475628E+01  0.10310849103E+02  0.51100000000E-03 0. -1.
        -11    1    3    3    0    0 -0.19773961295E+02 -0.14444497308E+02 -0.73432018813E+01  0.25565125893E+02  0.51100000000E-03 0.  1.
         12    1    3    3    0    0 -0.47987351060E+01 -0.80864199878E+01 -0.41206452436E+01  0.10266341318E+02  0.00000000000E+00 0. -1.
</event>
<event>
 7    1  0.2425980E-008  0.4614232E+02  0.7816164E-02  0.1320468E+00
        -11   -1    0    0    0    0  0.00000000000E+00  0.00000000000E+00  0.45593999997E+02  0.45594000000E+02  0.51100000000E-03 0. -1.
         11   -1    0    0    0    0 -0.00000000000E+00 -0.00000000000E+00 -0.45593999997E+02  0.45594000000E+02  0.51100000000E-03 0.  1.
    9900012    2    1    2    0    0  0.34719176990E+02  0.12965976240E+01 -0.28670734342E+02  0.46142318476E+02  0.10000006514E+02 0.  0.
         12    1    1    2    0    0 -0.34719176990E+02 -0.12965976240E+01  0.28670734342E+02  0.45045681524E+02  0.00000000000E+00 0. -1.
         11    1    3    3    0    0  0.23248445150E+02 -0.75236231866E+00 -0.15260229251E+02  0.27819612650E+02  0.51100000000E-03 0. -1.
        -11    1    3    3    0    0  0.11556396297E+02  0.15452285839E+01 -0.11620847394E+02  0.16461534593E+02  0.51100000000E-03 0.  1.
        -12    1    3    3    0    0 -0.85664456777E-01  0.50373135874E+00 -0.17896576978E+01  0.18611712323E+01  0.00000000000E+00 0.  1.
</event>
<event>
 7    1  0.2425980E-008  0.4614233E+02  0.7816164E-02  0.1320468E+00
        -11   -1    0    0    0    0  0.00000000000E+00  0.00000000000E+00  0.45593999997E+02  0.45594000000E+02  0.51100000000E-03 0.  1.
         11   -1    0    0    0    0 -0.00000000000E+00 -0.00000000000E+00 -0.45593999997E+02  0.45594000000E+02  0.51100000000E-03 0. -1.
    9900012    2    1    2    0    0 -0.33824910482E+02 -0.21099136856E+02  0.20971750175E+02  0.46142329280E+02  0.10000105042E+02 0.  0.
         12    1    1    2    0    0  0.33824910482E+02  0.21099136856E+02 -0.20971750175E+02  0.45045670720E+02  0.00000000000E+00 0. -1.
         11    1    3    3    0    0 -0.22429026966E+02 -0.11419816558E+02  0.10918751233E+02  0.27435243568E+02  0.51100000000E-03 0. -1.
        -11    1    3    3    0    0 -0.10402453656E+02 -0.95284784362E+01  0.10521481238E+02  0.17598423540E+02  0.51100000000E-03 0.  1.
         12    1    3    3    0    0 -0.99342985944E+00 -0.15084186233E+00 -0.46848229604E+00  0.11086621734E+01  0.00000000000E+00 0. -1.
</event>
<event>
 7    1  0.2425980E-008  0.4614232E+02  0.7816164E-02  0.1320468E+00
        -11   -1    0    0    0    0  0.00000000000E+00  0.00000000000E+00  0.45593999997E+02  0.45594000000E+02  0.51100000000E-03 0. -1.
         11   -1    0    0    0    0 -0.00000000000E+00 -0.00000000000E+00 -0.45593999997E+02  0.45594000000E+02  0.51100000000E-03 0.  1.
    9900012    2    1    2    0    0 -0.41440676142E+02  0.87190358907E+01 -0.15354553047E+02  0.46142317352E+02  0.99999962689E+01 0.  0.
         12    1    1    2    0    0  0.41440676142E+02 -0.87190358907E+01  0.15354553047E+02  0.45045682648E+02  0.00000000000E+00 0. -1.
         11    1    3    3    0    0 -0.21192943759E+02  0.48114268282E+01 -0.63118504014E+01  0.22630292730E+02  0.51100000000E-03 0.  1.
        -11    1    3    3    0    0 -0.16565295167E+01  0.22684009308E+01 -0.84565725409E-01  0.28101395776E+01  0.51100000000E-03 0. -1.
         12    1    3    3    0    0 -0.18591202866E+02  0.16392081318E+01 -0.89581369198E+01  0.20701885044E+02  0.00000000000E+00 0. -1.
</event>
<event>
 7    1  0.2425980E-008  0.4614232E+02  0.7816164E-02  0.1320468E+00
        -11   -1    0    0    0    0  0.00000000000E+00  0.00000000000E+00  0.45593999997E+02  0.45594000000E+02  0.51100000000E-03 0.  1.
         11   -1    0    0    0    0 -0.00000000000E+00 -0.00000000000E+00 -0.45593999997E+02  0.45594000000E+02  0.51100000000E-03 0. -1.
    9900012    2    1    2    0    0 -0.16947074869E+02  0.91066771972E+00  0.41726260308E+02  0.46142318059E+02  0.10000002712E+02 0.  0.
         12    1    1    2    0    0  0.16947074869E+02 -0.91066771972E+00 -0.41726260308E+02  0.45045681941E+02  0.00000000000E+00 0. -1.
         11    1    3    3    0    0 -0.69641055404E+01 -0.16761441903E+01  0.12178553712E+02  0.14128885168E+02  0.51100000000E-03 0.  1.
        -11    1    3    3    0    0 -0.81057893489E+01  0.34618168700E+01  0.15642440302E+02  0.17954774738E+02  0.51100000000E-03 0. -1.
         12    1    3    3    0    0 -0.18771799797E+01 -0.87500496003E+00  0.13905266294E+02  0.14058658153E+02  0.00000000000E+00 0. -1.
</event>
<event>
 7    1  0.2425980E-008  0.4614232E+02  0.7816164E-02  0.1320468E+00
        -11   -1    0    0    0    0  0.00000000000E+00  0.00000000000E+00  0.45593999997E+02  0.45594000000E+02  0.51100000000E-03 0. -1.
         11   -1    0    0    0    0 -0.00000000000E+00 -0.00000000000E+00 -0.45593999997E+02  0.45594000000E+02  0.51100000000E-03 0.  1.
    9900012    2    1    2    0    0  0.32606708598E+02 -0.15954377254E+02 -0.26671592414E+02  0.46142318287E+02  0.10000004791E+02 0.  0.
         12    1    1    2    0    0 -0.32606708598E+02  0.15954377254E+02  0.26671592414E+02  0.45045681713E+02  0.00000000000E+00 0. -1.
         11    1    3    3    0    0  0.14811366202E+01 -0.15434417648E+01 -0.47342784175E+00  0.21909158705E+01  0.51100000000E-03 0. -1.
        -11    1    3    3    0    0  0.16107837988E+02 -0.96624570056E+01 -0.18707662892E+02  0.26510416277E+02  0.51100000000E-03 0.  1.
         12    1    3    3    0    0  0.15017733990E+02 -0.47484784831E+01 -0.74905016802E+01  0.17440986139E+02  0.00000000000E+00 0. -1.
</event>
<event>
 7    1  0.2425980E-008  0.4614232E+02  0.7816164E-02  0.1320468E+00
        -11   -1    0    0    0    0  0.00000000000E+00  0.00000000000E+00  0.45593999997E+02  0.45594000000E+02  0.51100000000E-03 0.  1.
         11   -1    0    0    0    0 -0.00000000000E+00 -0.00000000000E+00 -0.45593999997E+02  0.45594000000E+02  0.51100000000E-03 0. -1.
    9900012    2    1    2    0    0  0.20152796012E+02  0.38983058654E+02  0.10163622569E+02  0.46142320153E+02  0.10000021814E+02 0.  0.
         12    1    1    2    0    0 -0.20152796012E+02 -0.38983058654E+02 -0.10163622569E+02  0.45045679847E+02  0.00000000000E+00 0. -1.
         11    1    3    3    0    0  0.33080031931E+00  0.62542479735E+01  0.33639577125E+01  0.71092375342E+01  0.51100000000E-03 0. -1.
        -11    1    3    3    0    0  0.12321086273E+02  0.17919000100E+02  0.51691235013E+01  0.22352171473E+02  0.51100000000E-03 0.  1.
        -12    1    3    3    0    0  0.75009094196E+01  0.14809810580E+02  0.16305413553E+01  0.16680911146E+02  0.00000000000E+00 0.  1.
</event>
<event>
 7    1  0.2425980E-008  0.4614232E+02  0.7816164E-02  0.1320468E+00
        -11   -1    0    0    0    0  0.00000000000E+00  0.00000000000E+00  0.45593999997E+02  0.45594000000E+02  0.51100000000E-03 0.  1.
         11   -1    0    0    0    0 -0.00000000000E+00 -0.00000000000E+00 -0.45593999997E+02  0.45594000000E+02  0.51100000000E-03 0. -1.
    9900012    2    1    2    0    0 -0.38697258098E+01 -0.40502902240E+02  0.19330120808E+02  0.46142318319E+02  0.10000005083E+02 0.  0.
         12    1    1    2    0    0  0.38697258098E+01  0.40502902240E+02 -0.19330120808E+02  0.45045681681E+02  0.00000000000E+00 0. -1.
         11    1    3    3    0    0 -0.33633029995E+01 -0.20140664222E+02  0.47562168271E+01  0.20966157519E+02  0.51100000000E-03 0. -1.
        -11    1    3    3    0    0 -0.10040376808E+01 -0.67017975253E+01  0.37854737589E+01  0.77622157645E+01  0.51100000000E-03 0.  1.
        -12    1    3    3    0    0  0.49761487055E+00 -0.13660440493E+02  0.10788430222E+02  0.17413945035E+02  0.00000000000E+00 0.  1.
</event>
<event>
 7    1  0.2425980E-008  0.4614232E+02  0.7816164E-02  0.1320468E+00
        -11   -1    0    0    0    0  0.00000000000E+00  0.00000000000E+00  0.45593999997E+02  0.45594000000E+02  0.51100000000E-03 0.  1.
         11   -1    0    0    0    0 -0.00000000000E+00 -0.00000000000E+00 -0.45593999997E+02  0.45594000000E+02  0.51100000000E-03 0. -1.
    9900012    2    1    2    0    0 -0.15066243044E+02 -0.25800180248E+02  0.33711608993E+02  0.46142316953E+02  0.99999926290E+01 0.  0.
         12    1    1    2    0    0  0.15066243044E+02  0.25800180248E+02 -0.33711608993E+02  0.45045683047E+02  0.00000000000E+00 0. -1.
         11    1    3    3    0    0 -0.66701392949E+01 -0.94881755029E+01  0.15232694620E+02  0.19145527369E+02  0.51100000000E-03 0.  1.
        -11    1    3    3    0    0 -0.93082449164E+01 -0.16122934589E+02  0.18172911219E+02  0.26016286161E+02  0.51100000000E-03 0. -1.
        -12    1    3    3    0    0  0.91214116689E+00 -0.18907015632E+00  0.30600315430E+00  0.98050342314E+00  0.00000000000E+00 0.  1.
</event>
<event>
 7    1  0.2425980E-008  0.4614232E+02  0.7816164E-02  0.1320468E+00
        -11   -1    0    0    0    0  0.00000000000E+00  0.00000000000E+00  0.45593999997E+02  0.45594000000E+02  0.51100000000E-03 0.  1.
         11   -1    0    0    0    0 -0.00000000000E+00 -0.00000000000E+00 -0.45593999997E+02  0.45594000000E+02  0.51100000000E-03 0. -1.
    9900012    2    1    2    0    0  0.13636988863E+01  0.37167267452E+01  0.44871369162E+02  0.46142317600E+02  0.99999985338E+01 0.  0.
         12    1    1    2    0    0 -0.13636988863E+01 -0.37167267452E+01 -0.44871369162E+02  0.45045682400E+02  0.00000000000E+00 0. -1.
         11    1    3    3    0    0 -0.14407841218E+01 -0.69754111652E+00  0.59170579923E+01  0.61297632940E+01  0.51100000000E-03 0. -1.
        -11    1    3    3    0    0 -0.27335954999E+00  0.48782923726E+01  0.13280804263E+02  0.14151050281E+02  0.51100000000E-03 0.  1.
        -12    1    3    3    0    0  0.30778425581E+01 -0.46402451095E+00  0.25673506907E+02  0.25861504025E+02  0.00000000000E+00 0.  1.
</event>
<event>
 7    1  0.2425980E-008  0.4614232E+02  0.7816164E-02  0.1320468E+00
        -11   -1    0    0    0    0  0.00000000000E+00  0.00000000000E+00  0.45593999997E+02  0.45594000000E+02  0.51100000000E-03 0.  1.
         11   -1    0    0    0    0 -0.00000000000E+00 -0.00000000000E+00 -0.45593999997E+02  0.45594000000E+02  0.51100000000E-03 0. -1.
    9900012    2    1    2    0    0  0.41705903510E+02  0.76807523618E+01  0.15190034528E+02  0.46142317705E+02  0.99999994925E+01 0.  0.
         12    1    1    2    0    0 -0.41705903510E+02 -0.76807523618E+01 -0.15190034528E+02  0.45045682295E+02  0.00000000000E+00 0. -1.
         11    1    3    3    0    0  0.31788239316E+02  0.73524442630E+01  0.12410235020E+02  0.34907943637E+02  0.51100000000E-03 0. -1.
        -11    1    3    3    0    0  0.10281048197E+02  0.69158659388E+00  0.23605504467E+01  0.10571208196E+02  0.51100000000E-03 0.  1.
        -12    1    3    3    0    0 -0.36338400343E+00 -0.36327849509E+00  0.41924906105E+00  0.66316587227E+00  0.00000000000E+00 0.  1.
</event>
<event>
 7    1  0.2425980E-008  0.4614232E+02  0.7816164E-02  0.1320468E+00
        -11   -1    0    0    0    0  0.00000000000E+00  0.00000000000E+00  0.45593999997E+02  0.45594000000E+02  0.51100000000E-03 0.  1.
         11   -1    0    0    0    0 -0.00000000000E+00 -0.00000000000E+00 -0.45593999997E+02  0.45594000000E+02  0.51100000000E-03 0. -1.
    9900012    2    1    2    0    0  0.20519187983E+02 -0.63922565405E+01  0.39588071499E+02  0.46142318473E+02  0.10000006495E+02 0.  0.
         12    1    1    2    0    0 -0.20519187983E+02  0.63922565405E+01 -0.39588071499E+02  0.45045681527E+02  0.00000000000E+00 0. -1.
         11    1    3    3    0    0  0.91794784022E+01 -0.58615590034E+00  0.10197925711E+02  0.13733320485E+02  0.51100000000E-03 0. -1.
        -11    1    3    3    0    0  0.15282400808E+01 -0.22700923417E+01  0.31524815778E+01  0.41745631321E+01  0.51100000000E-03 0.  1.
        -12    1    3    3    0    0  0.98114695004E+01 -0.35360082985E+01  0.26237664210E+02  0.28234434856E+02  0.00000000000E+00 0.  1.
</event>
<event>
 7    1  0.2425980E-008  0.4614232E+02  0.7816164E-02  0.1320468E+00
        -11   -1    0    0    0    0  0.00000000000E+00  0.00000000000E+00  0.45593999997E+02  0.45594000000E+02  0.51100000000E-03 0.  1.
         11   -1    0    0    0    0 -0.00000000000E+00 -0.00000000000E+00 -0.45593999997E+02  0.45594000000E+02  0.51100000000E-03 0. -1.
    9900012    2    1    2    0    0  0.11949794661E+02 -0.40128414488E+02 -0.16614038116E+02  0.46142317584E+02  0.99999983890E+01 0.  0.
         12    1    1    2    0    0 -0.11949794661E+02  0.40128414488E+02  0.16614038116E+02  0.45045682416E+02  0.00000000000E+00 0. -1.
         11    1    3    3    0    0  0.44319673821E+01 -0.20282914714E+02 -0.11585098732E+02  0.23775059980E+02  0.51100000000E-03 0. -1.
        -11    1    3    3    0    0  0.78470356969E+01 -0.18281588230E+02 -0.56040162415E+01  0.20668755061E+02  0.51100000000E-03 0.  1.
         12    1    3    3    0    0 -0.32920841799E+00 -0.15639115437E+01  0.57507685753E+00  0.16985025437E+01  0.00000000000E+00 0. -1.
</event>
<event>
 7    1  0.2425980E-008  0.4614232E+02  0.7816164E-02  0.1320468E+00
        -11   -1    0    0    0    0  0.00000000000E+00  0.00000000000E+00  0.45593999997E+02  0.45594000000E+02  0.51100000000E-03 0. -1.
         11   -1    0    0    0    0 -0.00000000000E+00 -0.00000000000E+00 -0.45593999997E+02  0.45594000000E+02  0.51100000000E-03 0.  1.
    9900012    2    1    2    0    0  0.12812300832E+02 -0.42281742338E+02  0.87870733340E+01  0.46142318237E+02  0.10000004335E+02 0.  0.
         12    1    1    2    0    0 -0.12812300832E+02  0.42281742338E+02 -0.87870733340E+01  0.45045681763E+02  0.00000000000E+00 0. -1.
         11    1    3    3    0    0  0.74004161710E+00 -0.41659570705E+01 -0.18897673432E+01  0.46340134636E+01  0.51100000000E-03 0. -1.
        -11    1    3    3    0    0  0.49223523891E+01 -0.11501479236E+02  0.24460361259E+01  0.12747418196E+02  0.51100000000E-03 0.  1.
         12    1    3    3    0    0  0.71499068259E+01 -0.26614306031E+02  0.82308045513E+01  0.28760886577E+02  0.00000000000E+00 0. -1.
</event>
<event>
 7    1  0.2425980E-008  0.4614232E+02  0.7816164E-02  0.1320468E+00
        -11   -1    0    0    0    0  0.00000000000E+00  0.00000000000E+00  0.45593999997E+02  0.45594000000E+02  0.51100000000E-03 0.  1.
         11   -1    0    0    0    0 -0.00000000000E+00 -0.00000000000E+00 -0.45593999997E+02  0.45594000000E+02  0.51100000000E-03 0. -1.
    9900012    2    1    2    0    0 -0.75124855725E+01  0.44076770459E+02 -0.54693993546E+01  0.46142318044E+02  0.10000002577E+02 0.  0.
         12    1    1    2    0    0  0.75124855725E+01 -0.44076770459E+02  0.54693993546E+01  0.45045681956E+02  0.00000000000E+00 0. -1.
         11    1    3    3    0    0 -0.16467739762E+01  0.16918168854E+02 -0.65822087854E+00  0.17010865848E+02  0.51100000000E-03 0. -1.
        -11    1    3    3    0    0  0.16864955225E+01  0.69588982317E+01 -0.94807965654E+00  0.72228378802E+01  0.51100000000E-03 0.  1.
         12    1    3    3    0    0 -0.75522071188E+01  0.20199703373E+02 -0.38630988195E+01  0.21908614315E+02  0.00000000000E+00 0. -1.
</event>
<event>
 7    1  0.2425980E-008  0.4614232E+02  0.7816164E-02  0.1320468E+00
        -11   -1    0    0    0    0  0.00000000000E+00  0.00000000000E+00  0.45593999997E+02  0.45594000000E+02  0.51100000000E-03 0.  1.
         11   -1    0    0    0    0 -0.00000000000E+00 -0.00000000000E+00 -0.45593999997E+02  0.45594000000E+02  0.51100000000E-03 0. -1.
    9900012    2    1    2    0    0  0.97362712100E+01 -0.19044121816E+02  0.39643914241E+02  0.46142317753E+02  0.99999999238E+01 0.  0.
         12    1    1    2    0    0 -0.97362712100E+01  0.19044121816E+02 -0.39643914241E+02  0.45045682247E+02  0.00000000000E+00 0. -1.
         11    1    3    3    0    0 -0.54979936750E+00 -0.10296721523E+00  0.10990841269E+01  0.12332346780E+01  0.51100000000E-03 0. -1.
        -11    1    3    3    0    0  0.74950618996E+01 -0.54875329761E+01  0.16394623983E+02  0.18843371960E+02  0.51100000000E-03 0.  1.
         12    1    3    3    0    0  0.27910086779E+01 -0.13453621624E+02  0.22150206131E+02  0.26065711114E+02  0.00000000000E+00 0. -1.
</event>
<event>
 7    1  0.2425980E-008  0.4614232E+02  0.7816164E-02  0.1320468E+00
        -11   -1    0    0    0    0  0.00000000000E+00  0.00000000000E+00  0.45593999997E+02  0.45594000000E+02  0.51100000000E-03 0. -1.
         11   -1    0    0    0    0 -0.00000000000E+00 -0.00000000000E+00 -0.45593999997E+02  0.45594000000E+02  0.51100000000E-03 0.  1.
    9900012    2    1    2    0    0  0.37151355178E+02 -0.11837123840E+02 -0.22555991776E+02  0.46142318105E+02  0.10000003139E+02 0.  0.
         12    1    1    2    0    0 -0.37151355178E+02  0.11837123840E+02  0.22555991776E+02  0.45045681895E+02  0.00000000000E+00 0. -1.
         11    1    3    3    0    0  0.22697507204E+02 -0.68571183586E+01 -0.13940272981E+02  0.27505056199E+02  0.51100000000E-03 0. -1.
        -11    1    3    3    0    0  0.11823377131E+02 -0.20619687354E+01 -0.41728821330E+01  0.12706569459E+02  0.51100000000E-03 0.  1.
         12    1    3    3    0    0  0.26304708430E+01 -0.29180367463E+01 -0.44428366618E+01  0.59306924479E+01  0.00000000000E+00 0. -1.
</event>
<event>
 7    1  0.2425980E-008  0.4614232E+02  0.7816164E-02  0.1320468E+00
        -11   -1    0    0    0    0  0.00000000000E+00  0.00000000000E+00  0.45593999997E+02  0.45594000000E+02  0.51100000000E-03 0.  1.
         11   -1    0    0    0    0 -0.00000000000E+00 -0.00000000000E+00 -0.45593999997E+02  0.45594000000E+02  0.51100000000E-03 0. -1.
    9900012    2    1    2    0    0 -0.19074650402E+01  0.16862426587E+02  0.41726892510E+02  0.46142318611E+02  0.10000007747E+02 0.  0.
         12    1    1    2    0    0  0.19074650402E+01 -0.16862426587E+02 -0.41726892510E+02  0.45045681389E+02  0.00000000000E+00 0. -1.
         11    1    3    3    0    0 -0.21157204369E+01  0.12416143593E+01  0.39722675090E+01  0.46687030970E+01  0.51100000000E-03 0. -1.
        -11    1    3    3    0    0  0.22584376611E+01  0.11434373132E+01  0.61436118206E+01  0.66446938245E+01  0.51100000000E-03 0.  1.
        -12    1    3    3    0    0 -0.20501822644E+01  0.14477374915E+02  0.31611013180E+02  0.34828921689E+02  0.00000000000E+00 0.  1.
</event>
<event>
 7    1  0.2425980E-008  0.4614232E+02  0.7816164E-02  0.1320468E+00
        -11   -1    0    0    0    0  0.00000000000E+00  0.00000000000E+00  0.45593999997E+02  0.45594000000E+02  0.51100000000E-03 0.  1.
         11   -1    0    0    0    0 -0.00000000000E+00 -0.00000000000E+00 -0.45593999997E+02  0.45594000000E+02  0.51100000000E-03 0. -1.
    9900012    2    1    2    0    0  0.18524585130E+02  0.39614293641E+02  0.10800975752E+02  0.46142316610E+02  0.99999894999E+01 0.  0.
         12    1    1    2    0    0 -0.18524585130E+02 -0.39614293641E+02 -0.10800975752E+02  0.45045683390E+02  0.00000000000E+00 0. -1.
         11    1    3    3    0    0  0.87353349679E+01  0.94708296678E+01  0.27865019178E+01  0.13182081960E+02  0.51100000000E-03 0. -1.
        -11    1    3    3    0    0  0.12830948374E+01  0.52626735663E+01 -0.17541199071E+00  0.54196711205E+01  0.51100000000E-03 0.  1.
         12    1    3    3    0    0  0.85061553244E+01  0.24880790407E+02  0.81898858253E+01  0.27540563529E+02  0.00000000000E+00 0. -1.
</event>
<event>
 7    1  0.2425980E-008  0.4614232E+02  0.7816164E-02  0.1320468E+00
        -11   -1    0    0    0    0  0.00000000000E+00  0.00000000000E+00  0.45593999997E+02  0.45594000000E+02  0.51100000000E-03 0.  1.
         11   -1    0    0    0    0 -0.00000000000E+00 -0.00000000000E+00 -0.45593999997E+02  0.45594000000E+02  0.51100000000E-03 0. -1.
    9900012    2    1    2    0    0  0.35301612151E+02 -0.12649584382E+02  0.24957920069E+02  0.46142316748E+02  0.99999907595E+01 0.  0.
         12    1    1    2    0    0 -0.35301612151E+02  0.12649584382E+02 -0.24957920069E+02  0.45045683252E+02  0.00000000000E+00 0. -1.
         11    1    3    3    0    0  0.10605607943E+02 -0.53402042534E+01  0.66845865324E+01  0.13626459506E+02  0.51100000000E-03 0.  1.
        -11    1    3    3    0    0  0.23325974409E+01 -0.16495645844E+01 -0.33648312883E+00  0.28766812991E+01  0.51100000000E-03 0. -1.
        -12    1    3    3    0    0  0.22363406767E+02 -0.56598155445E+01  0.18609816665E+02  0.29639175943E+02  0.00000000000E+00 0.  1.
</event>
<event>
 7    1  0.2425980E-008  0.4614232E+02  0.7816164E-02  0.1320468E+00
        -11   -1    0    0    0    0  0.00000000000E+00  0.00000000000E+00  0.45593999997E+02  0.45594000000E+02  0.51100000000E-03 0.  1.
         11   -1    0    0    0    0 -0.00000000000E+00 -0.00000000000E+00 -0.45593999997E+02  0.45594000000E+02  0.51100000000E-03 0. -1.
    9900012    2    1    2    0    0 -0.41813433932E+02 -0.39298105253E+00  0.16751000968E+02  0.46142315137E+02  0.99999760724E+01 0.  0.
         12    1    1    2    0    0  0.41813433932E+02  0.39298105253E+00 -0.16751000968E+02  0.45045684863E+02  0.00000000000E+00 0. -1.
         11    1    3    3    0    0 -0.12118307766E+02 -0.33215269185E+01  0.63341209856E+01  0.14071496477E+02  0.51100000000E-03 0. -1.
        -11    1    3    3    0    0 -0.96996411790E+01 -0.15982486795E+01  0.33711186039E+01  0.10392395236E+02  0.51100000000E-03 0.  1.
        -12    1    3    3    0    0 -0.19995484988E+02  0.45267945455E+01  0.70457613790E+01  0.21678423424E+02  0.00000000000E+00 0.  1.
</event>
<event>
 7    1  0.2425980E-008  0.4614232E+02  0.7816164E-02  0.1320468E+00
        -11   -1    0    0    0    0  0.00000000000E+00  0.00000000000E+00  0.45593999997E+02  0.45594000000E+02  0.51100000000E-03 0.  1.
         11   -1    0    0    0    0 -0.00000000000E+00 -0.00000000000E+00 -0.45593999997E+02  0.45594000000E+02  0.51100000000E-03 0. -1.
    9900012    2    1    2    0    0  0.32941996705E+02  0.14116555096E+02  0.27288481257E+02  0.46142317810E+02  0.10000000445E+02 0.  0.
         12    1    1    2    0    0 -0.32941996705E+02 -0.14116555096E+02 -0.27288481257E+02  0.45045682190E+02  0.00000000000E+00 0. -1.
         11    1    3    3    0    0  0.16004208777E+02  0.90562697570E+01  0.90609853660E+01  0.20500053087E+02  0.51100000000E-03 0. -1.
        -11    1    3    3    0    0  0.69529704801E+01  0.87905208768E+00  0.53348598197E+01  0.88077954465E+01  0.51100000000E-03 0.  1.
        -12    1    3    3    0    0  0.99848174472E+01  0.41812332509E+01  0.12892636071E+02  0.16834469276E+02  0.00000000000E+00 0.  1.
</event>
<event>
 7    1  0.2425980E-008  0.4614232E+02  0.7816164E-02  0.1320468E+00
        -11   -1    0    0    0    0  0.00000000000E+00  0.00000000000E+00  0.45593999997E+02  0.45594000000E+02  0.51100000000E-03 0.  1.
         11   -1    0    0    0    0 -0.00000000000E+00 -0.00000000000E+00 -0.45593999997E+02  0.45594000000E+02  0.51100000000E-03 0. -1.
    9900012    2    1    2    0    0  0.39968696930E+02  0.15460398267E+02  0.13877775649E+02  0.46142319787E+02  0.10000018478E+02 0.  0.
         12    1    1    2    0    0 -0.39968696930E+02 -0.15460398267E+02 -0.13877775649E+02  0.45045680213E+02  0.00000000000E+00 0. -1.
         11    1    3    3    0    0  0.83389848595E+01  0.10488157673E+01  0.32461764828E+01  0.90097916191E+01  0.51100000000E-03 0. -1.
        -11    1    3    3    0    0  0.17149048498E+02  0.72145518968E+01  0.95834901037E+01  0.20928041148E+02  0.51100000000E-03 0.  1.
        -12    1    3    3    0    0  0.14480663572E+02  0.71970306025E+01  0.10481090627E+01  0.16204487020E+02  0.00000000000E+00 0.  1.
</event>
<event>
 7    1  0.2425980E-008  0.4614232E+02  0.7816164E-02  0.1320468E+00
        -11   -1    0    0    0    0  0.00000000000E+00  0.00000000000E+00  0.45593999997E+02  0.45594000000E+02  0.51100000000E-03 0.  1.
         11   -1    0    0    0    0 -0.00000000000E+00 -0.00000000000E+00 -0.45593999997E+02  0.45594000000E+02  0.51100000000E-03 0. -1.
    9900012    2    1    2    0    0 -0.28704799572E+02 -0.16618742466E+02  0.30478933432E+02  0.46142317601E+02  0.99999985367E+01 0.  0.
         12    1    1    2    0    0  0.28704799572E+02  0.16618742466E+02 -0.30478933432E+02  0.45045682399E+02  0.00000000000E+00 0. -1.
         11    1    3    3    0    0 -0.12591775595E+02 -0.76127743040E+01  0.13042591267E+02  0.19662561696E+02  0.51100000000E-03 0. -1.
        -11    1    3    3    0    0 -0.12946136582E+02 -0.10180679872E+02  0.13521416937E+02  0.21309092222E+02  0.51100000000E-03 0.  1.
         12    1    3    3    0    0 -0.31668873947E+01  0.11747117102E+01  0.39149252283E+01  0.51706636824E+01  0.00000000000E+00 0. -1.
</event>
<event>
 7    1  0.2425980E-008  0.4614232E+02  0.7816164E-02  0.1320468E+00
        -11   -1    0    0    0    0  0.00000000000E+00  0.00000000000E+00  0.45593999997E+02  0.45594000000E+02  0.51100000000E-03 0.  1.
         11   -1    0    0    0    0 -0.00000000000E+00 -0.00000000000E+00 -0.45593999997E+02  0.45594000000E+02  0.51100000000E-03 0. -1.
    9900012    2    1    2    0    0  0.13861797684E+02  0.34773095911E+01  0.42718521982E+02  0.46142320547E+02  0.10000025407E+02 0.  0.
         12    1    1    2    0    0 -0.13861797684E+02 -0.34773095911E+01 -0.42718521982E+02  0.45045679453E+02  0.00000000000E+00 0. -1.
         11    1    3    3    0    0  0.90016466554E+01  0.21027354051E+01  0.33481057463E+02  0.34733735010E+02  0.51100000000E-03 0. -1.
        -11    1    3    3    0    0  0.31317346078E+01  0.26035293235E+01  0.79368455215E+01  0.89207423282E+01  0.51100000000E-03 0.  1.
         12    1    3    3    0    0  0.17284164209E+01 -0.12289551375E+01  0.13006189978E+01  0.24878432088E+01  0.00000000000E+00 0. -1.
</event>
<event>
 7    1  0.2425980E-008  0.4614232E+02  0.7816164E-02  0.1320468E+00
        -11   -1    0    0    0    0  0.00000000000E+00  0.00000000000E+00  0.45593999997E+02  0.45594000000E+02  0.51100000000E-03 0.  1.
         11   -1    0    0    0    0 -0.00000000000E+00 -0.00000000000E+00 -0.45593999997E+02  0.45594000000E+02  0.51100000000E-03 0. -1.
    9900012    2    1    2    0    0  0.23972575367E+02 -0.29511359564E+02  0.24155926398E+02  0.46142317708E+02  0.99999995118E+01 0.  0.
         12    1    1    2    0    0 -0.23972575367E+02  0.29511359564E+02 -0.24155926398E+02  0.45045682292E+02  0.00000000000E+00 0. -1.
         11    1    3    3    0    0  0.13888579507E+01 -0.52259117438E+01  0.38798078993E+01  0.66552227278E+01  0.51100000000E-03 0. -1.
        -11    1    3    3    0    0  0.35288278546E+01 -0.43432969937E+01  0.64729982941E+00  0.56334582748E+01  0.51100000000E-03 0.  1.
        -12    1    3    3    0    0  0.19054889562E+02 -0.19942150827E+02  0.19628818669E+02  0.33853636705E+02  0.00000000000E+00 0.  1.
</event>
<event>
 7    1  0.2425980E-008  0.4614232E+02  0.7816164E-02  0.1320468E+00
        -11   -1    0    0    0    0  0.00000000000E+00  0.00000000000E+00  0.45593999997E+02  0.45594000000E+02  0.51100000000E-03 0.  1.
         11   -1    0    0    0    0 -0.00000000000E+00 -0.00000000000E+00 -0.45593999997E+02  0.45594000000E+02  0.51100000000E-03 0. -1.
    9900012    2    1    2    0    0 -0.35441374615E+02  0.19989534313E+02  0.19324618349E+02  0.46142318842E+02  0.10000009858E+02 0.  0.
         12    1    1    2    0    0  0.35441374615E+02 -0.19989534313E+02 -0.19324618349E+02  0.45045681158E+02  0.00000000000E+00 0. -1.
         11    1    3    3    0    0 -0.73457564038E+01  0.46997594748E+00  0.25790423696E+01  0.77995175710E+01  0.51100000000E-03 0. -1.
        -11    1    3    3    0    0 -0.14054844341E+02  0.74809996243E+01  0.64820068207E+01  0.17190707302E+02  0.51100000000E-03 0.  1.
         12    1    3    3    0    0 -0.14040773870E+02  0.12038558741E+02  0.10263569158E+02  0.21152093970E+02  0.00000000000E+00 0. -1.
</event>
<event>
 7    1  0.2425980E-008  0.4614232E+02  0.7816164E-02  0.1320468E+00
        -11   -1    0    0    0    0  0.00000000000E+00  0.00000000000E+00  0.45593999997E+02  0.45594000000E+02  0.51100000000E-03 0. -1.
         11   -1    0    0    0    0 -0.00000000000E+00 -0.00000000000E+00 -0.45593999997E+02  0.45594000000E+02  0.51100000000E-03 0.  1.
    9900012    2    1    2    0    0 -0.26777348047E+02  0.28231606661E+02 -0.22695009943E+02  0.46142318083E+02  0.10000002936E+02 0.  0.
         12    1    1    2    0    0  0.26777348047E+02 -0.28231606661E+02  0.22695009943E+02  0.45045681917E+02  0.00000000000E+00 0. -1.
         11    1    3    3    0    0 -0.14394728588E+02  0.16943321721E+02 -0.94960894613E+01  0.24175609141E+02  0.51100000000E-03 0. -1.
        -11    1    3    3    0    0 -0.12325682308E+01  0.29568600332E+01 -0.74367438532E+00  0.32886619698E+01  0.51100000000E-03 0.  1.
        -12    1    3    3    0    0 -0.11150051228E+02  0.83314249072E+01 -0.12455246096E+02  0.18678046972E+02  0.00000000000E+00 0.  1.
</event>
<event>
 7    1  0.2425980E-008  0.4614232E+02  0.7816164E-02  0.1320468E+00
        -11   -1    0    0    0    0  0.00000000000E+00  0.00000000000E+00  0.45593999997E+02  0.45594000000E+02  0.51100000000E-03 0.  1.
         11   -1    0    0    0    0 -0.00000000000E+00 -0.00000000000E+00 -0.45593999997E+02  0.45594000000E+02  0.51100000000E-03 0. -1.
    9900012    2    1    2    0    0 -0.21638936550E+02 -0.45840944785E+01  0.39240998994E+02  0.46142317640E+02  0.99999988971E+01 0.  0.
         12    1    1    2    0    0  0.21638936550E+02  0.45840944785E+01 -0.39240998994E+02  0.45045682360E+02  0.00000000000E+00 0. -1.
         11    1    3    3    0    0 -0.79273087922E+01 -0.11298029356E+01  0.15342313905E+02  0.17306220719E+02  0.51100000000E-03 0. -1.
        -11    1    3    3    0    0 -0.42053800581E+01  0.13295426800E+01  0.12435719643E+02  0.13194696983E+02  0.51100000000E-03 0.  1.
         12    1    3    3    0    0 -0.95062477001E+01 -0.47838342229E+01  0.11462965446E+02  0.15641399938E+02  0.00000000000E+00 0. -1.
</event>
<event>
 7    1  0.2425980E-008  0.4614232E+02  0.7816164E-02  0.1320468E+00
        -11   -1    0    0    0    0  0.00000000000E+00  0.00000000000E+00  0.45593999997E+02  0.45594000000E+02  0.51100000000E-03 0.  1.
         11   -1    0    0    0    0 -0.00000000000E+00 -0.00000000000E+00 -0.45593999997E+02  0.45594000000E+02  0.51100000000E-03 0. -1.
    9900012    2    1    2    0    0  0.38312563831E+02 -0.15523568731E+02  0.17896350730E+02  0.46142322040E+02  0.10000039020E+02 0.  0.
         12    1    1    2    0    0 -0.38312563831E+02  0.15523568731E+02 -0.17896350730E+02  0.45045677960E+02  0.00000000000E+00 0. -1.
         11    1    3    3    0    0  0.72105202989E+01 -0.44611732156E+01  0.25372756342E+01  0.88505049204E+01  0.51100000000E-03 0. -1.
        -11    1    3    3    0    0  0.44434403017E+01 -0.46821083422E+01  0.41694393480E+01  0.76844339401E+01  0.51100000000E-03 0.  1.
        -12    1    3    3    0    0  0.26658603230E+02 -0.63802871734E+01  0.11189635747E+02  0.29607383180E+02  0.00000000000E+00 0.  1.
</event>
<event>
 7    1  0.2425980E-008  0.4614232E+02  0.7816164E-02  0.1320468E+00
        -11   -1    0    0    0    0  0.00000000000E+00  0.00000000000E+00  0.45593999997E+02  0.45594000000E+02  0.51100000000E-03 0. -1.
         11   -1    0    0    0    0 -0.00000000000E+00 -0.00000000000E+00 -0.45593999997E+02  0.45594000000E+02  0.51100000000E-03 0.  1.
    9900012    2    1    2    0    0  0.30392505896E+02 -0.22912491903E+02  0.24092048330E+02  0.46142317714E+02  0.99999995721E+01 0.  0.
         12    1    1    2    0    0 -0.30392505896E+02  0.22912491903E+02 -0.24092048330E+02  0.45045682286E+02  0.00000000000E+00 0. -1.
         11    1    3    3    0    0  0.30477666109E+01 -0.13513371794E+01 -0.55717841753E+00  0.33801540700E+01  0.51100000000E-03 0. -1.
        -11    1    3    3    0    0  0.12779332007E+02 -0.92161626377E+01  0.12710470067E+02  0.20243641716E+02  0.51100000000E-03 0.  1.
        -12    1    3    3    0    0  0.14565407278E+02 -0.12344992086E+02  0.11938756680E+02  0.22518521929E+02  0.00000000000E+00 0.  1.
</event>
<event>
 7    1  0.2425980E-008  0.4614232E+02  0.7816164E-02  0.1320468E+00
        -11   -1    0    0    0    0  0.00000000000E+00  0.00000000000E+00  0.45593999997E+02  0.45594000000E+02  0.51100000000E-03 0.  1.
         11   -1    0    0    0    0 -0.00000000000E+00 -0.00000000000E+00 -0.45593999997E+02  0.45594000000E+02  0.51100000000E-03 0. -1.
    9900012    2    1    2    0    0 -0.17863794297E+02 -0.41103993523E+02  0.45232772299E+01  0.46142317997E+02  0.10000002147E+02 0.  0.
         12    1    1    2    0    0  0.17863794297E+02  0.41103993523E+02 -0.45232772299E+01  0.45045682003E+02  0.00000000000E+00 0. -1.
         11    1    3    3    0    0 -0.27878421393E+01 -0.20403118304E+01  0.19468613849E+01  0.39655019446E+01  0.51100000000E-03 0. -1.
        -11    1    3    3    0    0 -0.47189824868E+01 -0.18245520482E+02  0.11571130470E+01  0.18881385655E+02  0.51100000000E-03 0.  1.
        -12    1    3    3    0    0 -0.10356969671E+02 -0.20818161211E+02  0.14193027980E+01  0.23295430397E+02  0.00000000000E+00 0.  1.
</event>
<event>
 7    1  0.2425980E-008  0.4614232E+02  0.7816164E-02  0.1320468E+00
        -11   -1    0    0    0    0  0.00000000000E+00  0.00000000000E+00  0.45593999997E+02  0.45594000000E+02  0.51100000000E-03 0.  1.
         11   -1    0    0    0    0 -0.00000000000E+00 -0.00000000000E+00 -0.45593999997E+02  0.45594000000E+02  0.51100000000E-03 0. -1.
    9900012    2    1    2    0    0  0.79761696208E+01  0.39898956427E+02  0.19327883786E+02  0.46142322101E+02  0.10000039573E+02 0.  0.
         12    1    1    2    0    0 -0.79761696208E+01 -0.39898956427E+02 -0.19327883786E+02  0.45045677899E+02  0.00000000000E+00 0. -1.
         11    1    3    3    0    0  0.35652625516E+01  0.70227231213E+01  0.39782408919E+01  0.88236125230E+01  0.51100000000E-03 0. -1.
        -11    1    3    3    0    0  0.50897161789E+01  0.13769746726E+02  0.87659469959E+01  0.17098332160E+02  0.51100000000E-03 0.  1.
        -12    1    3    3    0    0 -0.67880910956E+00  0.19106486580E+02  0.65836958982E+01  0.20220377418E+02  0.00000000000E+00 0.  1.
</event>
<event>
 7    1  0.2425980E-008  0.4614232E+02  0.7816164E-02  0.1320468E+00
        -11   -1    0    0    0    0  0.00000000000E+00  0.00000000000E+00  0.45593999997E+02  0.45594000000E+02  0.51100000000E-03 0.  1.
         11   -1    0    0    0    0 -0.00000000000E+00 -0.00000000000E+00 -0.45593999997E+02  0.45594000000E+02  0.51100000000E-03 0. -1.
    9900012    2    1    2    0    0  0.21404155551E+02  0.37552802396E+02  0.12679220094E+02  0.46142318022E+02  0.10000002383E+02 0.  0.
         12    1    1    2    0    0 -0.21404155551E+02 -0.37552802396E+02 -0.12679220094E+02  0.45045681978E+02  0.00000000000E+00 0. -1.
         11    1    3    3    0    0  0.95040027639E+01  0.15185097037E+02  0.94565263674E+01  0.20256829262E+02  0.51100000000E-03 0. -1.
        -11    1    3    3    0    0  0.65642740092E+01  0.12814867935E+02  0.39165831848E+01  0.14921466335E+02  0.51100000000E-03 0.  1.
         12    1    3    3    0    0  0.53358787779E+01  0.95528374235E+01 -0.69388945829E+00  0.10964022426E+02  0.00000000000E+00 0. -1.
</event>
<event>
 7    1  0.2425980E-008  0.4614232E+02  0.7816164E-02  0.1320468E+00
        -11   -1    0    0    0    0  0.00000000000E+00  0.00000000000E+00  0.45593999997E+02  0.45594000000E+02  0.51100000000E-03 0.  1.
         11   -1    0    0    0    0 -0.00000000000E+00 -0.00000000000E+00 -0.45593999997E+02  0.45594000000E+02  0.51100000000E-03 0. -1.
    9900012    2    1    2    0    0 -0.15738347480E+01  0.33419158801E+02  0.30162832037E+02  0.46142316885E+02  0.99999920140E+01 0.  0.
         12    1    1    2    0    0  0.15738347480E+01 -0.33419158801E+02 -0.30162832037E+02  0.45045683115E+02  0.00000000000E+00 0. -1.
         11    1    3    3    0    0 -0.28331556133E+01  0.64887842639E+01  0.55701813669E+01  0.90087742049E+01  0.51100000000E-03 0. -1.
        -11    1    3    3    0    0  0.27880698885E+01  0.22673351122E+02  0.17743121663E+02  0.28925292590E+02  0.51100000000E-03 0.  1.
        -12    1    3    3    0    0 -0.15287490232E+01  0.42570234153E+01  0.68495290067E+01  0.82082500905E+01  0.00000000000E+00 0.  1.
</event>
<event>
 7    1  0.2425980E-008  0.4614232E+02  0.7816164E-02  0.1320468E+00
        -11   -1    0    0    0    0  0.00000000000E+00  0.00000000000E+00  0.45593999997E+02  0.45594000000E+02  0.51100000000E-03 0.  1.
         11   -1    0    0    0    0 -0.00000000000E+00 -0.00000000000E+00 -0.45593999997E+02  0.45594000000E+02  0.51100000000E-03 0. -1.
    9900012    2    1    2    0    0  0.10381425457E+01  0.24263843878E+02  0.37938129657E+02  0.46142317170E+02  0.99999946125E+01 0.  0.
         12    1    1    2    0    0 -0.10381425457E+01 -0.24263843878E+02 -0.37938129657E+02  0.45045682830E+02  0.00000000000E+00 0. -1.
         11    1    3    3    0    0  0.12146147585E+01  0.26803334725E+00  0.39121714796E+01  0.41051451659E+01  0.51100000000E-03 0. -1.
        -11    1    3    3    0    0  0.22500745352E+01  0.12242140958E+02  0.20218848956E+02  0.23743098029E+02  0.51100000000E-03 0.  1.
        -12    1    3    3    0    0 -0.24265467480E+01  0.11753669573E+02  0.13807109222E+02  0.18294073975E+02  0.00000000000E+00 0.  1.
</event>
<event>
 7    1  0.2425980E-008  0.4614232E+02  0.7816164E-02  0.1320468E+00
        -11   -1    0    0    0    0  0.00000000000E+00  0.00000000000E+00  0.45593999997E+02  0.45594000000E+02  0.51100000000E-03 0.  1.
         11   -1    0    0    0    0 -0.00000000000E+00 -0.00000000000E+00 -0.45593999997E+02  0.45594000000E+02  0.51100000000E-03 0. -1.
    9900012    2    1    2    0    0  0.32129650735E+02  0.28398585600E+02  0.13795627255E+02  0.46142318167E+02  0.10000003702E+02 0.  0.
         12    1    1    2    0    0 -0.32129650735E+02 -0.28398585600E+02 -0.13795627255E+02  0.45045681833E+02  0.00000000000E+00 0. -1.
         11    1    3    3    0    0  0.12365955954E+02  0.90938361394E+01  0.50349228252E+01  0.16154416440E+02  0.51100000000E-03 0. -1.
        -11    1    3    3    0    0  0.33188529877E+01  0.16738216349E+00  0.19482706949E+01  0.38520852670E+01  0.51100000000E-03 0.  1.
         12    1    3    3    0    0  0.16444841793E+02  0.19137367297E+02  0.68124337352E+01  0.26135816460E+02  0.00000000000E+00 0. -1.
</event>
<event>
 7    1  0.2425980E-008  0.4614232E+02  0.7816164E-02  0.1320468E+00
        -11   -1    0    0    0    0  0.00000000000E+00  0.00000000000E+00  0.45593999997E+02  0.45594000000E+02  0.51100000000E-03 0.  1.
         11   -1    0    0    0    0 -0.00000000000E+00 -0.00000000000E+00 -0.45593999997E+02  0.45594000000E+02  0.51100000000E-03 0. -1.
    9900012    2    1    2    0    0 -0.59128043498E+01  0.37700175421E+02  0.23934259771E+02  0.46142320153E+02  0.10000021813E+02 0.  0.
         12    1    1    2    0    0  0.59128043498E+01 -0.37700175421E+02 -0.23934259771E+02  0.45045679847E+02  0.00000000000E+00 0. -1.
         11    1    3    3    0    0 -0.35826111719E+01  0.13962877734E+02  0.10666572492E+02  0.17932451768E+02  0.51100000000E-03 0. -1.
        -11    1    3    3    0    0 -0.38581345080E+01  0.96547949806E+01  0.79153338891E+01  0.13067240674E+02  0.51100000000E-03 0.  1.
         12    1    3    3    0    0  0.15279413302E+01  0.14082502706E+02  0.53523533906E+01  0.15142627711E+02  0.00000000000E+00 0. -1.
</event>
<event>
 7    1  0.2425980E-008  0.4614232E+02  0.7816164E-02  0.1320468E+00
        -11   -1    0    0    0    0  0.00000000000E+00  0.00000000000E+00  0.45593999997E+02  0.45594000000E+02  0.51100000000E-03 0. -1.
         11   -1    0    0    0    0 -0.00000000000E+00 -0.00000000000E+00 -0.45593999997E+02  0.45594000000E+02  0.51100000000E-03 0.  1.
    9900012    2    1    2    0    0 -0.38961893731E+02 -0.23959420571E+01 -0.22479849723E+02  0.46142319352E+02  0.10000014510E+02 0.  0.
         12    1    1    2    0    0  0.38961893731E+02  0.23959420571E+01  0.22479849723E+02  0.45045680648E+02  0.00000000000E+00 0. -1.
         11    1    3    3    0    0 -0.49681953292E+01 -0.30568780003E+01 -0.25932645506E+01  0.63837676358E+01  0.51100000000E-03 0. -1.
        -11    1    3    3    0    0 -0.26452356913E+01 -0.10546785312E+01 -0.59340671025E+00  0.29089088077E+01  0.51100000000E-03 0.  1.
        -12    1    3    3    0    0 -0.31348462710E+02  0.17156144744E+01 -0.19293178462E+02  0.36849642909E+02  0.00000000000E+00 0.  1.
</event>
<event>
 7    1  0.2425980E-008  0.4614232E+02  0.7816164E-02  0.1320468E+00
        -11   -1    0    0    0    0  0.00000000000E+00  0.00000000000E+00  0.45593999997E+02  0.45594000000E+02  0.51100000000E-03 0.  1.
         11   -1    0    0    0    0 -0.00000000000E+00 -0.00000000000E+00 -0.45593999997E+02  0.45594000000E+02  0.51100000000E-03 0. -1.
    9900012    2    1    2    0    0  0.22699949510E+02  0.36313406978E+02  0.13970047803E+02  0.46142317968E+02  0.10000001886E+02 0.  0.
         12    1    1    2    0    0 -0.22699949510E+02 -0.36313406978E+02 -0.13970047803E+02  0.45045682032E+02  0.00000000000E+00 0. -1.
         11    1    3    3    0    0  0.10675613628E+01  0.25228839513E+01  0.21517346287E+01  0.34834742526E+01  0.51100000000E-03 0. -1.
        -11    1    3    3    0    0 -0.46275121571E+00  0.26327565027E+01  0.16133199143E+01  0.31222342796E+01  0.51100000000E-03 0.  1.
        -12    1    3    3    0    0  0.22095139363E+02  0.31157766524E+02  0.10204993260E+02  0.39536609436E+02  0.00000000000E+00 0.  1.
</event>
<event>
 7    1  0.2425980E-008  0.4614233E+02  0.7816164E-02  0.1320468E+00
        -11   -1    0    0    0    0  0.00000000000E+00  0.00000000000E+00  0.45593999997E+02  0.45594000000E+02  0.51100000000E-03 0. -1.
         11   -1    0    0    0    0 -0.00000000000E+00 -0.00000000000E+00 -0.45593999997E+02  0.45594000000E+02  0.51100000000E-03 0.  1.
    9900012    2    1    2    0    0  0.20136201079E+02  0.35558325955E+02 -0.18953927724E+02  0.46142328568E+02  0.10000098545E+02 0.  0.
         12    1    1    2    0    0 -0.20136201079E+02 -0.35558325955E+02  0.18953927724E+02  0.45045671432E+02  0.00000000000E+00 0. -1.
         11    1    3    3    0    0  0.57691595514E+01  0.52312116425E+01 -0.51653405692E+01  0.93450265187E+01  0.51100000000E-03 0. -1.
        -11    1    3    3    0    0  0.33490146709E+01  0.48075565332E+01 -0.48287419463E+01  0.75924467816E+01  0.51100000000E-03 0.  1.
        -12    1    3    3    0    0  0.11018026857E+02  0.25519557779E+02 -0.89598452087E+01  0.29204855268E+02  0.00000000000E+00 0.  1.
</event>
<event>
 7    1  0.2425980E-008  0.4614231E+02  0.7816164E-02  0.1320468E+00
        -11   -1    0    0    0    0  0.00000000000E+00  0.00000000000E+00  0.45593999997E+02  0.45594000000E+02  0.51100000000E-03 0.  1.
         11   -1    0    0    0    0 -0.00000000000E+00 -0.00000000000E+00 -0.45593999997E+02  0.45594000000E+02  0.51100000000E-03 0. -1.
    9900012    2    1    2    0    0  0.10078211819E+02  0.13928166862E+02  0.41635918542E+02  0.46142313210E+02  0.99999584952E+01 0.  0.
         12    1    1    2    0    0 -0.10078211819E+02 -0.13928166862E+02 -0.41635918542E+02  0.45045686790E+02  0.00000000000E+00 0. -1.
         11    1    3    3    0    0  0.25267597733E+01 -0.98703212094E+00  0.60012489353E+01  0.65858740046E+01  0.51100000000E-03 0. -1.
        -11    1    3    3    0    0  0.36379580801E+01  0.58195594577E+01  0.18953316331E+02  0.20157634074E+02  0.51100000000E-03 0.  1.
        -12    1    3    3    0    0  0.39134939658E+01  0.90956395252E+01  0.16681353276E+02  0.19398805131E+02  0.00000000000E+00 0.  1.
</event>
<event>
 7    1  0.2425980E-008  0.4614232E+02  0.7816164E-02  0.1320468E+00
        -11   -1    0    0    0    0  0.00000000000E+00  0.00000000000E+00  0.45593999997E+02  0.45594000000E+02  0.51100000000E-03 0. -1.
         11   -1    0    0    0    0 -0.00000000000E+00 -0.00000000000E+00 -0.45593999997E+02  0.45594000000E+02  0.51100000000E-03 0.  1.
    9900012    2    1    2    0    0  0.39948645670E+02  0.16293295390E+02 -0.12951746491E+02  0.46142317602E+02  0.99999985490E+01 0.  0.
         12    1    1    2    0    0 -0.39948645670E+02 -0.16293295390E+02  0.12951746491E+02  0.45045682398E+02  0.00000000000E+00 0. -1.
         11    1    3    3    0    0  0.35939315725E+02  0.12793015373E+02 -0.12857089944E+02  0.40256681672E+02  0.51100000000E-03 0.  1.
        -11    1    3    3    0    0 -0.91089690477E-01 -0.13001696152E+00 -0.36954494996E+00  0.40220078712E+00  0.51100000000E-03 0. -1.
        -12    1    3    3    0    0  0.41004196352E+01  0.36302969780E+01  0.27488840268E+00  0.54834351429E+01  0.00000000000E+00 0.  1.
</event>
<event>
 7    1  0.2425980E-008  0.4614232E+02  0.7816164E-02  0.1320468E+00
        -11   -1    0    0    0    0  0.00000000000E+00  0.00000000000E+00  0.45593999997E+02  0.45594000000E+02  0.51100000000E-03 0.  1.
         11   -1    0    0    0    0 -0.00000000000E+00 -0.00000000000E+00 -0.45593999997E+02  0.45594000000E+02  0.51100000000E-03 0. -1.
    9900012    2    1    2    0    0  0.27393708843E+01 -0.44197056929E+02 -0.82601120613E+01  0.46142318239E+02  0.10000004356E+02 0.  0.
         12    1    1    2    0    0 -0.27393708843E+01  0.44197056929E+02  0.82601120613E+01  0.45045681761E+02  0.00000000000E+00 0. -1.
         11    1    3    3    0    0 -0.14569263895E+01 -0.11752772939E+02 -0.59795651140E+00  0.11857818455E+02  0.51100000000E-03 0. -1.
        -11    1    3    3    0    0  0.24397823197E+01 -0.30886487683E+02 -0.64686382608E+01  0.31650765242E+02  0.51100000000E-03 0.  1.
         12    1    3    3    0    0  0.17565149541E+01 -0.15577963070E+01 -0.11935172892E+01  0.26337345419E+01  0.00000000000E+00 0. -1.
</event>
<event>
 7    1  0.2425980E-008  0.4614232E+02  0.7816164E-02  0.1320468E+00
        -11   -1    0    0    0    0  0.00000000000E+00  0.00000000000E+00  0.45593999997E+02  0.45594000000E+02  0.51100000000E-03 0. -1.
         11   -1    0    0    0    0 -0.00000000000E+00 -0.00000000000E+00 -0.45593999997E+02  0.45594000000E+02  0.51100000000E-03 0.  1.
    9900012    2    1    2    0    0 -0.42081494545E+02 -0.16059726465E+02  0.58861932029E+00  0.46142317965E+02  0.10000001858E+02 0.  0.
         12    1    1    2    0    0  0.42081494545E+02  0.16059726465E+02 -0.58861932029E+00  0.45045682035E+02  0.00000000000E+00 0. -1.
         11    1    3    3    0    0 -0.23704417008E+02 -0.11464711633E+02  0.16965978599E+01  0.26385932674E+02  0.51100000000E-03 0. -1.
        -11    1    3    3    0    0 -0.17896175868E+02 -0.32407674426E+01 -0.49488409595E+00  0.18193971387E+02  0.51100000000E-03 0.  1.
        -12    1    3    3    0    0 -0.48090166893E+00 -0.13542473901E+01 -0.61309444365E+00  0.15624139034E+01  0.00000000000E+00 0.  1.
</event>
<event>
 7    1  0.2425980E-008  0.4614232E+02  0.7816164E-02  0.1320468E+00
        -11   -1    0    0    0    0  0.00000000000E+00  0.00000000000E+00  0.45593999997E+02  0.45594000000E+02  0.51100000000E-03 0.  1.
         11   -1    0    0    0    0 -0.00000000000E+00 -0.00000000000E+00 -0.45593999997E+02  0.45594000000E+02  0.51100000000E-03 0. -1.
    9900012    2    1    2    0    0  0.25494929218E+02 -0.26559148535E+01  0.37041437030E+02  0.46142319221E+02  0.10000013315E+02 0.  0.
         12    1    1    2    0    0 -0.25494929218E+02  0.26559148535E+01 -0.37041437030E+02  0.45045680779E+02  0.00000000000E+00 0. -1.
         11    1    3    3    0    0  0.73056769026E+01  0.15678995597E+01  0.59590888461E+01  0.95572989997E+01  0.51100000000E-03 0. -1.
        -11    1    3    3    0    0  0.48976398710E+01 -0.34306588779E+01  0.98441216555E+01  0.11517943743E+02  0.51100000000E-03 0.  1.
        -12    1    3    3    0    0  0.13291612445E+02 -0.79315553531E+00  0.21238226529E+02  0.25067076478E+02  0.00000000000E+00 0.  1.
</event>
<event>
 7    1  0.2425980E-008  0.4614231E+02  0.7816164E-02  0.1320468E+00
        -11   -1    0    0    0    0  0.00000000000E+00  0.00000000000E+00  0.45593999997E+02  0.45594000000E+02  0.51100000000E-03 0.  1.
         11   -1    0    0    0    0 -0.00000000000E+00 -0.00000000000E+00 -0.45593999997E+02  0.45594000000E+02  0.51100000000E-03 0. -1.
    9900012    2    1    2    0    0 -0.40039419180E+02 -0.16235366052E+02  0.12742518192E+02  0.46142312426E+02  0.99999513519E+01 0.  0.
         12    1    1    2    0    0  0.40039419180E+02  0.16235366052E+02 -0.12742518192E+02  0.45045687574E+02  0.00000000000E+00 0. -1.
         11    1    3    3    0    0 -0.14171775771E+02 -0.50457453664E+01  0.78598344801E+01  0.16972795089E+02  0.51100000000E-03 0. -1.
        -11    1    3    3    0    0 -0.16110300445E+02 -0.92351537482E+01  0.49503910863E+01  0.19218122108E+02  0.51100000000E-03 0.  1.
        -12    1    3    3    0    0 -0.97573429645E+01 -0.19544669369E+01 -0.67707374223E-01  0.99513952300E+01  0.00000000000E+00 0.  1.
</event>
<event>
 7    1  0.2425980E-008  0.4614232E+02  0.7816164E-02  0.1320468E+00
        -11   -1    0    0    0    0  0.00000000000E+00  0.00000000000E+00  0.45593999997E+02  0.45594000000E+02  0.51100000000E-03 0.  1.
         11   -1    0    0    0    0 -0.00000000000E+00 -0.00000000000E+00 -0.45593999997E+02  0.45594000000E+02  0.51100000000E-03 0. -1.
    9900012    2    1    2    0    0 -0.15108794147E+02  0.36765429330E+02  0.21192946381E+02  0.46142318402E+02  0.10000005840E+02 0.  0.
         12    1    1    2    0    0  0.15108794147E+02 -0.36765429330E+02 -0.21192946381E+02  0.45045681598E+02  0.00000000000E+00 0. -1.
         11    1    3    3    0    0 -0.57430348953E+00  0.26129892810E+01 -0.30376193286E+00  0.26925469455E+01  0.51100000000E-03 0. -1.
        -11    1    3    3    0    0  0.29634992087E+00 -0.18552643918E+00  0.12840315716E+00  0.37246606171E+00  0.51100000000E-03 0.  1.
        -12    1    3    3    0    0 -0.14830840578E+02  0.34337966488E+02  0.21368305156E+02  0.43077305394E+02  0.00000000000E+00 0.  1.
</event>
<event>
 7    1  0.2425980E-008  0.4614232E+02  0.7816164E-02  0.1320468E+00
        -11   -1    0    0    0    0  0.00000000000E+00  0.00000000000E+00  0.45593999997E+02  0.45594000000E+02  0.51100000000E-03 0.  1.
         11   -1    0    0    0    0 -0.00000000000E+00 -0.00000000000E+00 -0.45593999997E+02  0.45594000000E+02  0.51100000000E-03 0. -1.
    9900012    2    1    2    0    0  0.33064550205E+02  0.81269663706E+01  0.29492396502E+02  0.46142317476E+02  0.99999974021E+01 0.  0.
         12    1    1    2    0    0 -0.33064550205E+02 -0.81269663706E+01 -0.29492396502E+02  0.45045682524E+02  0.00000000000E+00 0. -1.
         11    1    3    3    0    0  0.97298348598E+01 -0.19036094115E+01  0.90869690046E+01  0.13448658712E+02  0.51100000000E-03 0. -1.
        -11    1    3    3    0    0  0.16090955663E+02  0.82589003279E+01  0.14446403938E+02  0.23147934590E+02  0.51100000000E-03 0.  1.
        -12    1    3    3    0    0  0.72437596818E+01  0.17716754542E+01  0.59590235586E+01  0.95457241745E+01  0.00000000000E+00 0.  1.
</event>
<event>
 7    1  0.2425980E-008  0.4614232E+02  0.7816164E-02  0.1320468E+00
        -11   -1    0    0    0    0  0.00000000000E+00  0.00000000000E+00  0.45593999997E+02  0.45594000000E+02  0.51100000000E-03 0. -1.
         11   -1    0    0    0    0 -0.00000000000E+00 -0.00000000000E+00 -0.45593999997E+02  0.45594000000E+02  0.51100000000E-03 0.  1.
    9900012    2    1    2    0    0 -0.41656575544E+02 -0.13095340376E+02  0.11061429774E+02  0.46142318139E+02  0.10000003447E+02 0.  0.
         12    1    1    2    0    0  0.41656575544E+02  0.13095340376E+02 -0.11061429774E+02  0.45045681861E+02  0.00000000000E+00 0. -1.
         11    1    3    3    0    0 -0.13336927042E+02 -0.18020366493E+01  0.24126318264E+01  0.13672664393E+02  0.51100000000E-03 0. -1.
        -11    1    3    3    0    0 -0.21672623490E+02 -0.70451228203E+01  0.91680422129E+01  0.24563985075E+02  0.51100000000E-03 0.  1.
        -12    1    3    3    0    0 -0.66470250131E+01 -0.42481809068E+01 -0.51924426512E+00  0.79056686718E+01  0.00000000000E+00 0.  1.
</event>
<event>
 7    1  0.2425980E-008  0.4614232E+02  0.7816164E-02  0.1320468E+00
        -11   -1    0    0    0    0  0.00000000000E+00  0.00000000000E+00  0.45593999997E+02  0.45594000000E+02  0.51100000000E-03 0.  1.
         11   -1    0    0    0    0 -0.00000000000E+00 -0.00000000000E+00 -0.45593999997E+02  0.45594000000E+02  0.51100000000E-03 0. -1.
    9900012    2    1    2    0    0  0.98355716534E+01  0.43951957581E+02 -0.77492890615E+00  0.46142316968E+02  0.99999927719E+01 0.  0.
         12    1    1    2    0    0 -0.98355716534E+01 -0.43951957581E+02  0.77492890615E+00  0.45045683032E+02  0.00000000000E+00 0. -1.
         11    1    3    3    0    0  0.19238260243E+01  0.25296267684E+02 -0.15032411965E+01  0.25413815134E+02  0.51100000000E-03 0. -1.
        -11    1    3    3    0    0  0.72287905789E+01  0.14054588235E+02 -0.82044996824E+00  0.15825928159E+02  0.51100000000E-03 0.  1.
         12    1    3    3    0    0  0.68295505016E+00  0.46011016628E+01  0.15487622586E+01  0.49025736757E+01  0.00000000000E+00 0. -1.
</event>
<event>
 7    1  0.2425980E-008  0.4614232E+02  0.7816164E-02  0.1320468E+00
        -11   -1    0    0    0    0  0.00000000000E+00  0.00000000000E+00  0.45593999997E+02  0.45594000000E+02  0.51100000000E-03 0.  1.
         11   -1    0    0    0    0 -0.00000000000E+00 -0.00000000000E+00 -0.45593999997E+02  0.45594000000E+02  0.51100000000E-03 0. -1.
    9900012    2    1    2    0    0  0.30719778725E+02  0.20185337283E+02  0.26037680537E+02  0.46142318144E+02  0.10000003491E+02 0.  0.
         12    1    1    2    0    0 -0.30719778725E+02 -0.20185337283E+02 -0.26037680537E+02  0.45045681856E+02  0.00000000000E+00 0. -1.
         11    1    3    3    0    0  0.10019844044E+02  0.77181628011E+01  0.50585604213E+01  0.13621906822E+02  0.51100000000E-03 0. -1.
        -11    1    3    3    0    0  0.93633106878E+01  0.45318363419E+01  0.12616274817E+02  0.16351743583E+02  0.51100000000E-03 0.  1.
        -12    1    3    3    0    0  0.11336623994E+02  0.79353381397E+01  0.83628452980E+01  0.16168667739E+02  0.00000000000E+00 0.  1.
</event>
<event>
 7    1  0.2425980E-008  0.4614232E+02  0.7816164E-02  0.1320468E+00
        -11   -1    0    0    0    0  0.00000000000E+00  0.00000000000E+00  0.45593999997E+02  0.45594000000E+02  0.51100000000E-03 0. -1.
         11   -1    0    0    0    0 -0.00000000000E+00 -0.00000000000E+00 -0.45593999997E+02  0.45594000000E+02  0.51100000000E-03 0.  1.
    9900012    2    1    2    0    0 -0.13758225036E+02 -0.22601717848E+02 -0.36455277287E+02  0.46142315991E+02  0.99999838580E+01 0.  0.
         12    1    1    2    0    0  0.13758225036E+02  0.22601717848E+02  0.36455277287E+02  0.45045684009E+02  0.00000000000E+00 0. -1.
         11    1    3    3    0    0 -0.67135050162E+00 -0.16722751611E+01 -0.44847967573E+01  0.48332823139E+01  0.51100000000E-03 0. -1.
        -11    1    3    3    0    0  0.47254286382E+00 -0.53362043182E+01 -0.49606443134E+01  0.73011208420E+01  0.51100000000E-03 0.  1.
        -12    1    3    3    0    0 -0.13559417398E+02 -0.15593238369E+02 -0.27009836216E+02  0.34007912835E+02  0.00000000000E+00 0.  1.
</event>
<event>
 7    1  0.2425980E-008  0.4614232E+02  0.7816164E-02  0.1320468E+00
        -11   -1    0    0    0    0  0.00000000000E+00  0.00000000000E+00  0.45593999997E+02  0.45594000000E+02  0.51100000000E-03 0.  1.
         11   -1    0    0    0    0 -0.00000000000E+00 -0.00000000000E+00 -0.45593999997E+02  0.45594000000E+02  0.51100000000E-03 0. -1.
    9900012    2    1    2    0    0  0.58763092455E+01 -0.25563225318E+02  0.36621087136E+02  0.46142317387E+02  0.99999965919E+01 0.  0.
         12    1    1    2    0    0 -0.58763092455E+01  0.25563225318E+02 -0.36621087136E+02  0.45045682613E+02  0.00000000000E+00 0. -1.
         11    1    3    3    0    0 -0.10130203191E+01 -0.19713250649E+01  0.66339159311E+01  0.69943672709E+01  0.51100000000E-03 0. -1.
        -11    1    3    3    0    0  0.16623921951E+01 -0.12255071097E+01  0.37184880757E+01  0.42535360956E+01  0.51100000000E-03 0.  1.
        -12    1    3    3    0    0  0.52269373695E+01 -0.22366393143E+02  0.26268683129E+02  0.34894414021E+02  0.00000000000E+00 0.  1.
</event>
<event>
 7    1  0.2425980E-008  0.4614232E+02  0.7816164E-02  0.1320468E+00
        -11   -1    0    0    0    0  0.00000000000E+00  0.00000000000E+00  0.45593999997E+02  0.45594000000E+02  0.51100000000E-03 0.  1.
         11   -1    0    0    0    0 -0.00000000000E+00 -0.00000000000E+00 -0.45593999997E+02  0.45594000000E+02  0.51100000000E-03 0. -1.
    9900012    2    1    2    0    0  0.22252439324E+02 -0.26201554197E+02  0.29110495257E+02  0.46142318383E+02  0.10000005674E+02 0.  0.
         12    1    1    2    0    0 -0.22252439324E+02  0.26201554197E+02 -0.29110495257E+02  0.45045681617E+02  0.00000000000E+00 0. -1.
         11    1    3    3    0    0  0.37689666139E+01 -0.20601867310E+01  0.16065248779E+01  0.45858915325E+01  0.51100000000E-03 0. -1.
        -11    1    3    3    0    0  0.97874125316E+00 -0.50313322587E+01  0.33005322066E+01  0.60963720232E+01  0.51100000000E-03 0.  1.
        -12    1    3    3    0    0  0.17504731457E+02 -0.19110035207E+02  0.24203438173E+02  0.35460054828E+02  0.00000000000E+00 0.  1.
</event>
<event>
 7    1  0.2425980E-008  0.4614232E+02  0.7816164E-02  0.1320468E+00
        -11   -1    0    0    0    0  0.00000000000E+00  0.00000000000E+00  0.45593999997E+02  0.45594000000E+02  0.51100000000E-03 0.  1.
         11   -1    0    0    0    0 -0.00000000000E+00 -0.00000000000E+00 -0.45593999997E+02  0.45594000000E+02  0.51100000000E-03 0. -1.
    9900012    2    1    2    0    0 -0.92945491607E+01 -0.15470532946E+02  0.41272115214E+02  0.46142317322E+02  0.99999959936E+01 0.  0.
         12    1    1    2    0    0  0.92945491607E+01  0.15470532946E+02 -0.41272115214E+02  0.45045682678E+02  0.00000000000E+00 0. -1.
         11    1    3    3    0    0 -0.60895381207E+01 -0.38983790866E+01  0.11860619285E+02  0.13890792782E+02  0.51100000000E-03 0. -1.
        -11    1    3    3    0    0 -0.15850412982E+01 -0.30109001536E+01  0.15243767111E+02  0.15618908785E+02  0.51100000000E-03 0.  1.
        -12    1    3    3    0    0 -0.16199697418E+01 -0.85612537061E+01  0.14167728818E+02  0.16632615754E+02  0.00000000000E+00 0.  1.
</event>
<event>
 7    1  0.2425980E-008  0.4614232E+02  0.7816164E-02  0.1320468E+00
        -11   -1    0    0    0    0  0.00000000000E+00  0.00000000000E+00  0.45593999997E+02  0.45594000000E+02  0.51100000000E-03 0.  1.
         11   -1    0    0    0    0 -0.00000000000E+00 -0.00000000000E+00 -0.45593999997E+02  0.45594000000E+02  0.51100000000E-03 0. -1.
    9900012    2    1    2    0    0 -0.65362182959E+01  0.81990183492E+01  0.43808303217E+02  0.46142317829E+02  0.10000000621E+02 0.  0.
         12    1    1    2    0    0  0.65362182959E+01 -0.81990183492E+01 -0.43808303217E+02  0.45045682171E+02  0.00000000000E+00 0. -1.
         11    1    3    3    0    0 -0.35803887918E+01  0.13052377284E+01  0.13344859832E+02  0.13878332523E+02  0.51100000000E-03 0. -1.
        -11    1    3    3    0    0 -0.26846363747E+01  0.46947487693E+01  0.29234043862E+02  0.29730073314E+02  0.51100000000E-03 0.  1.
         12    1    3    3    0    0 -0.27119312941E+00  0.21990318515E+01  0.12293995229E+01  0.25339119922E+01  0.00000000000E+00 0. -1.
</event>
<event>
 7    1  0.2425980E-008  0.4614232E+02  0.7816164E-02  0.1320468E+00
        -11   -1    0    0    0    0  0.00000000000E+00  0.00000000000E+00  0.45593999997E+02  0.45594000000E+02  0.51100000000E-03 0.  1.
         11   -1    0    0    0    0 -0.00000000000E+00 -0.00000000000E+00 -0.45593999997E+02  0.45594000000E+02  0.51100000000E-03 0. -1.
    9900012    2    1    2    0    0 -0.35537963837E+02  0.21576230829E+02  0.17338768369E+02  0.46142317642E+02  0.99999989172E+01 0.  0.
         12    1    1    2    0    0  0.35537963837E+02 -0.21576230829E+02 -0.17338768369E+02  0.45045682358E+02  0.00000000000E+00 0. -1.
         11    1    3    3    0    0 -0.11864502805E+02  0.33589596705E+01  0.78358340457E+01  0.14609905282E+02  0.51100000000E-03 0. -1.
        -11    1    3    3    0    0 -0.62446095128E+01  0.67626073491E+01  0.26309153356E+01  0.95733861246E+01  0.51100000000E-03 0.  1.
         12    1    3    3    0    0 -0.17428851519E+02  0.11454663810E+02  0.68720189880E+01  0.21959026236E+02  0.00000000000E+00 0. -1.
</event>
<event>
 7    1  0.2425980E-008  0.4614232E+02  0.7816164E-02  0.1320468E+00
        -11   -1    0    0    0    0  0.00000000000E+00  0.00000000000E+00  0.45593999997E+02  0.45594000000E+02  0.51100000000E-03 0. -1.
         11   -1    0    0    0    0 -0.00000000000E+00 -0.00000000000E+00 -0.45593999997E+02  0.45594000000E+02  0.51100000000E-03 0.  1.
    9900012    2    1    2    0    0  0.30306246410E+02  0.32534314628E+02 -0.72224152489E+01  0.46142317834E+02  0.10000000663E+02 0.  0.
         12    1    1    2    0    0 -0.30306246410E+02 -0.32534314628E+02  0.72224152489E+01  0.45045682166E+02  0.00000000000E+00 0. -1.
         11    1    3    3    0    0  0.13247524944E+02  0.19025911960E+02 -0.17892365193E+01  0.23252604384E+02  0.51100000000E-03 0. -1.
        -11    1    3    3    0    0  0.19612709269E+01  0.28718865015E+01  0.45129210772E+00  0.35068476661E+01  0.51100000000E-03 0.  1.
        -12    1    3    3    0    0  0.15097450540E+02  0.10636516167E+02 -0.58844708374E+01  0.19382865784E+02  0.00000000000E+00 0.  1.
</event>
<event>
 7    1  0.2425980E-008  0.4614232E+02  0.7816164E-02  0.1320468E+00
        -11   -1    0    0    0    0  0.00000000000E+00  0.00000000000E+00  0.45593999997E+02  0.45594000000E+02  0.51100000000E-03 0.  1.
         11   -1    0    0    0    0 -0.00000000000E+00 -0.00000000000E+00 -0.45593999997E+02  0.45594000000E+02  0.51100000000E-03 0. -1.
    9900012    2    1    2    0    0  0.23790342026E+02  0.21180852513E+02  0.31851288863E+02  0.46142317753E+02  0.99999999260E+01 0.  0.
         12    1    1    2    0    0 -0.23790342026E+02 -0.21180852513E+02 -0.31851288863E+02  0.45045682247E+02  0.00000000000E+00 0. -1.
         11    1    3    3    0    0  0.10217634976E+01  0.26151196360E+00  0.21368282940E+01  0.23829445171E+01  0.51100000000E-03 0. -1.
        -11    1    3    3    0    0  0.12475805085E+02  0.16939198658E+02  0.18309774732E+02  0.27889604061E+02  0.51100000000E-03 0.  1.
        -12    1    3    3    0    0  0.10292773443E+02  0.39801418918E+01  0.11404685837E+02  0.15869769175E+02  0.00000000000E+00 0.  1.
</event>
<event>
 7    1  0.2425980E-008  0.4614232E+02  0.7816164E-02  0.1320468E+00
        -11   -1    0    0    0    0  0.00000000000E+00  0.00000000000E+00  0.45593999997E+02  0.45594000000E+02  0.51100000000E-03 0.  1.
         11   -1    0    0    0    0 -0.00000000000E+00 -0.00000000000E+00 -0.45593999997E+02  0.45594000000E+02  0.51100000000E-03 0. -1.
    9900012    2    1    2    0    0  0.15683901753E+02 -0.37827646787E-01  0.42227085296E+02  0.46142323874E+02  0.10000055739E+02 0.  0.
         12    1    1    2    0    0 -0.15683901753E+02  0.37827646787E-01 -0.42227085296E+02  0.45045676126E+02  0.00000000000E+00 0. -1.
         11    1    3    3    0    0  0.43859161776E+01 -0.13100636141E+01  0.98676439358E+01  0.10877634141E+02  0.51100000000E-03 0.  1.
        -11    1    3    3    0    0  0.20982869166E+00  0.92591898325E+00 -0.10686064356E+00  0.95539180531E+00  0.51100000000E-03 0. -1.
         12    1    3    3    0    0  0.11088156884E+02  0.34631698407E+00  0.32466302003E+02  0.34309297928E+02  0.00000000000E+00 0. -1.
</event>
<event>
 7    1  0.2425980E-008  0.4614232E+02  0.7816164E-02  0.1320468E+00
        -11   -1    0    0    0    0  0.00000000000E+00  0.00000000000E+00  0.45593999997E+02  0.45594000000E+02  0.51100000000E-03 0.  1.
         11   -1    0    0    0    0 -0.00000000000E+00 -0.00000000000E+00 -0.45593999997E+02  0.45594000000E+02  0.51100000000E-03 0. -1.
    9900012    2    1    2    0    0 -0.29437701245E+02  0.12547936573E+02  0.31703070479E+02  0.46142316027E+02  0.99999841861E+01 0.  0.
         12    1    1    2    0    0  0.29437701245E+02 -0.12547936573E+02 -0.31703070479E+02  0.45045683973E+02  0.00000000000E+00 0. -1.
         11    1    3    3    0    0 -0.30829322247E+01  0.50222410583E+00  0.76041747961E+01  0.82207161942E+01  0.51100000000E-03 0. -1.
        -11    1    3    3    0    0 -0.73950727673E+01  0.14814105752E+01  0.54367849362E+01  0.92973280694E+01  0.51100000000E-03 0.  1.
         12    1    3    3    0    0 -0.18959696253E+02  0.10564301892E+02  0.18662110746E+02  0.28624271763E+02  0.00000000000E+00 0. -1.
</event>
<event>
 7    1  0.2425980E-008  0.4614232E+02  0.7816164E-02  0.1320468E+00
        -11   -1    0    0    0    0  0.00000000000E+00  0.00000000000E+00  0.45593999997E+02  0.45594000000E+02  0.51100000000E-03 0. -1.
         11   -1    0    0    0    0 -0.00000000000E+00 -0.00000000000E+00 -0.45593999997E+02  0.45594000000E+02  0.51100000000E-03 0.  1.
    9900012    2    1    2    0    0 -0.99160658118E+01  0.43022921757E+02 -0.89338319557E+01  0.46142317509E+02  0.99999976976E+01 0.  0.
         12    1    1    2    0    0  0.99160658118E+01 -0.43022921757E+02  0.89338319557E+01  0.45045682491E+02  0.00000000000E+00 0. -1.
         11    1    3    3    0    0 -0.48190999328E+01  0.16423014071E+02 -0.17802479061E+00  0.17116390052E+02  0.51100000000E-03 0. -1.
        -11    1    3    3    0    0 -0.87172694643E+00  0.28711676427E+01 -0.30066109383E+01  0.42477312883E+01  0.51100000000E-03 0.  1.
        -12    1    3    3    0    0 -0.42252389327E+01  0.23728740043E+02 -0.57491962268E+01  0.24778196168E+02  0.00000000000E+00 0.  1.
</event>
<event>
 7    1  0.2425980E-008  0.4614232E+02  0.7816164E-02  0.1320468E+00
        -11   -1    0    0    0    0  0.00000000000E+00  0.00000000000E+00  0.45593999997E+02  0.45594000000E+02  0.51100000000E-03 0.  1.
         11   -1    0    0    0    0 -0.00000000000E+00 -0.00000000000E+00 -0.45593999997E+02  0.45594000000E+02  0.51100000000E-03 0. -1.
    9900012    2    1    2    0    0 -0.12776459964E+02  0.15227258103E+02  0.40422841974E+02  0.46142317945E+02  0.10000001676E+02 0.  0.
         12    1    1    2    0    0  0.12776459964E+02 -0.15227258103E+02 -0.40422841974E+02  0.45045682055E+02  0.00000000000E+00 0. -1.
         11    1    3    3    0    0 -0.26941927380E+01  0.93337203600E+00  0.10306412114E+02  0.10693548933E+02  0.51100000000E-03 0. -1.
        -11    1    3    3    0    0 -0.92464565277E+01  0.92905556948E+01  0.17610091482E+02  0.21952829105E+02  0.51100000000E-03 0.  1.
        -12    1    3    3    0    0 -0.83581069854E+00  0.50033303725E+01  0.12506338378E+02  0.13495939907E+02  0.00000000000E+00 0.  1.
</event>
<event>
 7    1  0.2425980E-008  0.4614232E+02  0.7816164E-02  0.1320468E+00
        -11   -1    0    0    0    0  0.00000000000E+00  0.00000000000E+00  0.45593999997E+02  0.45594000000E+02  0.51100000000E-03 0.  1.
         11   -1    0    0    0    0 -0.00000000000E+00 -0.00000000000E+00 -0.45593999997E+02  0.45594000000E+02  0.51100000000E-03 0. -1.
    9900012    2    1    2    0    0 -0.39919281371E+02 -0.72568509064E+01  0.19567896101E+02  0.46142317986E+02  0.10000002053E+02 0.  0.
         12    1    1    2    0    0  0.39919281371E+02  0.72568509064E+01 -0.19567896101E+02  0.45045682014E+02  0.00000000000E+00 0. -1.
         11    1    3    3    0    0 -0.30921742375E+02 -0.58849855650E+01  0.16387373398E+02  0.35487085168E+02  0.51100000000E-03 0.  1.
        -11    1    3    3    0    0 -0.42807875930E+01 -0.25981822774E+01  0.35105279333E+00  0.50198537716E+01  0.51100000000E-03 0. -1.
         12    1    3    3    0    0 -0.47167514036E+01  0.12263169360E+01  0.28294699096E+01  0.56353790467E+01  0.00000000000E+00 0. -1.
</event>
<event>
 7    1  0.2425980E-008  0.4614232E+02  0.7816164E-02  0.1320468E+00
        -11   -1    0    0    0    0  0.00000000000E+00  0.00000000000E+00  0.45593999997E+02  0.45594000000E+02  0.51100000000E-03 0.  1.
         11   -1    0    0    0    0 -0.00000000000E+00 -0.00000000000E+00 -0.45593999997E+02  0.45594000000E+02  0.51100000000E-03 0. -1.
    9900012    2    1    2    0    0 -0.14754256931E+02  0.24085124700E+02  0.35090341741E+02  0.46142318599E+02  0.10000007638E+02 0.  0.
         12    1    1    2    0    0  0.14754256931E+02 -0.24085124700E+02 -0.35090341741E+02  0.45045681401E+02  0.00000000000E+00 0. -1.
         11    1    3    3    0    0 -0.28525869835E+01  0.10519687642E+02  0.14204095169E+02  0.17904116857E+02  0.51100000000E-03 0. -1.
        -11    1    3    3    0    0 -0.89675572907E+01  0.11396781358E+02  0.19574196399E+02  0.24360888203E+02  0.51100000000E-03 0.  1.
         12    1    3    3    0    0 -0.29341126569E+01  0.21686556990E+01  0.13120501728E+01  0.38773135390E+01  0.00000000000E+00 0. -1.
</event>
<event>
 7    1  0.2425980E-008  0.4614232E+02  0.7816164E-02  0.1320468E+00
        -11   -1    0    0    0    0  0.00000000000E+00  0.00000000000E+00  0.45593999997E+02  0.45594000000E+02  0.51100000000E-03 0.  1.
         11   -1    0    0    0    0 -0.00000000000E+00 -0.00000000000E+00 -0.45593999997E+02  0.45594000000E+02  0.51100000000E-03 0. -1.
    9900012    2    1    2    0    0 -0.82856950526E+01  0.10314568940E+02  0.43058917681E+02  0.46142318001E+02  0.10000002185E+02 0.  0.
         12    1    1    2    0    0  0.82856950526E+01 -0.10314568940E+02 -0.43058917681E+02  0.45045681999E+02  0.00000000000E+00 0. -1.
         11    1    3    3    0    0 -0.11041286229E+01  0.22002813835E+01  0.28698185324E+01  0.37810311890E+01  0.51100000000E-03 0. -1.
        -11    1    3    3    0    0 -0.62905905968E+01  0.13643528243E+01  0.22655815721E+02  0.23552472799E+02  0.51100000000E-03 0.  1.
        -12    1    3    3    0    0 -0.89097583283E+00  0.67499347324E+01  0.17533283427E+02  0.18808814013E+02  0.00000000000E+00 0.  1.
</event>
<event>
 7    1  0.2425980E-008  0.4614232E+02  0.7816164E-02  0.1320468E+00
        -11   -1    0    0    0    0  0.00000000000E+00  0.00000000000E+00  0.45593999997E+02  0.45594000000E+02  0.51100000000E-03 0.  1.
         11   -1    0    0    0    0 -0.00000000000E+00 -0.00000000000E+00 -0.45593999997E+02  0.45594000000E+02  0.51100000000E-03 0. -1.
    9900012    2    1    2    0    0  0.39243982518E+02 -0.16888975015E+02  0.14275350844E+02  0.46142320045E+02  0.10000020825E+02 0.  0.
         12    1    1    2    0    0 -0.39243982518E+02  0.16888975015E+02 -0.14275350844E+02  0.45045679955E+02  0.00000000000E+00 0. -1.
         11    1    3    3    0    0  0.32940435048E+01 -0.18731646301E+01 -0.11638144296E+00  0.37911757074E+01  0.51100000000E-03 0. -1.
        -11    1    3    3    0    0  0.20508186695E+02 -0.12312995334E+02  0.10917619746E+02  0.26294295898E+02  0.51100000000E-03 0.  1.
         12    1    3    3    0    0  0.15441752318E+02 -0.27028150507E+01  0.34741125411E+01  0.16056848439E+02  0.00000000000E+00 0. -1.
</event>
<event>
 7    1  0.2425980E-008  0.4614232E+02  0.7816164E-02  0.1320468E+00
        -11   -1    0    0    0    0  0.00000000000E+00  0.00000000000E+00  0.45593999997E+02  0.45594000000E+02  0.51100000000E-03 0.  1.
         11   -1    0    0    0    0 -0.00000000000E+00 -0.00000000000E+00 -0.45593999997E+02  0.45594000000E+02  0.51100000000E-03 0. -1.
    9900012    2    1    2    0    0 -0.86738297923E+01  0.44179244935E+02  0.14396237081E+01  0.46142317380E+02  0.99999965204E+01 0.  0.
         12    1    1    2    0    0  0.86738297923E+01 -0.44179244935E+02 -0.14396237081E+01  0.45045682620E+02  0.00000000000E+00 0. -1.
         11    1    3    3    0    0  0.19688894721E+00  0.21826742609E+01  0.17384298496E+01  0.27973149251E+01  0.51100000000E-03 0. -1.
        -11    1    3    3    0    0 -0.45770853915E+01  0.31177719984E+02 -0.20301708073E+01  0.31577231162E+02  0.51100000000E-03 0.  1.
        -12    1    3    3    0    0 -0.42936333480E+01  0.10818850690E+02  0.17313646658E+01  0.11767771292E+02  0.00000000000E+00 0.  1.
</event>
<event>
 7    1  0.2425980E-008  0.4614232E+02  0.7816164E-02  0.1320468E+00
        -11   -1    0    0    0    0  0.00000000000E+00  0.00000000000E+00  0.45593999997E+02  0.45594000000E+02  0.51100000000E-03 0.  1.
         11   -1    0    0    0    0 -0.00000000000E+00 -0.00000000000E+00 -0.45593999997E+02  0.45594000000E+02  0.51100000000E-03 0. -1.
    9900012    2    1    2    0    0  0.13069874395E+02 -0.25033372699E+02  0.35094474255E+02  0.46142317758E+02  0.99999999678E+01 0.  0.
         12    1    1    2    0    0 -0.13069874395E+02  0.25033372699E+02 -0.35094474255E+02  0.45045682242E+02  0.00000000000E+00 0. -1.
         11    1    3    3    0    0  0.20022741101E+01 -0.27713484989E+01  0.93763830104E+01  0.99802821971E+01  0.51100000000E-03 0. -1.
        -11    1    3    3    0    0  0.15096189577E+01 -0.54640036168E+01  0.88472539119E+01  0.10507530013E+02  0.51100000000E-03 0.  1.
        -12    1    3    3    0    0  0.95579813277E+01 -0.16798020584E+02  0.16870837333E+02  0.25654505548E+02  0.00000000000E+00 0.  1.
</event>
<event>
 7    1  0.2425980E-008  0.4614232E+02  0.7816164E-02  0.1320468E+00
        -11   -1    0    0    0    0  0.00000000000E+00  0.00000000000E+00  0.45593999997E+02  0.45594000000E+02  0.51100000000E-03 0.  1.
         11   -1    0    0    0    0 -0.00000000000E+00 -0.00000000000E+00 -0.45593999997E+02  0.45594000000E+02  0.51100000000E-03 0. -1.
    9900012    2    1    2    0    0 -0.95981877819E+01  0.14423483729E+02  0.41580659713E+02  0.46142319255E+02  0.10000013624E+02 0.  0.
         12    1    1    2    0    0  0.95981877819E+01 -0.14423483729E+02 -0.41580659713E+02  0.45045680745E+02  0.00000000000E+00 0. -1.
         11    1    3    3    0    0 -0.16018783747E+00  0.61889285905E+01  0.11885616190E+02  0.13401357010E+02  0.51100000000E-03 0.  1.
        -11    1    3    3    0    0  0.76745769424E+00  0.37090974649E+00  0.12353504092E+01  0.15008851545E+01  0.51100000000E-03 0. -1.
        -12    1    3    3    0    0 -0.10205457639E+02  0.78636453924E+01  0.28459693114E+02  0.31240077091E+02  0.00000000000E+00 0.  1.
</event>
<event>
 7    1  0.2425980E-008  0.4614232E+02  0.7816164E-02  0.1320468E+00
        -11   -1    0    0    0    0  0.00000000000E+00  0.00000000000E+00  0.45593999997E+02  0.45594000000E+02  0.51100000000E-03 0.  1.
         11   -1    0    0    0    0 -0.00000000000E+00 -0.00000000000E+00 -0.45593999997E+02  0.45594000000E+02  0.51100000000E-03 0. -1.
    9900012    2    1    2    0    0  0.74333166532E+01  0.62862238372E+01  0.43981162664E+02  0.46142317900E+02  0.10000001263E+02 0.  0.
         12    1    1    2    0    0 -0.74333166532E+01 -0.62862238372E+01 -0.43981162664E+02  0.45045682100E+02  0.00000000000E+00 0. -1.
         11    1    3    3    0    0  0.43721720931E+01  0.30086992694E+01  0.19483754050E+02  0.20193682978E+02  0.51100000000E-03 0. -1.
        -11    1    3    3    0    0  0.26278457856E+00  0.49109246210E+01  0.10703371185E+02  0.11779150706E+02  0.51100000000E-03 0.  1.
         12    1    3    3    0    0  0.27983599815E+01 -0.16334000533E+01  0.13794037429E+02  0.14169484215E+02  0.00000000000E+00 0. -1.
</event>
<event>
 7    1  0.2425980E-008  0.4614232E+02  0.7816164E-02  0.1320468E+00
        -11   -1    0    0    0    0  0.00000000000E+00  0.00000000000E+00  0.45593999997E+02  0.45594000000E+02  0.51100000000E-03 0. -1.
         11   -1    0    0    0    0 -0.00000000000E+00 -0.00000000000E+00 -0.45593999997E+02  0.45594000000E+02  0.51100000000E-03 0.  1.
    9900012    2    1    2    0    0  0.12547149492E+02 -0.34290002590E+02 -0.26379502273E+02  0.46142318984E+02  0.10000011154E+02 0.  0.
         12    1    1    2    0    0 -0.12547149492E+02  0.34290002590E+02  0.26379502273E+02  0.45045681016E+02  0.00000000000E+00 0. -1.
         11    1    3    3    0    0  0.99995976589E+01 -0.21420207409E+02 -0.16363438764E+02  0.28750293342E+02  0.51100000000E-03 0. -1.
        -11    1    3    3    0    0  0.28243934242E+01 -0.83366590762E+01 -0.35514464721E+01  0.94915675772E+01  0.51100000000E-03 0.  1.
         12    1    3    3    0    0 -0.27684159109E+00 -0.45331361049E+01 -0.64646170367E+01  0.79004580654E+01  0.00000000000E+00 0. -1.
</event>
<event>
 7    1  0.2425980E-008  0.4614232E+02  0.7816164E-02  0.1320468E+00
        -11   -1    0    0    0    0  0.00000000000E+00  0.00000000000E+00  0.45593999997E+02  0.45594000000E+02  0.51100000000E-03 0.  1.
         11   -1    0    0    0    0 -0.00000000000E+00 -0.00000000000E+00 -0.45593999997E+02  0.45594000000E+02  0.51100000000E-03 0. -1.
    9900012    2    1    2    0    0  0.14583351789E+01 -0.27582963162E+02  0.35583238120E+02  0.46142318371E+02  0.10000005563E+02 0.  0.
         12    1    1    2    0    0 -0.14583351789E+01  0.27582963162E+02 -0.35583238120E+02  0.45045681629E+02  0.00000000000E+00 0. -1.
         11    1    3    3    0    0  0.37217504937E+01 -0.12816500585E+02  0.18928667765E+02  0.23160496057E+02  0.51100000000E-03 0. -1.
        -11    1    3    3    0    0  0.17071810289E+01 -0.49404788787E+01  0.50967501709E+01  0.73006616948E+01  0.51100000000E-03 0.  1.
        -12    1    3    3    0    0 -0.39705963437E+01 -0.98259836985E+01  0.11557820184E+02  0.15681160620E+02  0.00000000000E+00 0.  1.
</event>
<event>
 7    1  0.2425980E-008  0.4614232E+02  0.7816164E-02  0.1320468E+00
        -11   -1    0    0    0    0  0.00000000000E+00  0.00000000000E+00  0.45593999997E+02  0.45594000000E+02  0.51100000000E-03 0. -1.
         11   -1    0    0    0    0 -0.00000000000E+00 -0.00000000000E+00 -0.45593999997E+02  0.45594000000E+02  0.51100000000E-03 0.  1.
    9900012    2    1    2    0    0 -0.33026618340E+02  0.28904666463E+02 -0.10142792268E+02  0.46142317662E+02  0.99999990979E+01 0.  0.
         12    1    1    2    0    0  0.33026618340E+02 -0.28904666463E+02  0.10142792268E+02  0.45045682338E+02  0.00000000000E+00 0. -1.
         11    1    3    3    0    0 -0.10896890018E+02  0.11118187582E+02 -0.73404405106E+01  0.17211576753E+02  0.51100000000E-03 0. -1.
        -11    1    3    3    0    0 -0.19043848660E+02  0.15742393042E+02 -0.40223608470E+01  0.25033387656E+02  0.51100000000E-03 0.  1.
         12    1    3    3    0    0 -0.30858796611E+01  0.20440858393E+01  0.12200090900E+01  0.38973532532E+01  0.00000000000E+00 0. -1.
</event>
<event>
 7    1  0.2425980E-008  0.4614232E+02  0.7816164E-02  0.1320468E+00
        -11   -1    0    0    0    0  0.00000000000E+00  0.00000000000E+00  0.45593999997E+02  0.45594000000E+02  0.51100000000E-03 0. -1.
         11   -1    0    0    0    0 -0.00000000000E+00 -0.00000000000E+00 -0.45593999997E+02  0.45594000000E+02  0.51100000000E-03 0.  1.
    9900012    2    1    2    0    0 -0.17017391236E+02 -0.40383343813E+02 -0.10426278755E+02  0.46142319290E+02  0.10000013940E+02 0.  0.
         12    1    1    2    0    0  0.17017391236E+02  0.40383343813E+02  0.10426278755E+02  0.45045680710E+02  0.00000000000E+00 0. -1.
         11    1    3    3    0    0 -0.57656171081E+01 -0.56583428377E+01 -0.27645725709E+01  0.85382695007E+01  0.51100000000E-03 0. -1.
        -11    1    3    3    0    0 -0.17261233534E+01 -0.57906690216E+01  0.51312588455E+00  0.60642104172E+01  0.51100000000E-03 0.  1.
        -12    1    3    3    0    0 -0.95256507742E+01 -0.28934331953E+02 -0.81748320685E+01  0.31539839372E+02  0.00000000000E+00 0.  1.
</event>
<event>
 7    1  0.2425980E-008  0.4614232E+02  0.7816164E-02  0.1320468E+00
        -11   -1    0    0    0    0  0.00000000000E+00  0.00000000000E+00  0.45593999997E+02  0.45594000000E+02  0.51100000000E-03 0.  1.
         11   -1    0    0    0    0 -0.00000000000E+00 -0.00000000000E+00 -0.45593999997E+02  0.45594000000E+02  0.51100000000E-03 0. -1.
    9900012    2    1    2    0    0  0.60702666409E+01 -0.35006716954E+02  0.27691065905E+02  0.46142317632E+02  0.99999988241E+01 0.  0.
         12    1    1    2    0    0 -0.60702666409E+01  0.35006716954E+02 -0.27691065905E+02  0.45045682368E+02  0.00000000000E+00 0. -1.
         11    1    3    3    0    0  0.24005390061E+01 -0.22581308528E+01  0.15893363642E+01  0.36589250891E+01  0.51100000000E-03 0. -1.
        -11    1    3    3    0    0  0.19490998631E+01 -0.12825985436E+02  0.66165187379E+01  0.14563077050E+02  0.51100000000E-03 0.  1.
        -12    1    3    3    0    0  0.17206277717E+01 -0.19922600665E+02  0.19485210803E+02  0.27920315493E+02  0.00000000000E+00 0.  1.
</event>
<event>
 7    1  0.2425980E-008  0.4614232E+02  0.7816164E-02  0.1320468E+00
        -11   -1    0    0    0    0  0.00000000000E+00  0.00000000000E+00  0.45593999997E+02  0.45594000000E+02  0.51100000000E-03 0.  1.
         11   -1    0    0    0    0 -0.00000000000E+00 -0.00000000000E+00 -0.45593999997E+02  0.45594000000E+02  0.51100000000E-03 0. -1.
    9900012    2    1    2    0    0  0.52370678098E+01 -0.14985667161E+02  0.42155858110E+02  0.46142317937E+02  0.10000001606E+02 0.  0.
         12    1    1    2    0    0 -0.52370678098E+01  0.14985667161E+02 -0.42155858110E+02  0.45045682063E+02  0.00000000000E+00 0. -1.
         11    1    3    3    0    0  0.94877038221E+00 -0.34150755526E+01  0.30343409614E+01  0.46658473613E+01  0.51100000000E-03 0. -1.
        -11    1    3    3    0    0 -0.21315049332E+00  0.16682891372E+00 -0.10080979913E+00  0.28883887546E+00  0.51100000000E-03 0.  1.
        -12    1    3    3    0    0  0.45014479209E+01 -0.11737420522E+02  0.39222326948E+02  0.41187631701E+02  0.00000000000E+00 0.  1.
</event>
<event>
 7    1  0.2425980E-008  0.4614232E+02  0.7816164E-02  0.1320468E+00
        -11   -1    0    0    0    0  0.00000000000E+00  0.00000000000E+00  0.45593999997E+02  0.45594000000E+02  0.51100000000E-03 0. -1.
         11   -1    0    0    0    0 -0.00000000000E+00 -0.00000000000E+00 -0.45593999997E+02  0.45594000000E+02  0.51100000000E-03 0.  1.
    9900012    2    1    2    0    0 -0.35358296682E+01  0.42073746336E+02 -0.15697494516E+02  0.46142317007E+02  0.99999931247E+01 0.  0.
         12    1    1    2    0    0  0.35358296682E+01 -0.42073746336E+02  0.15697494516E+02  0.45045682993E+02  0.00000000000E+00 0. -1.
         11    1    3    3    0    0 -0.17142308143E+01  0.29618404641E+02 -0.78969550806E+01  0.30700983381E+02  0.51100000000E-03 0. -1.
        -11    1    3    3    0    0 -0.16649962469E+01  0.11413301114E+02 -0.52324676203E+01  0.12665479560E+02  0.51100000000E-03 0.  1.
         12    1    3    3    0    0 -0.15660260699E+00  0.10420405812E+01 -0.25680718150E+01  0.27758540661E+01  0.00000000000E+00 0. -1.
</event>
<event>
 7    1  0.2425980E-008  0.4614232E+02  0.7816164E-02  0.1320468E+00
        -11   -1    0    0    0    0  0.00000000000E+00  0.00000000000E+00  0.45593999997E+02  0.45594000000E+02  0.51100000000E-03 0.  1.
         11   -1    0    0    0    0 -0.00000000000E+00 -0.00000000000E+00 -0.45593999997E+02  0.45594000000E+02  0.51100000000E-03 0. -1.
    9900012    2    1    2    0    0  0.36029857637E+02  0.75089795815E+00  0.27025891767E+02  0.46142319686E+02  0.10000017556E+02 0.  0.
         12    1    1    2    0    0 -0.36029857637E+02 -0.75089795815E+00 -0.27025891767E+02  0.45045680314E+02  0.00000000000E+00 0. -1.
         11    1    3    3    0    0  0.53811513921E+01 -0.52222333784E+00  0.39159558071E+01  0.66756436142E+01  0.51100000000E-03 0.  1.
        -11    1    3    3    0    0  0.17018137777E+01  0.24225790586E+01  0.14607150290E+01  0.33013252015E+01  0.51100000000E-03 0. -1.
         12    1    3    3    0    0  0.28946892467E+02 -0.11494577626E+01  0.21649220931E+02  0.36165350871E+02  0.00000000000E+00 0. -1.
</event>
<event>
 7    1  0.2425980E-008  0.4614232E+02  0.7816164E-02  0.1320468E+00
        -11   -1    0    0    0    0  0.00000000000E+00  0.00000000000E+00  0.45593999997E+02  0.45594000000E+02  0.51100000000E-03 0.  1.
         11   -1    0    0    0    0 -0.00000000000E+00 -0.00000000000E+00 -0.45593999997E+02  0.45594000000E+02  0.51100000000E-03 0. -1.
    9900012    2    1    2    0    0  0.13035566808E+02  0.19309248366E+02  0.38553084842E+02  0.46142318461E+02  0.10000006379E+02 0.  0.
         12    1    1    2    0    0 -0.13035566808E+02 -0.19309248366E+02 -0.38553084842E+02  0.45045681539E+02  0.00000000000E+00 0. -1.
         11    1    3    3    0    0  0.31801135141E+01  0.14888001548E+00  0.74914307000E+01  0.81398293235E+01  0.51100000000E-03 0. -1.
        -11    1    3    3    0    0  0.28243765186E+01  0.42082516886E+01  0.10204583439E+02  0.11393858364E+02  0.51100000000E-03 0.  1.
         12    1    3    3    0    0  0.70310767751E+01  0.14952116662E+02  0.20857070704E+02  0.26608630774E+02  0.00000000000E+00 0. -1.
</event>
<event>
 7    1  0.2425980E-008  0.4614232E+02  0.7816164E-02  0.1320468E+00
        -11   -1    0    0    0    0  0.00000000000E+00  0.00000000000E+00  0.45593999997E+02  0.45594000000E+02  0.51100000000E-03 0.  1.
         11   -1    0    0    0    0 -0.00000000000E+00 -0.00000000000E+00 -0.45593999997E+02  0.45594000000E+02  0.51100000000E-03 0. -1.
    9900012    2    1    2    0    0  0.33114879285E+02 -0.15160089417E+02  0.26508298390E+02  0.46142318468E+02  0.10000006442E+02 0.  0.
         12    1    1    2    0    0 -0.33114879285E+02  0.15160089417E+02 -0.26508298390E+02  0.45045681532E+02  0.00000000000E+00 0. -1.
         11    1    3    3    0    0  0.63821947501E+00 -0.15392126240E+00 -0.54220052673E+00  0.85146786528E+00  0.51100000000E-03 0. -1.
        -11    1    3    3    0    0  0.16397424348E+02 -0.55374000818E+01  0.98568526578E+01  0.19917225447E+02  0.51100000000E-03 0.  1.
        -12    1    3    3    0    0  0.16079235462E+02 -0.94687680732E+01  0.17193646259E+02  0.25373625156E+02  0.00000000000E+00 0.  1.
</event>
<event>
 7    1  0.2425980E-008  0.4614232E+02  0.7816164E-02  0.1320468E+00
        -11   -1    0    0    0    0  0.00000000000E+00  0.00000000000E+00  0.45593999997E+02  0.45594000000E+02  0.51100000000E-03 0. -1.
         11   -1    0    0    0    0 -0.00000000000E+00 -0.00000000000E+00 -0.45593999997E+02  0.45594000000E+02  0.51100000000E-03 0.  1.
    9900012    2    1    2    0    0 -0.28462419593E+02  0.30847204632E+02 -0.16354028001E+02  0.46142316582E+02  0.99999892509E+01 0.  0.
         12    1    1    2    0    0  0.28462419593E+02 -0.30847204632E+02  0.16354028001E+02  0.45045683418E+02  0.00000000000E+00 0. -1.
         11    1    3    3    0    0 -0.52847647104E+01  0.39157628699E+01 -0.13577720107E+01  0.67160614941E+01  0.51100000000E-03 0. -1.
        -11    1    3    3    0    0 -0.20048389337E+02  0.26521680717E+02 -0.14315628844E+02  0.36197716676E+02  0.51100000000E-03 0.  1.
        -12    1    3    3    0    0 -0.31292655457E+01  0.40976104488E+00 -0.68062714661E+00  0.32285384127E+01  0.00000000000E+00 0.  1.
</event>
<event>
 7    1  0.2425980E-008  0.4614232E+02  0.7816164E-02  0.1320468E+00
        -11   -1    0    0    0    0  0.00000000000E+00  0.00000000000E+00  0.45593999997E+02  0.45594000000E+02  0.51100000000E-03 0.  1.
         11   -1    0    0    0    0 -0.00000000000E+00 -0.00000000000E+00 -0.45593999997E+02  0.45594000000E+02  0.51100000000E-03 0. -1.
    9900012    2    1    2    0    0 -0.12025495882E+02  0.22124756419E+02  0.37349647947E+02  0.46142316527E+02  0.99999887446E+01 0.  0.
         12    1    1    2    0    0  0.12025495882E+02 -0.22124756419E+02 -0.37349647947E+02  0.45045683473E+02  0.00000000000E+00 0. -1.
         11    1    3    3    0    0 -0.61321217016E+01  0.10870131315E+02  0.25779257129E+02  0.28641451949E+02  0.51100000000E-03 0.  1.
        -11    1    3    3    0    0 -0.15480177688E+00  0.25320174504E+01  0.12809415732E+01  0.28418106084E+01  0.51100000000E-03 0. -1.
        -12    1    3    3    0    0 -0.57385724035E+01  0.87226076539E+01  0.10289449244E+02  0.14659053969E+02  0.00000000000E+00 0.  1.
</event>
<event>
 7    1  0.2425980E-008  0.4614232E+02  0.7816164E-02  0.1320468E+00
        -11   -1    0    0    0    0  0.00000000000E+00  0.00000000000E+00  0.45593999997E+02  0.45594000000E+02  0.51100000000E-03 0. -1.
         11   -1    0    0    0    0 -0.00000000000E+00 -0.00000000000E+00 -0.45593999997E+02  0.45594000000E+02  0.51100000000E-03 0.  1.
    9900012    2    1    2    0    0 -0.25226860822E+02  0.36802694599E+02 -0.61871086764E+01  0.46142321512E+02  0.10000034206E+02 0.  0.
         12    1    1    2    0    0  0.25226860822E+02 -0.36802694599E+02  0.61871086764E+01  0.45045678488E+02  0.00000000000E+00 0. -1.
         11    1    3    3    0    0 -0.39353249995E+01  0.24872266028E+01 -0.27079049404E+01  0.53857059382E+01  0.51100000000E-03 0. -1.
        -11    1    3    3    0    0 -0.70390588623E+01  0.12136146038E+02 -0.32054407869E+01  0.14391290464E+02  0.51100000000E-03 0.  1.
        -12    1    3    3    0    0 -0.14252476960E+02  0.22179321957E+02 -0.27376294911E+00  0.26365325110E+02  0.00000000000E+00 0.  1.
</event>
<event>
 7    1  0.2425980E-008  0.4614232E+02  0.7816164E-02  0.1320468E+00
        -11   -1    0    0    0    0  0.00000000000E+00  0.00000000000E+00  0.45593999997E+02  0.45594000000E+02  0.51100000000E-03 0.  1.
         11   -1    0    0    0    0 -0.00000000000E+00 -0.00000000000E+00 -0.45593999997E+02  0.45594000000E+02  0.51100000000E-03 0. -1.
    9900012    2    1    2    0    0 -0.50774295045E+00 -0.13180826421E+02  0.43071120795E+02  0.46142318358E+02  0.10000005442E+02 0.  0.
         12    1    1    2    0    0  0.50774295045E+00  0.13180826421E+02 -0.43071120795E+02  0.45045681642E+02  0.00000000000E+00 0. -1.
         11    1    3    3    0    0  0.61661584494E+00 -0.13976575479E+01  0.10275416882E+01  0.18410605377E+01  0.51100000000E-03 0. -1.
        -11    1    3    3    0    0  0.62259600147E+00 -0.48177734646E+00  0.13911034846E+02  0.13933292000E+02  0.51100000000E-03 0.  1.
         12    1    3    3    0    0 -0.17469547969E+01 -0.11301391526E+02  0.28132544261E+02  0.30367965820E+02  0.00000000000E+00 0. -1.
</event>
<event>
 7    1  0.2425980E-008  0.4614232E+02  0.7816164E-02  0.1320468E+00
        -11   -1    0    0    0    0  0.00000000000E+00  0.00000000000E+00  0.45593999997E+02  0.45594000000E+02  0.51100000000E-03 0. -1.
         11   -1    0    0    0    0 -0.00000000000E+00 -0.00000000000E+00 -0.45593999997E+02  0.45594000000E+02  0.51100000000E-03 0.  1.
    9900012    2    1    2    0    0  0.11856131368E+02  0.11539747656E+02 -0.41897253306E+02  0.46142318058E+02  0.10000002711E+02 0.  0.
         12    1    1    2    0    0 -0.11856131368E+02 -0.11539747656E+02  0.41897253306E+02  0.45045681942E+02  0.00000000000E+00 0. -1.
         11    1    3    3    0    0  0.13421260503E+01  0.24390914781E+00 -0.11556583421E+02  0.11636812907E+02  0.51100000000E-03 0. -1.
        -11    1    3    3    0    0  0.43271351253E+01  0.47493452316E+01 -0.18788768338E+02  0.19856943230E+02  0.51100000000E-03 0.  1.
         12    1    3    3    0    0  0.61868701922E+01  0.65464932770E+01 -0.11551901547E+02  0.14648561921E+02  0.00000000000E+00 0. -1.
</event>
<event>
 7    1  0.2425980E-008  0.4614232E+02  0.7816164E-02  0.1320468E+00
        -11   -1    0    0    0    0  0.00000000000E+00  0.00000000000E+00  0.45593999997E+02  0.45594000000E+02  0.51100000000E-03 0.  1.
         11   -1    0    0    0    0 -0.00000000000E+00 -0.00000000000E+00 -0.45593999997E+02  0.45594000000E+02  0.51100000000E-03 0. -1.
    9900012    2    1    2    0    0  0.11436835371E+02 -0.91663344849E+01  0.42594489522E+02  0.46142318422E+02  0.10000006027E+02 0.  0.
         12    1    1    2    0    0 -0.11436835371E+02  0.91663344849E+01 -0.42594489522E+02  0.45045681578E+02  0.00000000000E+00 0. -1.
         11    1    3    3    0    0  0.15260541285E+01  0.87239289194E+00  0.23187357198E+01  0.29097158213E+01  0.51100000000E-03 0. -1.
        -11    1    3    3    0    0  0.71340874537E+01 -0.77448072745E+01  0.19637898132E+02  0.22282824929E+02  0.51100000000E-03 0.  1.
         12    1    3    3    0    0  0.27766937890E+01 -0.22939201022E+01  0.20637855670E+02  0.20949777672E+02  0.00000000000E+00 0. -1.
</event>
<event>
 7    1  0.2425980E-008  0.4614232E+02  0.7816164E-02  0.1320468E+00
        -11   -1    0    0    0    0  0.00000000000E+00  0.00000000000E+00  0.45593999997E+02  0.45594000000E+02  0.51100000000E-03 0.  1.
         11   -1    0    0    0    0 -0.00000000000E+00 -0.00000000000E+00 -0.45593999997E+02  0.45594000000E+02  0.51100000000E-03 0. -1.
    9900012    2    1    2    0    0 -0.32253613437E+02 -0.30517650569E+01  0.31297033472E+02  0.46142321474E+02  0.10000033856E+02 0.  0.
         12    1    1    2    0    0  0.32253613437E+02  0.30517650569E+01 -0.31297033472E+02  0.45045678526E+02  0.00000000000E+00 0. -1.
         11    1    3    3    0    0 -0.10211749022E+02  0.87965543207E+00  0.13408367190E+02  0.16877142019E+02  0.51100000000E-03 0. -1.
        -11    1    3    3    0    0 -0.25886697129E-02 -0.40095799120E+00  0.15576425476E+01  0.16084230100E+01  0.51100000000E-03 0.  1.
        -12    1    3    3    0    0 -0.22039275745E+02 -0.35304624978E+01  0.16331023734E+02  0.27656756445E+02  0.00000000000E+00 0.  1.
</event>
<event>
 7    1  0.2425980E-008  0.4614232E+02  0.7816164E-02  0.1320468E+00
        -11   -1    0    0    0    0  0.00000000000E+00  0.00000000000E+00  0.45593999997E+02  0.45594000000E+02  0.51100000000E-03 0.  1.
         11   -1    0    0    0    0 -0.00000000000E+00 -0.00000000000E+00 -0.45593999997E+02  0.45594000000E+02  0.51100000000E-03 0. -1.
    9900012    2    1    2    0    0 -0.72545629944E+01  0.30830039098E+02  0.32031133239E+02  0.46142317725E+02  0.99999996740E+01 0.  0.
         12    1    1    2    0    0  0.72545629944E+01 -0.30830039098E+02 -0.32031133239E+02  0.45045682275E+02  0.00000000000E+00 0. -1.
         11    1    3    3    0    0  0.55030196565E-01  0.59591495074E+01  0.18709487637E+01  0.62461940982E+01  0.51100000000E-03 0. -1.
        -11    1    3    3    0    0 -0.35501627147E+01  0.16454555148E+02  0.18117216725E+02  0.24730337292E+02  0.51100000000E-03 0.  1.
        -12    1    3    3    0    0 -0.37594304763E+01  0.84163344424E+01  0.12042967750E+02  0.15165786336E+02  0.00000000000E+00 0.  1.
</event>
<event>
 7    1  0.2425980E-008  0.4614232E+02  0.7816164E-02  0.1320468E+00
        -11   -1    0    0    0    0  0.00000000000E+00  0.00000000000E+00  0.45593999997E+02  0.45594000000E+02  0.51100000000E-03 0. -1.
         11   -1    0    0    0    0 -0.00000000000E+00 -0.00000000000E+00 -0.45593999997E+02  0.45594000000E+02  0.51100000000E-03 0.  1.
    9900012    2    1    2    0    0  0.23630199069E+02  0.33193847045E+02 -0.19206657740E+02  0.46142317730E+02  0.99999997156E+01 0.  0.
         12    1    1    2    0    0 -0.23630199069E+02 -0.33193847045E+02  0.19206657740E+02  0.45045682270E+02  0.00000000000E+00 0. -1.
         11    1    3    3    0    0  0.44949404617E+01  0.22565892629E+01 -0.16285557563E+01  0.52866699318E+01  0.51100000000E-03 0. -1.
        -11    1    3    3    0    0  0.12484313382E+02  0.22529432916E+02 -0.95825790642E+01  0.27481980459E+02  0.51100000000E-03 0.  1.
        -12    1    3    3    0    0  0.66509452251E+01  0.84078248653E+01 -0.79955229191E+01  0.13373667339E+02  0.00000000000E+00 0.  1.
</event>
<event>
 7    1  0.2425980E-008  0.4614232E+02  0.7816164E-02  0.1320468E+00
        -11   -1    0    0    0    0  0.00000000000E+00  0.00000000000E+00  0.45593999997E+02  0.45594000000E+02  0.51100000000E-03 0.  1.
         11   -1    0    0    0    0 -0.00000000000E+00 -0.00000000000E+00 -0.45593999997E+02  0.45594000000E+02  0.51100000000E-03 0. -1.
    9900012    2    1    2    0    0 -0.39482987571E+02 -0.13515935558E+02  0.16956612262E+02  0.46142317400E+02  0.99999967039E+01 0.  0.
         12    1    1    2    0    0  0.39482987571E+02  0.13515935558E+02 -0.16956612262E+02  0.45045682600E+02  0.00000000000E+00 0. -1.
         11    1    3    3    0    0 -0.31138136869E+01 -0.21965415642E+01  0.32880703124E+01  0.50330941934E+01  0.51100000000E-03 0. -1.
        -11    1    3    3    0    0 -0.26852626619E+02 -0.11242375466E+02  0.11794356098E+02  0.31409574949E+02  0.51100000000E-03 0.  1.
         12    1    3    3    0    0 -0.95165472654E+01 -0.77018527213E-01  0.18741858516E+01  0.96996482573E+01  0.00000000000E+00 0. -1.
</event>
<event>
 7    1  0.2425980E-008  0.4614232E+02  0.7816164E-02  0.1320468E+00
        -11   -1    0    0    0    0  0.00000000000E+00  0.00000000000E+00  0.45593999997E+02  0.45594000000E+02  0.51100000000E-03 0.  1.
         11   -1    0    0    0    0 -0.00000000000E+00 -0.00000000000E+00 -0.45593999997E+02  0.45594000000E+02  0.51100000000E-03 0. -1.
    9900012    2    1    2    0    0  0.69297215392E+01 -0.25889353530E+02  0.36205437997E+02  0.46142318660E+02  0.10000008194E+02 0.  0.
         12    1    1    2    0    0 -0.69297215392E+01  0.25889353530E+02 -0.36205437997E+02  0.45045681340E+02  0.00000000000E+00 0. -1.
         11    1    3    3    0    0 -0.15536445869E+01 -0.55737465095E+01  0.38097330083E+01  0.69278082761E+01  0.51100000000E-03 0. -1.
        -11    1    3    3    0    0  0.51430299551E+01 -0.13699769872E+02  0.20198817968E+02  0.24942467786E+02  0.51100000000E-03 0.  1.
         12    1    3    3    0    0  0.33403361710E+01 -0.66158371486E+01  0.12196887021E+02  0.14272042598E+02  0.00000000000E+00 0. -1.
</event>
<event>
 7    1  0.2425980E-008  0.4614232E+02  0.7816164E-02  0.1320468E+00
        -11   -1    0    0    0    0  0.00000000000E+00  0.00000000000E+00  0.45593999997E+02  0.45594000000E+02  0.51100000000E-03 0.  1.
         11   -1    0    0    0    0 -0.00000000000E+00 -0.00000000000E+00 -0.45593999997E+02  0.45594000000E+02  0.51100000000E-03 0. -1.
    9900012    2    1    2    0    0 -0.30662780951E+02  0.45988617350E+01  0.32676563939E+02  0.46142317679E+02  0.99999992477E+01 0.  0.
         12    1    1    2    0    0  0.30662780951E+02 -0.45988617350E+01 -0.32676563939E+02  0.45045682321E+02  0.00000000000E+00 0. -1.
         11    1    3    3    0    0 -0.76262817063E+01  0.90038680597E+00  0.32096262995E+01  0.83230144964E+01  0.51100000000E-03 0. -1.
        -11    1    3    3    0    0 -0.21003904910E+02  0.39029764322E+01  0.24850715888E+02  0.32771257634E+02  0.51100000000E-03 0.  1.
        -12    1    3    3    0    0 -0.20325943347E+01 -0.20450150325E+00  0.46162217520E+01  0.50480455483E+01  0.00000000000E+00 0.  1.
</event>
<event>
 7    1  0.2425980E-008  0.4614232E+02  0.7816164E-02  0.1320468E+00
        -11   -1    0    0    0    0  0.00000000000E+00  0.00000000000E+00  0.45593999997E+02  0.45594000000E+02  0.51100000000E-03 0.  1.
         11   -1    0    0    0    0 -0.00000000000E+00 -0.00000000000E+00 -0.45593999997E+02  0.45594000000E+02  0.51100000000E-03 0. -1.
    9900012    2    1    2    0    0 -0.69806007931E+01 -0.23814951488E+02  0.37592987865E+02  0.46142318316E+02  0.10000005057E+02 0.  0.
         12    1    1    2    0    0  0.69806007931E+01  0.23814951488E+02 -0.37592987865E+02  0.45045681684E+02  0.00000000000E+00 0. -1.
         11    1    3    3    0    0 -0.26635885165E+01 -0.98540833180E+01  0.14289560056E+02  0.17561013316E+02  0.51100000000E-03 0.  1.
        -11    1    3    3    0    0 -0.57098021916E+01 -0.14029657321E+02  0.21555815255E+02  0.26345517592E+02  0.51100000000E-03 0. -1.
         12    1    3    3    0    0  0.13927899150E+01  0.68789151596E-01  0.17476125534E+01  0.22357874075E+01  0.00000000000E+00 0. -1.
</event>
<event>
 7    1  0.2425980E-008  0.4614230E+02  0.7816164E-02  0.1320468E+00
        -11   -1    0    0    0    0  0.00000000000E+00  0.00000000000E+00  0.45593999997E+02  0.45594000000E+02  0.51100000000E-03 0. -1.
         11   -1    0    0    0    0 -0.00000000000E+00 -0.00000000000E+00 -0.45593999997E+02  0.45594000000E+02  0.51100000000E-03 0.  1.
    9900012    2    1    2    0    0 -0.77376253929E+01  0.11235149813E+02 -0.42930355050E+02  0.46142302950E+02  0.99998649398E+01 0.  0.
         12    1    1    2    0    0  0.77376253929E+01 -0.11235149813E+02  0.42930355050E+02  0.45045697050E+02  0.00000000000E+00 0. -1.
         11    1    3    3    0    0 -0.14718434529E+00  0.84828973636E+00 -0.87349733501E+01  0.87773013163E+01  0.51100000000E-03 0.  1.
        -11    1    3    3    0    0  0.44749944291E+00  0.51576843465E+01 -0.15700397402E+02  0.16531921921E+02  0.51100000000E-03 0. -1.
         12    1    3    3    0    0 -0.80379404906E+01  0.52291757297E+01 -0.18494984298E+02  0.20833079713E+02  0.00000000000E+00 0. -1.
</event>
<event>
 7    1  0.2425980E-008  0.4614232E+02  0.7816164E-02  0.1320468E+00
        -11   -1    0    0    0    0  0.00000000000E+00  0.00000000000E+00  0.45593999997E+02  0.45594000000E+02  0.51100000000E-03 0.  1.
         11   -1    0    0    0    0 -0.00000000000E+00 -0.00000000000E+00 -0.45593999997E+02  0.45594000000E+02  0.51100000000E-03 0. -1.
    9900012    2    1    2    0    0 -0.42772200133E+02 -0.13087373175E+02 -0.53266287832E+01  0.46142318575E+02  0.10000007424E+02 0.  0.
         12    1    1    2    0    0  0.42772200133E+02  0.13087373175E+02  0.53266287832E+01  0.45045681425E+02  0.00000000000E+00 0. -1.
         11    1    3    3    0    0 -0.87957369007E+01 -0.25300237354E+01  0.55326174160E+00  0.91690842805E+01  0.51100000000E-03 0. -1.
        -11    1    3    3    0    0 -0.25534583519E+02 -0.51830241540E+01 -0.67870756352E+01  0.26924767238E+02  0.51100000000E-03 0.  1.
        -12    1    3    3    0    0 -0.84418797130E+01 -0.53743252857E+01  0.90718511042E+00  0.10048467057E+02  0.00000000000E+00 0.  1.
</event>
<event>
 7    1  0.2425980E-008  0.4614232E+02  0.7816164E-02  0.1320468E+00
        -11   -1    0    0    0    0  0.00000000000E+00  0.00000000000E+00  0.45593999997E+02  0.45594000000E+02  0.51100000000E-03 0. -1.
         11   -1    0    0    0    0 -0.00000000000E+00 -0.00000000000E+00 -0.45593999997E+02  0.45594000000E+02  0.51100000000E-03 0.  1.
    9900012    2    1    2    0    0 -0.16322816530E+02  0.76640004469E+00 -0.41977276197E+02  0.46142318460E+02  0.10000006372E+02 0.  0.
         12    1    1    2    0    0  0.16322816530E+02 -0.76640004469E+00  0.41977276197E+02  0.45045681540E+02  0.00000000000E+00 0. -1.
         11    1    3    3    0    0 -0.72122291071E+01  0.24709606581E+01 -0.18515422555E+02  0.20023555327E+02  0.51100000000E-03 0. -1.
        -11    1    3    3    0    0 -0.84255719644E+01  0.98601844386E+00 -0.15255285722E+02  0.17455263906E+02  0.51100000000E-03 0.  1.
         12    1    3    3    0    0 -0.68501545880E+00 -0.26905790573E+01 -0.82065679197E+01  0.86634992274E+01  0.00000000000E+00 0. -1.
</event>
<event>
 7    1  0.2425980E-008  0.4614232E+02  0.7816164E-02  0.1320468E+00
        -11   -1    0    0    0    0  0.00000000000E+00  0.00000000000E+00  0.45593999997E+02  0.45594000000E+02  0.51100000000E-03 0.  1.
         11   -1    0    0    0    0 -0.00000000000E+00 -0.00000000000E+00 -0.45593999997E+02  0.45594000000E+02  0.51100000000E-03 0. -1.
    9900012    2    1    2    0    0 -0.10811269562E+02 -0.83541578017E+01  0.42923630267E+02  0.46142317217E+02  0.99999950359E+01 0.  0.
         12    1    1    2    0    0  0.10811269562E+02  0.83541578017E+01 -0.42923630267E+02  0.45045682783E+02  0.00000000000E+00 0. -1.
         11    1    3    3    0    0 -0.19772928211E+01 -0.33578718237E+01  0.11389887229E+02  0.12038044751E+02  0.51100000000E-03 0.  1.
        -11    1    3    3    0    0  0.14712369371E+01 -0.10207377277E+01  0.64983728793E+01  0.67405707454E+01  0.51100000000E-03 0. -1.
        -12    1    3    3    0    0 -0.10305213678E+02 -0.39755482503E+01  0.25035370158E+02  0.27363701720E+02  0.00000000000E+00 0.  1.
</event>
<event>
 7    1  0.2425980E-008  0.4614232E+02  0.7816164E-02  0.1320468E+00
        -11   -1    0    0    0    0  0.00000000000E+00  0.00000000000E+00  0.45593999997E+02  0.45594000000E+02  0.51100000000E-03 0. -1.
         11   -1    0    0    0    0 -0.00000000000E+00 -0.00000000000E+00 -0.45593999997E+02  0.45594000000E+02  0.51100000000E-03 0.  1.
    9900012    2    1    2    0    0 -0.43547369538E+02  0.45535480561E+01  0.10583247659E+02  0.46142319579E+02  0.10000016577E+02 0.  0.
         12    1    1    2    0    0  0.43547369538E+02 -0.45535480561E+01 -0.10583247659E+02  0.45045680421E+02  0.00000000000E+00 0. -1.
         11    1    3    3    0    0 -0.16215554475E+01 -0.63016904079E+00  0.15058670734E+01  0.23009109050E+01  0.51100000000E-03 0. -1.
        -11    1    3    3    0    0 -0.41062589418E+02  0.45907144063E+01  0.99254247943E+01  0.42493822682E+02  0.51100000000E-03 0.  1.
        -12    1    3    3    0    0 -0.86322467232E+00  0.59300269059E+00 -0.84804420899E+00  0.13475859922E+01  0.00000000000E+00 0.  1.
</event>
<event>
 7    1  0.2425980E-008  0.4614232E+02  0.7816164E-02  0.1320468E+00
        -11   -1    0    0    0    0  0.00000000000E+00  0.00000000000E+00  0.45593999997E+02  0.45594000000E+02  0.51100000000E-03 0. -1.
         11   -1    0    0    0    0 -0.00000000000E+00 -0.00000000000E+00 -0.45593999997E+02  0.45594000000E+02  0.51100000000E-03 0.  1.
    9900012    2    1    2    0    0  0.31308762809E+02  0.44143247553E+01 -0.32084087057E+02  0.46142317255E+02  0.99999953856E+01 0.  0.
         12    1    1    2    0    0 -0.31308762809E+02 -0.44143247553E+01  0.32084087057E+02  0.45045682745E+02  0.00000000000E+00 0. -1.
         11    1    3    3    0    0  0.51149845075E+01 -0.21871864769E+01 -0.41782286415E+01  0.69573303816E+01  0.51100000000E-03 0. -1.
        -11    1    3    3    0    0  0.47260877764E+01  0.26720665784E+01 -0.78518556792E+01  0.95460716181E+01  0.51100000000E-03 0.  1.
        -12    1    3    3    0    0  0.21467690525E+02  0.39294446538E+01 -0.20054002736E+02  0.29638915255E+02  0.00000000000E+00 0.  1.
</event>
<event>
 7    1  0.2425980E-008  0.4614232E+02  0.7816164E-02  0.1320468E+00
        -11   -1    0    0    0    0  0.00000000000E+00  0.00000000000E+00  0.45593999997E+02  0.45594000000E+02  0.51100000000E-03 0.  1.
         11   -1    0    0    0    0 -0.00000000000E+00 -0.00000000000E+00 -0.45593999997E+02  0.45594000000E+02  0.51100000000E-03 0. -1.
    9900012    2    1    2    0    0 -0.35173810408E+02  0.23469019086E+02  0.15528095186E+02  0.46142317237E+02  0.99999952173E+01 0.  0.
         12    1    1    2    0    0  0.35173810408E+02 -0.23469019086E+02 -0.15528095186E+02  0.45045682763E+02  0.00000000000E+00 0. -1.
         11    1    3    3    0    0 -0.23398352202E+01  0.41592159753E+00  0.30692483410E+01  0.38817657416E+01  0.51100000000E-03 0. -1.
        -11    1    3    3    0    0 -0.13698827519E+02  0.12175455973E+02  0.46808058369E+01  0.18915854384E+02  0.51100000000E-03 0.  1.
         12    1    3    3    0    0 -0.19135147669E+02  0.10877641516E+02  0.77780410080E+01  0.23344697111E+02  0.00000000000E+00 0. -1.
</event>
<event>
 7    1  0.2425980E-008  0.4614232E+02  0.7816164E-02  0.1320468E+00
        -11   -1    0    0    0    0  0.00000000000E+00  0.00000000000E+00  0.45593999997E+02  0.45594000000E+02  0.51100000000E-03 0.  1.
         11   -1    0    0    0    0 -0.00000000000E+00 -0.00000000000E+00 -0.45593999997E+02  0.45594000000E+02  0.51100000000E-03 0. -1.
    9900012    2    1    2    0    0 -0.10154855714E+02 -0.56099293864E+01  0.43526096788E+02  0.46142317589E+02  0.99999984317E+01 0.  0.
         12    1    1    2    0    0  0.10154855714E+02  0.56099293864E+01 -0.43526096788E+02  0.45045682411E+02  0.00000000000E+00 0. -1.
         11    1    3    3    0    0 -0.18289419691E+01 -0.27523577289E+01  0.33056163315E+01  0.46741417808E+01  0.51100000000E-03 0. -1.
        -11    1    3    3    0    0  0.34088313010E+00 -0.10174814645E+01  0.72078479601E+01  0.72872863479E+01  0.51100000000E-03 0.  1.
         12    1    3    3    0    0 -0.86667968753E+01 -0.18400901930E+01  0.33012632496E+02  0.34180889460E+02  0.00000000000E+00 0. -1.
</event>
<event>
 7    1  0.2425980E-008  0.4614232E+02  0.7816164E-02  0.1320468E+00
        -11   -1    0    0    0    0  0.00000000000E+00  0.00000000000E+00  0.45593999997E+02  0.45594000000E+02  0.51100000000E-03 0. -1.
         11   -1    0    0    0    0 -0.00000000000E+00 -0.00000000000E+00 -0.45593999997E+02  0.45594000000E+02  0.51100000000E-03 0.  1.
    9900012    2    1    2    0    0  0.43187484884E+02 -0.87591601673E+01 -0.93397817845E+01  0.46142320282E+02  0.10000022992E+02 0.  0.
         12    1    1    2    0    0 -0.43187484884E+02  0.87591601673E+01  0.93397817845E+01  0.45045679718E+02  0.00000000000E+00 0. -1.
         11    1    3    3    0    0  0.65304073068E+01 -0.47593928100E+01 -0.24595974224E+01  0.84467543621E+01  0.51100000000E-03 0. -1.
        -11    1    3    3    0    0  0.32456453488E+02 -0.45610519358E+01 -0.67038533251E+01  0.33453941732E+02  0.51100000000E-03 0.  1.
        -12    1    3    3    0    0  0.42006240894E+01  0.56128457840E+00 -0.17633103696E+00  0.42416241881E+01  0.00000000000E+00 0.  1.
</event>
<event>
 7    1  0.2425980E-008  0.4614232E+02  0.7816164E-02  0.1320468E+00
        -11   -1    0    0    0    0  0.00000000000E+00  0.00000000000E+00  0.45593999997E+02  0.45594000000E+02  0.51100000000E-03 0. -1.
         11   -1    0    0    0    0 -0.00000000000E+00 -0.00000000000E+00 -0.45593999997E+02  0.45594000000E+02  0.51100000000E-03 0.  1.
    9900012    2    1    2    0    0 -0.34337592279E+02 -0.22807138789E+02 -0.18162535391E+02  0.46142317464E+02  0.99999972926E+01 0.  0.
         12    1    1    2    0    0  0.34337592279E+02  0.22807138789E+02  0.18162535391E+02  0.45045682536E+02  0.00000000000E+00 0. -1.
         11    1    3    3    0    0 -0.23836088503E+02 -0.16044279055E+02 -0.11875308663E+02  0.31090206844E+02  0.51100000000E-03 0. -1.
        -11    1    3    3    0    0 -0.10711143963E+02 -0.61639406004E+01 -0.69135613218E+01  0.14160511966E+02  0.51100000000E-03 0.  1.
         12    1    3    3    0    0  0.20964018700E+00 -0.59891913407E+00  0.62633459350E+00  0.89159865420E+00  0.00000000000E+00 0. -1.
</event>
<event>
 7    1  0.2425980E-008  0.4614232E+02  0.7816164E-02  0.1320468E+00
        -11   -1    0    0    0    0  0.00000000000E+00  0.00000000000E+00  0.45593999997E+02  0.45594000000E+02  0.51100000000E-03 0.  1.
         11   -1    0    0    0    0 -0.00000000000E+00 -0.00000000000E+00 -0.45593999997E+02  0.45594000000E+02  0.51100000000E-03 0. -1.
    9900012    2    1    2    0    0  0.41227961210E+01 -0.42426558323E+02  0.14563764870E+02  0.46142317120E+02  0.99999941511E+01 0.  0.
         12    1    1    2    0    0 -0.41227961210E+01  0.42426558323E+02 -0.14563764870E+02  0.45045682880E+02  0.00000000000E+00 0. -1.
         11    1    3    3    0    0  0.43970490408E+01 -0.12783853926E+02  0.23507856593E+01  0.13721776669E+02  0.51100000000E-03 0. -1.
        -11    1    3    3    0    0 -0.16015071427E+01 -0.10066447400E+02  0.23523898349E+01  0.10460971589E+02  0.51100000000E-03 0.  1.
        -12    1    3    3    0    0  0.13272542229E+01 -0.19576256996E+02  0.98605893762E+01  0.21959568862E+02  0.00000000000E+00 0.  1.
</event>
<event>
 7    1  0.2425980E-008  0.4614232E+02  0.7816164E-02  0.1320468E+00
        -11   -1    0    0    0    0  0.00000000000E+00  0.00000000000E+00  0.45593999997E+02  0.45594000000E+02  0.51100000000E-03 0.  1.
         11   -1    0    0    0    0 -0.00000000000E+00 -0.00000000000E+00 -0.45593999997E+02  0.45594000000E+02  0.51100000000E-03 0. -1.
    9900012    2    1    2    0    0  0.32360513675E+02  0.29162205687E+02  0.11466314018E+02  0.46142318264E+02  0.10000004590E+02 0.  0.
         12    1    1    2    0    0 -0.32360513675E+02 -0.29162205687E+02 -0.11466314018E+02  0.45045681736E+02  0.00000000000E+00 0. -1.
         11    1    3    3    0    0  0.53255286773E+01  0.66293085672E+01  0.59903673553E+00  0.85245429815E+01  0.51100000000E-03 0. -1.
        -11    1    3    3    0    0  0.19012636131E+02  0.15067224816E+02  0.11050781692E+02  0.26657482487E+02  0.51100000000E-03 0.  1.
        -12    1    3    3    0    0  0.80223488669E+01  0.74656723041E+01 -0.18350440964E+00  0.10960292795E+02  0.00000000000E+00 0.  1.
</event>
<event>
 7    1  0.2425980E-008  0.4614232E+02  0.7816164E-02  0.1320468E+00
        -11   -1    0    0    0    0  0.00000000000E+00  0.00000000000E+00  0.45593999997E+02  0.45594000000E+02  0.51100000000E-03 0.  1.
         11   -1    0    0    0    0 -0.00000000000E+00 -0.00000000000E+00 -0.45593999997E+02  0.45594000000E+02  0.51100000000E-03 0. -1.
    9900012    2    1    2    0    0  0.14902166064E+02  0.18587253546E+01  0.42468624745E+02  0.46142317620E+02  0.99999987143E+01 0.  0.
         12    1    1    2    0    0 -0.14902166064E+02 -0.18587253546E+01 -0.42468624745E+02  0.45045682380E+02  0.00000000000E+00 0. -1.
         11    1    3    3    0    0  0.54136837008E+01  0.20845120836E+01  0.12483457767E+02  0.13765532315E+02  0.51100000000E-03 0. -1.
        -11    1    3    3    0    0  0.76249893609E+01  0.28761659921E+01  0.24371043587E+02  0.25697481576E+02  0.51100000000E-03 0.  1.
         12    1    3    3    0    0  0.18634930027E+01 -0.31019527212E+01  0.56141233904E+01  0.66793037285E+01  0.00000000000E+00 0. -1.
</event>
<event>
 7    1  0.2425980E-008  0.4614232E+02  0.7816164E-02  0.1320468E+00
        -11   -1    0    0    0    0  0.00000000000E+00  0.00000000000E+00  0.45593999997E+02  0.45594000000E+02  0.51100000000E-03 0.  1.
         11   -1    0    0    0    0 -0.00000000000E+00 -0.00000000000E+00 -0.45593999997E+02  0.45594000000E+02  0.51100000000E-03 0. -1.
    9900012    2    1    2    0    0 -0.12553340143E+02  0.10545151525E+02  0.41956249014E+02  0.46142318734E+02  0.10000008868E+02 0.  0.
         12    1    1    2    0    0  0.12553340143E+02 -0.10545151525E+02 -0.41956249014E+02  0.45045681266E+02  0.00000000000E+00 0. -1.
         11    1    3    3    0    0 -0.49023988328E+01  0.36603953604E+00  0.13951649526E+02  0.14792431308E+02  0.51100000000E-03 0. -1.
        -11    1    3    3    0    0 -0.71434168431E+01  0.57512240911E+01  0.22289300691E+02  0.24102238658E+02  0.51100000000E-03 0.  1.
        -12    1    3    3    0    0 -0.50752446675E+00  0.44278878981E+01  0.57152987967E+01  0.72476487676E+01  0.00000000000E+00 0.  1.
</event>
<event>
 7    1  0.2425980E-008  0.4614232E+02  0.7816164E-02  0.1320468E+00
        -11   -1    0    0    0    0  0.00000000000E+00  0.00000000000E+00  0.45593999997E+02  0.45594000000E+02  0.51100000000E-03 0.  1.
         11   -1    0    0    0    0 -0.00000000000E+00 -0.00000000000E+00 -0.45593999997E+02  0.45594000000E+02  0.51100000000E-03 0. -1.
    9900012    2    1    2    0    0 -0.24109207733E+02 -0.18041119513E+01  0.38007957514E+02  0.46142317057E+02  0.99999935806E+01 0.  0.
         12    1    1    2    0    0  0.24109207733E+02  0.18041119513E+01 -0.38007957514E+02  0.45045682943E+02  0.00000000000E+00 0. -1.
         11    1    3    3    0    0  0.37310349573E+00 -0.49728631053E+00  0.18988591074E+00  0.65004370114E+00  0.51100000000E-03 0. -1.
        -11    1    3    3    0    0 -0.22417121207E+02 -0.28902606190E+01  0.34925655946E+02  0.41601470806E+02  0.51100000000E-03 0.  1.
        -12    1    3    3    0    0 -0.20651900211E+01  0.15834349782E+01  0.28924156564E+01  0.38908025500E+01  0.00000000000E+00 0.  1.
</event>
<event>
 7    1  0.2425980E-008  0.4614232E+02  0.7816164E-02  0.1320468E+00
        -11   -1    0    0    0    0  0.00000000000E+00  0.00000000000E+00  0.45593999997E+02  0.45594000000E+02  0.51100000000E-03 0.  1.
         11   -1    0    0    0    0 -0.00000000000E+00 -0.00000000000E+00 -0.45593999997E+02  0.45594000000E+02  0.51100000000E-03 0. -1.
    9900012    2    1    2    0    0 -0.30452172492E+02 -0.33165764640E+02 -0.13456643358E+01  0.46142316898E+02  0.99999921290E+01 0.  0.
         12    1    1    2    0    0  0.30452172492E+02  0.33165764640E+02  0.13456643358E+01  0.45045683102E+02  0.00000000000E+00 0. -1.
         11    1    3    3    0    0 -0.36961770212E+01 -0.40445106721E+01  0.22311705121E+01  0.59159034191E+01  0.51100000000E-03 0. -1.
        -11    1    3    3    0    0 -0.29262929922E+01 -0.63067267627E+01  0.57323043436E+00  0.69761441017E+01  0.51100000000E-03 0.  1.
         12    1    3    3    0    0 -0.23829702479E+02 -0.22814527205E+02 -0.41500652822E+01  0.33250269377E+02  0.00000000000E+00 0. -1.
</event>
<event>
 7    1  0.2425980E-008  0.4614232E+02  0.7816164E-02  0.1320468E+00
        -11   -1    0    0    0    0  0.00000000000E+00  0.00000000000E+00  0.45593999997E+02  0.45594000000E+02  0.51100000000E-03 0. -1.
         11   -1    0    0    0    0 -0.00000000000E+00 -0.00000000000E+00 -0.45593999997E+02  0.45594000000E+02  0.51100000000E-03 0.  1.
    9900012    2    1    2    0    0  0.17065636959E+02  0.24221830199E+02 -0.33929050359E+02  0.46142317840E+02  0.10000000716E+02 0.  0.
         12    1    1    2    0    0 -0.17065636959E+02 -0.24221830199E+02  0.33929050359E+02  0.45045682160E+02  0.00000000000E+00 0. -1.
         11    1    3    3    0    0  0.14541927287E+01  0.13469864883E+00 -0.29123371558E+01  0.32579945040E+01  0.51100000000E-03 0. -1.
        -11    1    3    3    0    0  0.82671290356E+01  0.18208543217E+02 -0.18634420918E+02  0.27333827243E+02  0.51100000000E-03 0.  1.
        -12    1    3    3    0    0  0.73443151942E+01  0.58785883341E+01 -0.12382292285E+02  0.15550496092E+02  0.00000000000E+00 0.  1.
</event>
<event>
 7    1  0.2425980E-008  0.4614232E+02  0.7816164E-02  0.1320468E+00
        -11   -1    0    0    0    0  0.00000000000E+00  0.00000000000E+00  0.45593999997E+02  0.45594000000E+02  0.51100000000E-03 0. -1.
         11   -1    0    0    0    0 -0.00000000000E+00 -0.00000000000E+00 -0.45593999997E+02  0.45594000000E+02  0.51100000000E-03 0.  1.
    9900012    2    1    2    0    0  0.43924169188E+02  0.86174084789E+01  0.50518434877E+01  0.46142317738E+02  0.99999997926E+01 0.  0.
         12    1    1    2    0    0 -0.43924169188E+02 -0.86174084789E+01 -0.50518434877E+01  0.45045682262E+02  0.00000000000E+00 0. -1.
         11    1    3    3    0    0  0.84221592425E+01  0.34812603371E+01  0.25147896894E+01  0.94538937631E+01  0.51100000000E-03 0. -1.
        -11    1    3    3    0    0  0.22271440582E+02  0.15697146148E+00  0.33791519718E+01  0.22526881141E+02  0.51100000000E-03 0.  1.
         12    1    3    3    0    0  0.13230569364E+02  0.49791766803E+01 -0.84209817353E+00  0.14161542834E+02  0.00000000000E+00 0. -1.
</event>
<event>
 7    1  0.2425980E-008  0.4614232E+02  0.7816164E-02  0.1320468E+00
        -11   -1    0    0    0    0  0.00000000000E+00  0.00000000000E+00  0.45593999997E+02  0.45594000000E+02  0.51100000000E-03 0. -1.
         11   -1    0    0    0    0 -0.00000000000E+00 -0.00000000000E+00 -0.45593999997E+02  0.45594000000E+02  0.51100000000E-03 0.  1.
    9900012    2    1    2    0    0 -0.22181932940E+02  0.38149047534E+02 -0.90402299681E+01  0.46142315029E+02  0.99999750819E+01 0.  0.
         12    1    1    2    0    0  0.22181932940E+02 -0.38149047534E+02  0.90402299681E+01  0.45045684971E+02  0.00000000000E+00 0. -1.
         11    1    3    3    0    0 -0.37727477510E+01  0.11321724022E+02 -0.11801298257E+01  0.11991987620E+02  0.51100000000E-03 0. -1.
        -11    1    3    3    0    0 -0.15545364534E+01  0.19034704505E+01  0.11904548393E+01  0.27307446469E+01  0.51100000000E-03 0.  1.
         12    1    3    3    0    0 -0.16854648736E+02  0.24923853061E+02 -0.90505549817E+01  0.31419582761E+02  0.00000000000E+00 0. -1.
</event>
<event>
 7    1  0.2425980E-008  0.4614232E+02  0.7816164E-02  0.1320468E+00
        -11   -1    0    0    0    0  0.00000000000E+00  0.00000000000E+00  0.45593999997E+02  0.45594000000E+02  0.51100000000E-03 0. -1.
         11   -1    0    0    0    0 -0.00000000000E+00 -0.00000000000E+00 -0.45593999997E+02  0.45594000000E+02  0.51100000000E-03 0.  1.
    9900012    2    1    2    0    0  0.26420258442E+02  0.10075854635E+02 -0.35065091989E+02  0.46142316756E+02  0.99999908335E+01 0.  0.
         12    1    1    2    0    0 -0.26420258442E+02 -0.10075854635E+02  0.35065091989E+02  0.45045683244E+02  0.00000000000E+00 0. -1.
         11    1    3    3    0    0  0.43972615405E+00 -0.92602468426E-01 -0.41120209950E+00  0.60911553541E+00  0.51100000000E-03 0. -1.
        -11    1    3    3    0    0  0.24937542767E+02  0.71227609953E+01 -0.28147805798E+02  0.38274191500E+02  0.51100000000E-03 0.  1.
         12    1    3    3    0    0  0.10429895204E+01  0.30456961082E+01 -0.65060840907E+01  0.72590097202E+01  0.00000000000E+00 0. -1.
</event>
<event>
 7    1  0.2425980E-008  0.4614232E+02  0.7816164E-02  0.1320468E+00
        -11   -1    0    0    0    0  0.00000000000E+00  0.00000000000E+00  0.45593999997E+02  0.45594000000E+02  0.51100000000E-03 0.  1.
         11   -1    0    0    0    0 -0.00000000000E+00 -0.00000000000E+00 -0.45593999997E+02  0.45594000000E+02  0.51100000000E-03 0. -1.
    9900012    2    1    2    0    0  0.13641788562E+02 -0.36504169630E+02  0.22593377593E+02  0.46142317559E+02  0.99999981544E+01 0.  0.
         12    1    1    2    0    0 -0.13641788562E+02  0.36504169630E+02 -0.22593377593E+02  0.45045682441E+02  0.00000000000E+00 0. -1.
         11    1    3    3    0    0 -0.11441298233E+00 -0.24637758118E+01  0.28743502358E+01  0.37875019632E+01  0.51100000000E-03 0. -1.
        -11    1    3    3    0    0  0.46248536235E+01 -0.20833113359E+02  0.98129605258E+01  0.23488339188E+02  0.51100000000E-03 0.  1.
         12    1    3    3    0    0  0.91313479203E+01 -0.13207280460E+02  0.99060668314E+01  0.18866476408E+02  0.00000000000E+00 0. -1.
</event>
<event>
 7    1  0.2425980E-008  0.4614232E+02  0.7816164E-02  0.1320468E+00
        -11   -1    0    0    0    0  0.00000000000E+00  0.00000000000E+00  0.45593999997E+02  0.45594000000E+02  0.51100000000E-03 0.  1.
         11   -1    0    0    0    0 -0.00000000000E+00 -0.00000000000E+00 -0.45593999997E+02  0.45594000000E+02  0.51100000000E-03 0. -1.
    9900012    2    1    2    0    0  0.30268358203E+02 -0.32856322531E+02  0.57794488946E+01  0.46142317986E+02  0.10000002050E+02 0.  0.
         12    1    1    2    0    0 -0.30268358203E+02  0.32856322531E+02 -0.57794488946E+01  0.45045682014E+02  0.00000000000E+00 0. -1.
         11    1    3    3    0    0  0.72537069708E+01 -0.54370787266E+01  0.17188420113E+01  0.92267279151E+01  0.51100000000E-03 0. -1.
        -11    1    3    3    0    0  0.49132673505E+01 -0.16812883230E+01  0.11218227421E+01  0.53127594533E+01  0.51100000000E-03 0.  1.
        -12    1    3    3    0    0  0.18101383882E+02 -0.25737955482E+02  0.29387841412E+01  0.31602830618E+02  0.00000000000E+00 0.  1.
</event>
<event>
 7    1  0.2425980E-008  0.4614232E+02  0.7816164E-02  0.1320468E+00
        -11   -1    0    0    0    0  0.00000000000E+00  0.00000000000E+00  0.45593999997E+02  0.45594000000E+02  0.51100000000E-03 0.  1.
         11   -1    0    0    0    0 -0.00000000000E+00 -0.00000000000E+00 -0.45593999997E+02  0.45594000000E+02  0.51100000000E-03 0. -1.
    9900012    2    1    2    0    0  0.29921475624E+02 -0.61517410708E+01  0.33105510980E+02  0.46142317866E+02  0.10000000953E+02 0.  0.
         12    1    1    2    0    0 -0.29921475624E+02  0.61517410708E+01 -0.33105510980E+02  0.45045682134E+02  0.00000000000E+00 0. -1.
         11    1    3    3    0    0  0.15910410317E+02  0.64967635079E+00  0.14318998594E+02  0.21414876998E+02  0.51100000000E-03 0. -1.
        -11    1    3    3    0    0  0.43945174634E+01 -0.40012130467E+01  0.55777268640E+01  0.81506151186E+01  0.51100000000E-03 0.  1.
        -12    1    3    3    0    0  0.96165478430E+01 -0.28002043749E+01  0.13208785522E+02  0.16576825749E+02  0.00000000000E+00 0.  1.
</event>
<event>
 7    1  0.2425980E-008  0.4614232E+02  0.7816164E-02  0.1320468E+00
        -11   -1    0    0    0    0  0.00000000000E+00  0.00000000000E+00  0.45593999997E+02  0.45594000000E+02  0.51100000000E-03 0. -1.
         11   -1    0    0    0    0 -0.00000000000E+00 -0.00000000000E+00 -0.45593999997E+02  0.45594000000E+02  0.51100000000E-03 0.  1.
    9900012    2    1    2    0    0  0.40083070697E+02  0.10506287620E+02  0.17665754752E+02  0.46142317332E+02  0.99999960870E+01 0.  0.
         12    1    1    2    0    0 -0.40083070697E+02 -0.10506287620E+02 -0.17665754752E+02  0.45045682668E+02  0.00000000000E+00 0. -1.
         11    1    3    3    0    0  0.20575184580E+02  0.64317650331E+01  0.12746232462E+02  0.25043407599E+02  0.51100000000E-03 0.  1.
        -11    1    3    3    0    0  0.21782976276E+01  0.71583204719E-01 -0.93876449880E+00  0.23730536772E+01  0.51100000000E-03 0. -1.
        -12    1    3    3    0    0  0.17329588490E+02  0.40029393818E+01  0.58582867887E+01  0.18725856056E+02  0.00000000000E+00 0.  1.
</event>
<event>
 7    1  0.2425980E-008  0.4614231E+02  0.7816164E-02  0.1320468E+00
        -11   -1    0    0    0    0  0.00000000000E+00  0.00000000000E+00  0.45593999997E+02  0.45594000000E+02  0.51100000000E-03 0. -1.
         11   -1    0    0    0    0 -0.00000000000E+00 -0.00000000000E+00 -0.45593999997E+02  0.45594000000E+02  0.51100000000E-03 0.  1.
    9900012    2    1    2    0    0  0.40570261039E+02  0.44330715208E+01 -0.19066084608E+02  0.46142314456E+02  0.99999698626E+01 0.  0.
         12    1    1    2    0    0 -0.40570261039E+02 -0.44330715208E+01  0.19066084608E+02  0.45045685544E+02  0.00000000000E+00 0. -1.
         11    1    3    3    0    0  0.12299574877E+02  0.53107988107E+01 -0.38730150417E+01  0.13945765376E+02  0.51100000000E-03 0. -1.
        -11    1    3    3    0    0  0.15807217943E+02 -0.15733656095E+01 -0.79339719809E+01  0.17756450380E+02  0.51100000000E-03 0.  1.
        -12    1    3    3    0    0  0.12463468218E+02  0.69563831964E+00 -0.72590975851E+01  0.14440098700E+02  0.00000000000E+00 0.  1.
</event>
<event>
 7    1  0.2425980E-008  0.4614232E+02  0.7816164E-02  0.1320468E+00
        -11   -1    0    0    0    0  0.00000000000E+00  0.00000000000E+00  0.45593999997E+02  0.45594000000E+02  0.51100000000E-03 0.  1.
         11   -1    0    0    0    0 -0.00000000000E+00 -0.00000000000E+00 -0.45593999997E+02  0.45594000000E+02  0.51100000000E-03 0. -1.
    9900012    2    1    2    0    0  0.10259880266E+02 -0.16696992528E+02  0.40559324353E+02  0.46142317692E+02  0.99999993739E+01 0.  0.
         12    1    1    2    0    0 -0.10259880266E+02  0.16696992528E+02 -0.40559324353E+02  0.45045682308E+02  0.00000000000E+00 0. -1.
         11    1    3    3    0    0  0.99464449721E+01 -0.15403974618E+02  0.30683273722E+02  0.35744614813E+02  0.51100000000E-03 0. -1.
        -11    1    3    3    0    0  0.14609405334E+01 -0.14832771998E+01  0.60043622513E+01  0.63550629265E+01  0.51100000000E-03 0.  1.
         12    1    3    3    0    0 -0.11475052397E+01  0.19025928947E+00  0.38716883802E+01  0.40426399525E+01  0.00000000000E+00 0. -1.
</event>
<event>
 7    1  0.2425980E-008  0.4614232E+02  0.7816164E-02  0.1320468E+00
        -11   -1    0    0    0    0  0.00000000000E+00  0.00000000000E+00  0.45593999997E+02  0.45594000000E+02  0.51100000000E-03 0.  1.
         11   -1    0    0    0    0 -0.00000000000E+00 -0.00000000000E+00 -0.45593999997E+02  0.45594000000E+02  0.51100000000E-03 0. -1.
    9900012    2    1    2    0    0  0.32939856250E+01  0.33450386449E+02  0.29988911733E+02  0.46142317390E+02  0.99999966148E+01 0.  0.
         12    1    1    2    0    0 -0.32939856250E+01 -0.33450386449E+02 -0.29988911733E+02  0.45045682610E+02  0.00000000000E+00 0. -1.
         11    1    3    3    0    0 -0.67673117408E+00  0.50941610320E+00  0.12869714609E+01  0.15407029728E+01  0.51100000000E-03 0. -1.
        -11    1    3    3    0    0  0.51282327300E+01  0.14426260377E+02  0.10172857046E+02  0.18382132089E+02  0.51100000000E-03 0.  1.
         12    1    3    3    0    0 -0.11575159309E+01  0.18514709969E+02  0.18529083225E+02  0.26219482328E+02  0.00000000000E+00 0. -1.
</event>
<event>
 7    1  0.2425980E-008  0.4614232E+02  0.7816164E-02  0.1320468E+00
        -11   -1    0    0    0    0  0.00000000000E+00  0.00000000000E+00  0.45593999997E+02  0.45594000000E+02  0.51100000000E-03 0.  1.
         11   -1    0    0    0    0 -0.00000000000E+00 -0.00000000000E+00 -0.45593999997E+02  0.45594000000E+02  0.51100000000E-03 0. -1.
    9900012    2    1    2    0    0  0.39475588686E+01  0.24324340090E+02  0.37707516283E+02  0.46142317343E+02  0.99999961860E+01 0.  0.
         12    1    1    2    0    0 -0.39475588686E+01 -0.24324340090E+02 -0.37707516283E+02  0.45045682657E+02  0.00000000000E+00 0. -1.
         11    1    3    3    0    0  0.14333987920E+01  0.27298554583E+00  0.97754559731E+00  0.17563453138E+01  0.51100000000E-03 0. -1.
        -11    1    3    3    0    0  0.70933597666E+00  0.65778175924E+01  0.15349275388E+02  0.16714397895E+02  0.51100000000E-03 0.  1.
        -12    1    3    3    0    0  0.18048240999E+01  0.17473536952E+02  0.21380695297E+02  0.27671574134E+02  0.00000000000E+00 0.  1.
</event>
<event>
 7    1  0.2425980E-008  0.4614232E+02  0.7816164E-02  0.1320468E+00
        -11   -1    0    0    0    0  0.00000000000E+00  0.00000000000E+00  0.45593999997E+02  0.45594000000E+02  0.51100000000E-03 0.  1.
         11   -1    0    0    0    0 -0.00000000000E+00 -0.00000000000E+00 -0.45593999997E+02  0.45594000000E+02  0.51100000000E-03 0. -1.
    9900012    2    1    2    0    0  0.18171227647E+02 -0.31627565674E+02  0.26431365220E+02  0.46142317720E+02  0.99999996241E+01 0.  0.
         12    1    1    2    0    0 -0.18171227647E+02  0.31627565674E+02 -0.26431365220E+02  0.45045682280E+02  0.00000000000E+00 0. -1.
         11    1    3    3    0    0  0.10882983015E+02 -0.17454921321E+02  0.95741635326E+01  0.22688724187E+02  0.51100000000E-03 0.  1.
        -11    1    3    3    0    0  0.41315119748E+01 -0.51836059459E+01  0.85097474156E+01  0.10786795777E+02  0.51100000000E-03 0. -1.
         12    1    3    3    0    0  0.31567326570E+01 -0.89890384075E+01  0.83474542721E+01  0.12666797756E+02  0.00000000000E+00 0. -1.
</event>
<event>
 7    1  0.2425980E-008  0.4614232E+02  0.7816164E-02  0.1320468E+00
        -11   -1    0    0    0    0  0.00000000000E+00  0.00000000000E+00  0.45593999997E+02  0.45594000000E+02  0.51100000000E-03 0.  1.
         11   -1    0    0    0    0 -0.00000000000E+00 -0.00000000000E+00 -0.45593999997E+02  0.45594000000E+02  0.51100000000E-03 0. -1.
    9900012    2    1    2    0    0 -0.11692746603E+01  0.95032154724E+01  0.44016304606E+02  0.46142318978E+02  0.10000011097E+02 0.  0.
         12    1    1    2    0    0  0.11692746603E+01 -0.95032154724E+01 -0.44016304606E+02  0.45045681022E+02  0.00000000000E+00 0. -1.
         11    1    3    3    0    0 -0.26648259142E+01  0.76834354847E+01  0.35753530585E+02  0.36666761891E+02  0.51100000000E-03 0. -1.
        -11    1    3    3    0    0  0.19981126635E+01  0.19039484855E+01  0.84828143924E+01  0.89205164833E+01  0.51100000000E-03 0.  1.
         12    1    3    3    0    0 -0.50256140959E+00 -0.84168497837E-01 -0.22004037158E+00  0.55504060353E+00  0.00000000000E+00 0. -1.
</event>
<event>
 7    1  0.2425980E-008  0.4614232E+02  0.7816164E-02  0.1320468E+00
        -11   -1    0    0    0    0  0.00000000000E+00  0.00000000000E+00  0.45593999997E+02  0.45594000000E+02  0.51100000000E-03 0.  1.
         11   -1    0    0    0    0 -0.00000000000E+00 -0.00000000000E+00 -0.45593999997E+02  0.45594000000E+02  0.51100000000E-03 0. -1.
    9900012    2    1    2    0    0 -0.43001329751E+02 -0.13171202766E+02  0.25531605859E+01  0.46142316837E+02  0.99999915688E+01 0.  0.
         12    1    1    2    0    0  0.43001329751E+02  0.13171202766E+02 -0.25531605859E+01  0.45045683163E+02  0.00000000000E+00 0. -1.
         11    1    3    3    0    0 -0.11758013597E+02 -0.42450902485E+01 -0.34865739388E+01  0.12977976462E+02  0.51100000000E-03 0. -1.
        -11    1    3    3    0    0 -0.77018287062E+01 -0.15620155231E+01  0.24909361188E+01  0.82439566303E+01  0.51100000000E-03 0.  1.
        -12    1    3    3    0    0 -0.23541487448E+02 -0.73640969947E+01  0.35487984058E+01  0.24920383744E+02  0.00000000000E+00 0.  1.
</event>
<event>
 7    1  0.2425980E-008  0.4614232E+02  0.7816164E-02  0.1320468E+00
        -11   -1    0    0    0    0  0.00000000000E+00  0.00000000000E+00  0.45593999997E+02  0.45594000000E+02  0.51100000000E-03 0. -1.
         11   -1    0    0    0    0 -0.00000000000E+00 -0.00000000000E+00 -0.45593999997E+02  0.45594000000E+02  0.51100000000E-03 0.  1.
    9900012    2    1    2    0    0 -0.17707970557E+02  0.24947251682E+02 -0.33063209887E+02  0.46142318345E+02  0.10000005321E+02 0.  0.
         12    1    1    2    0    0  0.17707970557E+02 -0.24947251682E+02  0.33063209887E+02  0.45045681655E+02  0.00000000000E+00 0. -1.
         11    1    3    3    0    0 -0.18534642899E+01  0.12938277285E+01 -0.28179988466E+01  0.36125389722E+01  0.51100000000E-03 0. -1.
        -11    1    3    3    0    0 -0.11907410179E+02  0.21484758800E+02 -0.28681175730E+02  0.37762297591E+02  0.51100000000E-03 0.  1.
         12    1    3    3    0    0 -0.39470960886E+01  0.21686651533E+01 -0.15640353108E+01  0.47674817811E+01  0.00000000000E+00 0. -1.
</event>
<event>
 7    1  0.2425980E-008  0.4614232E+02  0.7816164E-02  0.1320468E+00
        -11   -1    0    0    0    0  0.00000000000E+00  0.00000000000E+00  0.45593999997E+02  0.45594000000E+02  0.51100000000E-03 0.  1.
         11   -1    0    0    0    0 -0.00000000000E+00 -0.00000000000E+00 -0.45593999997E+02  0.45594000000E+02  0.51100000000E-03 0. -1.
    9900012    2    1    2    0    0 -0.21983273222E+02 -0.56748670611E+01  0.38905592525E+02  0.46142317105E+02  0.99999940216E+01 0.  0.
         12    1    1    2    0    0  0.21983273222E+02  0.56748670611E+01 -0.38905592525E+02  0.45045682895E+02  0.00000000000E+00 0. -1.
         11    1    3    3    0    0 -0.14073478209E+02 -0.43219832197E+01  0.19594585757E+02  0.24508980376E+02  0.51100000000E-03 0. -1.
        -11    1    3    3    0    0 -0.46726167186E+01  0.12214237330E+01  0.60441830184E+01  0.77367545880E+01  0.51100000000E-03 0.  1.
         12    1    3    3    0    0 -0.32371782947E+01 -0.25743075744E+01  0.13266823750E+02  0.13896582141E+02  0.00000000000E+00 0. -1.
</event>
<event>
 7    1  0.2425980E-008  0.4614232E+02  0.7816164E-02  0.1320468E+00
        -11   -1    0    0    0    0  0.00000000000E+00  0.00000000000E+00  0.45593999997E+02  0.45594000000E+02  0.51100000000E-03 0.  1.
         11   -1    0    0    0    0 -0.00000000000E+00 -0.00000000000E+00 -0.45593999997E+02  0.45594000000E+02  0.51100000000E-03 0. -1.
    9900012    2    1    2    0    0  0.14565583148E+02  0.42386975314E+02 -0.45057368364E+01  0.46142317042E+02  0.99999934424E+01 0.  0.
         12    1    1    2    0    0 -0.14565583148E+02 -0.42386975314E+02  0.45057368364E+01  0.45045682958E+02  0.00000000000E+00 0. -1.
         11    1    3    3    0    0  0.36969298308E+01  0.92127633018E+01 -0.16764462879E+01  0.10067411298E+02  0.51100000000E-03 0. -1.
        -11    1    3    3    0    0  0.64229487585E+01  0.14022610755E+02 -0.51887336962E+01  0.16273009580E+02  0.51100000000E-03 0.  1.
        -12    1    3    3    0    0  0.44457045587E+01  0.19151601257E+02  0.23594431477E+01  0.19801896164E+02  0.00000000000E+00 0.  1.
</event>
<event>
 7    1  0.2425980E-008  0.4614232E+02  0.7816164E-02  0.1320468E+00
        -11   -1    0    0    0    0  0.00000000000E+00  0.00000000000E+00  0.45593999997E+02  0.45594000000E+02  0.51100000000E-03 0.  1.
         11   -1    0    0    0    0 -0.00000000000E+00 -0.00000000000E+00 -0.45593999997E+02  0.45594000000E+02  0.51100000000E-03 0. -1.
    9900012    2    1    2    0    0  0.91663898473E+01  0.41715977887E+01  0.43905448230E+02  0.46142319683E+02  0.10000017528E+02 0.  0.
         12    1    1    2    0    0 -0.91663898473E+01 -0.41715977887E+01 -0.43905448230E+02  0.45045680317E+02  0.00000000000E+00 0. -1.
         11    1    3    3    0    0  0.72469087540E+01  0.87937664786E+00  0.21237490952E+02  0.22457114952E+02  0.51100000000E-03 0. -1.
        -11    1    3    3    0    0  0.19585264442E+01  0.25769633866E+01  0.47213582015E+01  0.57243156496E+01  0.51100000000E-03 0.  1.
        -12    1    3    3    0    0 -0.39045350976E-01  0.71525775424E+00  0.17946599076E+02  0.17960889081E+02  0.00000000000E+00 0.  1.
</event>
<event>
 7    1  0.2425980E-008  0.4614232E+02  0.7816164E-02  0.1320468E+00
        -11   -1    0    0    0    0  0.00000000000E+00  0.00000000000E+00  0.45593999997E+02  0.45594000000E+02  0.51100000000E-03 0.  1.
         11   -1    0    0    0    0 -0.00000000000E+00 -0.00000000000E+00 -0.45593999997E+02  0.45594000000E+02  0.51100000000E-03 0. -1.
    9900012    2    1    2    0    0 -0.13311355875E+02 -0.16294745918E+02  0.39829670912E+02  0.46142316248E+02  0.99999862001E+01 0.  0.
         12    1    1    2    0    0  0.13311355875E+02  0.16294745918E+02 -0.39829670912E+02  0.45045683752E+02  0.00000000000E+00 0. -1.
         11    1    3    3    0    0 -0.42253833753E+01 -0.62402754512E+01  0.17179311841E+02  0.18759628407E+02  0.51100000000E-03 0. -1.
        -11    1    3    3    0    0 -0.18394968111E+01 -0.72879165888E+01  0.12815367373E+02  0.14857022511E+02  0.51100000000E-03 0.  1.
         12    1    3    3    0    0 -0.72464756882E+01 -0.27665538781E+01  0.98349916981E+01  0.12525665330E+02  0.00000000000E+00 0. -1.
</event>
<event>
 7    1  0.2425980E-008  0.4614232E+02  0.7816164E-02  0.1320468E+00
        -11   -1    0    0    0    0  0.00000000000E+00  0.00000000000E+00  0.45593999997E+02  0.45594000000E+02  0.51100000000E-03 0.  1.
         11   -1    0    0    0    0 -0.00000000000E+00 -0.00000000000E+00 -0.45593999997E+02  0.45594000000E+02  0.51100000000E-03 0. -1.
    9900012    2    1    2    0    0 -0.33972974097E+02  0.22111827670E+02  0.19647331103E+02  0.46142317506E+02  0.99999976744E+01 0.  0.
         12    1    1    2    0    0  0.33972974097E+02 -0.22111827670E+02 -0.19647331103E+02  0.45045682494E+02  0.00000000000E+00 0. -1.
         11    1    3    3    0    0 -0.35772539121E+01  0.27606640358E+01  0.26349307796E+01  0.52307620807E+01  0.51100000000E-03 0. -1.
        -11    1    3    3    0    0 -0.26634863312E+02  0.19440103083E+02  0.17107690403E+02  0.37148440380E+02  0.51100000000E-03 0.  1.
         12    1    3    3    0    0 -0.37608568731E+01 -0.88939448853E-01 -0.95290079310E-01  0.37631150454E+01  0.00000000000E+00 0. -1.
</event>
<event>
 7    1  0.2425980E-008  0.4614232E+02  0.7816164E-02  0.1320468E+00
        -11   -1    0    0    0    0  0.00000000000E+00  0.00000000000E+00  0.45593999997E+02  0.45594000000E+02  0.51100000000E-03 0.  1.
         11   -1    0    0    0    0 -0.00000000000E+00 -0.00000000000E+00 -0.45593999997E+02  0.45594000000E+02  0.51100000000E-03 0. -1.
    9900012    2    1    2    0    0  0.37237598557E+02  0.33057985599E+01  0.25130587097E+02  0.46142318095E+02  0.10000003046E+02 0.  0.
         12    1    1    2    0    0 -0.37237598557E+02 -0.33057985599E+01 -0.25130587097E+02  0.45045681905E+02  0.00000000000E+00 0. -1.
         11    1    3    3    0    0  0.18241900325E+01 -0.11981835705E+01  0.55980148494E+00  0.22531513724E+01  0.51100000000E-03 0. -1.
        -11    1    3    3    0    0  0.24410760760E+02  0.47698976563E+01  0.13593278447E+02  0.28344565329E+02  0.51100000000E-03 0.  1.
         12    1    3    3    0    0  0.11002647765E+02 -0.26591552584E+00  0.10977507166E+02  0.15544601393E+02  0.00000000000E+00 0. -1.
</event>
<event>
 7    1  0.2425980E-008  0.4614232E+02  0.7816164E-02  0.1320468E+00
        -11   -1    0    0    0    0  0.00000000000E+00  0.00000000000E+00  0.45593999997E+02  0.45594000000E+02  0.51100000000E-03 0.  1.
         11   -1    0    0    0    0 -0.00000000000E+00 -0.00000000000E+00 -0.45593999997E+02  0.45594000000E+02  0.51100000000E-03 0. -1.
    9900012    2    1    2    0    0 -0.29988271848E+02 -0.27716118204E+02  0.19016671961E+02  0.46142317974E+02  0.10000001939E+02 0.  0.
         12    1    1    2    0    0  0.29988271848E+02  0.27716118204E+02 -0.19016671961E+02  0.45045682026E+02  0.00000000000E+00 0. -1.
         11    1    3    3    0    0 -0.13103244505E+02 -0.10894729353E+02  0.44160348301E+01  0.17603735629E+02  0.51100000000E-03 0. -1.
        -11    1    3    3    0    0 -0.94499236939E+01 -0.82740211801E+01  0.44430082927E+01  0.13322942890E+02  0.51100000000E-03 0.  1.
        -12    1    3    3    0    0 -0.74351036494E+01 -0.85473676710E+01  0.10157628838E+02  0.15215639454E+02  0.00000000000E+00 0.  1.
</event>
<event>
 7    1  0.2425980E-008  0.4614232E+02  0.7816164E-02  0.1320468E+00
        -11   -1    0    0    0    0  0.00000000000E+00  0.00000000000E+00  0.45593999997E+02  0.45594000000E+02  0.51100000000E-03 0. -1.
         11   -1    0    0    0    0 -0.00000000000E+00 -0.00000000000E+00 -0.45593999997E+02  0.45594000000E+02  0.51100000000E-03 0.  1.
    9900012    2    1    2    0    0 -0.38713654341E+01  0.32673559726E+02 -0.30766290644E+02  0.46142316350E+02  0.99999871349E+01 0.  0.
         12    1    1    2    0    0  0.38713654341E+01 -0.32673559726E+02  0.30766290644E+02  0.45045683650E+02  0.00000000000E+00 0. -1.
         11    1    3    3    0    0  0.15165311086E-01  0.36548567272E+01 -0.10630796107E+01  0.38063560269E+01  0.51100000000E-03 0. -1.
        -11    1    3    3    0    0  0.18290558320E+01  0.48267788049E+01 -0.67855372645E+01  0.85256527666E+01  0.51100000000E-03 0.  1.
         12    1    3    3    0    0 -0.57155865772E+01  0.24191924194E+02 -0.22917673768E+02  0.33810307557E+02  0.00000000000E+00 0. -1.
</event>
<event>
 7    1  0.2425980E-008  0.4614232E+02  0.7816164E-02  0.1320468E+00
        -11   -1    0    0    0    0  0.00000000000E+00  0.00000000000E+00  0.45593999997E+02  0.45594000000E+02  0.51100000000E-03 0. -1.
         11   -1    0    0    0    0 -0.00000000000E+00 -0.00000000000E+00 -0.45593999997E+02  0.45594000000E+02  0.51100000000E-03 0.  1.
    9900012    2    1    2    0    0  0.86698829657E+01  0.23119298617E+02 -0.37675518597E+02  0.46142317180E+02  0.99999947010E+01 0.  0.
         12    1    1    2    0    0 -0.86698829657E+01 -0.23119298617E+02  0.37675518597E+02  0.45045682820E+02  0.00000000000E+00 0. -1.
         11    1    3    3    0    0  0.54910226521E+01  0.17901183723E+02 -0.26903481315E+02  0.32778056922E+02  0.51100000000E-03 0. -1.
        -11    1    3    3    0    0  0.38519999596E+01  0.55514396837E+01 -0.10636097655E+02  0.12600911072E+02  0.51100000000E-03 0.  1.
        -12    1    3    3    0    0 -0.67313964599E+00 -0.33332478945E+00 -0.13593962680E+00  0.76334918642E+00  0.00000000000E+00 0.  1.
</event>
<event>
 7    1  0.2425980E-008  0.4614232E+02  0.7816164E-02  0.1320468E+00
        -11   -1    0    0    0    0  0.00000000000E+00  0.00000000000E+00  0.45593999997E+02  0.45594000000E+02  0.51100000000E-03 0.  1.
         11   -1    0    0    0    0 -0.00000000000E+00 -0.00000000000E+00 -0.45593999997E+02  0.45594000000E+02  0.51100000000E-03 0. -1.
    9900012    2    1    2    0    0 -0.29846841600E+02  0.50084632576E+01  0.33364572538E+02  0.46142319204E+02  0.10000013160E+02 0.  0.
         12    1    1    2    0    0  0.29846841600E+02 -0.50084632576E+01 -0.33364572538E+02  0.45045680796E+02  0.00000000000E+00 0. -1.
         11    1    3    3    0    0 -0.11146113181E+02 -0.28243468889E-01  0.11259467438E+02  0.15843365930E+02  0.51100000000E-03 0. -1.
        -11    1    3    3    0    0 -0.16163442959E+02  0.13264998243E+01  0.16931564516E+02  0.23445561783E+02  0.51100000000E-03 0.  1.
         12    1    3    3    0    0 -0.25372854589E+01  0.37102069021E+01  0.51735405840E+01  0.68533914912E+01  0.00000000000E+00 0. -1.
</event>
<event>
 7    1  0.2425980E-008  0.4614232E+02  0.7816164E-02  0.1320468E+00
        -11   -1    0    0    0    0  0.00000000000E+00  0.00000000000E+00  0.45593999997E+02  0.45594000000E+02  0.51100000000E-03 0. -1.
         11   -1    0    0    0    0 -0.00000000000E+00 -0.00000000000E+00 -0.45593999997E+02  0.45594000000E+02  0.51100000000E-03 0.  1.
    9900012    2    1    2    0    0 -0.19683173682E+02 -0.16910700310E+01 -0.40482419163E+02  0.46142319793E+02  0.10000018530E+02 0.  0.
         12    1    1    2    0    0  0.19683173682E+02  0.16910700310E+01  0.40482419163E+02  0.45045680207E+02  0.00000000000E+00 0. -1.
         11    1    3    3    0    0 -0.21545591074E+01  0.93187054169E+00 -0.22001616080E+01  0.32173310393E+01  0.51100000000E-03 0. -1.
        -11    1    3    3    0    0 -0.61490855546E+01  0.19002340719E+01 -0.80477502890E+01  0.10304776934E+02  0.51100000000E-03 0.  1.
        -12    1    3    3    0    0 -0.11379529020E+02 -0.45231746445E+01 -0.30234507266E+02  0.32620211820E+02  0.00000000000E+00 0.  1.
</event>
<event>
 7    1  0.2425980E-008  0.4614231E+02  0.7816164E-02  0.1320468E+00
        -11   -1    0    0    0    0  0.00000000000E+00  0.00000000000E+00  0.45593999997E+02  0.45594000000E+02  0.51100000000E-03 0.  1.
         11   -1    0    0    0    0 -0.00000000000E+00 -0.00000000000E+00 -0.45593999997E+02  0.45594000000E+02  0.51100000000E-03 0. -1.
    9900012    2    1    2    0    0 -0.41145970978E+02 -0.97181921044E+01  0.15546053948E+02  0.46142312317E+02  0.99999503539E+01 0.  0.
         12    1    1    2    0    0  0.41145970978E+02  0.97181921044E+01 -0.15546053948E+02  0.45045687683E+02  0.00000000000E+00 0. -1.
         11    1    3    3    0    0 -0.14088435062E+02 -0.21382609229E+01  0.85036013060E+01  0.16594197712E+02  0.51100000000E-03 0. -1.
        -11    1    3    3    0    0 -0.17798313670E+02 -0.65858302060E+01  0.70234494225E+01  0.20235660875E+02  0.51100000000E-03 0.  1.
         12    1    3    3    0    0 -0.92592222455E+01 -0.99410097546E+00  0.19003219924E-01  0.93124537294E+01  0.00000000000E+00 0. -1.
</event>
<event>
 7    1  0.2425980E-008  0.4614232E+02  0.7816164E-02  0.1320468E+00
        -11   -1    0    0    0    0  0.00000000000E+00  0.00000000000E+00  0.45593999997E+02  0.45594000000E+02  0.51100000000E-03 0.  1.
         11   -1    0    0    0    0 -0.00000000000E+00 -0.00000000000E+00 -0.45593999997E+02  0.45594000000E+02  0.51100000000E-03 0. -1.
    9900012    2    1    2    0    0 -0.25661536290E+02 -0.91094739610E+01  0.35883372730E+02  0.46142318753E+02  0.10000009040E+02 0.  0.
         12    1    1    2    0    0  0.25661536290E+02  0.91094739610E+01 -0.35883372730E+02  0.45045681247E+02  0.00000000000E+00 0. -1.
         11    1    3    3    0    0 -0.29052881055E+01 -0.31721240109E+00  0.14979746958E+01  0.32840906099E+01  0.51100000000E-03 0. -1.
        -11    1    3    3    0    0 -0.45763937359E+01  0.10678301994E+01  0.86337688307E+01  0.98298324220E+01  0.51100000000E-03 0.  1.
        -12    1    3    3    0    0 -0.18179854448E+02 -0.98600917593E+01  0.25751629203E+02  0.33028395721E+02  0.00000000000E+00 0.  1.
</event>
<event>
 7    1  0.2425980E-008  0.4614232E+02  0.7816164E-02  0.1320468E+00
        -11   -1    0    0    0    0  0.00000000000E+00  0.00000000000E+00  0.45593999997E+02  0.45594000000E+02  0.51100000000E-03 0. -1.
         11   -1    0    0    0    0 -0.00000000000E+00 -0.00000000000E+00 -0.45593999997E+02  0.45594000000E+02  0.51100000000E-03 0.  1.
    9900012    2    1    2    0    0  0.59259045245E+01 -0.51599615808E+01 -0.44355066113E+02  0.46142318322E+02  0.10000005116E+02 0.  0.
         12    1    1    2    0    0 -0.59259045245E+01  0.51599615808E+01  0.44355066113E+02  0.45045681678E+02  0.00000000000E+00 0. -1.
         11    1    3    3    0    0 -0.24957187091E+00 -0.26855335550E+00  0.22045595074E+00  0.42779447266E+00  0.51100000000E-03 0. -1.
        -11    1    3    3    0    0 -0.94376483855E+00 -0.19930868863E+01 -0.14773831664E+02  0.14937509488E+02  0.51100000000E-03 0.  1.
         12    1    3    3    0    0  0.71192412340E+01 -0.28983213391E+01 -0.29801690400E+02  0.30777014361E+02  0.00000000000E+00 0. -1.
</event>
<event>
 7    1  0.2425980E-008  0.4614232E+02  0.7816164E-02  0.1320468E+00
        -11   -1    0    0    0    0  0.00000000000E+00  0.00000000000E+00  0.45593999997E+02  0.45594000000E+02  0.51100000000E-03 0.  1.
         11   -1    0    0    0    0 -0.00000000000E+00 -0.00000000000E+00 -0.45593999997E+02  0.45594000000E+02  0.51100000000E-03 0. -1.
    9900012    2    1    2    0    0 -0.40569749205E+02 -0.36757132777E+01  0.19227534894E+02  0.46142317446E+02  0.99999971273E+01 0.  0.
         12    1    1    2    0    0  0.40569749205E+02  0.36757132777E+01 -0.19227534894E+02  0.45045682554E+02  0.00000000000E+00 0. -1.
         11    1    3    3    0    0 -0.35235034332E+01 -0.90755431871E+00 -0.93609667781E+00  0.37569946149E+01  0.51100000000E-03 0. -1.
        -11    1    3    3    0    0 -0.19816536595E+02 -0.12553271062E+00  0.98257050379E+01  0.22119117542E+02  0.51100000000E-03 0.  1.
        -12    1    3    3    0    0 -0.17229709176E+02 -0.26426262484E+01  0.10337926534E+02  0.20266205289E+02  0.00000000000E+00 0.  1.
</event>
<event>
 7    1  0.2425980E-008  0.4614232E+02  0.7816164E-02  0.1320468E+00
        -11   -1    0    0    0    0  0.00000000000E+00  0.00000000000E+00  0.45593999997E+02  0.45594000000E+02  0.51100000000E-03 0.  1.
         11   -1    0    0    0    0 -0.00000000000E+00 -0.00000000000E+00 -0.45593999997E+02  0.45594000000E+02  0.51100000000E-03 0. -1.
    9900012    2    1    2    0    0  0.33747146143E+02 -0.27294359713E+02  0.12052449735E+02  0.46142317748E+02  0.99999998813E+01 0.  0.
         12    1    1    2    0    0 -0.33747146143E+02  0.27294359713E+02 -0.12052449735E+02  0.45045682252E+02  0.00000000000E+00 0. -1.
         11    1    3    3    0    0  0.16937555045E+02 -0.18008672319E+02  0.99749667390E+01  0.26658826143E+02  0.51100000000E-03 0. -1.
        -11    1    3    3    0    0  0.11894560562E+02 -0.76255607897E+01  0.21707838169E+01  0.14294826021E+02  0.51100000000E-03 0.  1.
         12    1    3    3    0    0  0.49150305352E+01 -0.16601266046E+01 -0.93300820869E-01  0.51886655845E+01  0.00000000000E+00 0. -1.
</event>
<event>
 7    1  0.2425980E-008  0.4614232E+02  0.7816164E-02  0.1320468E+00
        -11   -1    0    0    0    0  0.00000000000E+00  0.00000000000E+00  0.45593999997E+02  0.45594000000E+02  0.51100000000E-03 0.  1.
         11   -1    0    0    0    0 -0.00000000000E+00 -0.00000000000E+00 -0.45593999997E+02  0.45594000000E+02  0.51100000000E-03 0. -1.
    9900012    2    1    2    0    0 -0.22292099469E+02 -0.38513230282E+02  0.69933401472E+01  0.46142318610E+02  0.10000007739E+02 0.  0.
         12    1    1    2    0    0  0.22292099469E+02  0.38513230282E+02 -0.69933401472E+01  0.45045681390E+02  0.00000000000E+00 0. -1.
         11    1    3    3    0    0 -0.27221157084E+01 -0.25727105650E+01  0.26399541366E+01  0.45823696583E+01  0.51100000000E-03 0. -1.
        -11    1    3    3    0    0 -0.12814171315E+02 -0.17505911906E+02  0.20319831781E+01  0.21789651076E+02  0.51100000000E-03 0.  1.
         12    1    3    3    0    0 -0.67558124461E+01 -0.18434607811E+02  0.23214028325E+01  0.19770297875E+02  0.00000000000E+00 0. -1.
</event>
<event>
 7    1  0.2425980E-008  0.4614231E+02  0.7816164E-02  0.1320468E+00
        -11   -1    0    0    0    0  0.00000000000E+00  0.00000000000E+00  0.45593999997E+02  0.45594000000E+02  0.51100000000E-03 0.  1.
         11   -1    0    0    0    0 -0.00000000000E+00 -0.00000000000E+00 -0.45593999997E+02  0.45594000000E+02  0.51100000000E-03 0. -1.
    9900012    2    1    2    0    0 -0.18680640230E+02  0.35478189116E+02  0.20529138568E+02  0.46142314827E+02  0.99999732487E+01 0.  0.
         12    1    1    2    0    0  0.18680640230E+02 -0.35478189116E+02 -0.20529138568E+02  0.45045685173E+02  0.00000000000E+00 0. -1.
         11    1    3    3    0    0 -0.31434064523E+01  0.65809213638E+01  0.27628389694E+01  0.77988979704E+01  0.51100000000E-03 0. -1.
        -11    1    3    3    0    0 -0.15969056710E+02  0.26384254072E+02  0.14183026379E+02  0.33945513293E+02  0.51100000000E-03 0.  1.
         12    1    3    3    0    0  0.43182293240E+00  0.25130136792E+01  0.35832732193E+01  0.43979035643E+01  0.00000000000E+00 0. -1.
</event>
<event>
 7    1  0.2425980E-008  0.4614232E+02  0.7816164E-02  0.1320468E+00
        -11   -1    0    0    0    0  0.00000000000E+00  0.00000000000E+00  0.45593999997E+02  0.45594000000E+02  0.51100000000E-03 0.  1.
         11   -1    0    0    0    0 -0.00000000000E+00 -0.00000000000E+00 -0.45593999997E+02  0.45594000000E+02  0.51100000000E-03 0. -1.
    9900012    2    1    2    0    0 -0.12641670992E+02  0.41388393998E+02  0.12502097258E+02  0.46142318309E+02  0.10000004994E+02 0.  0.
         12    1    1    2    0    0  0.12641670992E+02 -0.41388393998E+02 -0.12502097258E+02  0.45045681691E+02  0.00000000000E+00 0. -1.
         11    1    3    3    0    0 -0.15346692151E+01  0.36901550117E+01 -0.44685293001E+00  0.40214588662E+01  0.51100000000E-03 0. -1.
        -11    1    3    3    0    0  0.37022973738E+00  0.10630746080E+02  0.25790984426E+01  0.10945390870E+02  0.51100000000E-03 0.  1.
        -12    1    3    3    0    0 -0.11477231514E+02  0.27067492906E+02  0.10369851746E+02  0.31175468572E+02  0.00000000000E+00 0.  1.
</event>
<event>
 7    1  0.2425980E-008  0.4614232E+02  0.7816164E-02  0.1320468E+00
        -11   -1    0    0    0    0  0.00000000000E+00  0.00000000000E+00  0.45593999997E+02  0.45594000000E+02  0.51100000000E-03 0.  1.
         11   -1    0    0    0    0 -0.00000000000E+00 -0.00000000000E+00 -0.45593999997E+02  0.45594000000E+02  0.51100000000E-03 0. -1.
    9900012    2    1    2    0    0 -0.26736343803E+02 -0.14083308509E+02  0.33405714426E+02  0.46142318578E+02  0.10000007446E+02 0.  0.
         12    1    1    2    0    0  0.26736343803E+02  0.14083308509E+02 -0.33405714426E+02  0.45045681422E+02  0.00000000000E+00 0. -1.
         11    1    3    3    0    0 -0.98789587410E+01 -0.14235289083E+01  0.13145753008E+02  0.16505486444E+02  0.51100000000E-03 0.  1.
        -11    1    3    3    0    0 -0.19354702438E+01 -0.38149262279E+01  0.42963962969E+01  0.60628977057E+01  0.51100000000E-03 0. -1.
        -12    1    3    3    0    0 -0.14921914818E+02 -0.88448533725E+01  0.15963565121E+02  0.23573934428E+02  0.00000000000E+00 0.  1.
</event>
<event>
 7    1  0.2425980E-008  0.4614232E+02  0.7816164E-02  0.1320468E+00
        -11   -1    0    0    0    0  0.00000000000E+00  0.00000000000E+00  0.45593999997E+02  0.45594000000E+02  0.51100000000E-03 0.  1.
         11   -1    0    0    0    0 -0.00000000000E+00 -0.00000000000E+00 -0.45593999997E+02  0.45594000000E+02  0.51100000000E-03 0. -1.
    9900012    2    1    2    0    0 -0.62270152078E+00  0.19368045036E+02  0.40664536855E+02  0.46142317817E+02  0.10000000509E+02 0.  0.
         12    1    1    2    0    0  0.62270152078E+00 -0.19368045036E+02 -0.40664536855E+02  0.45045682183E+02  0.00000000000E+00 0. -1.
         11    1    3    3    0    0  0.24784885951E+01  0.12024743277E+02  0.26558332010E+02  0.29258885078E+02  0.51100000000E-03 0. -1.
        -11    1    3    3    0    0 -0.39291923911E+01  0.74185819426E+01  0.12260737637E+02  0.14859326988E+02  0.51100000000E-03 0.  1.
         12    1    3    3    0    0  0.82800227523E+00 -0.75280183268E-01  0.18454672077E+01  0.20241057503E+01  0.00000000000E+00 0. -1.
</event>
<event>
 7    1  0.2425980E-008  0.4614232E+02  0.7816164E-02  0.1320468E+00
        -11   -1    0    0    0    0  0.00000000000E+00  0.00000000000E+00  0.45593999997E+02  0.45594000000E+02  0.51100000000E-03 0.  1.
         11   -1    0    0    0    0 -0.00000000000E+00 -0.00000000000E+00 -0.45593999997E+02  0.45594000000E+02  0.51100000000E-03 0. -1.
    9900012    2    1    2    0    0 -0.44798410977E+02  0.33605021823E+01 -0.33050143606E+01  0.46142315180E+02  0.99999764671E+01 0.  0.
         12    1    1    2    0    0  0.44798410977E+02 -0.33605021823E+01  0.33050143606E+01  0.45045684820E+02  0.00000000000E+00 0. -1.
         11    1    3    3    0    0 -0.73929897181E+01  0.10115061421E+01  0.13206269912E+01  0.75778293434E+01  0.51100000000E-03 0. -1.
        -11    1    3    3    0    0 -0.11532253880E+02  0.18340384856E+01  0.20101909429E+01  0.11848942764E+02  0.51100000000E-03 0.  1.
         12    1    3    3    0    0 -0.25873167378E+02  0.51495755450E+00 -0.66358322948E+01  0.26715543073E+02  0.00000000000E+00 0. -1.
</event>
<event>
 7    1  0.2425980E-008  0.4614232E+02  0.7816164E-02  0.1320468E+00
        -11   -1    0    0    0    0  0.00000000000E+00  0.00000000000E+00  0.45593999997E+02  0.45594000000E+02  0.51100000000E-03 0.  1.
         11   -1    0    0    0    0 -0.00000000000E+00 -0.00000000000E+00 -0.45593999997E+02  0.45594000000E+02  0.51100000000E-03 0. -1.
    9900012    2    1    2    0    0 -0.35339578312E+02  0.15471046747E+02  0.23256706318E+02  0.46142317948E+02  0.10000001705E+02 0.  0.
         12    1    1    2    0    0  0.35339578312E+02 -0.15471046747E+02 -0.23256706318E+02  0.45045682052E+02  0.00000000000E+00 0. -1.
         11    1    3    3    0    0 -0.45563970708E+00 -0.68561920238E+00  0.42839553321E+00  0.92801089828E+00  0.51100000000E-03 0. -1.
        -11    1    3    3    0    0 -0.15784593102E+02  0.60951589599E+01  0.13719906931E+02  0.21783943367E+02  0.51100000000E-03 0.  1.
        -12    1    3    3    0    0 -0.19099345503E+02  0.10061506989E+02  0.91084038540E+01  0.23430363683E+02  0.00000000000E+00 0.  1.
</event>
<event>
 7    1  0.2425980E-008  0.4614232E+02  0.7816164E-02  0.1320468E+00
        -11   -1    0    0    0    0  0.00000000000E+00  0.00000000000E+00  0.45593999997E+02  0.45594000000E+02  0.51100000000E-03 0. -1.
         11   -1    0    0    0    0 -0.00000000000E+00 -0.00000000000E+00 -0.45593999997E+02  0.45594000000E+02  0.51100000000E-03 0.  1.
    9900012    2    1    2    0    0  0.26309681994E+02 -0.21345575757E+02 -0.29686368038E+02  0.46142318538E+02  0.10000007087E+02 0.  0.
         12    1    1    2    0    0 -0.26309681994E+02  0.21345575757E+02  0.29686368038E+02  0.45045681462E+02  0.00000000000E+00 0. -1.
         11    1    3    3    0    0  0.87572679169E+01 -0.80600989335E+01 -0.15558124614E+02  0.19588521587E+02  0.51100000000E-03 0. -1.
        -11    1    3    3    0    0  0.10182883239E+02 -0.60258558708E+01 -0.97046176185E+01  0.15302994916E+02  0.51100000000E-03 0.  1.
        -12    1    3    3    0    0  0.73695308383E+01 -0.72596209531E+01 -0.44236258056E+01  0.11250802035E+02  0.00000000000E+00 0.  1.
</event>
<event>
 7    1  0.2425980E-008  0.4614232E+02  0.7816164E-02  0.1320468E+00
        -11   -1    0    0    0    0  0.00000000000E+00  0.00000000000E+00  0.45593999997E+02  0.45594000000E+02  0.51100000000E-03 0.  1.
         11   -1    0    0    0    0 -0.00000000000E+00 -0.00000000000E+00 -0.45593999997E+02  0.45594000000E+02  0.51100000000E-03 0. -1.
    9900012    2    1    2    0    0 -0.50922542944E+01 -0.30545147115E+02  0.32713552711E+02  0.46142316555E+02  0.99999889990E+01 0.  0.
         12    1    1    2    0    0  0.50922542944E+01  0.30545147115E+02 -0.32713552711E+02  0.45045683445E+02  0.00000000000E+00 0. -1.
         11    1    3    3    0    0 -0.21024926324E+01 -0.53571790446E+01  0.40626467121E+01  0.70444972251E+01  0.51100000000E-03 0. -1.
        -11    1    3    3    0    0 -0.12690072112E+01 -0.24786903713E+02  0.26375368350E+02  0.36216861140E+02  0.51100000000E-03 0.  1.
         12    1    3    3    0    0 -0.17207544508E+01 -0.40106435749E+00  0.22755376492E+01  0.28809581898E+01  0.00000000000E+00 0. -1.
</event>
<event>
 7    1  0.2425980E-008  0.4614232E+02  0.7816164E-02  0.1320468E+00
        -11   -1    0    0    0    0  0.00000000000E+00  0.00000000000E+00  0.45593999997E+02  0.45594000000E+02  0.51100000000E-03 0. -1.
         11   -1    0    0    0    0 -0.00000000000E+00 -0.00000000000E+00 -0.45593999997E+02  0.45594000000E+02  0.51100000000E-03 0.  1.
    9900012    2    1    2    0    0  0.44970525966E+02 -0.31729840541E-01 -0.26008197260E+01  0.46142317902E+02  0.10000001285E+02 0.  0.
         12    1    1    2    0    0 -0.44970525966E+02  0.31729840541E-01  0.26008197260E+01  0.45045682098E+02  0.00000000000E+00 0. -1.
         11    1    3    3    0    0  0.26366822044E+01  0.33186648550E+00 -0.60433699361E+00  0.27253351857E+01  0.51100000000E-03 0. -1.
        -11    1    3    3    0    0  0.16047999805E+02 -0.18483591072E+01 -0.50201806480E+01  0.16916174010E+02  0.51100000000E-03 0.  1.
         12    1    3    3    0    0  0.26285843957E+02  0.14847627812E+01  0.30236979156E+01  0.26500808707E+02  0.00000000000E+00 0. -1.
</event>
<event>
 7    1  0.2425980E-008  0.4614232E+02  0.7816164E-02  0.1320468E+00
        -11   -1    0    0    0    0  0.00000000000E+00  0.00000000000E+00  0.45593999997E+02  0.45594000000E+02  0.51100000000E-03 0. -1.
         11   -1    0    0    0    0 -0.00000000000E+00 -0.00000000000E+00 -0.45593999997E+02  0.45594000000E+02  0.51100000000E-03 0.  1.
    9900012    2    1    2    0    0 -0.24697046054E+02 -0.23428569649E+02 -0.29500364829E+02  0.46142317802E+02  0.10000000376E+02 0.  0.
         12    1    1    2    0    0  0.24697046054E+02  0.23428569649E+02  0.29500364829E+02  0.45045682198E+02  0.00000000000E+00 0. -1.
         11    1    3    3    0    0 -0.64927686750E+00 -0.31074114062E+01 -0.50023432929E+01  0.59246100951E+01  0.51100000000E-03 0. -1.
        -11    1    3    3    0    0 -0.93356002013E+01 -0.60488810130E+01 -0.11193675868E+02  0.15781025705E+02  0.51100000000E-03 0.  1.
         12    1    3    3    0    0 -0.14712168986E+02 -0.14272277230E+02 -0.13304345668E+02  0.24436682002E+02  0.00000000000E+00 0. -1.
</event>
<event>
 7    1  0.2425980E-008  0.4614232E+02  0.7816164E-02  0.1320468E+00
        -11   -1    0    0    0    0  0.00000000000E+00  0.00000000000E+00  0.45593999997E+02  0.45594000000E+02  0.51100000000E-03 0.  1.
         11   -1    0    0    0    0 -0.00000000000E+00 -0.00000000000E+00 -0.45593999997E+02  0.45594000000E+02  0.51100000000E-03 0. -1.
    9900012    2    1    2    0    0 -0.19204638991E+02 -0.16345952291E+02  0.37324323828E+02  0.46142318028E+02  0.10000002435E+02 0.  0.
         12    1    1    2    0    0  0.19204638991E+02  0.16345952291E+02 -0.37324323828E+02  0.45045681972E+02  0.00000000000E+00 0. -1.
         11    1    3    3    0    0 -0.92294604443E+01 -0.11845624418E+02  0.16336175777E+02  0.22189465907E+02  0.51100000000E-03 0. -1.
        -11    1    3    3    0    0 -0.21320152490E+01 -0.26248058587E+01  0.48567871551E+01  0.59180635810E+01  0.51100000000E-03 0.  1.
        -12    1    3    3    0    0 -0.78431632979E+01 -0.18755220143E+01  0.16131360895E+02  0.18034788540E+02  0.00000000000E+00 0.  1.
</event>
<event>
 7    1  0.2425980E-008  0.4614232E+02  0.7816164E-02  0.1320468E+00
        -11   -1    0    0    0    0  0.00000000000E+00  0.00000000000E+00  0.45593999997E+02  0.45594000000E+02  0.51100000000E-03 0.  1.
         11   -1    0    0    0    0 -0.00000000000E+00 -0.00000000000E+00 -0.45593999997E+02  0.45594000000E+02  0.51100000000E-03 0. -1.
    9900012    2    1    2    0    0  0.24505258233E+02 -0.31618713413E+02  0.20709002681E+02  0.46142317510E+02  0.99999977118E+01 0.  0.
         12    1    1    2    0    0 -0.24505258233E+02  0.31618713413E+02 -0.20709002681E+02  0.45045682490E+02  0.00000000000E+00 0. -1.
         11    1    3    3    0    0  0.18898041675E+02 -0.18579641501E+02  0.14938433682E+02  0.30421963424E+02  0.51100000000E-03 0.  1.
        -11    1    3    3    0    0  0.23130188450E+01 -0.19849681886E+01  0.16911545033E+01  0.34857077764E+01  0.51100000000E-03 0. -1.
         12    1    3    3    0    0  0.32941977129E+01 -0.11054103723E+02  0.40794144956E+01  0.12234646310E+02  0.00000000000E+00 0. -1.
</event>
<event>
 7    1  0.2425980E-008  0.4614232E+02  0.7816164E-02  0.1320468E+00
        -11   -1    0    0    0    0  0.00000000000E+00  0.00000000000E+00  0.45593999997E+02  0.45594000000E+02  0.51100000000E-03 0. -1.
         11   -1    0    0    0    0 -0.00000000000E+00 -0.00000000000E+00 -0.45593999997E+02  0.45594000000E+02  0.51100000000E-03 0.  1.
    9900012    2    1    2    0    0  0.37893221607E+02  0.83427056089E+01 -0.22882667574E+02  0.46142318121E+02  0.10000003281E+02 0.  0.
         12    1    1    2    0    0 -0.37893221607E+02 -0.83427056089E+01  0.22882667574E+02  0.45045681879E+02  0.00000000000E+00 0. -1.
         11    1    3    3    0    0  0.81478528422E+01 -0.11268005957E+01 -0.82179186738E+01  0.11627182510E+02  0.51100000000E-03 0. -1.
        -11    1    3    3    0    0  0.16305135404E+02  0.47671143031E+01 -0.85603994934E+01  0.19022703779E+02  0.51100000000E-03 0.  1.
        -12    1    3    3    0    0  0.13440233361E+02  0.47023919016E+01 -0.61043494068E+01  0.15492431832E+02  0.00000000000E+00 0.  1.
</event>
<event>
 7    1  0.2425980E-008  0.4614232E+02  0.7816164E-02  0.1320468E+00
        -11   -1    0    0    0    0  0.00000000000E+00  0.00000000000E+00  0.45593999997E+02  0.45594000000E+02  0.51100000000E-03 0. -1.
         11   -1    0    0    0    0 -0.00000000000E+00 -0.00000000000E+00 -0.45593999997E+02  0.45594000000E+02  0.51100000000E-03 0.  1.
    9900012    2    1    2    0    0  0.21318696816E+02  0.54047412511E+01 -0.39311771348E+02  0.46142318426E+02  0.10000006063E+02 0.  0.
         12    1    1    2    0    0 -0.21318696816E+02 -0.54047412511E+01  0.39311771348E+02  0.45045681574E+02  0.00000000000E+00 0. -1.
         11    1    3    3    0    0  0.26055664777E-01  0.69108458318E+00 -0.37132514556E+01  0.37771038419E+01  0.51100000000E-03 0. -1.
        -11    1    3    3    0    0  0.15345447922E+02  0.60720543328E+01 -0.29086662775E+02  0.33442287113E+02  0.51100000000E-03 0.  1.
         12    1    3    3    0    0  0.59471932291E+01 -0.13583976648E+01 -0.65118571181E+01  0.89229274706E+01  0.00000000000E+00 0. -1.
</event>
<event>
 7    1  0.2425980E-008  0.4614232E+02  0.7816164E-02  0.1320468E+00
        -11   -1    0    0    0    0  0.00000000000E+00  0.00000000000E+00  0.45593999997E+02  0.45594000000E+02  0.51100000000E-03 0.  1.
         11   -1    0    0    0    0 -0.00000000000E+00 -0.00000000000E+00 -0.45593999997E+02  0.45594000000E+02  0.51100000000E-03 0. -1.
    9900012    2    1    2    0    0 -0.19615679517E+02 -0.14404974330E+02  0.37905611101E+02  0.46142317396E+02  0.99999966669E+01 0.  0.
         12    1    1    2    0    0  0.19615679517E+02  0.14404974330E+02 -0.37905611101E+02  0.45045682604E+02  0.00000000000E+00 0. -1.
         11    1    3    3    0    0 -0.42756738987E+01 -0.40388789691E+01  0.39111317946E+01  0.70633478458E+01  0.51100000000E-03 0. -1.
        -11    1    3    3    0    0 -0.62331745615E+01 -0.20611193712E+01  0.83102154900E+01  0.10590578829E+02  0.51100000000E-03 0.  1.
        -12    1    3    3    0    0 -0.91068310567E+01 -0.83049759902E+01  0.25684263816E+02  0.28488390721E+02  0.00000000000E+00 0.  1.
</event>
<event>
 7    1  0.2425980E-008  0.4614232E+02  0.7816164E-02  0.1320468E+00
        -11   -1    0    0    0    0  0.00000000000E+00  0.00000000000E+00  0.45593999997E+02  0.45594000000E+02  0.51100000000E-03 0.  1.
         11   -1    0    0    0    0 -0.00000000000E+00 -0.00000000000E+00 -0.45593999997E+02  0.45594000000E+02  0.51100000000E-03 0. -1.
    9900012    2    1    2    0    0 -0.24406829302E+02 -0.11123098801E+02  0.36189732845E+02  0.46142318665E+02  0.10000008246E+02 0.  0.
         12    1    1    2    0    0  0.24406829302E+02  0.11123098801E+02 -0.36189732845E+02  0.45045681335E+02  0.00000000000E+00 0. -1.
         11    1    3    3    0    0 -0.42064911162E+01 -0.29967360358E+01  0.80505648104E+01  0.95648621740E+01  0.51100000000E-03 0.  1.
        -11    1    3    3    0    0 -0.30766572640E+01 -0.50420299844E+01  0.60013254034E+01  0.84204390113E+01  0.51100000000E-03 0. -1.
         12    1    3    3    0    0 -0.17123680922E+02 -0.30843327805E+01  0.22137842631E+02  0.28157017480E+02  0.00000000000E+00 0. -1.
</event>
<event>
 7    1  0.2425980E-008  0.4614232E+02  0.7816164E-02  0.1320468E+00
        -11   -1    0    0    0    0  0.00000000000E+00  0.00000000000E+00  0.45593999997E+02  0.45594000000E+02  0.51100000000E-03 0.  1.
         11   -1    0    0    0    0 -0.00000000000E+00 -0.00000000000E+00 -0.45593999997E+02  0.45594000000E+02  0.51100000000E-03 0. -1.
    9900012    2    1    2    0    0 -0.71676276262E+01 -0.17942218638E+02  0.40691712165E+02  0.46142317251E+02  0.99999953459E+01 0.  0.
         12    1    1    2    0    0  0.71676276262E+01  0.17942218638E+02 -0.40691712165E+02  0.45045682749E+02  0.00000000000E+00 0. -1.
         11    1    3    3    0    0 -0.49742622986E+01 -0.97493593619E+01  0.26318353697E+02  0.28503491628E+02  0.51100000000E-03 0.  1.
        -11    1    3    3    0    0  0.14614750369E+01 -0.54763941920E+01  0.77806517281E+01  0.96262840289E+01  0.51100000000E-03 0. -1.
        -12    1    3    3    0    0 -0.36548403644E+01 -0.27164650844E+01  0.65927067393E+01  0.80125415939E+01  0.00000000000E+00 0.  1.
</event>
<event>
 7    1  0.2425980E-008  0.4614232E+02  0.7816164E-02  0.1320468E+00
        -11   -1    0    0    0    0  0.00000000000E+00  0.00000000000E+00  0.45593999997E+02  0.45594000000E+02  0.51100000000E-03 0. -1.
         11   -1    0    0    0    0 -0.00000000000E+00 -0.00000000000E+00 -0.45593999997E+02  0.45594000000E+02  0.51100000000E-03 0.  1.
    9900012    2    1    2    0    0 -0.10187532731E+02  0.24303684345E+02 -0.36532978881E+02  0.46142318278E+02  0.10000004712E+02 0.  0.
         12    1    1    2    0    0  0.10187532731E+02 -0.24303684345E+02  0.36532978881E+02  0.45045681722E+02  0.00000000000E+00 0. -1.
         11    1    3    3    0    0  0.23138447119E+00  0.60353819670E+01 -0.66741769795E+01  0.90013339498E+01  0.51100000000E-03 0.  1.
        -11    1    3    3    0    0 -0.30690847242E+01  0.10640508561E+02 -0.11638312362E+02  0.16065180310E+02  0.51100000000E-03 0. -1.
        -12    1    3    3    0    0 -0.73498324783E+01  0.76277938174E+01 -0.18220489539E+02  0.21075804018E+02  0.00000000000E+00 0.  1.
</event>
<event>
 7    1  0.2425980E-008  0.4614232E+02  0.7816164E-02  0.1320468E+00
        -11   -1    0    0    0    0  0.00000000000E+00  0.00000000000E+00  0.45593999997E+02  0.45594000000E+02  0.51100000000E-03 0.  1.
         11   -1    0    0    0    0 -0.00000000000E+00 -0.00000000000E+00 -0.45593999997E+02  0.45594000000E+02  0.51100000000E-03 0. -1.
    9900012    2    1    2    0    0  0.47581081409E+01 -0.37749646950E+02  0.24113026143E+02  0.46142317990E+02  0.10000002090E+02 0.  0.
         12    1    1    2    0    0 -0.47581081409E+01  0.37749646950E+02 -0.24113026143E+02  0.45045682010E+02  0.00000000000E+00 0. -1.
         11    1    3    3    0    0  0.86141053073E+00 -0.19646220502E+02  0.13321253577E+02  0.23752301052E+02  0.51100000000E-03 0.  1.
        -11    1    3    3    0    0  0.48475527973E+01 -0.14227232426E+02  0.60760598777E+01  0.16212076194E+02  0.51100000000E-03 0. -1.
         12    1    3    3    0    0 -0.95085518714E+00 -0.38761940218E+01  0.47157126886E+01  0.61779407446E+01  0.00000000000E+00 0. -1.
</event>
<event>
 7    1  0.2425980E-008  0.4614232E+02  0.7816164E-02  0.1320468E+00
        -11   -1    0    0    0    0  0.00000000000E+00  0.00000000000E+00  0.45593999997E+02  0.45594000000E+02  0.51100000000E-03 0.  1.
         11   -1    0    0    0    0 -0.00000000000E+00 -0.00000000000E+00 -0.45593999997E+02  0.45594000000E+02  0.51100000000E-03 0. -1.
    9900012    2    1    2    0    0 -0.28790119169E+02 -0.21973162850E+02  0.26784746771E+02  0.46142317554E+02  0.99999981155E+01 0.  0.
         12    1    1    2    0    0  0.28790119169E+02  0.21973162850E+02 -0.26784746771E+02  0.45045682446E+02  0.00000000000E+00 0. -1.
         11    1    3    3    0    0 -0.71337891795E+01 -0.43306922298E+01  0.11333377932E+02  0.14074491069E+02  0.51100000000E-03 0. -1.
        -11    1    3    3    0    0 -0.10350759683E+02 -0.10169293545E+02  0.88121485688E+01  0.16976652199E+02  0.51100000000E-03 0.  1.
         12    1    3    3    0    0 -0.11305570306E+02 -0.74731770754E+01  0.66392202706E+01  0.15091174286E+02  0.00000000000E+00 0. -1.
</event>
<event>
 7    1  0.2425980E-008  0.4614232E+02  0.7816164E-02  0.1320468E+00
        -11   -1    0    0    0    0  0.00000000000E+00  0.00000000000E+00  0.45593999997E+02  0.45594000000E+02  0.51100000000E-03 0.  1.
         11   -1    0    0    0    0 -0.00000000000E+00 -0.00000000000E+00 -0.45593999997E+02  0.45594000000E+02  0.51100000000E-03 0. -1.
    9900012    2    1    2    0    0 -0.16706363670E+02 -0.20573062050E+02  0.36424715833E+02  0.46142318823E+02  0.10000009682E+02 0.  0.
         12    1    1    2    0    0  0.16706363670E+02  0.20573062050E+02 -0.36424715833E+02  0.45045681177E+02  0.00000000000E+00 0. -1.
         11    1    3    3    0    0 -0.44129668696E+01 -0.12196274217E+02  0.13309991222E+02  0.18584381829E+02  0.51100000000E-03 0. -1.
        -11    1    3    3    0    0 -0.75329227483E+01 -0.61705577485E+01  0.15698969159E+02  0.18473720280E+02  0.51100000000E-03 0.  1.
         12    1    3    3    0    0 -0.47604740525E+01 -0.22062300844E+01  0.74157554515E+01  0.90842167140E+01  0.00000000000E+00 0. -1.
</event>
<event>
 7    1  0.2425980E-008  0.4614232E+02  0.7816164E-02  0.1320468E+00
        -11   -1    0    0    0    0  0.00000000000E+00  0.00000000000E+00  0.45593999997E+02  0.45594000000E+02  0.51100000000E-03 0.  1.
         11   -1    0    0    0    0 -0.00000000000E+00 -0.00000000000E+00 -0.45593999997E+02  0.45594000000E+02  0.51100000000E-03 0. -1.
    9900012    2    1    2    0    0 -0.30793131339E+01  0.44939218251E+01  0.44715052633E+02  0.46142318357E+02  0.10000005431E+02 0.  0.
         12    1    1    2    0    0  0.30793131339E+01 -0.44939218251E+01 -0.44715052633E+02  0.45045681643E+02  0.00000000000E+00 0. -1.
         11    1    3    3    0    0  0.15798783908E+01  0.47697681847E+00  0.29459799719E+01  0.33767322770E+01  0.51100000000E-03 0. -1.
        -11    1    3    3    0    0 -0.26900914357E+01  0.42398367749E+01  0.13119589368E+02  0.14047648674E+02  0.51100000000E-03 0.  1.
        -12    1    3    3    0    0 -0.19691000890E+01 -0.22289176834E+00  0.28649483293E+02  0.28717937406E+02  0.00000000000E+00 0.  1.
</event>
<event>
 7    1  0.2425980E-008  0.4614232E+02  0.7816164E-02  0.1320468E+00
        -11   -1    0    0    0    0  0.00000000000E+00  0.00000000000E+00  0.45593999997E+02  0.45594000000E+02  0.51100000000E-03 0.  1.
         11   -1    0    0    0    0 -0.00000000000E+00 -0.00000000000E+00 -0.45593999997E+02  0.45594000000E+02  0.51100000000E-03 0. -1.
    9900012    2    1    2    0    0  0.10813227990E+02  0.68485527204E+01  0.43188941176E+02  0.46142320808E+02  0.10000027786E+02 0.  0.
         12    1    1    2    0    0 -0.10813227990E+02 -0.68485527204E+01 -0.43188941176E+02  0.45045679192E+02  0.00000000000E+00 0. -1.
         11    1    3    3    0    0  0.43110559796E+01  0.23618827411E+01  0.76605667720E+01  0.91020864241E+01  0.51100000000E-03 0. -1.
        -11    1    3    3    0    0  0.38823758174E+01  0.61185132777E+01  0.21937867669E+02  0.23103659555E+02  0.51100000000E-03 0.  1.
        -12    1    3    3    0    0  0.26197961926E+01 -0.16318432983E+01  0.13590506736E+02  0.13936574829E+02  0.00000000000E+00 0.  1.
</event>
<event>
 7    1  0.2425980E-008  0.4614232E+02  0.7816164E-02  0.1320468E+00
        -11   -1    0    0    0    0  0.00000000000E+00  0.00000000000E+00  0.45593999997E+02  0.45594000000E+02  0.51100000000E-03 0.  1.
         11   -1    0    0    0    0 -0.00000000000E+00 -0.00000000000E+00 -0.45593999997E+02  0.45594000000E+02  0.51100000000E-03 0. -1.
    9900012    2    1    2    0    0  0.35176590913E+02 -0.18767820757E+02  0.20964012720E+02  0.46142317925E+02  0.10000001498E+02 0.  0.
         12    1    1    2    0    0 -0.35176590913E+02  0.18767820757E+02 -0.20964012720E+02  0.45045682075E+02  0.00000000000E+00 0. -1.
         11    1    3    3    0    0  0.90390380789E+01 -0.29523078350E+01  0.34287970263E+01  0.10108262969E+02  0.51100000000E-03 0. -1.
        -11    1    3    3    0    0  0.15535906452E+02 -0.85248022864E+01  0.58737191100E+01  0.18669151554E+02  0.51100000000E-03 0.  1.
         12    1    3    3    0    0  0.10601646382E+02 -0.72907106354E+01  0.11661496584E+02  0.17364903402E+02  0.00000000000E+00 0. -1.
</event>
<event>
 7    1  0.2425980E-008  0.4614232E+02  0.7816164E-02  0.1320468E+00
        -11   -1    0    0    0    0  0.00000000000E+00  0.00000000000E+00  0.45593999997E+02  0.45594000000E+02  0.51100000000E-03 0.  1.
         11   -1    0    0    0    0 -0.00000000000E+00 -0.00000000000E+00 -0.45593999997E+02  0.45594000000E+02  0.51100000000E-03 0. -1.
    9900012    2    1    2    0    0  0.64305596979E+01  0.44015289908E+02  0.71003945506E+01  0.46142318226E+02  0.10000004241E+02 0.  0.
         12    1    1    2    0    0 -0.64305596979E+01 -0.44015289908E+02 -0.71003945506E+01  0.45045681774E+02  0.00000000000E+00 0. -1.
         11    1    3    3    0    0 -0.39275977149E+00  0.50466090984E+00 -0.77808215738E+00  0.10071519135E+01  0.51100000000E-03 0. -1.
        -11    1    3    3    0    0  0.70913350614E+01  0.31711449669E+02  0.41533583361E+01  0.32759021029E+02  0.51100000000E-03 0.  1.
        -12    1    3    3    0    0 -0.26801559197E+00  0.11799179329E+02  0.37251183719E+01  0.12376145284E+02  0.00000000000E+00 0.  1.
</event>
<event>
 7    1  0.2425980E-008  0.4614231E+02  0.7816164E-02  0.1320468E+00
        -11   -1    0    0    0    0  0.00000000000E+00  0.00000000000E+00  0.45593999997E+02  0.45594000000E+02  0.51100000000E-03 0.  1.
         11   -1    0    0    0    0 -0.00000000000E+00 -0.00000000000E+00 -0.45593999997E+02  0.45594000000E+02  0.51100000000E-03 0. -1.
    9900012    2    1    2    0    0 -0.15751125355E+02 -0.36922892912E+02  0.20438112725E+02  0.46142307391E+02  0.99999054322E+01 0.  0.
         12    1    1    2    0    0  0.15751125355E+02  0.36922892912E+02 -0.20438112725E+02  0.45045692609E+02  0.00000000000E+00 0. -1.
         11    1    3    3    0    0  0.14168898327E+00 -0.16136800668E+00  0.11415392676E+01  0.11615625520E+01  0.51100000000E-03 0. -1.
        -11    1    3    3    0    0 -0.21306972452E+01 -0.58760149877E+01  0.59484816862E+01  0.86285489811E+01  0.51100000000E-03 0.  1.
        -12    1    3    3    0    0 -0.13762117093E+02 -0.30885509917E+02  0.13348091771E+02  0.36352195857E+02  0.00000000000E+00 0.  1.
</event>
<event>
 7    1  0.2425980E-008  0.4614232E+02  0.7816164E-02  0.1320468E+00
        -11   -1    0    0    0    0  0.00000000000E+00  0.00000000000E+00  0.45593999997E+02  0.45594000000E+02  0.51100000000E-03 0.  1.
         11   -1    0    0    0    0 -0.00000000000E+00 -0.00000000000E+00 -0.45593999997E+02  0.45594000000E+02  0.51100000000E-03 0. -1.
    9900012    2    1    2    0    0  0.23443295226E+02 -0.93192036007E+01  0.37318597025E+02  0.46142319511E+02  0.10000015959E+02 0.  0.
         12    1    1    2    0    0 -0.23443295226E+02  0.93192036007E+01 -0.37318597025E+02  0.45045680489E+02  0.00000000000E+00 0. -1.
         11    1    3    3    0    0  0.18260922928E+02 -0.80843984767E+01  0.27762558952E+02  0.34199100642E+02  0.51100000000E-03 0. -1.
        -11    1    3    3    0    0  0.60260142534E+01 -0.97000935339E+00  0.72719162680E+01  0.94939208128E+01  0.51100000000E-03 0.  1.
         12    1    3    3    0    0 -0.84364195550E+00 -0.26479577063E+00  0.22841218050E+01  0.24492980564E+01  0.00000000000E+00 0. -1.
</event>
<event>
 7    1  0.2425980E-008  0.4614231E+02  0.7816164E-02  0.1320468E+00
        -11   -1    0    0    0    0  0.00000000000E+00  0.00000000000E+00  0.45593999997E+02  0.45594000000E+02  0.51100000000E-03 0. -1.
         11   -1    0    0    0    0 -0.00000000000E+00 -0.00000000000E+00 -0.45593999997E+02  0.45594000000E+02  0.51100000000E-03 0.  1.
    9900012    2    1    2    0    0  0.33269440258E+02  0.13586746234E+02 -0.27159868351E+02  0.46142314556E+02  0.99999707721E+01 0.  0.
         12    1    1    2    0    0 -0.33269440258E+02 -0.13586746234E+02  0.27159868351E+02  0.45045685444E+02  0.00000000000E+00 0. -1.
         11    1    3    3    0    0  0.65694414062E+00 -0.74467261923E+00 -0.95556218972E+00  0.13781191071E+01  0.51100000000E-03 0. -1.
        -11    1    3    3    0    0  0.20811641191E+02  0.90893834003E+01 -0.12451490208E+02  0.25899438378E+02  0.51100000000E-03 0.  1.
        -12    1    3    3    0    0  0.11800854926E+02  0.52420354525E+01 -0.13752815954E+02  0.18864757071E+02  0.00000000000E+00 0.  1.
</event>
<event>
 7    1  0.2425980E-008  0.4614232E+02  0.7816164E-02  0.1320468E+00
        -11   -1    0    0    0    0  0.00000000000E+00  0.00000000000E+00  0.45593999997E+02  0.45594000000E+02  0.51100000000E-03 0.  1.
         11   -1    0    0    0    0 -0.00000000000E+00 -0.00000000000E+00 -0.45593999997E+02  0.45594000000E+02  0.51100000000E-03 0. -1.
    9900012    2    1    2    0    0  0.13313423809E+02  0.53880399413E+00  0.43029936809E+02  0.46142322904E+02  0.10000046896E+02 0.  0.
         12    1    1    2    0    0 -0.13313423809E+02 -0.53880399413E+00 -0.43029936809E+02  0.45045677096E+02  0.00000000000E+00 0. -1.
         11    1    3    3    0    0  0.31046005603E+01  0.12235645786E+01  0.48987298803E+01  0.59273273588E+01  0.51100000000E-03 0. -1.
        -11    1    3    3    0    0  0.42241399676E+01  0.37230700144E+00  0.28589395815E+02  0.28902171619E+02  0.51100000000E-03 0.  1.
         12    1    3    3    0    0  0.59846832810E+01 -0.10570675859E+01  0.95418111139E+01  0.11312823926E+02  0.00000000000E+00 0. -1.
</event>
<event>
 7    1  0.2425980E-008  0.4614232E+02  0.7816164E-02  0.1320468E+00
        -11   -1    0    0    0    0  0.00000000000E+00  0.00000000000E+00  0.45593999997E+02  0.45594000000E+02  0.51100000000E-03 0. -1.
         11   -1    0    0    0    0 -0.00000000000E+00 -0.00000000000E+00 -0.45593999997E+02  0.45594000000E+02  0.51100000000E-03 0.  1.
    9900012    2    1    2    0    0  0.22082566170E+02  0.38946821701E+02 -0.49617457912E+01  0.46142316849E+02  0.99999916822E+01 0.  0.
         12    1    1    2    0    0 -0.22082566170E+02 -0.38946821701E+02  0.49617457912E+01  0.45045683151E+02  0.00000000000E+00 0. -1.
         11    1    3    3    0    0  0.16678840817E+01  0.89775147649E+01 -0.28656846457E+01  0.95702537800E+01  0.51100000000E-03 0. -1.
        -11    1    3    3    0    0  0.80589937970E+01  0.10672293661E+02 -0.27321318187E+01  0.13649533968E+02  0.51100000000E-03 0.  1.
         12    1    3    3    0    0  0.12355688291E+02  0.19297013275E+02  0.63607067327E+00  0.22922529101E+02  0.00000000000E+00 0. -1.
</event>
<event>
 7    1  0.2425980E-008  0.4614232E+02  0.7816164E-02  0.1320468E+00
        -11   -1    0    0    0    0  0.00000000000E+00  0.00000000000E+00  0.45593999997E+02  0.45594000000E+02  0.51100000000E-03 0.  1.
         11   -1    0    0    0    0 -0.00000000000E+00 -0.00000000000E+00 -0.45593999997E+02  0.45594000000E+02  0.51100000000E-03 0. -1.
    9900012    2    1    2    0    0 -0.32621484471E+01 -0.17510362772E+02  0.41374618673E+02  0.46142317773E+02  0.10000000110E+02 0.  0.
         12    1    1    2    0    0  0.32621484471E+01  0.17510362772E+02 -0.41374618673E+02  0.45045682227E+02  0.00000000000E+00 0. -1.
         11    1    3    3    0    0 -0.37988736821E+01 -0.44395366699E+01  0.75870359184E+01  0.95762227096E+01  0.51100000000E-03 0. -1.
        -11    1    3    3    0    0  0.19498388034E+01 -0.85355270742E+01  0.17038516304E+02  0.19156412292E+02  0.51100000000E-03 0.  1.
         12    1    3    3    0    0 -0.14131135685E+01 -0.45352990281E+01  0.16749066451E+02  0.17409682771E+02  0.00000000000E+00 0. -1.
</event>
<event>
 7    1  0.2425980E-008  0.4614232E+02  0.7816164E-02  0.1320468E+00
        -11   -1    0    0    0    0  0.00000000000E+00  0.00000000000E+00  0.45593999997E+02  0.45594000000E+02  0.51100000000E-03 0.  1.
         11   -1    0    0    0    0 -0.00000000000E+00 -0.00000000000E+00 -0.45593999997E+02  0.45594000000E+02  0.51100000000E-03 0. -1.
    9900012    2    1    2    0    0 -0.22337161728E+02 -0.54602370038E+01  0.38734357992E+02  0.46142317951E+02  0.10000001730E+02 0.  0.
         12    1    1    2    0    0  0.22337161728E+02  0.54602370038E+01 -0.38734357992E+02  0.45045682049E+02  0.00000000000E+00 0. -1.
         11    1    3    3    0    0 -0.37952503324E+01 -0.23301449732E+01  0.26284710061E+01  0.51713016516E+01  0.51100000000E-03 0. -1.
        -11    1    3    3    0    0 -0.72752803173E+01 -0.11876942046E+01  0.19159297744E+02  0.20528492676E+02  0.51100000000E-03 0.  1.
         12    1    3    3    0    0 -0.11266631078E+02 -0.19423978260E+01  0.16946589242E+02  0.20442523624E+02  0.00000000000E+00 0. -1.
</event>
<event>
 7    1  0.2425980E-008  0.4614232E+02  0.7816164E-02  0.1320468E+00
        -11   -1    0    0    0    0  0.00000000000E+00  0.00000000000E+00  0.45593999997E+02  0.45594000000E+02  0.51100000000E-03 0.  1.
         11   -1    0    0    0    0 -0.00000000000E+00 -0.00000000000E+00 -0.45593999997E+02  0.45594000000E+02  0.51100000000E-03 0. -1.
    9900012    2    1    2    0    0  0.43123461932E+01 -0.41347884446E+02  0.17345582548E+02  0.46142321942E+02  0.10000038122E+02 0.  0.
         12    1    1    2    0    0 -0.43123461932E+01  0.41347884446E+02 -0.17345582548E+02  0.45045678058E+02  0.00000000000E+00 0. -1.
         11    1    3    3    0    0  0.50349925945E+01 -0.22391394430E+02  0.10349443043E+02  0.25176113014E+02  0.51100000000E-03 0. -1.
        -11    1    3    3    0    0 -0.13692367306E+01 -0.52790120028E+01  0.44497825301E+01  0.70387031317E+01  0.51100000000E-03 0.  1.
         12    1    3    3    0    0  0.64659032936E+00 -0.13677478013E+02  0.25463569743E+01  0.13927505796E+02  0.00000000000E+00 0. -1.
</event>
<event>
 7    1  0.2425980E-008  0.4614232E+02  0.7816164E-02  0.1320468E+00
        -11   -1    0    0    0    0  0.00000000000E+00  0.00000000000E+00  0.45593999997E+02  0.45594000000E+02  0.51100000000E-03 0.  1.
         11   -1    0    0    0    0 -0.00000000000E+00 -0.00000000000E+00 -0.45593999997E+02  0.45594000000E+02  0.51100000000E-03 0. -1.
    9900012    2    1    2    0    0  0.22758549642E+02 -0.20606481543E+02  0.32962628188E+02  0.46142317405E+02  0.99999967488E+01 0.  0.
         12    1    1    2    0    0 -0.22758549642E+02  0.20606481543E+02 -0.32962628188E+02  0.45045682595E+02  0.00000000000E+00 0. -1.
         11    1    3    3    0    0  0.86862496507E+01 -0.82292461697E+01  0.73203624668E+01  0.14027085671E+02  0.51100000000E-03 0. -1.
        -11    1    3    3    0    0  0.10266322609E+02 -0.89497718119E+01  0.21830597162E+02  0.25730735864E+02  0.51100000000E-03 0.  1.
        -12    1    3    3    0    0  0.38059773817E+01 -0.34274635617E+01  0.38116685599E+01  0.63844958695E+01  0.00000000000E+00 0.  1.
</event>
<event>
 7    1  0.2425980E-008  0.4614232E+02  0.7816164E-02  0.1320468E+00
        -11   -1    0    0    0    0  0.00000000000E+00  0.00000000000E+00  0.45593999997E+02  0.45594000000E+02  0.51100000000E-03 0.  1.
         11   -1    0    0    0    0 -0.00000000000E+00 -0.00000000000E+00 -0.45593999997E+02  0.45594000000E+02  0.51100000000E-03 0. -1.
    9900012    2    1    2    0    0 -0.12906156610E+02  0.10536296375E+02  0.41851297101E+02  0.46142317756E+02  0.99999999565E+01 0.  0.
         12    1    1    2    0    0  0.12906156610E+02 -0.10536296375E+02 -0.41851297101E+02  0.45045682244E+02  0.00000000000E+00 0. -1.
         11    1    3    3    0    0 -0.30100437571E+01  0.38722211312E+01  0.48484670888E+01  0.68965276249E+01  0.51100000000E-03 0. -1.
        -11    1    3    3    0    0 -0.26426902287E+01 -0.55649260224E+00  0.55994804347E+01  0.62167255900E+01  0.51100000000E-03 0.  1.
        -12    1    3    3    0    0 -0.72534226242E+01  0.72205678462E+01  0.31403349578E+02  0.33029064541E+02  0.00000000000E+00 0.  1.
</event>
<event>
 7    1  0.2425980E-008  0.4614232E+02  0.7816164E-02  0.1320468E+00
        -11   -1    0    0    0    0  0.00000000000E+00  0.00000000000E+00  0.45593999997E+02  0.45594000000E+02  0.51100000000E-03 0. -1.
         11   -1    0    0    0    0 -0.00000000000E+00 -0.00000000000E+00 -0.45593999997E+02  0.45594000000E+02  0.51100000000E-03 0.  1.
    9900012    2    1    2    0    0 -0.42726682196E+01 -0.10703100406E+02 -0.43546543219E+02  0.46142317873E+02  0.10000001016E+02 0.  0.
         12    1    1    2    0    0  0.42726682196E+01  0.10703100406E+02  0.43546543219E+02  0.45045682127E+02  0.00000000000E+00 0. -1.
         11    1    3    3    0    0 -0.33662609672E+01 -0.89383940508E+01 -0.40429231281E+02  0.41542139369E+02  0.51100000000E-03 0. -1.
        -11    1    3    3    0    0 -0.18031850353E+00 -0.38547181499E+00 -0.30076876351E+01  0.30376452154E+01  0.51100000000E-03 0.  1.
         12    1    3    3    0    0 -0.72608874894E+00 -0.13792345404E+01 -0.10962430253E+00  0.15625332881E+01  0.00000000000E+00 0. -1.
</event>
<event>
 7    1  0.2425980E-008  0.4614232E+02  0.7816164E-02  0.1320468E+00
        -11   -1    0    0    0    0  0.00000000000E+00  0.00000000000E+00  0.45593999997E+02  0.45594000000E+02  0.51100000000E-03 0.  1.
         11   -1    0    0    0    0 -0.00000000000E+00 -0.00000000000E+00 -0.45593999997E+02  0.45594000000E+02  0.51100000000E-03 0. -1.
    9900012    2    1    2    0    0 -0.24493625521E+02 -0.18782233655E+02  0.32808587858E+02  0.46142318415E+02  0.10000005962E+02 0.  0.
         12    1    1    2    0    0  0.24493625521E+02  0.18782233655E+02 -0.32808587858E+02  0.45045681585E+02  0.00000000000E+00 0. -1.
         11    1    3    3    0    0 -0.64716637424E+01 -0.75946668730E+01  0.73596998315E+01  0.12398652281E+02  0.51100000000E-03 0.  1.
        -11    1    3    3    0    0 -0.17700816715E+01 -0.15619846555E+00  0.53639203746E+01  0.56505954669E+01  0.51100000000E-03 0. -1.
        -12    1    3    3    0    0 -0.16251880107E+02 -0.11031368317E+02  0.20084967652E+02  0.28093070667E+02  0.00000000000E+00 0.  1.
</event>
<event>
 7    1  0.2425980E-008  0.4614232E+02  0.7816164E-02  0.1320468E+00
        -11   -1    0    0    0    0  0.00000000000E+00  0.00000000000E+00  0.45593999997E+02  0.45594000000E+02  0.51100000000E-03 0.  1.
         11   -1    0    0    0    0 -0.00000000000E+00 -0.00000000000E+00 -0.45593999997E+02  0.45594000000E+02  0.51100000000E-03 0. -1.
    9900012    2    1    2    0    0  0.34600823480E+02  0.26458877536E+02  0.11481484256E+02  0.46142315782E+02  0.99999819545E+01 0.  0.
         12    1    1    2    0    0 -0.34600823480E+02 -0.26458877536E+02 -0.11481484256E+02  0.45045684218E+02  0.00000000000E+00 0. -1.
         11    1    3    3    0    0  0.92357021146E+01  0.73195753560E+01  0.49359061496E+01  0.12776444995E+02  0.51100000000E-03 0. -1.
        -11    1    3    3    0    0  0.23034087661E+02  0.13866640881E+02  0.61941117136E+01  0.27590214640E+02  0.51100000000E-03 0.  1.
        -12    1    3    3    0    0  0.23310337043E+01  0.52726612985E+01  0.35146639228E+00  0.57756561466E+01  0.00000000000E+00 0.  1.
</event>
<event>
 7    1  0.2425980E-008  0.4614232E+02  0.7816164E-02  0.1320468E+00
        -11   -1    0    0    0    0  0.00000000000E+00  0.00000000000E+00  0.45593999997E+02  0.45594000000E+02  0.51100000000E-03 0.  1.
         11   -1    0    0    0    0 -0.00000000000E+00 -0.00000000000E+00 -0.45593999997E+02  0.45594000000E+02  0.51100000000E-03 0. -1.
    9900012    2    1    2    0    0 -0.40506088726E+02 -0.39944377550E+00  0.19703064395E+02  0.46142317346E+02  0.99999962130E+01 0.  0.
         12    1    1    2    0    0  0.40506088726E+02  0.39944377550E+00 -0.19703064395E+02  0.45045682654E+02  0.00000000000E+00 0. -1.
         11    1    3    3    0    0 -0.17438273549E+01  0.81810450646E+00  0.17162914394E+01  0.25799002681E+01  0.51100000000E-03 0. -1.
        -11    1    3    3    0    0 -0.31427352197E+02  0.18763147795E+01  0.16186901069E+02  0.35400773858E+02  0.51100000000E-03 0.  1.
        -12    1    3    3    0    0 -0.73349091747E+01 -0.30938630614E+01  0.17998718868E+01  0.81616432201E+01  0.00000000000E+00 0.  1.
</event>
<event>
 7    1  0.2425980E-008  0.4614231E+02  0.7816164E-02  0.1320468E+00
        -11   -1    0    0    0    0  0.00000000000E+00  0.00000000000E+00  0.45593999997E+02  0.45594000000E+02  0.51100000000E-03 0.  1.
         11   -1    0    0    0    0 -0.00000000000E+00 -0.00000000000E+00 -0.45593999997E+02  0.45594000000E+02  0.51100000000E-03 0. -1.
    9900012    2    1    2    0    0  0.36510616603E+02  0.18393063259E+00  0.26382850944E+02  0.46142314533E+02  0.99999705667E+01 0.  0.
         12    1    1    2    0    0 -0.36510616603E+02 -0.18393063259E+00 -0.26382850944E+02  0.45045685467E+02  0.00000000000E+00 0. -1.
         11    1    3    3    0    0  0.15530979840E+01 -0.81102272185E-01  0.38104455632E+01  0.41156028207E+01  0.51100000000E-03 0. -1.
        -11    1    3    3    0    0  0.13043785302E+02 -0.64217461014E+00  0.52370783022E+01  0.14070526381E+02  0.51100000000E-03 0.  1.
         12    1    3    3    0    0  0.21913733317E+02  0.90720751492E+00  0.17335327079E+02  0.27956185331E+02  0.00000000000E+00 0. -1.
</event>
<event>
 7    1  0.2425980E-008  0.4614232E+02  0.7816164E-02  0.1320468E+00
        -11   -1    0    0    0    0  0.00000000000E+00  0.00000000000E+00  0.45593999997E+02  0.45594000000E+02  0.51100000000E-03 0.  1.
         11   -1    0    0    0    0 -0.00000000000E+00 -0.00000000000E+00 -0.45593999997E+02  0.45594000000E+02  0.51100000000E-03 0. -1.
    9900012    2    1    2    0    0  0.18947348527E+01  0.23283342384E+02  0.38515054660E+02  0.46142317763E+02  0.10000000015E+02 0.  0.
         12    1    1    2    0    0 -0.18947348527E+01 -0.23283342384E+02 -0.38515054660E+02  0.45045682237E+02  0.00000000000E+00 0. -1.
         11    1    3    3    0    0  0.25668943235E+01  0.37489432117E+01  0.46715130533E+01  0.65166368735E+01  0.51100000000E-03 0. -1.
        -11    1    3    3    0    0 -0.32260366117E+01  0.10478587956E+02  0.15190471610E+02  0.18733887631E+02  0.51100000000E-03 0.  1.
         12    1    3    3    0    0  0.25538771408E+01  0.90558112161E+01  0.18653069997E+02  0.20891793259E+02  0.00000000000E+00 0. -1.
</event>
<event>
 7    1  0.2425980E-008  0.4614232E+02  0.7816164E-02  0.1320468E+00
        -11   -1    0    0    0    0  0.00000000000E+00  0.00000000000E+00  0.45593999997E+02  0.45594000000E+02  0.51100000000E-03 0. -1.
         11   -1    0    0    0    0 -0.00000000000E+00 -0.00000000000E+00 -0.45593999997E+02  0.45594000000E+02  0.51100000000E-03 0.  1.
    9900012    2    1    2    0    0  0.15814347177E+02 -0.17226678060E+02 -0.38500148425E+02  0.46142318272E+02  0.10000004659E+02 0.  0.
         12    1    1    2    0    0 -0.15814347177E+02  0.17226678060E+02  0.38500148425E+02  0.45045681728E+02  0.00000000000E+00 0. -1.
         11    1    3    3    0    0  0.17597438992E+01 -0.53262654084E+01 -0.12650840715E+02  0.13838698380E+02  0.51100000000E-03 0. -1.
        -11    1    3    3    0    0  0.10943337020E+01 -0.28871788187E+01 -0.74241946461E+01  0.80406488661E+01  0.51100000000E-03 0.  1.
         12    1    3    3    0    0  0.12960269576E+02 -0.90132338325E+01 -0.18425113063E+02  0.24262971026E+02  0.00000000000E+00 0. -1.
</event>
<event>
 7    1  0.2425980E-008  0.4614232E+02  0.7816164E-02  0.1320468E+00
        -11   -1    0    0    0    0  0.00000000000E+00  0.00000000000E+00  0.45593999997E+02  0.45594000000E+02  0.51100000000E-03 0. -1.
         11   -1    0    0    0    0 -0.00000000000E+00 -0.00000000000E+00 -0.45593999997E+02  0.45594000000E+02  0.51100000000E-03 0.  1.
    9900012    2    1    2    0    0 -0.32676553594E+02  0.23659501688E+02  0.20039566787E+02  0.46142318610E+02  0.10000007739E+02 0.  0.
         12    1    1    2    0    0  0.32676553594E+02 -0.23659501688E+02 -0.20039566787E+02  0.45045681390E+02  0.00000000000E+00 0. -1.
         11    1    3    3    0    0 -0.77046907969E+01  0.38793413598E+01  0.24761693205E+01  0.89745732170E+01  0.51100000000E-03 0. -1.
        -11    1    3    3    0    0 -0.13851225670E+02  0.73455616181E+01  0.11394742144E+02  0.19381792405E+02  0.51100000000E-03 0.  1.
        -12    1    3    3    0    0 -0.11120637127E+02  0.12434598710E+02  0.61686553226E+01  0.17785952988E+02  0.00000000000E+00 0.  1.
</event>
<event>
 7    1  0.2425980E-008  0.4614231E+02  0.7816164E-02  0.1320468E+00
        -11   -1    0    0    0    0  0.00000000000E+00  0.00000000000E+00  0.45593999997E+02  0.45594000000E+02  0.51100000000E-03 0.  1.
         11   -1    0    0    0    0 -0.00000000000E+00 -0.00000000000E+00 -0.45593999997E+02  0.45594000000E+02  0.51100000000E-03 0. -1.
    9900012    2    1    2    0    0 -0.13955963593E+02 -0.42644096194E+02 -0.39782391780E+01  0.46142309341E+02  0.99999232150E+01 0.  0.
         12    1    1    2    0    0  0.13955963593E+02  0.42644096194E+02  0.39782391780E+01  0.45045690659E+02  0.00000000000E+00 0. -1.
         11    1    3    3    0    0 -0.34866540666E+01 -0.31404076622E+01  0.11635821531E+01  0.48345465716E+01  0.51100000000E-03 0. -1.
        -11    1    3    3    0    0 -0.65482423970E+01 -0.19839558231E+02 -0.16784268789E+01  0.20959596044E+02  0.51100000000E-03 0.  1.
         12    1    3    3    0    0 -0.39210671295E+01 -0.19664130301E+02 -0.34633944521E+01  0.20348166725E+02  0.00000000000E+00 0. -1.
</event>
<event>
 7    1  0.2425980E-008  0.4614232E+02  0.7816164E-02  0.1320468E+00
        -11   -1    0    0    0    0  0.00000000000E+00  0.00000000000E+00  0.45593999997E+02  0.45594000000E+02  0.51100000000E-03 0. -1.
         11   -1    0    0    0    0 -0.00000000000E+00 -0.00000000000E+00 -0.45593999997E+02  0.45594000000E+02  0.51100000000E-03 0.  1.
    9900012    2    1    2    0    0 -0.40775140066E+02 -0.17576335597E+02  0.75877483109E+01  0.46142317134E+02  0.99999942847E+01 0.  0.
         12    1    1    2    0    0  0.40775140066E+02  0.17576335597E+02 -0.75877483109E+01  0.45045682866E+02  0.00000000000E+00 0. -1.
         11    1    3    3    0    0 -0.82727398062E+01 -0.69786586286E+01  0.31994183851E+00  0.10827846656E+02  0.51100000000E-03 0. -1.
        -11    1    3    3    0    0 -0.72269223864E+01 -0.19583004622E+01  0.37452586942E+01  0.83719956299E+01  0.51100000000E-03 0.  1.
        -12    1    3    3    0    0 -0.25275477873E+02 -0.86393765064E+01  0.35225477781E+01  0.26942474849E+02  0.00000000000E+00 0.  1.
</event>
<event>
 7    1  0.2425980E-008  0.4614232E+02  0.7816164E-02  0.1320468E+00
        -11   -1    0    0    0    0  0.00000000000E+00  0.00000000000E+00  0.45593999997E+02  0.45594000000E+02  0.51100000000E-03 0.  1.
         11   -1    0    0    0    0 -0.00000000000E+00 -0.00000000000E+00 -0.45593999997E+02  0.45594000000E+02  0.51100000000E-03 0. -1.
    9900012    2    1    2    0    0  0.27457017217E+02 -0.91175140631E+01  0.34526752000E+02  0.46142318067E+02  0.10000002792E+02 0.  0.
         12    1    1    2    0    0 -0.27457017217E+02  0.91175140631E+01 -0.34526752000E+02  0.45045681933E+02  0.00000000000E+00 0. -1.
         11    1    3    3    0    0  0.53050143598E+01  0.12965092343E+01  0.52288718110E+01  0.75607680979E+01  0.51100000000E-03 0. -1.
        -11    1    3    3    0    0  0.16802309226E+02 -0.97422354322E+01  0.25162950013E+02  0.31786833755E+02  0.51100000000E-03 0.  1.
        -12    1    3    3    0    0  0.53496936307E+01 -0.67178786517E+00  0.41349301759E+01  0.67947162146E+01  0.00000000000E+00 0.  1.
</event>
<event>
 7    1  0.2425980E-008  0.4614232E+02  0.7816164E-02  0.1320468E+00
        -11   -1    0    0    0    0  0.00000000000E+00  0.00000000000E+00  0.45593999997E+02  0.45594000000E+02  0.51100000000E-03 0.  1.
         11   -1    0    0    0    0 -0.00000000000E+00 -0.00000000000E+00 -0.45593999997E+02  0.45594000000E+02  0.51100000000E-03 0. -1.
    9900012    2    1    2    0    0 -0.31255734008E+02  0.60955986797E+01  0.31859635567E+02  0.46142316410E+02  0.99999876815E+01 0.  0.
         12    1    1    2    0    0  0.31255734008E+02 -0.60955986797E+01 -0.31859635567E+02  0.45045683590E+02  0.00000000000E+00 0. -1.
         11    1    3    3    0    0 -0.84067447413E+01  0.12517534028E+01  0.53522398925E+01  0.10044237943E+02  0.51100000000E-03 0.  1.
        -11    1    3    3    0    0 -0.16123536136E+01  0.16308352213E+01  0.46282097173E+00  0.23395536342E+01  0.51100000000E-03 0. -1.
        -12    1    3    3    0    0 -0.21236635653E+02  0.32130100556E+01  0.26044574702E+02  0.33758524833E+02  0.00000000000E+00 0.  1.
</event>
<event>
 7    1  0.2425980E-008  0.4614232E+02  0.7816164E-02  0.1320468E+00
        -11   -1    0    0    0    0  0.00000000000E+00  0.00000000000E+00  0.45593999997E+02  0.45594000000E+02  0.51100000000E-03 0.  1.
         11   -1    0    0    0    0 -0.00000000000E+00 -0.00000000000E+00 -0.45593999997E+02  0.45594000000E+02  0.51100000000E-03 0. -1.
    9900012    2    1    2    0    0 -0.44006900898E+02  0.87768226611E+01 -0.39336362735E+01  0.46142318332E+02  0.10000005202E+02 0.  0.
         12    1    1    2    0    0  0.44006900898E+02 -0.87768226611E+01  0.39336362735E+01  0.45045681668E+02  0.00000000000E+00 0. -1.
         11    1    3    3    0    0 -0.76181811543E+00 -0.10088179468E+01  0.52208617604E+00  0.13677188041E+01  0.51100000000E-03 0. -1.
        -11    1    3    3    0    0 -0.66661528595E+01  0.18379519640E+01 -0.22719677454E+01  0.72785643546E+01  0.51100000000E-03 0.  1.
        -12    1    3    3    0    0 -0.36578929923E+02  0.79476886439E+01 -0.21837547042E+01  0.37496035173E+02  0.00000000000E+00 0.  1.
</event>
<event>
 7    1  0.2425980E-008  0.4614232E+02  0.7816164E-02  0.1320468E+00
        -11   -1    0    0    0    0  0.00000000000E+00  0.00000000000E+00  0.45593999997E+02  0.45594000000E+02  0.51100000000E-03 0. -1.
         11   -1    0    0    0    0 -0.00000000000E+00 -0.00000000000E+00 -0.45593999997E+02  0.45594000000E+02  0.51100000000E-03 0.  1.
    9900012    2    1    2    0    0 -0.29808342227E+02 -0.32888680207E+02 -0.76753433205E+01  0.46142318218E+02  0.10000004167E+02 0.  0.
         12    1    1    2    0    0  0.29808342227E+02  0.32888680207E+02  0.76753433205E+01  0.45045681782E+02  0.00000000000E+00 0. -1.
         11    1    3    3    0    0 -0.20548752406E+01 -0.17886182402E+01 -0.24253528745E+01  0.36474654612E+01  0.51100000000E-03 0. -1.
        -11    1    3    3    0    0 -0.53968489624E+01 -0.90005421966E+01 -0.32894669062E+01  0.10998014882E+02  0.51100000000E-03 0.  1.
        -12    1    3    3    0    0 -0.22356618024E+02 -0.22099519771E+02 -0.19605235397E+01  0.31496837875E+02  0.00000000000E+00 0.  1.
</event>
<event>
 7    1  0.2425980E-008  0.4614232E+02  0.7816164E-02  0.1320468E+00
        -11   -1    0    0    0    0  0.00000000000E+00  0.00000000000E+00  0.45593999997E+02  0.45594000000E+02  0.51100000000E-03 0.  1.
         11   -1    0    0    0    0 -0.00000000000E+00 -0.00000000000E+00 -0.45593999997E+02  0.45594000000E+02  0.51100000000E-03 0. -1.
    9900012    2    1    2    0    0 -0.35937998915E+02  0.27129211995E+02  0.12568554247E+01  0.46142316577E+02  0.99999892033E+01 0.  0.
         12    1    1    2    0    0  0.35937998915E+02 -0.27129211995E+02 -0.12568554247E+01  0.45045683423E+02  0.00000000000E+00 0. -1.
         11    1    3    3    0    0  0.14818888501E+00  0.13773188168E+00  0.63805494933E+00  0.66936118528E+00  0.51100000000E-03 0. -1.
        -11    1    3    3    0    0 -0.10837582475E+02  0.86606665382E+01  0.29558891183E+01  0.14184414670E+02  0.51100000000E-03 0.  1.
         12    1    3    3    0    0 -0.25248605325E+02  0.18330813575E+02 -0.23370886429E+01  0.31288540722E+02  0.00000000000E+00 0. -1.
</event>
<event>
 7    1  0.2425980E-008  0.4614232E+02  0.7816164E-02  0.1320468E+00
        -11   -1    0    0    0    0  0.00000000000E+00  0.00000000000E+00  0.45593999997E+02  0.45594000000E+02  0.51100000000E-03 0.  1.
         11   -1    0    0    0    0 -0.00000000000E+00 -0.00000000000E+00 -0.45593999997E+02  0.45594000000E+02  0.51100000000E-03 0. -1.
    9900012    2    1    2    0    0  0.31960386745E+02  0.31180731749E+02  0.59505471865E+01  0.46142319129E+02  0.10000012478E+02 0.  0.
         12    1    1    2    0    0 -0.31960386745E+02 -0.31180731749E+02 -0.59505471865E+01  0.45045680871E+02  0.00000000000E+00 0. -1.
         11    1    3    3    0    0  0.98591433944E+01  0.13589611267E+02  0.49306569954E+01  0.17498331964E+02  0.51100000000E-03 0. -1.
        -11    1    3    3    0    0  0.15938213628E+01  0.27250881132E+01 -0.77783339854E+00  0.32513684532E+01  0.51100000000E-03 0.  1.
        -12    1    3    3    0    0  0.20507421987E+02  0.14866032369E+02  0.17977235897E+01  0.25392618712E+02  0.00000000000E+00 0.  1.
</event>
<event>
 7    1  0.2425980E-008  0.4614232E+02  0.7816164E-02  0.1320468E+00
        -11   -1    0    0    0    0  0.00000000000E+00  0.00000000000E+00  0.45593999997E+02  0.45594000000E+02  0.51100000000E-03 0.  1.
         11   -1    0    0    0    0 -0.00000000000E+00 -0.00000000000E+00 -0.45593999997E+02  0.45594000000E+02  0.51100000000E-03 0. -1.
    9900012    2    1    2    0    0 -0.66224224827E+01 -0.33175055494E+02  0.29743449394E+02  0.46142316872E+02  0.99999918957E+01 0.  0.
         12    1    1    2    0    0  0.66224224827E+01  0.33175055494E+02 -0.29743449394E+02  0.45045683128E+02  0.00000000000E+00 0. -1.
         11    1    3    3    0    0  0.97150126777E+00 -0.54903159558E+00  0.92115825876E+00  0.14469910867E+01  0.51100000000E-03 0. -1.
        -11    1    3    3    0    0  0.40772255432E+00 -0.12381574500E+02  0.10129301391E+02  0.16002261456E+02  0.51100000000E-03 0.  1.
        -12    1    3    3    0    0 -0.80016463048E+01 -0.20244449399E+02  0.18692989745E+02  0.28693064330E+02  0.00000000000E+00 0.  1.
</event>
<event>
 7    1  0.2425980E-008  0.4614232E+02  0.7816164E-02  0.1320468E+00
        -11   -1    0    0    0    0  0.00000000000E+00  0.00000000000E+00  0.45593999997E+02  0.45594000000E+02  0.51100000000E-03 0.  1.
         11   -1    0    0    0    0 -0.00000000000E+00 -0.00000000000E+00 -0.45593999997E+02  0.45594000000E+02  0.51100000000E-03 0. -1.
    9900012    2    1    2    0    0  0.41962267793E+01  0.24126890331E+02  0.37807387104E+02  0.46142315680E+02  0.99999810263E+01 0.  0.
         12    1    1    2    0    0 -0.41962267793E+01 -0.24126890331E+02 -0.37807387104E+02  0.45045684320E+02  0.00000000000E+00 0. -1.
         11    1    3    3    0    0 -0.21038785600E+01  0.51192142622E+01  0.39564554901E+01  0.68033962080E+01  0.51100000000E-03 0. -1.
        -11    1    3    3    0    0  0.27581587716E+01  0.70953174763E+01  0.12645899409E+02  0.14760411309E+02  0.51100000000E-03 0.  1.
         12    1    3    3    0    0  0.35419465677E+01  0.11912358592E+02  0.21205032205E+02  0.24578508163E+02  0.00000000000E+00 0. -1.
</event>
<event>
 7    1  0.2425980E-008  0.4614232E+02  0.7816164E-02  0.1320468E+00
        -11   -1    0    0    0    0  0.00000000000E+00  0.00000000000E+00  0.45593999997E+02  0.45594000000E+02  0.51100000000E-03 0.  1.
         11   -1    0    0    0    0 -0.00000000000E+00 -0.00000000000E+00 -0.45593999997E+02  0.45594000000E+02  0.51100000000E-03 0. -1.
    9900012    2    1    2    0    0  0.34846780405E+02 -0.23225903528E+01  0.28450321461E+02  0.46142319610E+02  0.10000016863E+02 0.  0.
         12    1    1    2    0    0 -0.34846780405E+02  0.23225903528E+01 -0.28450321461E+02  0.45045680390E+02  0.00000000000E+00 0. -1.
         11    1    3    3    0    0  0.79544961272E+01  0.10737201716E+01  0.43423998460E+01  0.91259695555E+01  0.51100000000E-03 0. -1.
        -11    1    3    3    0    0  0.40039493433E+01  0.79739122878E+00  0.71138509231E+01  0.82020923143E+01  0.51100000000E-03 0.  1.
        -12    1    3    3    0    0  0.22888334935E+02 -0.41937017532E+01  0.16994070692E+02  0.28814257741E+02  0.00000000000E+00 0.  1.
</event>
<event>
 7    1  0.2425980E-008  0.4614232E+02  0.7816164E-02  0.1320468E+00
        -11   -1    0    0    0    0  0.00000000000E+00  0.00000000000E+00  0.45593999997E+02  0.45594000000E+02  0.51100000000E-03 0.  1.
         11   -1    0    0    0    0 -0.00000000000E+00 -0.00000000000E+00 -0.45593999997E+02  0.45594000000E+02  0.51100000000E-03 0. -1.
    9900012    2    1    2    0    0 -0.28998714749E+02  0.26302480765E+02  0.22279307513E+02  0.46142317690E+02  0.99999993535E+01 0.  0.
         12    1    1    2    0    0  0.28998714749E+02 -0.26302480765E+02 -0.22279307513E+02  0.45045682310E+02  0.00000000000E+00 0. -1.
         11    1    3    3    0    0 -0.13140770380E+02  0.96593282026E+01  0.73614532933E+01  0.17893391583E+02  0.51100000000E-03 0. -1.
        -11    1    3    3    0    0 -0.11541519671E+02  0.98014770071E+01  0.12948073355E+02  0.19923057790E+02  0.51100000000E-03 0.  1.
        -12    1    3    3    0    0 -0.43164246985E+01  0.68416755549E+01  0.19697808651E+01  0.83258683171E+01  0.00000000000E+00 0.  1.
</event>
<event>
 7    1  0.2425980E-008  0.4614232E+02  0.7816164E-02  0.1320468E+00
        -11   -1    0    0    0    0  0.00000000000E+00  0.00000000000E+00  0.45593999997E+02  0.45594000000E+02  0.51100000000E-03 0.  1.
         11   -1    0    0    0    0 -0.00000000000E+00 -0.00000000000E+00 -0.45593999997E+02  0.45594000000E+02  0.51100000000E-03 0. -1.
    9900012    2    1    2    0    0  0.32176863976E+01 -0.39137299700E+02  0.22068793340E+02  0.46142319041E+02  0.10000011673E+02 0.  0.
         12    1    1    2    0    0 -0.32176863976E+01  0.39137299700E+02 -0.22068793340E+02  0.45045680959E+02  0.00000000000E+00 0. -1.
         11    1    3    3    0    0 -0.21303711907E+01 -0.13216935213E+02  0.57571042503E+01  0.14572923778E+02  0.51100000000E-03 0. -1.
        -11    1    3    3    0    0 -0.58326844194E+00 -0.10293881132E+02  0.64910267349E+01  0.12183497822E+02  0.51100000000E-03 0.  1.
        -12    1    3    3    0    0  0.59313260302E+01 -0.15626483355E+02  0.98206623544E+01  0.19385897441E+02  0.00000000000E+00 0.  1.
</event>
<event>
 7    1  0.2425980E-008  0.4614232E+02  0.7816164E-02  0.1320468E+00
        -11   -1    0    0    0    0  0.00000000000E+00  0.00000000000E+00  0.45593999997E+02  0.45594000000E+02  0.51100000000E-03 0. -1.
         11   -1    0    0    0    0 -0.00000000000E+00 -0.00000000000E+00 -0.45593999997E+02  0.45594000000E+02  0.51100000000E-03 0.  1.
    9900012    2    1    2    0    0 -0.42078765146E+02 -0.72448073662E+01 -0.14352826302E+02  0.46142319487E+02  0.10000015739E+02 0.  0.
         12    1    1    2    0    0  0.42078765146E+02  0.72448073662E+01  0.14352826302E+02  0.45045680513E+02  0.00000000000E+00 0. -1.
         11    1    3    3    0    0 -0.14010733659E+01 -0.52193294738E+00 -0.18743910488E+01  0.23976577410E+01  0.51100000000E-03 0.  1.
        -11    1    3    3    0    0 -0.18715451547E+02 -0.62398967573E+01 -0.36167341725E+01  0.20057048748E+02  0.51100000000E-03 0. -1.
        -12    1    3    3    0    0 -0.21962240234E+02 -0.48297766151E+00 -0.88617010806E+01  0.23687612998E+02  0.00000000000E+00 0.  1.
</event>
<event>
 7    1  0.2425980E-008  0.4614232E+02  0.7816164E-02  0.1320468E+00
        -11   -1    0    0    0    0  0.00000000000E+00  0.00000000000E+00  0.45593999997E+02  0.45594000000E+02  0.51100000000E-03 0. -1.
         11   -1    0    0    0    0 -0.00000000000E+00 -0.00000000000E+00 -0.45593999997E+02  0.45594000000E+02  0.51100000000E-03 0.  1.
    9900012    2    1    2    0    0  0.31924699754E+02 -0.31423365455E+02 -0.47433258434E+01  0.46142317733E+02  0.99999997397E+01 0.  0.
         12    1    1    2    0    0 -0.31924699754E+02  0.31423365455E+02  0.47433258434E+01  0.45045682267E+02  0.00000000000E+00 0. -1.
         11    1    3    3    0    0  0.55904785318E+01 -0.99418930902E+01  0.74658686028E+00  0.11430314109E+02  0.51100000000E-03 0. -1.
        -11    1    3    3    0    0  0.13691286119E+02 -0.13612024235E+02 -0.19471023299E+01  0.19404373917E+02  0.51100000000E-03 0.  1.
         12    1    3    3    0    0  0.12642935103E+02 -0.78694481294E+01 -0.35428103738E+01  0.15307629706E+02  0.00000000000E+00 0. -1.
</event>
<event>
 7    1  0.2425980E-008  0.4614231E+02  0.7816164E-02  0.1320468E+00
        -11   -1    0    0    0    0  0.00000000000E+00  0.00000000000E+00  0.45593999997E+02  0.45594000000E+02  0.51100000000E-03 0. -1.
         11   -1    0    0    0    0 -0.00000000000E+00 -0.00000000000E+00 -0.45593999997E+02  0.45594000000E+02  0.51100000000E-03 0.  1.
    9900012    2    1    2    0    0  0.92638356230E+01 -0.33131579355E+02 -0.29079091891E+02  0.46142314455E+02  0.99999698544E+01 0.  0.
         12    1    1    2    0    0 -0.92638356230E+01  0.33131579355E+02  0.29079091891E+02  0.45045685545E+02  0.00000000000E+00 0. -1.
         11    1    3    3    0    0  0.50526076508E+01 -0.14727925439E+02 -0.10506099139E+02  0.18783470158E+02  0.51100000000E-03 0.  1.
        -11    1    3    3    0    0  0.54427351660E+01 -0.17980745152E+02 -0.17377675182E+02  0.25591290653E+02  0.51100000000E-03 0. -1.
         12    1    3    3    0    0 -0.12315071938E+01 -0.42290876431E+00 -0.11953175708E+01  0.17675536446E+01  0.00000000000E+00 0. -1.
</event>
<event>
 7    1  0.2425980E-008  0.4614232E+02  0.7816164E-02  0.1320468E+00
        -11   -1    0    0    0    0  0.00000000000E+00  0.00000000000E+00  0.45593999997E+02  0.45594000000E+02  0.51100000000E-03 0. -1.
         11   -1    0    0    0    0 -0.00000000000E+00 -0.00000000000E+00 -0.45593999997E+02  0.45594000000E+02  0.51100000000E-03 0.  1.
    9900012    2    1    2    0    0 -0.39994546581E+02 -0.11258786660E+02 -0.17400846081E+02  0.46142317880E+02  0.10000001086E+02 0.  0.
         12    1    1    2    0    0  0.39994546581E+02  0.11258786660E+02  0.17400846081E+02  0.45045682120E+02  0.00000000000E+00 0. -1.
         11    1    3    3    0    0 -0.24826670721E+01 -0.16575742615E+01 -0.38141531172E+01  0.48434442792E+01  0.51100000000E-03 0. -1.
        -11    1    3    3    0    0 -0.69796666143E+01 -0.18622361665E+00 -0.33807183789E+01  0.77575564646E+01  0.51100000000E-03 0.  1.
         12    1    3    3    0    0 -0.30532212895E+02 -0.94149887818E+01 -0.10205974585E+02  0.33541317136E+02  0.00000000000E+00 0. -1.
</event>
<event>
 7    1  0.2425980E-008  0.4614232E+02  0.7816164E-02  0.1320468E+00
        -11   -1    0    0    0    0  0.00000000000E+00  0.00000000000E+00  0.45593999997E+02  0.45594000000E+02  0.51100000000E-03 0.  1.
         11   -1    0    0    0    0 -0.00000000000E+00 -0.00000000000E+00 -0.45593999997E+02  0.45594000000E+02  0.51100000000E-03 0. -1.
    9900012    2    1    2    0    0  0.35225579743E+02  0.26290504238E+02  0.98529918888E+01  0.46142317294E+02  0.99999957367E+01 0.  0.
         12    1    1    2    0    0 -0.35225579743E+02 -0.26290504238E+02 -0.98529918888E+01  0.45045682706E+02  0.00000000000E+00 0. -1.
         11    1    3    3    0    0 -0.29960242323E+00  0.69883301889E+00 -0.37814396731E+00  0.84918921415E+00  0.51100000000E-03 0. -1.
        -11    1    3    3    0    0  0.20336573673E+02  0.11325125533E+02  0.58003239459E+01  0.23989132023E+02  0.51100000000E-03 0.  1.
         12    1    3    3    0    0  0.15188608494E+02  0.14266545686E+02  0.44308119102E+01  0.21303996056E+02  0.00000000000E+00 0. -1.
</event>
<event>
 7    1  0.2425980E-008  0.4614232E+02  0.7816164E-02  0.1320468E+00
        -11   -1    0    0    0    0  0.00000000000E+00  0.00000000000E+00  0.45593999997E+02  0.45594000000E+02  0.51100000000E-03 0.  1.
         11   -1    0    0    0    0 -0.00000000000E+00 -0.00000000000E+00 -0.45593999997E+02  0.45594000000E+02  0.51100000000E-03 0. -1.
    9900012    2    1    2    0    0 -0.27633935045E+02 -0.32501320745E+02  0.14461788715E+02  0.46142317087E+02  0.99999938567E+01 0.  0.
         12    1    1    2    0    0  0.27633935045E+02  0.32501320745E+02 -0.14461788715E+02  0.45045682913E+02  0.00000000000E+00 0. -1.
         11    1    3    3    0    0 -0.15750042284E+02 -0.18236139124E+02  0.96003521524E+01  0.25938144957E+02  0.51100000000E-03 0.  1.
        -11    1    3    3    0    0 -0.10312075563E+02 -0.84401268399E+01  0.48199796183E+01  0.14170633270E+02  0.51100000000E-03 0. -1.
         12    1    3    3    0    0 -0.15718171988E+01 -0.58250547810E+01  0.41456943838E-01  0.60335388610E+01  0.00000000000E+00 0. -1.
</event>
<event>
 7    1  0.2425980E-008  0.4614232E+02  0.7816164E-02  0.1320468E+00
        -11   -1    0    0    0    0  0.00000000000E+00  0.00000000000E+00  0.45593999997E+02  0.45594000000E+02  0.51100000000E-03 0. -1.
         11   -1    0    0    0    0 -0.00000000000E+00 -0.00000000000E+00 -0.45593999997E+02  0.45594000000E+02  0.51100000000E-03 0.  1.
    9900012    2    1    2    0    0 -0.12903877381E+01 -0.32869085512E+02 -0.30774528709E+02  0.46142317630E+02  0.99999988080E+01 0.  0.
         12    1    1    2    0    0  0.12903877381E+01  0.32869085512E+02  0.30774528709E+02  0.45045682370E+02  0.00000000000E+00 0. -1.
         11    1    3    3    0    0  0.40614540816E+01 -0.15960566151E+02 -0.14914734559E+02  0.22219009617E+02  0.51100000000E-03 0. -1.
        -11    1    3    3    0    0 -0.16063950099E+01 -0.87668279962E+01 -0.71504252428E+01  0.11426563764E+02  0.51100000000E-03 0.  1.
        -12    1    3    3    0    0 -0.37454468098E+01 -0.81416913646E+01 -0.87093689071E+01  0.12496744250E+02  0.00000000000E+00 0.  1.
</event>
<event>
 7    1  0.2425980E-008  0.4614232E+02  0.7816164E-02  0.1320468E+00
        -11   -1    0    0    0    0  0.00000000000E+00  0.00000000000E+00  0.45593999997E+02  0.45594000000E+02  0.51100000000E-03 0.  1.
         11   -1    0    0    0    0 -0.00000000000E+00 -0.00000000000E+00 -0.45593999997E+02  0.45594000000E+02  0.51100000000E-03 0. -1.
    9900012    2    1    2    0    0  0.49458958721E+01 -0.15193362601E+02  0.42116663976E+02  0.46142317215E+02  0.99999950185E+01 0.  0.
         12    1    1    2    0    0 -0.49458958721E+01  0.15193362601E+02 -0.42116663976E+02  0.45045682785E+02  0.00000000000E+00 0. -1.
         11    1    3    3    0    0 -0.24685589186E+01 -0.12946685297E+01  0.53710115225E+01  0.60512572886E+01  0.51100000000E-03 0. -1.
        -11    1    3    3    0    0  0.26901611183E+01 -0.42329724718E+01  0.15247049834E+02  0.16050780408E+02  0.51100000000E-03 0.  1.
         12    1    3    3    0    0  0.47242936723E+01 -0.96657215991E+01  0.21498602619E+02  0.24040279518E+02  0.00000000000E+00 0. -1.
</event>
<event>
 7    1  0.2425980E-008  0.4614232E+02  0.7816164E-02  0.1320468E+00
        -11   -1    0    0    0    0  0.00000000000E+00  0.00000000000E+00  0.45593999997E+02  0.45594000000E+02  0.51100000000E-03 0.  1.
         11   -1    0    0    0    0 -0.00000000000E+00 -0.00000000000E+00 -0.45593999997E+02  0.45594000000E+02  0.51100000000E-03 0. -1.
    9900012    2    1    2    0    0  0.22882572488E+02 -0.14395167211E+02  0.36031661301E+02  0.46142316757E+02  0.99999908425E+01 0.  0.
         12    1    1    2    0    0 -0.22882572488E+02  0.14395167211E+02 -0.36031661301E+02  0.45045683243E+02  0.00000000000E+00 0. -1.
         11    1    3    3    0    0 -0.16090937925E+00 -0.97843722306E+00  0.87749628529E+00  0.13240963785E+01  0.51100000000E-03 0. -1.
        -11    1    3    3    0    0  0.16977077011E+02 -0.12998651949E+02  0.24226958362E+02  0.32313025362E+02  0.51100000000E-03 0.  1.
         12    1    3    3    0    0  0.60664048566E+01 -0.41807803872E+00  0.10927206654E+02  0.12505195016E+02  0.00000000000E+00 0. -1.
</event>
<event>
 7    1  0.2425980E-008  0.4614232E+02  0.7816164E-02  0.1320468E+00
        -11   -1    0    0    0    0  0.00000000000E+00  0.00000000000E+00  0.45593999997E+02  0.45594000000E+02  0.51100000000E-03 0.  1.
         11   -1    0    0    0    0 -0.00000000000E+00 -0.00000000000E+00 -0.45593999997E+02  0.45594000000E+02  0.51100000000E-03 0. -1.
    9900012    2    1    2    0    0  0.23104636652E+02  0.29333571166E+02  0.25195849688E+02  0.46142317924E+02  0.10000001484E+02 0.  0.
         12    1    1    2    0    0 -0.23104636652E+02 -0.29333571166E+02 -0.25195849688E+02  0.45045682076E+02  0.00000000000E+00 0. -1.
         11    1    3    3    0    0  0.57060428478E+01  0.12538109234E+02  0.64789577702E+01  0.15223008973E+02  0.51100000000E-03 0. -1.
        -11    1    3    3    0    0  0.40668241216E+01  0.67421681918E+01  0.68248529809E+01  0.10419909253E+02  0.51100000000E-03 0.  1.
        -12    1    3    3    0    0  0.13331769683E+02  0.10053293741E+02  0.11892038937E+02  0.20499399698E+02  0.00000000000E+00 0.  1.
</event>
<event>
 7    1  0.2425980E-008  0.4614232E+02  0.7816164E-02  0.1320468E+00
        -11   -1    0    0    0    0  0.00000000000E+00  0.00000000000E+00  0.45593999997E+02  0.45594000000E+02  0.51100000000E-03 0. -1.
         11   -1    0    0    0    0 -0.00000000000E+00 -0.00000000000E+00 -0.45593999997E+02  0.45594000000E+02  0.51100000000E-03 0.  1.
    9900012    2    1    2    0    0  0.21731951510E+02  0.31115524107E+01 -0.39333880066E+02  0.46142316568E+02  0.99999891187E+01 0.  0.
         12    1    1    2    0    0 -0.21731951510E+02 -0.31115524107E+01  0.39333880066E+02  0.45045683432E+02  0.00000000000E+00 0. -1.
         11    1    3    3    0    0  0.83599995914E+00  0.17652856611E+01 -0.50882512562E+01  0.54502688470E+01  0.51100000000E-03 0. -1.
        -11    1    3    3    0    0  0.43311943607E+01 -0.45714312734E-01 -0.13082863049E+02  0.13781242332E+02  0.51100000000E-03 0.  1.
         12    1    3    3    0    0  0.16564757190E+02  0.13919810623E+01 -0.21162765761E+02  0.26910805389E+02  0.00000000000E+00 0. -1.
</event>
<event>
 7    1  0.2425980E-008  0.4614232E+02  0.7816164E-02  0.1320468E+00
        -11   -1    0    0    0    0  0.00000000000E+00  0.00000000000E+00  0.45593999997E+02  0.45594000000E+02  0.51100000000E-03 0. -1.
         11   -1    0    0    0    0 -0.00000000000E+00 -0.00000000000E+00 -0.45593999997E+02  0.45594000000E+02  0.51100000000E-03 0.  1.
    9900012    2    1    2    0    0 -0.45033741528E+02 -0.98770027492E+00 -0.31637985619E+00  0.46142317365E+02  0.99999963890E+01 0.  0.
         12    1    1    2    0    0  0.45033741528E+02  0.98770027492E+00  0.31637985619E+00  0.45045682635E+02  0.00000000000E+00 0. -1.
         11    1    3    3    0    0 -0.16642785678E+02  0.37307875268E+01  0.31830932988E+00  0.17058792800E+02  0.51100000000E-03 0.  1.
        -11    1    3    3    0    0 -0.28003636857E+01 -0.15371051180E+01 -0.80906997470E+00  0.32953487526E+01  0.51100000000E-03 0. -1.
        -12    1    3    3    0    0 -0.25590592164E+02 -0.31813826837E+01  0.17438078863E+00  0.25788175813E+02  0.00000000000E+00 0.  1.
</event>
<event>
 7    1  0.2425980E-008  0.4614232E+02  0.7816164E-02  0.1320468E+00
        -11   -1    0    0    0    0  0.00000000000E+00  0.00000000000E+00  0.45593999997E+02  0.45594000000E+02  0.51100000000E-03 0.  1.
         11   -1    0    0    0    0 -0.00000000000E+00 -0.00000000000E+00 -0.45593999997E+02  0.45594000000E+02  0.51100000000E-03 0. -1.
    9900012    2    1    2    0    0  0.19625383174E+02 -0.28443747156E+02  0.28894828534E+02  0.46142317265E+02  0.99999954787E+01 0.  0.
         12    1    1    2    0    0 -0.19625383174E+02  0.28443747156E+02 -0.28894828534E+02  0.45045682735E+02  0.00000000000E+00 0. -1.
         11    1    3    3    0    0  0.13093726436E+02 -0.15477161826E+02  0.15657852915E+02  0.25615553251E+02  0.51100000000E-03 0. -1.
        -11    1    3    3    0    0  0.44919573866E+01 -0.45561466783E+01  0.85682687451E+01  0.10693520621E+02  0.51100000000E-03 0.  1.
         12    1    3    3    0    0  0.20396993513E+01 -0.84104386523E+01  0.46687068734E+01  0.98332433935E+01  0.00000000000E+00 0. -1.
</event>
<event>
 7    1  0.2425980E-008  0.4614232E+02  0.7816164E-02  0.1320468E+00
        -11   -1    0    0    0    0  0.00000000000E+00  0.00000000000E+00  0.45593999997E+02  0.45594000000E+02  0.51100000000E-03 0. -1.
         11   -1    0    0    0    0 -0.00000000000E+00 -0.00000000000E+00 -0.45593999997E+02  0.45594000000E+02  0.51100000000E-03 0.  1.
    9900012    2    1    2    0    0  0.16477576680E+02 -0.38428606873E+02 -0.16758435617E+02  0.46142317368E+02  0.99999964165E+01 0.  0.
         12    1    1    2    0    0 -0.16477576680E+02  0.38428606873E+02  0.16758435617E+02  0.45045682632E+02  0.00000000000E+00 0. -1.
         11    1    3    3    0    0  0.13383869253E+01 -0.70603720108E+01 -0.33050947950E+01  0.79097271987E+01  0.51100000000E-03 0. -1.
        -11    1    3    3    0    0  0.25279007764E+01 -0.76487537842E+01  0.28305209743E+00  0.80606349339E+01  0.51100000000E-03 0.  1.
        -12    1    3    3    0    0  0.12611288978E+02 -0.23719481078E+02 -0.13736392919E+02  0.30171955236E+02  0.00000000000E+00 0.  1.
</event>
<event>
 7    1  0.2425980E-008  0.4614232E+02  0.7816164E-02  0.1320468E+00
        -11   -1    0    0    0    0  0.00000000000E+00  0.00000000000E+00  0.45593999997E+02  0.45594000000E+02  0.51100000000E-03 0.  1.
         11   -1    0    0    0    0 -0.00000000000E+00 -0.00000000000E+00 -0.45593999997E+02  0.45594000000E+02  0.51100000000E-03 0. -1.
    9900012    2    1    2    0    0 -0.39914337757E+01 -0.31431451844E+02  0.32019460158E+02  0.46142317217E+02  0.99999950374E+01 0.  0.
         12    1    1    2    0    0  0.39914337757E+01  0.31431451844E+02 -0.32019460158E+02  0.45045682783E+02  0.00000000000E+00 0. -1.
         11    1    3    3    0    0  0.86642674778E+00 -0.35442118466E+01  0.78850783737E+01  0.86883021439E+01  0.51100000000E-03 0. -1.
        -11    1    3    3    0    0 -0.21202254139E+01 -0.12755934721E+02  0.13888059155E+02  0.18975969376E+02  0.51100000000E-03 0.  1.
         12    1    3    3    0    0 -0.27376351095E+01 -0.15131305276E+02  0.10246322629E+02  0.18478045697E+02  0.00000000000E+00 0. -1.
</event>
<event>
 7    1  0.2425980E-008  0.4614232E+02  0.7816164E-02  0.1320468E+00
        -11   -1    0    0    0    0  0.00000000000E+00  0.00000000000E+00  0.45593999997E+02  0.45594000000E+02  0.51100000000E-03 0.  1.
         11   -1    0    0    0    0 -0.00000000000E+00 -0.00000000000E+00 -0.45593999997E+02  0.45594000000E+02  0.51100000000E-03 0. -1.
    9900012    2    1    2    0    0 -0.19707106381E+01 -0.35810877280E+01  0.44859843639E+02  0.46142318065E+02  0.10000002767E+02 0.  0.
         12    1    1    2    0    0  0.19707106381E+01  0.35810877280E+01 -0.44859843639E+02  0.45045681935E+02  0.00000000000E+00 0. -1.
         11    1    3    3    0    0  0.66655639271E+00 -0.25821794606E+01  0.70297318487E+01  0.75185822012E+01  0.51100000000E-03 0. -1.
        -11    1    3    3    0    0 -0.18460499976E+01 -0.22100302301E+01  0.50622860902E+01  0.58239913231E+01  0.51100000000E-03 0.  1.
        -12    1    3    3    0    0 -0.79121703313E+00  0.12111219627E+01  0.32767825700E+02  0.32799744540E+02  0.00000000000E+00 0.  1.
</event>
<event>
 7    1  0.2425980E-008  0.4614232E+02  0.7816164E-02  0.1320468E+00
        -11   -1    0    0    0    0  0.00000000000E+00  0.00000000000E+00  0.45593999997E+02  0.45594000000E+02  0.51100000000E-03 0. -1.
         11   -1    0    0    0    0 -0.00000000000E+00 -0.00000000000E+00 -0.45593999997E+02  0.45594000000E+02  0.51100000000E-03 0.  1.
    9900012    2    1    2    0    0  0.39756737139E+02  0.33332896570E+01  0.20914212485E+02  0.46142320388E+02  0.10000023955E+02 0.  0.
         12    1    1    2    0    0 -0.39756737139E+02 -0.33332896570E+01 -0.20914212485E+02  0.45045679612E+02  0.00000000000E+00 0. -1.
         11    1    3    3    0    0  0.61481415707E+01 -0.21608674038E+01  0.18991130580E+01  0.67879027232E+01  0.51100000000E-03 0.  1.
        -11    1    3    3    0    0  0.22184176596E+01  0.11887732027E+01  0.24719091952E+00  0.25289646600E+01  0.51100000000E-03 0. -1.
        -12    1    3    3    0    0  0.31390177908E+02  0.43053838582E+01  0.18767908507E+02  0.36825453005E+02  0.00000000000E+00 0.  1.
</event>
<event>
 7    1  0.2425980E-008  0.4614232E+02  0.7816164E-02  0.1320468E+00
        -11   -1    0    0    0    0  0.00000000000E+00  0.00000000000E+00  0.45593999997E+02  0.45594000000E+02  0.51100000000E-03 0.  1.
         11   -1    0    0    0    0 -0.00000000000E+00 -0.00000000000E+00 -0.45593999997E+02  0.45594000000E+02  0.51100000000E-03 0. -1.
    9900012    2    1    2    0    0  0.11046736052E+01  0.43027103555E+02  0.13287644195E+02  0.46142318383E+02  0.10000005672E+02 0.  0.
         12    1    1    2    0    0 -0.11046736052E+01 -0.43027103555E+02 -0.13287644195E+02  0.45045681617E+02  0.00000000000E+00 0. -1.
         11    1    3    3    0    0 -0.20361681191E+01  0.12801061020E+02  0.50641938836E+01  0.13916149029E+02  0.51100000000E-03 0. -1.
        -11    1    3    3    0    0  0.50623155204E+00  0.22798377168E+02  0.35925785142E+01  0.23085252706E+02  0.51100000000E-03 0.  1.
        -12    1    3    3    0    0  0.26346101722E+01  0.74276653669E+01  0.46308717971E+01  0.91409166479E+01  0.00000000000E+00 0.  1.
</event>
<event>
 7    1  0.2425980E-008  0.4614232E+02  0.7816164E-02  0.1320468E+00
        -11   -1    0    0    0    0  0.00000000000E+00  0.00000000000E+00  0.45593999997E+02  0.45594000000E+02  0.51100000000E-03 0. -1.
         11   -1    0    0    0    0 -0.00000000000E+00 -0.00000000000E+00 -0.45593999997E+02  0.45594000000E+02  0.51100000000E-03 0.  1.
    9900012    2    1    2    0    0 -0.38990253818E+02  0.19671259055E+02  0.11041516508E+02  0.46142318605E+02  0.10000007691E+02 0.  0.
         12    1    1    2    0    0  0.38990253818E+02 -0.19671259055E+02 -0.11041516508E+02  0.45045681395E+02  0.00000000000E+00 0. -1.
         11    1    3    3    0    0 -0.20660797868E+02  0.98608862312E+01  0.50947952866E+01  0.23453413080E+02  0.51100000000E-03 0. -1.
        -11    1    3    3    0    0 -0.15742099118E+02  0.10591910696E+02  0.40893188851E+01  0.19409399425E+02  0.51100000000E-03 0.  1.
         12    1    3    3    0    0 -0.25873568315E+01 -0.78153787197E+00  0.18574023366E+01  0.32795060998E+01  0.00000000000E+00 0. -1.
</event>
<event>
 7    1  0.2425980E-008  0.4614232E+02  0.7816164E-02  0.1320468E+00
        -11   -1    0    0    0    0  0.00000000000E+00  0.00000000000E+00  0.45593999997E+02  0.45594000000E+02  0.51100000000E-03 0. -1.
         11   -1    0    0    0    0 -0.00000000000E+00 -0.00000000000E+00 -0.45593999997E+02  0.45594000000E+02  0.51100000000E-03 0.  1.
    9900012    2    1    2    0    0 -0.37891658618E+02 -0.11230538929E+02 -0.21615059052E+02  0.46142316797E+02  0.99999912077E+01 0.  0.
         12    1    1    2    0    0  0.37891658618E+02  0.11230538929E+02  0.21615059052E+02  0.45045683203E+02  0.00000000000E+00 0. -1.
         11    1    3    3    0    0 -0.18769774859E+02 -0.69302165268E+01 -0.13131082296E+02  0.23932356171E+02  0.51100000000E-03 0. -1.
        -11    1    3    3    0    0 -0.18301000727E+02 -0.24086259141E+01 -0.77736432635E+01  0.20028919997E+02  0.51100000000E-03 0.  1.
         12    1    3    3    0    0 -0.82088303111E+00 -0.18916964879E+01 -0.71033349269E+00  0.21810406287E+01  0.00000000000E+00 0. -1.
</event>
<event>
 7    1  0.2425980E-008  0.4614232E+02  0.7816164E-02  0.1320468E+00
        -11   -1    0    0    0    0  0.00000000000E+00  0.00000000000E+00  0.45593999997E+02  0.45594000000E+02  0.51100000000E-03 0.  1.
         11   -1    0    0    0    0 -0.00000000000E+00 -0.00000000000E+00 -0.45593999997E+02  0.45594000000E+02  0.51100000000E-03 0. -1.
    9900012    2    1    2    0    0 -0.18302011407E+02  0.36051329442E+02  0.19860806006E+02  0.46142316619E+02  0.99999895861E+01 0.  0.
         12    1    1    2    0    0  0.18302011407E+02 -0.36051329442E+02 -0.19860806006E+02  0.45045683381E+02  0.00000000000E+00 0. -1.
         11    1    3    3    0    0 -0.23841911659E+01  0.34218618061E+01  0.56051923380E+01  0.69865361333E+01  0.51100000000E-03 0. -1.
        -11    1    3    3    0    0 -0.21245766881E+01  0.57115960786E+01  0.11935862565E+01  0.62097346386E+01  0.51100000000E-03 0.  1.
        -12    1    3    3    0    0 -0.13793243553E+02  0.26917871557E+02  0.13062027411E+02  0.32946045847E+02  0.00000000000E+00 0.  1.
</event>
<event>
 7    1  0.2425980E-008  0.4614232E+02  0.7816164E-02  0.1320468E+00
        -11   -1    0    0    0    0  0.00000000000E+00  0.00000000000E+00  0.45593999997E+02  0.45594000000E+02  0.51100000000E-03 0.  1.
         11   -1    0    0    0    0 -0.00000000000E+00 -0.00000000000E+00 -0.45593999997E+02  0.45594000000E+02  0.51100000000E-03 0. -1.
    9900012    2    1    2    0    0 -0.30399374788E+02 -0.13486054482E+02 -0.30382854943E+02  0.46142317327E+02  0.99999960446E+01 0.  0.
         12    1    1    2    0    0  0.30399374788E+02  0.13486054482E+02  0.30382854943E+02  0.45045682673E+02  0.00000000000E+00 0. -1.
         11    1    3    3    0    0 -0.75667212379E+01 -0.13105344744E+01 -0.44832052012E+01  0.88922381905E+01  0.51100000000E-03 0.  1.
        -11    1    3    3    0    0 -0.47314613730E+01 -0.53617251833E+01 -0.47205169575E+01  0.85684365127E+01  0.51100000000E-03 0. -1.
        -12    1    3    3    0    0 -0.18101192177E+02 -0.68137948241E+01 -0.21179132784E+02  0.28681642624E+02  0.00000000000E+00 0.  1.
</event>
<event>
 7    1  0.2425980E-008  0.4614232E+02  0.7816164E-02  0.1320468E+00
        -11   -1    0    0    0    0  0.00000000000E+00  0.00000000000E+00  0.45593999997E+02  0.45594000000E+02  0.51100000000E-03 0.  1.
         11   -1    0    0    0    0 -0.00000000000E+00 -0.00000000000E+00 -0.45593999997E+02  0.45594000000E+02  0.51100000000E-03 0. -1.
    9900012    2    1    2    0    0  0.30553751381E+01  0.85008068770E+01  0.44130652381E+02  0.46142317472E+02  0.99999973654E+01 0.  0.
         12    1    1    2    0    0 -0.30553751381E+01 -0.85008068770E+01 -0.44130652381E+02  0.45045682528E+02  0.00000000000E+00 0. -1.
         11    1    3    3    0    0 -0.71674596746E+00  0.14580652894E+01  0.11700747760E+01  0.20021874069E+01  0.51100000000E-03 0. -1.
        -11    1    3    3    0    0  0.42295020573E+01  0.39380158168E+01  0.16273108818E+02  0.17268778969E+02  0.51100000000E-03 0.  1.
        -12    1    3    3    0    0 -0.45738095174E+00  0.31047257709E+01  0.26687468787E+02  0.26871351096E+02  0.00000000000E+00 0.  1.
</event>
<event>
 7    1  0.2425980E-008  0.4614232E+02  0.7816164E-02  0.1320468E+00
        -11   -1    0    0    0    0  0.00000000000E+00  0.00000000000E+00  0.45593999997E+02  0.45594000000E+02  0.51100000000E-03 0.  1.
         11   -1    0    0    0    0 -0.00000000000E+00 -0.00000000000E+00 -0.45593999997E+02  0.45594000000E+02  0.51100000000E-03 0. -1.
    9900012    2    1    2    0    0  0.29536088242E+02 -0.28001951490E+02  0.19303466793E+02  0.46142316232E+02  0.99999860564E+01 0.  0.
         12    1    1    2    0    0 -0.29536088242E+02  0.28001951490E+02 -0.19303466793E+02  0.45045683768E+02  0.00000000000E+00 0. -1.
         11    1    3    3    0    0  0.14883618299E+01 -0.41588590687E+01  0.53980399038E+00  0.44500245279E+01  0.51100000000E-03 0. -1.
        -11    1    3    3    0    0  0.99534680682E+01 -0.79039561565E+01  0.36104157516E+01  0.13212840409E+02  0.51100000000E-03 0.  1.
        -12    1    3    3    0    0  0.18094258344E+02 -0.15939136265E+02  0.15153247051E+02  0.28479451295E+02  0.00000000000E+00 0.  1.
</event>
<event>
 7    1  0.2425980E-008  0.4614232E+02  0.7816164E-02  0.1320468E+00
        -11   -1    0    0    0    0  0.00000000000E+00  0.00000000000E+00  0.45593999997E+02  0.45594000000E+02  0.51100000000E-03 0.  1.
         11   -1    0    0    0    0 -0.00000000000E+00 -0.00000000000E+00 -0.45593999997E+02  0.45594000000E+02  0.51100000000E-03 0. -1.
    9900012    2    1    2    0    0  0.21550900265E+02  0.34282281905E+02  0.19733152594E+02  0.46142318008E+02  0.10000002250E+02 0.  0.
         12    1    1    2    0    0 -0.21550900265E+02 -0.34282281905E+02 -0.19733152594E+02  0.45045681992E+02  0.00000000000E+00 0. -1.
         11    1    3    3    0    0  0.17507339771E+02  0.19323717335E+02  0.11694792353E+02  0.28577634015E+02  0.51100000000E-03 0.  1.
        -11    1    3    3    0    0  0.38309952495E+01  0.11126092575E+02  0.63528417809E+01  0.13372548730E+02  0.51100000000E-03 0. -1.
         12    1    3    3    0    0  0.21256524471E+00  0.38324719952E+01  0.16855184606E+01  0.41921352624E+01  0.00000000000E+00 0. -1.
</event>
<event>
 7    1  0.2425980E-008  0.4614231E+02  0.7816164E-02  0.1320468E+00
        -11   -1    0    0    0    0  0.00000000000E+00  0.00000000000E+00  0.45593999997E+02  0.45594000000E+02  0.51100000000E-03 0. -1.
         11   -1    0    0    0    0 -0.00000000000E+00 -0.00000000000E+00 -0.45593999997E+02  0.45594000000E+02  0.51100000000E-03 0.  1.
    9900012    2    1    2    0    0 -0.43743981773E+02 -0.92442176049E+01 -0.54884060344E+01  0.46142310958E+02  0.99999379605E+01 0.  0.
         12    1    1    2    0    0  0.43743981773E+02  0.92442176049E+01  0.54884060344E+01  0.45045689042E+02  0.00000000000E+00 0. -1.
         11    1    3    3    0    0 -0.14819468784E+02 -0.42360522905E+01  0.20634247696E+01  0.15550514978E+02  0.51100000000E-03 0. -1.
        -11    1    3    3    0    0 -0.55781665672E+01  0.45284017204E+00 -0.60475550477E+00  0.56290972593E+01  0.51100000000E-03 0.  1.
         12    1    3    3    0    0 -0.23346346422E+02 -0.54610054864E+01 -0.69470752992E+01  0.24962698721E+02  0.00000000000E+00 0. -1.
</event>
<event>
 7    1  0.2425980E-008  0.4614232E+02  0.7816164E-02  0.1320468E+00
        -11   -1    0    0    0    0  0.00000000000E+00  0.00000000000E+00  0.45593999997E+02  0.45594000000E+02  0.51100000000E-03 0.  1.
         11   -1    0    0    0    0 -0.00000000000E+00 -0.00000000000E+00 -0.45593999997E+02  0.45594000000E+02  0.51100000000E-03 0. -1.
    9900012    2    1    2    0    0  0.36472106378E+02 -0.91023662682E+01  0.24820275718E+02  0.46142315390E+02  0.99999783742E+01 0.  0.
         12    1    1    2    0    0 -0.36472106378E+02  0.91023662682E+01 -0.24820275718E+02  0.45045684610E+02  0.00000000000E+00 0. -1.
         11    1    3    3    0    0  0.12585501983E+02 -0.16816523990E+01  0.72254467796E+01  0.14609240103E+02  0.51100000000E-03 0. -1.
        -11    1    3    3    0    0  0.23122043957E+02 -0.86522716868E+01  0.16950217920E+02  0.29946629357E+02  0.51100000000E-03 0.  1.
         12    1    3    3    0    0  0.76456043790E+00  0.12315578176E+01  0.64461101841E+00  0.15864459292E+01  0.00000000000E+00 0. -1.
</event>
<event>
 7    1  0.2425980E-008  0.4614231E+02  0.7816164E-02  0.1320468E+00
        -11   -1    0    0    0    0  0.00000000000E+00  0.00000000000E+00  0.45593999997E+02  0.45594000000E+02  0.51100000000E-03 0. -1.
         11   -1    0    0    0    0 -0.00000000000E+00 -0.00000000000E+00 -0.45593999997E+02  0.45594000000E+02  0.51100000000E-03 0.  1.
    9900012    2    1    2    0    0  0.27090528280E+02 -0.26251495806E+02 -0.24618614714E+02  0.46142312693E+02  0.99999537823E+01 0.  0.
         12    1    1    2    0    0 -0.27090528280E+02  0.26251495806E+02  0.24618614714E+02  0.45045687307E+02  0.00000000000E+00 0. -1.
         11    1    3    3    0    0  0.15117490840E+01 -0.41303186843E+01 -0.35947501743E+01  0.56804178371E+01  0.51100000000E-03 0. -1.
        -11    1    3    3    0    0  0.12997100315E+02 -0.14471570363E+02 -0.89109777728E+01  0.21395244576E+02  0.51100000000E-03 0.  1.
         12    1    3    3    0    0  0.12581678882E+02 -0.76496067586E+01 -0.12112886767E+02  0.19066650279E+02  0.00000000000E+00 0. -1.
</event>
<event>
 7    1  0.2425980E-008  0.4614230E+02  0.7816164E-02  0.1320468E+00
        -11   -1    0    0    0    0  0.00000000000E+00  0.00000000000E+00  0.45593999997E+02  0.45594000000E+02  0.51100000000E-03 0.  1.
         11   -1    0    0    0    0 -0.00000000000E+00 -0.00000000000E+00 -0.45593999997E+02  0.45594000000E+02  0.51100000000E-03 0. -1.
    9900012    2    1    2    0    0  0.25397380414E+01 -0.17561413482E+02  0.41403637493E+02  0.46142304196E+02  0.99998763061E+01 0.  0.
         12    1    1    2    0    0 -0.25397380414E+01  0.17561413482E+02 -0.41403637493E+02  0.45045695804E+02  0.00000000000E+00 0. -1.
         11    1    3    3    0    0 -0.80331017556E+00 -0.42425470637E+00  0.90190833204E+00  0.12801321004E+01  0.51100000000E-03 0. -1.
        -11    1    3    3    0    0  0.18206457801E+01 -0.98780850982E+01  0.32197550669E+02  0.33727934796E+02  0.51100000000E-03 0.  1.
        -12    1    3    3    0    0  0.15224024368E+01 -0.72590736769E+01  0.83041784914E+01  0.11134237300E+02  0.00000000000E+00 0.  1.
</event>
<event>
 7    1  0.2425980E-008  0.4614230E+02  0.7816164E-02  0.1320468E+00
        -11   -1    0    0    0    0  0.00000000000E+00  0.00000000000E+00  0.45593999997E+02  0.45594000000E+02  0.51100000000E-03 0.  1.
         11   -1    0    0    0    0 -0.00000000000E+00 -0.00000000000E+00 -0.45593999997E+02  0.45594000000E+02  0.51100000000E-03 0. -1.
    9900012    2    1    2    0    0  0.19507663190E+02  0.23012897406E+02  0.33451044674E+02  0.46142303647E+02  0.99998712919E+01 0.  0.
         12    1    1    2    0    0 -0.19507663190E+02 -0.23012897406E+02 -0.33451044674E+02  0.45045696353E+02  0.00000000000E+00 0. -1.
         11    1    3    3    0    0  0.14876152999E+02  0.13495843245E+02  0.17579156509E+02  0.26692029836E+02  0.51100000000E-03 0. -1.
        -11    1    3    3    0    0  0.37604172755E+01  0.37089368954E+01  0.87330144706E+01  0.10206002792E+02  0.51100000000E-03 0.  1.
         12    1    3    3    0    0  0.87109291553E+00  0.58081172650E+01  0.71388736951E+01  0.92442710186E+01  0.00000000000E+00 0. -1.
</event>
<event>
 7    1  0.2425980E-008  0.4614232E+02  0.7816164E-02  0.1320468E+00
        -11   -1    0    0    0    0  0.00000000000E+00  0.00000000000E+00  0.45593999997E+02  0.45594000000E+02  0.51100000000E-03 0.  1.
         11   -1    0    0    0    0 -0.00000000000E+00 -0.00000000000E+00 -0.45593999997E+02  0.45594000000E+02  0.51100000000E-03 0. -1.
    9900012    2    1    2    0    0  0.56277736228E+01 -0.70569843075E+00  0.44687175554E+02  0.46142317574E+02  0.99999982972E+01 0.  0.
         12    1    1    2    0    0 -0.56277736228E+01  0.70569843075E+00 -0.44687175554E+02  0.45045682426E+02  0.00000000000E+00 0. -1.
         11    1    3    3    0    0 -0.30608747780E+00 -0.18958189622E+01  0.98550073019E+01  0.10040367935E+02  0.51100000000E-03 0. -1.
        -11    1    3    3    0    0 -0.12959017708E+01 -0.13014368257E+01  0.62162886292E+01  0.64819243896E+01  0.51100000000E-03 0.  1.
         12    1    3    3    0    0  0.72297628714E+01  0.24915573571E+01  0.28615879623E+02  0.29620025250E+02  0.00000000000E+00 0. -1.
</event>
<event>
 7    1  0.2425980E-008  0.4614232E+02  0.7816164E-02  0.1320468E+00
        -11   -1    0    0    0    0  0.00000000000E+00  0.00000000000E+00  0.45593999997E+02  0.45594000000E+02  0.51100000000E-03 0.  1.
         11   -1    0    0    0    0 -0.00000000000E+00 -0.00000000000E+00 -0.45593999997E+02  0.45594000000E+02  0.51100000000E-03 0. -1.
    9900012    2    1    2    0    0  0.30722645683E+02 -0.71547581113E+01  0.32156522739E+02  0.46142317898E+02  0.10000001245E+02 0.  0.
         12    1    1    2    0    0 -0.30722645683E+02  0.71547581113E+01 -0.32156522739E+02  0.45045682102E+02  0.00000000000E+00 0. -1.
         11    1    3    3    0    0  0.37226138334E+01  0.14686021270E+00  0.15874469915E+01  0.40496184866E+01  0.51100000000E-03 0. -1.
        -11    1    3    3    0    0  0.23502718507E+02 -0.39786303134E+01  0.23048626781E+02  0.33157902122E+02  0.51100000000E-03 0.  1.
         12    1    3    3    0    0  0.34973133424E+01 -0.33229880105E+01  0.75204489665E+01  0.89347972887E+01  0.00000000000E+00 0. -1.
</event>
<event>
 7    1  0.2425980E-008  0.4614232E+02  0.7816164E-02  0.1320468E+00
        -11   -1    0    0    0    0  0.00000000000E+00  0.00000000000E+00  0.45593999997E+02  0.45594000000E+02  0.51100000000E-03 0.  1.
         11   -1    0    0    0    0 -0.00000000000E+00 -0.00000000000E+00 -0.45593999997E+02  0.45594000000E+02  0.51100000000E-03 0. -1.
    9900012    2    1    2    0    0  0.32642698810E+02 -0.12837014046E+01  0.31014832850E+02  0.46142317281E+02  0.99999956195E+01 0.  0.
         12    1    1    2    0    0 -0.32642698810E+02  0.12837014046E+01 -0.31014832850E+02  0.45045682719E+02  0.00000000000E+00 0. -1.
         11    1    3    3    0    0  0.32488194228E+01 -0.45609560290E+00  0.59420830490E+00  0.33340567799E+01  0.51100000000E-03 0. -1.
        -11    1    3    3    0    0  0.21672391308E+02  0.22727638904E+01  0.21606895271E+02  0.30687390313E+02  0.51100000000E-03 0.  1.
        -12    1    3    3    0    0  0.77214880798E+01 -0.31003696920E+01  0.88137292742E+01  0.12120870188E+02  0.00000000000E+00 0.  1.
</event>
<event>
 7    1  0.2425980E-008  0.4614232E+02  0.7816164E-02  0.1320468E+00
        -11   -1    0    0    0    0  0.00000000000E+00  0.00000000000E+00  0.45593999997E+02  0.45594000000E+02  0.51100000000E-03 0. -1.
         11   -1    0    0    0    0 -0.00000000000E+00 -0.00000000000E+00 -0.45593999997E+02  0.45594000000E+02  0.51100000000E-03 0.  1.
    9900012    2    1    2    0    0 -0.11124690657E+02 -0.18857740482E+02 -0.39366742218E+02  0.46142317508E+02  0.99999976949E+01 0.  0.
         12    1    1    2    0    0  0.11124690657E+02  0.18857740482E+02  0.39366742218E+02  0.45045682492E+02  0.00000000000E+00 0. -1.
         11    1    3    3    0    0  0.28413565058E+00 -0.20759795154E+01 -0.39375013795E+01  0.44603073202E+01  0.51100000000E-03 0. -1.
        -11    1    3    3    0    0  0.95917829723E-02 -0.65551445999E+01 -0.12232444549E+02  0.13878137938E+02  0.51100000000E-03 0.  1.
        -12    1    3    3    0    0 -0.11418418090E+02 -0.10226616367E+02 -0.23196796289E+02  0.27803872250E+02  0.00000000000E+00 0.  1.
</event>
<event>
 7    1  0.2425980E-008  0.4614232E+02  0.7816164E-02  0.1320468E+00
        -11   -1    0    0    0    0  0.00000000000E+00  0.00000000000E+00  0.45593999997E+02  0.45594000000E+02  0.51100000000E-03 0. -1.
         11   -1    0    0    0    0 -0.00000000000E+00 -0.00000000000E+00 -0.45593999997E+02  0.45594000000E+02  0.51100000000E-03 0.  1.
    9900012    2    1    2    0    0 -0.29803177928E+02 -0.85161888257E+01 -0.32685755957E+02  0.46142317308E+02  0.99999958673E+01 0.  0.
         12    1    1    2    0    0  0.29803177928E+02  0.85161888257E+01  0.32685755957E+02  0.45045682692E+02  0.00000000000E+00 0. -1.
         11    1    3    3    0    0 -0.19382434573E+01  0.55893445592E+00 -0.13883285663E+01  0.24488062183E+01  0.51100000000E-03 0. -1.
        -11    1    3    3    0    0 -0.17323646528E+02 -0.79759469913E+01 -0.15048532587E+02  0.24293678040E+02  0.51100000000E-03 0.  1.
         12    1    3    3    0    0 -0.10541287943E+02 -0.10991762904E+01 -0.16248894804E+02  0.19399833050E+02  0.00000000000E+00 0. -1.
</event>
<event>
 7    1  0.2425980E-008  0.4614232E+02  0.7816164E-02  0.1320468E+00
        -11   -1    0    0    0    0  0.00000000000E+00  0.00000000000E+00  0.45593999997E+02  0.45594000000E+02  0.51100000000E-03 0. -1.
         11   -1    0    0    0    0 -0.00000000000E+00 -0.00000000000E+00 -0.45593999997E+02  0.45594000000E+02  0.51100000000E-03 0.  1.
    9900012    2    1    2    0    0  0.31729190764E+02 -0.30809747833E+02 -0.85516870824E+01  0.46142318076E+02  0.10000002873E+02 0.  0.
         12    1    1    2    0    0 -0.31729190764E+02  0.30809747833E+02  0.85516870824E+01  0.45045681924E+02  0.00000000000E+00 0. -1.
         11    1    3    3    0    0  0.32608423503E+01 -0.61709262511E+01  0.69845855474E-01  0.69798497358E+01  0.51100000000E-03 0. -1.
        -11    1    3    3    0    0  0.17563195166E+02 -0.14586579368E+02 -0.19934217397E+01  0.22917413741E+02  0.51100000000E-03 0.  1.
        -12    1    3    3    0    0  0.10905153247E+02 -0.10052242214E+02 -0.66281111982E+01  0.16245054599E+02  0.00000000000E+00 0.  1.
</event>
<event>
 7    1  0.2425980E-008  0.4614232E+02  0.7816164E-02  0.1320468E+00
        -11   -1    0    0    0    0  0.00000000000E+00  0.00000000000E+00  0.45593999997E+02  0.45594000000E+02  0.51100000000E-03 0.  1.
         11   -1    0    0    0    0 -0.00000000000E+00 -0.00000000000E+00 -0.45593999997E+02  0.45594000000E+02  0.51100000000E-03 0. -1.
    9900012    2    1    2    0    0  0.67264339792E+01  0.38596849197E+02  0.22229513609E+02  0.46142323655E+02  0.10000053749E+02 0.  0.
         12    1    1    2    0    0 -0.67264339792E+01 -0.38596849197E+02 -0.22229513609E+02  0.45045676345E+02  0.00000000000E+00 0. -1.
         11    1    3    3    0    0 -0.16116557944E+01  0.40978611686E+01  0.67769737942E+00  0.44552412455E+01  0.51100000000E-03 0. -1.
        -11    1    3    3    0    0  0.97954935381E+00  0.78872090863E+01  0.63168906583E+01  0.10152373711E+02  0.51100000000E-03 0.  1.
        -12    1    3    3    0    0  0.73585404198E+01  0.26611778942E+02  0.15234925572E+02  0.31534708699E+02  0.00000000000E+00 0.  1.
</event>
<event>
 7    1  0.2425980E-008  0.4614232E+02  0.7816164E-02  0.1320468E+00
        -11   -1    0    0    0    0  0.00000000000E+00  0.00000000000E+00  0.45593999997E+02  0.45594000000E+02  0.51100000000E-03 0.  1.
         11   -1    0    0    0    0 -0.00000000000E+00 -0.00000000000E+00 -0.45593999997E+02  0.45594000000E+02  0.51100000000E-03 0. -1.
    9900012    2    1    2    0    0  0.33706658870E+02 -0.29880747796E+02  0.33995034113E+00  0.46142317551E+02  0.99999980868E+01 0.  0.
         12    1    1    2    0    0 -0.33706658870E+02  0.29880747796E+02 -0.33995034113E+00  0.45045682449E+02  0.00000000000E+00 0. -1.
         11    1    3    3    0    0  0.14188071277E+02 -0.15581650257E+02  0.31968630284E+01  0.21314528491E+02  0.51100000000E-03 0. -1.
        -11    1    3    3    0    0  0.68256829470E+01 -0.48720714898E+01  0.12838932814E+01  0.84838323011E+01  0.51100000000E-03 0.  1.
        -12    1    3    3    0    0  0.12692904646E+02 -0.94270260490E+01 -0.41408059687E+01  0.16343956759E+02  0.00000000000E+00 0.  1.
</event>
<event>
 7    1  0.2425980E-008  0.4614232E+02  0.7816164E-02  0.1320468E+00
        -11   -1    0    0    0    0  0.00000000000E+00  0.00000000000E+00  0.45593999997E+02  0.45594000000E+02  0.51100000000E-03 0.  1.
         11   -1    0    0    0    0 -0.00000000000E+00 -0.00000000000E+00 -0.45593999997E+02  0.45594000000E+02  0.51100000000E-03 0. -1.
    9900012    2    1    2    0    0 -0.19604551729E+02  0.26703909428E+02  0.30523372178E+02  0.46142317895E+02  0.10000001217E+02 0.  0.
         12    1    1    2    0    0  0.19604551729E+02 -0.26703909428E+02 -0.30523372178E+02  0.45045682105E+02  0.00000000000E+00 0. -1.
         11    1    3    3    0    0 -0.10216750538E+02  0.10925132926E+02  0.15507568656E+02  0.21545886078E+02  0.51100000000E-03 0.  1.
        -11    1    3    3    0    0 -0.34238833684E+01  0.13456413290E+01  0.16131730438E+01  0.40169709281E+01  0.51100000000E-03 0. -1.
         12    1    3    3    0    0 -0.59639178226E+01  0.14433135174E+02  0.13402630478E+02  0.20579460889E+02  0.00000000000E+00 0. -1.
</event>
<event>
 7    1  0.2425980E-008  0.4614232E+02  0.7816164E-02  0.1320468E+00
        -11   -1    0    0    0    0  0.00000000000E+00  0.00000000000E+00  0.45593999997E+02  0.45594000000E+02  0.51100000000E-03 0.  1.
         11   -1    0    0    0    0 -0.00000000000E+00 -0.00000000000E+00 -0.45593999997E+02  0.45594000000E+02  0.51100000000E-03 0. -1.
    9900012    2    1    2    0    0 -0.22864883067E+02 -0.18626210586E+02  0.34049596619E+02  0.46142316207E+02  0.99999858282E+01 0.  0.
         12    1    1    2    0    0  0.22864883067E+02  0.18626210586E+02 -0.34049596619E+02  0.45045683793E+02  0.00000000000E+00 0. -1.
         11    1    3    3    0    0 -0.16158374235E+01 -0.85666932386E+00  0.48568144993E+01  0.51897456827E+01  0.51100000000E-03 0. -1.
        -11    1    3    3    0    0 -0.37275944722E+01 -0.31941088410E+01  0.15975095270E+01  0.51622987891E+01  0.51100000000E-03 0.  1.
        -12    1    3    3    0    0 -0.17521451171E+02 -0.14575432421E+02  0.27595272593E+02  0.35790271735E+02  0.00000000000E+00 0.  1.
</event>
<event>
 7    1  0.2425980E-008  0.4614232E+02  0.7816164E-02  0.1320468E+00
        -11   -1    0    0    0    0  0.00000000000E+00  0.00000000000E+00  0.45593999997E+02  0.45594000000E+02  0.51100000000E-03 0.  1.
         11   -1    0    0    0    0 -0.00000000000E+00 -0.00000000000E+00 -0.45593999997E+02  0.45594000000E+02  0.51100000000E-03 0. -1.
    9900012    2    1    2    0    0  0.17803891320E+01  0.29539707843E+02  0.33960994311E+02  0.46142320302E+02  0.10000023165E+02 0.  0.
         12    1    1    2    0    0 -0.17803891320E+01 -0.29539707843E+02 -0.33960994311E+02  0.45045679698E+02  0.00000000000E+00 0. -1.
         11    1    3    3    0    0 -0.21186078423E+01  0.48587576152E+01  0.45183069097E+01  0.69649926306E+01  0.51100000000E-03 0. -1.
        -11    1    3    3    0    0  0.10145689232E+00 -0.19817186235E+00 -0.19478645527E+00  0.29581685602E+00  0.51100000000E-03 0.  1.
        -12    1    3    3    0    0  0.37975400821E+01  0.24879122090E+02  0.29637473857E+02  0.38881510815E+02  0.00000000000E+00 0.  1.
</event>
<event>
 7    1  0.2425980E-008  0.4614232E+02  0.7816164E-02  0.1320468E+00
        -11   -1    0    0    0    0  0.00000000000E+00  0.00000000000E+00  0.45593999997E+02  0.45594000000E+02  0.51100000000E-03 0.  1.
         11   -1    0    0    0    0 -0.00000000000E+00 -0.00000000000E+00 -0.45593999997E+02  0.45594000000E+02  0.51100000000E-03 0. -1.
    9900012    2    1    2    0    0 -0.22888960106E+02 -0.38719798958E+02 -0.24467109996E+01  0.46142315181E+02  0.99999764761E+01 0.  0.
         12    1    1    2    0    0  0.22888960106E+02  0.38719798958E+02  0.24467109996E+01  0.45045684819E+02  0.00000000000E+00 0. -1.
         11    1    3    3    0    0 -0.25024051841E+01 -0.95563805748E+00  0.54512757162E+00  0.27335764363E+01  0.51100000000E-03 0. -1.
        -11    1    3    3    0    0 -0.11732487797E+02 -0.17137664200E+02 -0.33502675408E+01  0.21037468883E+02  0.51100000000E-03 0.  1.
         12    1    3    3    0    0 -0.86540671252E+01 -0.20626496700E+02  0.35842896961E+00  0.22371269863E+02  0.00000000000E+00 0. -1.
</event>
<event>
 7    1  0.2425980E-008  0.4614232E+02  0.7816164E-02  0.1320468E+00
        -11   -1    0    0    0    0  0.00000000000E+00  0.00000000000E+00  0.45593999997E+02  0.45594000000E+02  0.51100000000E-03 0.  1.
         11   -1    0    0    0    0 -0.00000000000E+00 -0.00000000000E+00 -0.45593999997E+02  0.45594000000E+02  0.51100000000E-03 0. -1.
    9900012    2    1    2    0    0 -0.24886395929E+02  0.35278590812E+02  0.12853084558E+02  0.46142318135E+02  0.10000003413E+02 0.  0.
         12    1    1    2    0    0  0.24886395929E+02 -0.35278590812E+02 -0.12853084558E+02  0.45045681865E+02  0.00000000000E+00 0. -1.
         11    1    3    3    0    0 -0.10125066488E+02  0.13295048760E+02  0.13065729988E+00  0.16712042500E+02  0.51100000000E-03 0.  1.
        -11    1    3    3    0    0 -0.44724415213E+01  0.60261191135E+01  0.28246821531E+01  0.80184583468E+01  0.51100000000E-03 0. -1.
        -12    1    3    3    0    0 -0.10288887920E+02  0.15957422938E+02  0.98977451049E+01  0.21411817289E+02  0.00000000000E+00 0.  1.
</event>
<event>
 7    1  0.2425980E-008  0.4614232E+02  0.7816164E-02  0.1320468E+00
        -11   -1    0    0    0    0  0.00000000000E+00  0.00000000000E+00  0.45593999997E+02  0.45594000000E+02  0.51100000000E-03 0.  1.
         11   -1    0    0    0    0 -0.00000000000E+00 -0.00000000000E+00 -0.45593999997E+02  0.45594000000E+02  0.51100000000E-03 0. -1.
    9900012    2    1    2    0    0 -0.40829551472E+02 -0.84742228212E+01  0.17036689278E+02  0.46142317550E+02  0.99999980794E+01 0.  0.
         12    1    1    2    0    0  0.40829551472E+02  0.84742228212E+01 -0.17036689278E+02  0.45045682450E+02  0.00000000000E+00 0. -1.
         11    1    3    3    0    0  0.27621573742E+00  0.79999698632E-03  0.65424081192E+00  0.71015989375E+00  0.51100000000E-03 0. -1.
        -11    1    3    3    0    0 -0.65133161993E+01 -0.14361515422E+01  0.50181231328E+01  0.83466987008E+01  0.51100000000E-03 0.  1.
        -12    1    3    3    0    0 -0.34592451010E+02 -0.70388712760E+01  0.11364325333E+02  0.37085458956E+02  0.00000000000E+00 0.  1.
</event>
<event>
 7    1  0.2425980E-008  0.4614232E+02  0.7816164E-02  0.1320468E+00
        -11   -1    0    0    0    0  0.00000000000E+00  0.00000000000E+00  0.45593999997E+02  0.45594000000E+02  0.51100000000E-03 0. -1.
         11   -1    0    0    0    0 -0.00000000000E+00 -0.00000000000E+00 -0.45593999997E+02  0.45594000000E+02  0.51100000000E-03 0.  1.
    9900012    2    1    2    0    0 -0.61083633894E+01 -0.44427216234E+02  0.42454476016E+01  0.46142317955E+02  0.10000001767E+02 0.  0.
         12    1    1    2    0    0  0.61083633894E+01  0.44427216234E+02 -0.42454476016E+01  0.45045682045E+02  0.00000000000E+00 0. -1.
         11    1    3    3    0    0  0.21417120912E+00 -0.28352147662E+01  0.13064070539E+01  0.31290592402E+01  0.51100000000E-03 0. -1.
        -11    1    3    3    0    0 -0.66513242316E+01 -0.22294182073E+02  0.43215470495E+01  0.23663187391E+02  0.51100000000E-03 0.  1.
        -12    1    3    3    0    0  0.32878963301E+00 -0.19297819395E+02 -0.13825065019E+01  0.19350071324E+02  0.00000000000E+00 0.  1.
</event>
<event>
 7    1  0.2425980E-008  0.4614232E+02  0.7816164E-02  0.1320468E+00
        -11   -1    0    0    0    0  0.00000000000E+00  0.00000000000E+00  0.45593999997E+02  0.45594000000E+02  0.51100000000E-03 0. -1.
         11   -1    0    0    0    0 -0.00000000000E+00 -0.00000000000E+00 -0.45593999997E+02  0.45594000000E+02  0.51100000000E-03 0.  1.
    9900012    2    1    2    0    0  0.12708333162E+02  0.36209882270E+02 -0.23589322582E+02  0.46142318235E+02  0.10000004325E+02 0.  0.
         12    1    1    2    0    0 -0.12708333162E+02 -0.36209882270E+02  0.23589322582E+02  0.45045681765E+02  0.00000000000E+00 0. -1.
         11    1    3    3    0    0 -0.46088882879E+00  0.36101546021E+01 -0.44615286653E+01  0.57576794854E+01  0.51100000000E-03 0. -1.
        -11    1    3    3    0    0 -0.40271794745E+00  0.35023100429E+00 -0.56219598149E+00  0.77518261351E+00  0.51100000000E-03 0.  1.
        -12    1    3    3    0    0  0.13571939938E+02  0.32249496664E+02 -0.18565597935E+02  0.39609456137E+02  0.00000000000E+00 0.  1.
</event>
<event>
 7    1  0.2425980E-008  0.4614232E+02  0.7816164E-02  0.1320468E+00
        -11   -1    0    0    0    0  0.00000000000E+00  0.00000000000E+00  0.45593999997E+02  0.45594000000E+02  0.51100000000E-03 0.  1.
         11   -1    0    0    0    0 -0.00000000000E+00 -0.00000000000E+00 -0.45593999997E+02  0.45594000000E+02  0.51100000000E-03 0. -1.
    9900012    2    1    2    0    0  0.36206132263E+00  0.44801235141E+02  0.46724489084E+01  0.46142317218E+02  0.99999950435E+01 0.  0.
         12    1    1    2    0    0 -0.36206132263E+00 -0.44801235141E+02 -0.46724489084E+01  0.45045682782E+02  0.00000000000E+00 0. -1.
         11    1    3    3    0    0  0.10553482036E+01  0.54255175700E+01  0.83700732931E+00  0.55902220227E+01  0.51100000000E-03 0. -1.
        -11    1    3    3    0    0 -0.37286712102E+01  0.32563240036E+02  0.44124415177E+01  0.33071698339E+02  0.51100000000E-03 0.  1.
        -12    1    3    3    0    0  0.30353843293E+01  0.68124775349E+01 -0.57699993854E+00  0.74803968557E+01  0.00000000000E+00 0.  1.
</event>
<event>
 7    1  0.2425980E-008  0.4614232E+02  0.7816164E-02  0.1320468E+00
        -11   -1    0    0    0    0  0.00000000000E+00  0.00000000000E+00  0.45593999997E+02  0.45594000000E+02  0.51100000000E-03 0. -1.
         11   -1    0    0    0    0 -0.00000000000E+00 -0.00000000000E+00 -0.45593999997E+02  0.45594000000E+02  0.51100000000E-03 0.  1.
    9900012    2    1    2    0    0 -0.68774693771E+00  0.41993265490E+02 -0.16285152205E+02  0.46142317358E+02  0.99999963224E+01 0.  0.
         12    1    1    2    0    0  0.68774693771E+00 -0.41993265490E+02  0.16285152205E+02  0.45045682642E+02  0.00000000000E+00 0. -1.
         11    1    3    3    0    0 -0.22591352615E+01  0.15182090580E+02 -0.99955421580E+01  0.18316943790E+02  0.51100000000E-03 0. -1.
        -11    1    3    3    0    0  0.13000417346E+01  0.15584734625E+02 -0.54618015467E+01  0.16565184522E+02  0.51100000000E-03 0.  1.
         12    1    3    3    0    0  0.27134658921E+00  0.11226440285E+02 -0.82780850064E+00  0.11260189046E+02  0.00000000000E+00 0. -1.
</event>
<event>
 7    1  0.2425980E-008  0.4614232E+02  0.7816164E-02  0.1320468E+00
        -11   -1    0    0    0    0  0.00000000000E+00  0.00000000000E+00  0.45593999997E+02  0.45594000000E+02  0.51100000000E-03 0.  1.
         11   -1    0    0    0    0 -0.00000000000E+00 -0.00000000000E+00 -0.45593999997E+02  0.45594000000E+02  0.51100000000E-03 0. -1.
    9900012    2    1    2    0    0  0.25584780532E+02 -0.19405459632E+02  0.31590515349E+02  0.46142317428E+02  0.99999969593E+01 0.  0.
         12    1    1    2    0    0 -0.25584780532E+02  0.19405459632E+02 -0.31590515349E+02  0.45045682572E+02  0.00000000000E+00 0. -1.
         11    1    3    3    0    0  0.89726828408E+01 -0.18938379822E+01  0.91343286671E+01  0.12943400640E+02  0.51100000000E-03 0.  1.
        -11    1    3    3    0    0  0.13787194398E+01 -0.22760918214E+01  0.11523348942E+01  0.28998857292E+01  0.51100000000E-03 0. -1.
        -12    1    3    3    0    0  0.15233378252E+02 -0.15235529828E+02  0.21303851788E+02  0.30299031059E+02  0.00000000000E+00 0.  1.
</event>
<event>
 7    1  0.2425980E-008  0.4614232E+02  0.7816164E-02  0.1320468E+00
        -11   -1    0    0    0    0  0.00000000000E+00  0.00000000000E+00  0.45593999997E+02  0.45594000000E+02  0.51100000000E-03 0.  1.
         11   -1    0    0    0    0 -0.00000000000E+00 -0.00000000000E+00 -0.45593999997E+02  0.45594000000E+02  0.51100000000E-03 0. -1.
    9900012    2    1    2    0    0 -0.17251639691E+02 -0.10935041605E+02  0.40148714076E+02  0.46142318200E+02  0.10000003998E+02 0.  0.
         12    1    1    2    0    0  0.17251639691E+02  0.10935041605E+02 -0.40148714076E+02  0.45045681800E+02  0.00000000000E+00 0. -1.
         11    1    3    3    0    0 -0.45416655001E+01 -0.42278564710E+01  0.12739193288E+02  0.14169987359E+02  0.51100000000E-03 0. -1.
        -11    1    3    3    0    0 -0.45579256370E+01  0.25909005695E-01  0.14959700774E+02  0.15638670177E+02  0.51100000000E-03 0.  1.
         12    1    3    3    0    0 -0.81520485540E+01 -0.67330941393E+01  0.12449820013E+02  0.16333660664E+02  0.00000000000E+00 0. -1.
</event>
<event>
 7    1  0.2425980E-008  0.4614232E+02  0.7816164E-02  0.1320468E+00
        -11   -1    0    0    0    0  0.00000000000E+00  0.00000000000E+00  0.45593999997E+02  0.45594000000E+02  0.51100000000E-03 0.  1.
         11   -1    0    0    0    0 -0.00000000000E+00 -0.00000000000E+00 -0.45593999997E+02  0.45594000000E+02  0.51100000000E-03 0. -1.
    9900012    2    1    2    0    0  0.24177599251E+02  0.71868649079E+01  0.37321656250E+02  0.46142319208E+02  0.10000013197E+02 0.  0.
         12    1    1    2    0    0 -0.24177599251E+02 -0.71868649079E+01 -0.37321656250E+02  0.45045680792E+02  0.00000000000E+00 0. -1.
         11    1    3    3    0    0  0.11337331982E+00  0.19838741886E-01  0.37189093836E+01  0.37206900367E+01  0.51100000000E-03 0. -1.
        -11    1    3    3    0    0  0.42830648014E+01  0.11613495135E+01  0.25535749775E+01  0.51199728722E+01  0.51100000000E-03 0.  1.
        -12    1    3    3    0    0  0.19781161130E+02  0.60056766525E+01  0.31049171889E+02  0.37301656299E+02  0.00000000000E+00 0.  1.
</event>
<event>
 7    1  0.2425980E-008  0.4614232E+02  0.7816164E-02  0.1320468E+00
        -11   -1    0    0    0    0  0.00000000000E+00  0.00000000000E+00  0.45593999997E+02  0.45594000000E+02  0.51100000000E-03 0.  1.
         11   -1    0    0    0    0 -0.00000000000E+00 -0.00000000000E+00 -0.45593999997E+02  0.45594000000E+02  0.51100000000E-03 0. -1.
    9900012    2    1    2    0    0 -0.57371481025E+01 -0.93767010543E+01  0.43683820423E+02  0.46142316991E+02  0.99999929806E+01 0.  0.
         12    1    1    2    0    0  0.57371481025E+01  0.93767010543E+01 -0.43683820423E+02  0.45045683009E+02  0.00000000000E+00 0. -1.
         11    1    3    3    0    0 -0.64014345554E+01 -0.79279862192E+01  0.21781838932E+02  0.24047449706E+02  0.51100000000E-03 0. -1.
        -11    1    3    3    0    0 -0.10727342424E+00  0.60445357761E+00  0.27494115184E+01  0.28171147783E+01  0.51100000000E-03 0.  1.
         12    1    3    3    0    0  0.77155987711E+00 -0.20531684127E+01  0.19152569973E+02  0.19277752507E+02  0.00000000000E+00 0. -1.
</event>
<event>
 7    1  0.2425980E-008  0.4614232E+02  0.7816164E-02  0.1320468E+00
        -11   -1    0    0    0    0  0.00000000000E+00  0.00000000000E+00  0.45593999997E+02  0.45594000000E+02  0.51100000000E-03 0. -1.
         11   -1    0    0    0    0 -0.00000000000E+00 -0.00000000000E+00 -0.45593999997E+02  0.45594000000E+02  0.51100000000E-03 0.  1.
    9900012    2    1    2    0    0 -0.42020465385E+02  0.16139969862E+02 -0.17015569874E+01  0.46142318359E+02  0.10000005450E+02 0.  0.
         12    1    1    2    0    0  0.42020465385E+02 -0.16139969862E+02  0.17015569874E+01  0.45045681641E+02  0.00000000000E+00 0. -1.
         11    1    3    3    0    0 -0.44772673992E+01  0.19763226884E+01  0.82240982003E+00  0.49626739673E+01  0.51100000000E-03 0. -1.
        -11    1    3    3    0    0 -0.19627659962E+02  0.27028251612E+01 -0.18842896262E+01  0.19902282460E+02  0.51100000000E-03 0.  1.
         12    1    3    3    0    0 -0.17915538024E+02  0.11460822012E+02 -0.63967718123E+00  0.21277361932E+02  0.00000000000E+00 0. -1.
</event>
<event>
 7    1  0.2425980E-008  0.4614231E+02  0.7816164E-02  0.1320468E+00
        -11   -1    0    0    0    0  0.00000000000E+00  0.00000000000E+00  0.45593999997E+02  0.45594000000E+02  0.51100000000E-03 0. -1.
         11   -1    0    0    0    0 -0.00000000000E+00 -0.00000000000E+00 -0.45593999997E+02  0.45594000000E+02  0.51100000000E-03 0.  1.
    9900012    2    1    2    0    0 -0.10516089313E+02  0.33984370054E+02 -0.27633109391E+02  0.46142309007E+02  0.99999201758E+01 0.  0.
         12    1    1    2    0    0  0.10516089313E+02 -0.33984370054E+02  0.27633109391E+02  0.45045690993E+02  0.00000000000E+00 0. -1.
         11    1    3    3    0    0 -0.17698182924E+01  0.24365227300E+01 -0.33744038067E+01  0.45227758195E+01  0.51100000000E-03 0. -1.
        -11    1    3    3    0    0 -0.88241682414E+01  0.29520022999E+02 -0.19543667524E+02  0.36486335025E+02  0.51100000000E-03 0.  1.
        -12    1    3    3    0    0  0.77897220895E-01  0.20278243248E+01 -0.47150380598E+01  0.51331981624E+01  0.00000000000E+00 0.  1.
</event>
<event>
 7    1  0.2425980E-008  0.4614232E+02  0.7816164E-02  0.1320468E+00
        -11   -1    0    0    0    0  0.00000000000E+00  0.00000000000E+00  0.45593999997E+02  0.45594000000E+02  0.51100000000E-03 0.  1.
         11   -1    0    0    0    0 -0.00000000000E+00 -0.00000000000E+00 -0.45593999997E+02  0.45594000000E+02  0.51100000000E-03 0. -1.
    9900012    2    1    2    0    0  0.38274833393E+01  0.33980246709E+02  0.29322460544E+02  0.46142317772E+02  0.10000000096E+02 0.  0.
         12    1    1    2    0    0 -0.38274833393E+01 -0.33980246709E+02 -0.29322460544E+02  0.45045682228E+02  0.00000000000E+00 0. -1.
         11    1    3    3    0    0  0.12861341467E+01  0.13199475438E+02  0.80061508107E+01  0.15491247333E+02  0.51100000000E-03 0. -1.
        -11    1    3    3    0    0 -0.17313382096E+01  0.15468655748E+01  0.21790792559E+01  0.31841343827E+01  0.51100000000E-03 0.  1.
        -12    1    3    3    0    0  0.42726874021E+01  0.19233905696E+02  0.19137230477E+02  0.27466936056E+02  0.00000000000E+00 0.  1.
</event>
<event>
 7    1  0.2425980E-008  0.4614232E+02  0.7816164E-02  0.1320468E+00
        -11   -1    0    0    0    0  0.00000000000E+00  0.00000000000E+00  0.45593999997E+02  0.45594000000E+02  0.51100000000E-03 0.  1.
         11   -1    0    0    0    0 -0.00000000000E+00 -0.00000000000E+00 -0.45593999997E+02  0.45594000000E+02  0.51100000000E-03 0. -1.
    9900012    2    1    2    0    0 -0.33767654835E+02 -0.96967867697E+01  0.28192751872E+02  0.46142318245E+02  0.10000004410E+02 0.  0.
         12    1    1    2    0    0  0.33767654835E+02  0.96967867697E+01 -0.28192751872E+02  0.45045681755E+02  0.00000000000E+00 0. -1.
         11    1    3    3    0    0 -0.25190325768E+02 -0.27521986164E+01  0.20924803767E+02  0.32862965820E+02  0.51100000000E-03 0. -1.
        -11    1    3    3    0    0 -0.21890147012E+01 -0.10980971366E+01  0.14376978205E+01  0.28398200590E+01  0.51100000000E-03 0.  1.
         12    1    3    3    0    0 -0.63883143651E+01 -0.58464910168E+01  0.58302502839E+01  0.10439532365E+02  0.00000000000E+00 0. -1.
</event>
<event>
 7    1  0.2425980E-008  0.4614232E+02  0.7816164E-02  0.1320468E+00
        -11   -1    0    0    0    0  0.00000000000E+00  0.00000000000E+00  0.45593999997E+02  0.45594000000E+02  0.51100000000E-03 0.  1.
         11   -1    0    0    0    0 -0.00000000000E+00 -0.00000000000E+00 -0.45593999997E+02  0.45594000000E+02  0.51100000000E-03 0. -1.
    9900012    2    1    2    0    0 -0.11036872024E+02 -0.95471087579E+01  0.42616355158E+02  0.46142317003E+02  0.99999930861E+01 0.  0.
         12    1    1    2    0    0  0.11036872024E+02  0.95471087579E+01 -0.42616355158E+02  0.45045682997E+02  0.00000000000E+00 0. -1.
         11    1    3    3    0    0 -0.75716536535E+01 -0.36102807959E+01  0.20001356252E+02  0.21689129043E+02  0.51100000000E-03 0. -1.
        -11    1    3    3    0    0 -0.35069103222E+01 -0.77404840043E+00  0.54364907975E+01  0.65155969325E+01  0.51100000000E-03 0.  1.
         12    1    3    3    0    0  0.41691951641E-01 -0.51627795616E+01  0.17178508109E+02  0.17937591027E+02  0.00000000000E+00 0. -1.
</event>
<event>
 7    1  0.2425980E-008  0.4614232E+02  0.7816164E-02  0.1320468E+00
        -11   -1    0    0    0    0  0.00000000000E+00  0.00000000000E+00  0.45593999997E+02  0.45594000000E+02  0.51100000000E-03 0.  1.
         11   -1    0    0    0    0 -0.00000000000E+00 -0.00000000000E+00 -0.45593999997E+02  0.45594000000E+02  0.51100000000E-03 0. -1.
    9900012    2    1    2    0    0  0.25302986628E+01  0.23200149332E+02  0.38528744308E+02  0.46142317873E+02  0.10000001023E+02 0.  0.
         12    1    1    2    0    0 -0.25302986628E+01 -0.23200149332E+02 -0.38528744308E+02  0.45045682127E+02  0.00000000000E+00 0. -1.
         11    1    3    3    0    0  0.36782451545E+01  0.30166779164E+01  0.59180131418E+01  0.75929383558E+01  0.51100000000E-03 0. -1.
        -11    1    3    3    0    0 -0.21548701665E+00  0.13407560676E+02  0.18288083956E+02  0.22677370504E+02  0.51100000000E-03 0.  1.
        -12    1    3    3    0    0 -0.93245947501E+00  0.67759107389E+01  0.14322647210E+02  0.15872009013E+02  0.00000000000E+00 0.  1.
</event>
<event>
 7    1  0.2425980E-008  0.4614232E+02  0.7816164E-02  0.1320468E+00
        -11   -1    0    0    0    0  0.00000000000E+00  0.00000000000E+00  0.45593999997E+02  0.45594000000E+02  0.51100000000E-03 0.  1.
         11   -1    0    0    0    0 -0.00000000000E+00 -0.00000000000E+00 -0.45593999997E+02  0.45594000000E+02  0.51100000000E-03 0. -1.
    9900012    2    1    2    0    0  0.17458744748E+02 -0.13902327394E+02  0.39128391352E+02  0.46142317799E+02  0.10000000350E+02 0.  0.
         12    1    1    2    0    0 -0.17458744748E+02  0.13902327394E+02 -0.39128391352E+02  0.45045682201E+02  0.00000000000E+00 0. -1.
         11    1    3    3    0    0  0.88099086087E-02  0.12434736327E+01  0.14708094245E+01  0.19260282745E+01  0.51100000000E-03 0. -1.
        -11    1    3    3    0    0  0.28294221343E+01 -0.17857761042E+01  0.61431168705E+01  0.69951776999E+01  0.51100000000E-03 0.  1.
         12    1    3    3    0    0  0.14620512705E+02 -0.13360024922E+02  0.31514465057E+02  0.37221111825E+02  0.00000000000E+00 0. -1.
</event>
<event>
 7    1  0.2425980E-008  0.4614232E+02  0.7816164E-02  0.1320468E+00
        -11   -1    0    0    0    0  0.00000000000E+00  0.00000000000E+00  0.45593999997E+02  0.45594000000E+02  0.51100000000E-03 0.  1.
         11   -1    0    0    0    0 -0.00000000000E+00 -0.00000000000E+00 -0.45593999997E+02  0.45594000000E+02  0.51100000000E-03 0. -1.
    9900012    2    1    2    0    0  0.24968243182E+02 -0.72259532015E+01  0.36789753984E+02  0.46142316905E+02  0.99999921912E+01 0.  0.
         12    1    1    2    0    0 -0.24968243182E+02  0.72259532015E+01 -0.36789753984E+02  0.45045683095E+02  0.00000000000E+00 0. -1.
         11    1    3    3    0    0  0.65797244940E+01 -0.39591862827E+01  0.74426686113E+01  0.10693981801E+02  0.51100000000E-03 0. -1.
        -11    1    3    3    0    0  0.17937564831E+02 -0.21012508814E+01  0.24466037875E+02  0.30409842106E+02  0.51100000000E-03 0.  1.
         12    1    3    3    0    0  0.45095385744E+00 -0.11655160374E+01  0.48810474980E+01  0.50384929982E+01  0.00000000000E+00 0. -1.
</event>
<event>
 7    1  0.2425980E-008  0.4614232E+02  0.7816164E-02  0.1320468E+00
        -11   -1    0    0    0    0  0.00000000000E+00  0.00000000000E+00  0.45593999997E+02  0.45594000000E+02  0.51100000000E-03 0.  1.
         11   -1    0    0    0    0 -0.00000000000E+00 -0.00000000000E+00 -0.45593999997E+02  0.45594000000E+02  0.51100000000E-03 0. -1.
    9900012    2    1    2    0    0 -0.44728743425E+01  0.32793907511E+02  0.30555952260E+02  0.46142321037E+02  0.10000029873E+02 0.  0.
         12    1    1    2    0    0  0.44728743425E+01 -0.32793907511E+02 -0.30555952260E+02  0.45045678963E+02  0.00000000000E+00 0. -1.
         11    1    3    3    0    0 -0.11637884143E+01  0.18142786054E+02  0.18936041393E+02  0.26250500056E+02  0.51100000000E-03 0. -1.
        -11    1    3    3    0    0 -0.11597060909E+01 -0.12165703009E+00  0.12845859366E+01  0.17349005562E+01  0.51100000000E-03 0.  1.
         12    1    3    3    0    0 -0.21493798372E+01  0.14772778487E+02  0.10335324931E+02  0.18156920425E+02  0.00000000000E+00 0. -1.
</event>
<event>
 7    1  0.2425980E-008  0.4614232E+02  0.7816164E-02  0.1320468E+00
        -11   -1    0    0    0    0  0.00000000000E+00  0.00000000000E+00  0.45593999997E+02  0.45594000000E+02  0.51100000000E-03 0. -1.
         11   -1    0    0    0    0 -0.00000000000E+00 -0.00000000000E+00 -0.45593999997E+02  0.45594000000E+02  0.51100000000E-03 0.  1.
    9900012    2    1    2    0    0  0.54522319975E+01 -0.39797273983E+02 -0.20385377761E+02  0.46142317891E+02  0.10000001182E+02 0.  0.
         12    1    1    2    0    0 -0.54522319975E+01  0.39797273983E+02  0.20385377761E+02  0.45045682109E+02  0.00000000000E+00 0. -1.
         11    1    3    3    0    0  0.16645059177E+01 -0.17647417338E+02 -0.12454226458E+02  0.21663556392E+02  0.51100000000E-03 0. -1.
        -11    1    3    3    0    0  0.28741610884E+01 -0.22048267307E+02 -0.75228974736E+01  0.23472981912E+02  0.51100000000E-03 0.  1.
        -12    1    3    3    0    0  0.91356499139E+00 -0.10158933880E+00 -0.40825382929E+00  0.10057795864E+01  0.00000000000E+00 0.  1.
</event>
<event>
 7    1  0.2425980E-008  0.4614232E+02  0.7816164E-02  0.1320468E+00
        -11   -1    0    0    0    0  0.00000000000E+00  0.00000000000E+00  0.45593999997E+02  0.45594000000E+02  0.51100000000E-03 0. -1.
         11   -1    0    0    0    0 -0.00000000000E+00 -0.00000000000E+00 -0.45593999997E+02  0.45594000000E+02  0.51100000000E-03 0.  1.
    9900012    2    1    2    0    0  0.40969205416E+02  0.55437299829E+00 -0.18717113611E+02  0.46142318035E+02  0.10000002495E+02 0.  0.
         12    1    1    2    0    0 -0.40969205416E+02 -0.55437299829E+00  0.18717113611E+02  0.45045681965E+02  0.00000000000E+00 0. -1.
         11    1    3    3    0    0  0.25418139482E+01  0.98320642001E+00 -0.36065295160E+01  0.45204610852E+01  0.51100000000E-03 0. -1.
        -11    1    3    3    0    0  0.12340078349E+02 -0.25471031919E+01 -0.44989710107E+01  0.13379312715E+02  0.51100000000E-03 0.  1.
         12    1    3    3    0    0  0.26087313119E+02  0.21182697702E+01 -0.10611613084E+02  0.28242544234E+02  0.00000000000E+00 0. -1.
</event>
<event>
 7    1  0.2425980E-008  0.4614232E+02  0.7816164E-02  0.1320468E+00
        -11   -1    0    0    0    0  0.00000000000E+00  0.00000000000E+00  0.45593999997E+02  0.45594000000E+02  0.51100000000E-03 0. -1.
         11   -1    0    0    0    0 -0.00000000000E+00 -0.00000000000E+00 -0.45593999997E+02  0.45594000000E+02  0.51100000000E-03 0.  1.
    9900012    2    1    2    0    0  0.26535803007E+02 -0.19828694618E+02 -0.30525195339E+02  0.46142317388E+02  0.99999965988E+01 0.  0.
         12    1    1    2    0    0 -0.26535803007E+02  0.19828694618E+02  0.30525195339E+02  0.45045682612E+02  0.00000000000E+00 0. -1.
         11    1    3    3    0    0  0.17552725616E+02 -0.96180546910E+01 -0.16248649507E+02  0.25780297975E+02  0.51100000000E-03 0. -1.
        -11    1    3    3    0    0  0.45263258045E+01 -0.26574925752E+01 -0.80361388293E+01  0.95984071398E+01  0.51100000000E-03 0.  1.
         12    1    3    3    0    0  0.44567515864E+01 -0.75531473516E+01 -0.62404070026E+01  0.10763612274E+02  0.00000000000E+00 0. -1.
</event>
<event>
 7    1  0.2425980E-008  0.4614232E+02  0.7816164E-02  0.1320468E+00
        -11   -1    0    0    0    0  0.00000000000E+00  0.00000000000E+00  0.45593999997E+02  0.45594000000E+02  0.51100000000E-03 0.  1.
         11   -1    0    0    0    0 -0.00000000000E+00 -0.00000000000E+00 -0.45593999997E+02  0.45594000000E+02  0.51100000000E-03 0. -1.
    9900012    2    1    2    0    0  0.48399923295E+01  0.19740962462E+02  0.40199283497E+02  0.46142317428E+02  0.99999969630E+01 0.  0.
         12    1    1    2    0    0 -0.48399923295E+01 -0.19740962462E+02 -0.40199283497E+02  0.45045682572E+02  0.00000000000E+00 0. -1.
         11    1    3    3    0    0  0.44202589406E+01  0.68402974834E+01  0.13457708456E+02  0.15730170880E+02  0.51100000000E-03 0. -1.
        -11    1    3    3    0    0  0.32719377955E+01  0.43255601035E+01  0.92046211432E+01  0.10683683719E+02  0.51100000000E-03 0.  1.
         12    1    3    3    0    0 -0.28522044066E+01  0.85751048755E+01  0.17536953898E+02  0.19728462830E+02  0.00000000000E+00 0. -1.
</event>
<event>
 7    1  0.2425980E-008  0.4614232E+02  0.7816164E-02  0.1320468E+00
        -11   -1    0    0    0    0  0.00000000000E+00  0.00000000000E+00  0.45593999997E+02  0.45594000000E+02  0.51100000000E-03 0.  1.
         11   -1    0    0    0    0 -0.00000000000E+00 -0.00000000000E+00 -0.45593999997E+02  0.45594000000E+02  0.51100000000E-03 0. -1.
    9900012    2    1    2    0    0  0.26932851467E+02 -0.77049396161E+01  0.35275614264E+02  0.46142317140E+02  0.99999943362E+01 0.  0.
         12    1    1    2    0    0 -0.26932851467E+02  0.77049396161E+01 -0.35275614264E+02  0.45045682860E+02  0.00000000000E+00 0. -1.
         11    1    3    3    0    0 -0.42526304126E+00 -0.33557500804E-01  0.41976402259E+00  0.59847878485E+00  0.51100000000E-03 0. -1.
        -11    1    3    3    0    0  0.72667043788E+01 -0.25625789621E+01  0.49605904614E+01  0.91640199396E+01  0.51100000000E-03 0.  1.
        -12    1    3    3    0    0  0.20091410130E+02 -0.51088031532E+01  0.29895259780E+02  0.36379818416E+02  0.00000000000E+00 0.  1.
</event>
<event>
 7    1  0.2425980E-008  0.4614232E+02  0.7816164E-02  0.1320468E+00
        -11   -1    0    0    0    0  0.00000000000E+00  0.00000000000E+00  0.45593999997E+02  0.45594000000E+02  0.51100000000E-03 0.  1.
         11   -1    0    0    0    0 -0.00000000000E+00 -0.00000000000E+00 -0.45593999997E+02  0.45594000000E+02  0.51100000000E-03 0. -1.
    9900012    2    1    2    0    0  0.10768280848E+02 -0.56478651039E+01  0.43373484722E+02  0.46142318413E+02  0.10000005947E+02 0.  0.
         12    1    1    2    0    0 -0.10768280848E+02  0.56478651039E+01 -0.43373484722E+02  0.45045681587E+02  0.00000000000E+00 0. -1.
         11    1    3    3    0    0  0.29246270064E+00  0.86283958738E+00  0.11186379045E+02  0.11223417616E+02  0.51100000000E-03 0. -1.
        -11    1    3    3    0    0  0.71112417292E+01 -0.33781054580E+01  0.26279028169E+02  0.27432985204E+02  0.51100000000E-03 0.  1.
        -12    1    3    3    0    0  0.33645764181E+01 -0.31325992333E+01  0.59080775082E+01  0.74859155935E+01  0.00000000000E+00 0.  1.
</event>
<event>
 7    1  0.2425980E-008  0.4614232E+02  0.7816164E-02  0.1320468E+00
        -11   -1    0    0    0    0  0.00000000000E+00  0.00000000000E+00  0.45593999997E+02  0.45594000000E+02  0.51100000000E-03 0. -1.
         11   -1    0    0    0    0 -0.00000000000E+00 -0.00000000000E+00 -0.45593999997E+02  0.45594000000E+02  0.51100000000E-03 0.  1.
    9900012    2    1    2    0    0  0.77509145803E+01  0.27777901211E+02 -0.34603829848E+02  0.46142317492E+02  0.99999975417E+01 0.  0.
         12    1    1    2    0    0 -0.77509145803E+01 -0.27777901211E+02  0.34603829848E+02  0.45045682508E+02  0.00000000000E+00 0. -1.
         11    1    3    3    0    0  0.94410063524E+01  0.18262907112E+02 -0.21075871822E+02  0.29442465088E+02  0.51100000000E-03 0. -1.
        -11    1    3    3    0    0 -0.63460224787E+00  0.28407977505E+01 -0.29232068775E+01  0.41252867272E+01  0.51100000000E-03 0.  1.
         12    1    3    3    0    0 -0.10554895242E+01  0.66741963480E+01 -0.10604751148E+02  0.12574565676E+02  0.00000000000E+00 0. -1.
</event>
<event>
 7    1  0.2425980E-008  0.4614232E+02  0.7816164E-02  0.1320468E+00
        -11   -1    0    0    0    0  0.00000000000E+00  0.00000000000E+00  0.45593999997E+02  0.45594000000E+02  0.51100000000E-03 0. -1.
         11   -1    0    0    0    0 -0.00000000000E+00 -0.00000000000E+00 -0.45593999997E+02  0.45594000000E+02  0.51100000000E-03 0.  1.
    9900012    2    1    2    0    0 -0.14136894792E+02 -0.40009385114E+02 -0.15116574615E+02  0.46142317414E+02  0.99999968356E+01 0.  0.
         12    1    1    2    0    0  0.14136894792E+02  0.40009385114E+02  0.15116574615E+02  0.45045682586E+02  0.00000000000E+00 0. -1.
         11    1    3    3    0    0 -0.20456493384E+01 -0.79744410750E+01 -0.22746113332E+01  0.85410917717E+01  0.51100000000E-03 0. -1.
        -11    1    3    3    0    0 -0.15723225782E+01 -0.15088415030E+02 -0.76548599431E+01  0.16992037766E+02  0.51100000000E-03 0.  1.
         12    1    3    3    0    0 -0.10518922876E+02 -0.16946529008E+02 -0.51871033384E+01  0.20609187877E+02  0.00000000000E+00 0. -1.
</event>
<event>
 7    1  0.2425980E-008  0.4614232E+02  0.7816164E-02  0.1320468E+00
        -11   -1    0    0    0    0  0.00000000000E+00  0.00000000000E+00  0.45593999997E+02  0.45594000000E+02  0.51100000000E-03 0.  1.
         11   -1    0    0    0    0 -0.00000000000E+00 -0.00000000000E+00 -0.45593999997E+02  0.45594000000E+02  0.51100000000E-03 0. -1.
    9900012    2    1    2    0    0 -0.94265189374E+01 -0.39765150595E+02  0.18946953294E+02  0.46142317629E+02  0.99999987958E+01 0.  0.
         12    1    1    2    0    0  0.94265189374E+01  0.39765150595E+02 -0.18946953294E+02  0.45045682371E+02  0.00000000000E+00 0. -1.
         11    1    3    3    0    0 -0.51083360363E+01 -0.10408677563E+02  0.38441390906E+01  0.12215280238E+02  0.51100000000E-03 0. -1.
        -11    1    3    3    0    0 -0.44454718528E+01 -0.14215517123E+02  0.49445397269E+01  0.15693680908E+02  0.51100000000E-03 0.  1.
         12    1    3    3    0    0  0.12728895171E+00 -0.15140955909E+02  0.10158274476E+02  0.18233356483E+02  0.00000000000E+00 0. -1.
</event>
<event>
 7    1  0.2425980E-008  0.4614232E+02  0.7816164E-02  0.1320468E+00
        -11   -1    0    0    0    0  0.00000000000E+00  0.00000000000E+00  0.45593999997E+02  0.45594000000E+02  0.51100000000E-03 0. -1.
         11   -1    0    0    0    0 -0.00000000000E+00 -0.00000000000E+00 -0.45593999997E+02  0.45594000000E+02  0.51100000000E-03 0.  1.
    9900012    2    1    2    0    0  0.80432487969E+01 -0.28795392180E+02 -0.33693397861E+02  0.46142317394E+02  0.99999966564E+01 0.  0.
         12    1    1    2    0    0 -0.80432487969E+01  0.28795392180E+02  0.33693397861E+02  0.45045682606E+02  0.00000000000E+00 0. -1.
         11    1    3    3    0    0  0.58560634370E+01 -0.63123721873E+01 -0.70996489213E+01  0.11159952360E+02  0.51100000000E-03 0. -1.
        -11    1    3    3    0    0  0.58498164408E-02 -0.23773574593E+01 -0.17728940019E+01  0.29656392418E+01  0.51100000000E-03 0.  1.
         12    1    3    3    0    0  0.21813355435E+01 -0.20105662533E+02 -0.24820854937E+02  0.32016725793E+02  0.00000000000E+00 0. -1.
</event>
<event>
 7    1  0.2425980E-008  0.4614232E+02  0.7816164E-02  0.1320468E+00
        -11   -1    0    0    0    0  0.00000000000E+00  0.00000000000E+00  0.45593999997E+02  0.45594000000E+02  0.51100000000E-03 0.  1.
         11   -1    0    0    0    0 -0.00000000000E+00 -0.00000000000E+00 -0.45593999997E+02  0.45594000000E+02  0.51100000000E-03 0. -1.
    9900012    2    1    2    0    0 -0.40753957502E+02  0.17614785014E+02  0.76123460153E+01  0.46142317466E+02  0.99999973065E+01 0.  0.
         12    1    1    2    0    0  0.40753957502E+02 -0.17614785014E+02 -0.76123460153E+01  0.45045682534E+02  0.00000000000E+00 0. -1.
         11    1    3    3    0    0 -0.35656082823E+01 -0.27053416315E+00  0.11979554971E+01  0.37711866555E+01  0.51100000000E-03 0. -1.
        -11    1    3    3    0    0 -0.34433091038E+02  0.14120100744E+02  0.55926169426E+01  0.37633660040E+02  0.51100000000E-03 0.  1.
        -12    1    3    3    0    0 -0.27552581810E+01  0.37652184327E+01  0.82177357561E+00  0.47374707703E+01  0.00000000000E+00 0.  1.
</event>
<event>
 7    1  0.2425980E-008  0.4614232E+02  0.7816164E-02  0.1320468E+00
        -11   -1    0    0    0    0  0.00000000000E+00  0.00000000000E+00  0.45593999997E+02  0.45594000000E+02  0.51100000000E-03 0.  1.
         11   -1    0    0    0    0 -0.00000000000E+00 -0.00000000000E+00 -0.45593999997E+02  0.45594000000E+02  0.51100000000E-03 0. -1.
    9900012    2    1    2    0    0 -0.22053003877E+02  0.30744211151E+02  0.24445285457E+02  0.46142317850E+02  0.10000000811E+02 0.  0.
         12    1    1    2    0    0  0.22053003877E+02 -0.30744211151E+02 -0.24445285457E+02  0.45045682150E+02  0.00000000000E+00 0. -1.
         11    1    3    3    0    0 -0.66316037533E+01  0.72538371713E+01  0.38122114215E+01  0.10541787241E+02  0.51100000000E-03 0.  1.
        -11    1    3    3    0    0 -0.33461371190E+01  0.54820440303E+01  0.13040613873E+01  0.65536262277E+01  0.51100000000E-03 0. -1.
        -12    1    3    3    0    0 -0.12075263005E+02  0.18008329949E+02  0.19329012649E+02  0.29046904382E+02  0.00000000000E+00 0.  1.
</event>
<event>
 7    1  0.2425980E-008  0.4614232E+02  0.7816164E-02  0.1320468E+00
        -11   -1    0    0    0    0  0.00000000000E+00  0.00000000000E+00  0.45593999997E+02  0.45594000000E+02  0.51100000000E-03 0.  1.
         11   -1    0    0    0    0 -0.00000000000E+00 -0.00000000000E+00 -0.45593999997E+02  0.45594000000E+02  0.51100000000E-03 0. -1.
    9900012    2    1    2    0    0 -0.36864934628E+01 -0.19486053232E+02  0.40445232580E+02  0.46142319374E+02  0.10000014704E+02 0.  0.
         12    1    1    2    0    0  0.36864934628E+01  0.19486053232E+02 -0.40445232580E+02  0.45045680626E+02  0.00000000000E+00 0. -1.
         11    1    3    3    0    0 -0.33439465396E+00 -0.78871441027E-01  0.29874885516E+01  0.30071795084E+01  0.51100000000E-03 0. -1.
        -11    1    3    3    0    0  0.17679297184E+01 -0.34961039727E+01  0.12482480105E+02  0.13082837166E+02  0.51100000000E-03 0.  1.
        -12    1    3    3    0    0 -0.51200285272E+01 -0.15911077819E+02  0.24975263924E+02  0.30052302699E+02  0.00000000000E+00 0.  1.
</event>
<event>
 7    1  0.2425980E-008  0.4614232E+02  0.7816164E-02  0.1320468E+00
        -11   -1    0    0    0    0  0.00000000000E+00  0.00000000000E+00  0.45593999997E+02  0.45594000000E+02  0.51100000000E-03 0.  1.
         11   -1    0    0    0    0 -0.00000000000E+00 -0.00000000000E+00 -0.45593999997E+02  0.45594000000E+02  0.51100000000E-03 0. -1.
    9900012    2    1    2    0    0  0.49765772794E+01 -0.37198711983E+02  0.24911908176E+02  0.46142315816E+02  0.99999822643E+01 0.  0.
         12    1    1    2    0    0 -0.49765772794E+01  0.37198711983E+02 -0.24911908176E+02  0.45045684184E+02  0.00000000000E+00 0. -1.
         11    1    3    3    0    0  0.34666546804E+01 -0.54439228520E+01  0.28560662143E+01  0.70576982915E+01  0.51100000000E-03 0. -1.
        -11    1    3    3    0    0 -0.76923782465E+00 -0.39523931672E+01  0.48739209733E+01  0.63220443287E+01  0.51100000000E-03 0.  1.
        -12    1    3    3    0    0  0.22791604237E+01 -0.27802395964E+02  0.17181920989E+02  0.32762573196E+02  0.00000000000E+00 0.  1.
</event>
<event>
 7    1  0.2425980E-008  0.4614232E+02  0.7816164E-02  0.1320468E+00
        -11   -1    0    0    0    0  0.00000000000E+00  0.00000000000E+00  0.45593999997E+02  0.45594000000E+02  0.51100000000E-03 0.  1.
         11   -1    0    0    0    0 -0.00000000000E+00 -0.00000000000E+00 -0.45593999997E+02  0.45594000000E+02  0.51100000000E-03 0. -1.
    9900012    2    1    2    0    0  0.37382826841E+02 -0.18489056375E+02  0.17023294648E+02  0.46142317533E+02  0.99999979192E+01 0.  0.
         12    1    1    2    0    0 -0.37382826841E+02  0.18489056375E+02 -0.17023294648E+02  0.45045682467E+02  0.00000000000E+00 0. -1.
         11    1    3    3    0    0  0.43003914780E+01 -0.26569591464E+01 -0.34092967277E+00  0.50664614942E+01  0.51100000000E-03 0. -1.
        -11    1    3    3    0    0  0.18753769956E+02 -0.12408947058E+02  0.10137004510E+02  0.24666672158E+02  0.51100000000E-03 0.  1.
        -12    1    3    3    0    0  0.14328665407E+02 -0.34231501700E+01  0.72272198110E+01  0.16409183881E+02  0.00000000000E+00 0.  1.
</event>
<event>
 7    1  0.2425980E-008  0.4614232E+02  0.7816164E-02  0.1320468E+00
        -11   -1    0    0    0    0  0.00000000000E+00  0.00000000000E+00  0.45593999997E+02  0.45594000000E+02  0.51100000000E-03 0.  1.
         11   -1    0    0    0    0 -0.00000000000E+00 -0.00000000000E+00 -0.45593999997E+02  0.45594000000E+02  0.51100000000E-03 0. -1.
    9900012    2    1    2    0    0 -0.15233650191E+02  0.20379041198E+02  0.37171817707E+02  0.46142318188E+02  0.10000003889E+02 0.  0.
         12    1    1    2    0    0  0.15233650191E+02 -0.20379041198E+02 -0.37171817707E+02  0.45045681812E+02  0.00000000000E+00 0. -1.
         11    1    3    3    0    0 -0.39034839782E+01  0.67007918227E+01  0.66955495506E+01  0.10245398102E+02  0.51100000000E-03 0. -1.
        -11    1    3    3    0    0 -0.70750532010E+01  0.73598089860E+01  0.11119933520E+02  0.15095565172E+02  0.51100000000E-03 0.  1.
        -12    1    3    3    0    0 -0.42551130122E+01  0.63184403891E+01  0.19356334636E+02  0.20801354914E+02  0.00000000000E+00 0.  1.
</event>
<event>
 7    1  0.2425980E-008  0.4614232E+02  0.7816164E-02  0.1320468E+00
        -11   -1    0    0    0    0  0.00000000000E+00  0.00000000000E+00  0.45593999997E+02  0.45594000000E+02  0.51100000000E-03 0.  1.
         11   -1    0    0    0    0 -0.00000000000E+00 -0.00000000000E+00 -0.45593999997E+02  0.45594000000E+02  0.51100000000E-03 0. -1.
    9900012    2    1    2    0    0 -0.25621071758E+02  0.31474924260E+02  0.19544904990E+02  0.46142317784E+02  0.10000000211E+02 0.  0.
         12    1    1    2    0    0  0.25621071758E+02 -0.31474924260E+02 -0.19544904990E+02  0.45045682216E+02  0.00000000000E+00 0. -1.
         11    1    3    3    0    0 -0.71464624061E+01  0.15550401611E+02  0.91184849523E+01  0.19391587951E+02  0.51100000000E-03 0. -1.
        -11    1    3    3    0    0 -0.96392616823E+01  0.60961619523E+01  0.43795780883E+01  0.12217170737E+02  0.51100000000E-03 0.  1.
        -12    1    3    3    0    0 -0.88353476700E+01  0.98283606967E+01  0.60468419498E+01  0.14533559096E+02  0.00000000000E+00 0.  1.
</event>
<event>
 7    1  0.2425980E-008  0.4614232E+02  0.7816164E-02  0.1320468E+00
        -11   -1    0    0    0    0  0.00000000000E+00  0.00000000000E+00  0.45593999997E+02  0.45594000000E+02  0.51100000000E-03 0.  1.
         11   -1    0    0    0    0 -0.00000000000E+00 -0.00000000000E+00 -0.45593999997E+02  0.45594000000E+02  0.51100000000E-03 0. -1.
    9900012    2    1    2    0    0 -0.42583296579E+02 -0.24426677129E+01  0.14484809672E+02  0.46142317806E+02  0.10000000411E+02 0.  0.
         12    1    1    2    0    0  0.42583296579E+02  0.24426677129E+01 -0.14484809672E+02  0.45045682194E+02  0.00000000000E+00 0. -1.
         11    1    3    3    0    0 -0.97671674062E+01  0.10757166733E+01  0.91900875439E+00  0.98691085136E+01  0.51100000000E-03 0. -1.
        -11    1    3    3    0    0 -0.38077726249E+01  0.83452036513E+00  0.35638845654E+01  0.52817449824E+01  0.51100000000E-03 0.  1.
         12    1    3    3    0    0 -0.29008356548E+02 -0.43529047513E+01  0.10001916353E+02  0.30991464310E+02  0.00000000000E+00 0. -1.
</event>
<event>
 7    1  0.2425980E-008  0.4614232E+02  0.7816164E-02  0.1320468E+00
        -11   -1    0    0    0    0  0.00000000000E+00  0.00000000000E+00  0.45593999997E+02  0.45594000000E+02  0.51100000000E-03 0.  1.
         11   -1    0    0    0    0 -0.00000000000E+00 -0.00000000000E+00 -0.45593999997E+02  0.45594000000E+02  0.51100000000E-03 0. -1.
    9900012    2    1    2    0    0  0.27885096639E+01 -0.30381077539E+02  0.33141029727E+02  0.46142317522E+02  0.99999978172E+01 0.  0.
         12    1    1    2    0    0 -0.27885096639E+01  0.30381077539E+02 -0.33141029727E+02  0.45045682478E+02  0.00000000000E+00 0. -1.
         11    1    3    3    0    0  0.30570240486E+01 -0.27764554057E+01  0.23935157768E+01  0.47731560511E+01  0.51100000000E-03 0. -1.
        -11    1    3    3    0    0 -0.93275996735E+00 -0.96267699850E+01  0.11398397438E+02  0.14948852997E+02  0.51100000000E-03 0.  1.
         12    1    3    3    0    0  0.66424558272E+00 -0.17977852148E+02  0.19349116512E+02  0.26420308474E+02  0.00000000000E+00 0. -1.
</event>
<event>
 7    1  0.2425980E-008  0.4614232E+02  0.7816164E-02  0.1320468E+00
        -11   -1    0    0    0    0  0.00000000000E+00  0.00000000000E+00  0.45593999997E+02  0.45594000000E+02  0.51100000000E-03 0.  1.
         11   -1    0    0    0    0 -0.00000000000E+00 -0.00000000000E+00 -0.45593999997E+02  0.45594000000E+02  0.51100000000E-03 0. -1.
    9900012    2    1    2    0    0  0.11221131940E+02  0.66274286586E+01  0.43119332649E+02  0.46142318068E+02  0.10000002796E+02 0.  0.
         12    1    1    2    0    0 -0.11221131940E+02 -0.66274286586E+01 -0.43119332649E+02  0.45045681932E+02  0.00000000000E+00 0. -1.
         11    1    3    3    0    0  0.45673719467E+01  0.11589702346E+00  0.70059882195E+01  0.83641012555E+01  0.51100000000E-03 0. -1.
        -11    1    3    3    0    0  0.74357026003E+01  0.69169893666E+01  0.34112126255E+02  0.35591734616E+02  0.51100000000E-03 0.  1.
        -12    1    3    3    0    0 -0.78194260725E+00 -0.40545773146E+00  0.20012181746E+01  0.21864821964E+01  0.00000000000E+00 0.  1.
</event>
<event>
 7    1  0.2425980E-008  0.4614232E+02  0.7816164E-02  0.1320468E+00
        -11   -1    0    0    0    0  0.00000000000E+00  0.00000000000E+00  0.45593999997E+02  0.45594000000E+02  0.51100000000E-03 0. -1.
         11   -1    0    0    0    0 -0.00000000000E+00 -0.00000000000E+00 -0.45593999997E+02  0.45594000000E+02  0.51100000000E-03 0.  1.
    9900012    2    1    2    0    0 -0.32089319172E+02  0.24673877069E+02 -0.19763320659E+02  0.46142318098E+02  0.10000003072E+02 0.  0.
         12    1    1    2    0    0  0.32089319172E+02 -0.24673877069E+02  0.19763320659E+02  0.45045681902E+02  0.00000000000E+00 0. -1.
         11    1    3    3    0    0 -0.45998080929E+01  0.39452345005E+01 -0.51506387256E+01  0.79531244991E+01  0.51100000000E-03 0. -1.
        -11    1    3    3    0    0 -0.24782021823E+02  0.20326108864E+02 -0.15063950458E+02  0.35414995565E+02  0.51100000000E-03 0.  1.
        -12    1    3    3    0    0 -0.27074892556E+01  0.40253370527E+00  0.45126852420E+00  0.27741980343E+01  0.00000000000E+00 0.  1.
</event>
<event>
 7    1  0.2425980E-008  0.4614232E+02  0.7816164E-02  0.1320468E+00
        -11   -1    0    0    0    0  0.00000000000E+00  0.00000000000E+00  0.45593999997E+02  0.45594000000E+02  0.51100000000E-03 0. -1.
         11   -1    0    0    0    0 -0.00000000000E+00 -0.00000000000E+00 -0.45593999997E+02  0.45594000000E+02  0.51100000000E-03 0.  1.
    9900012    2    1    2    0    0 -0.25570490837E+02  0.13391230016E+02 -0.34582343265E+02  0.46142317536E+02  0.99999979479E+01 0.  0.
         12    1    1    2    0    0  0.25570490837E+02 -0.13391230016E+02  0.34582343265E+02  0.45045682464E+02  0.00000000000E+00 0. -1.
         11    1    3    3    0    0 -0.72360267722E+01  0.58194056536E+01 -0.62475836585E+01  0.11191866129E+02  0.51100000000E-03 0. -1.
        -11    1    3    3    0    0 -0.10519714981E+02  0.65621178748E+01 -0.14992405315E+02  0.19455025358E+02  0.51100000000E-03 0.  1.
         12    1    3    3    0    0 -0.78147490832E+01  0.10097064874E+01 -0.13342354291E+02  0.15495426049E+02  0.00000000000E+00 0. -1.
</event>
<event>
 7    1  0.2425980E-008  0.4614232E+02  0.7816164E-02  0.1320468E+00
        -11   -1    0    0    0    0  0.00000000000E+00  0.00000000000E+00  0.45593999997E+02  0.45594000000E+02  0.51100000000E-03 0.  1.
         11   -1    0    0    0    0 -0.00000000000E+00 -0.00000000000E+00 -0.45593999997E+02  0.45594000000E+02  0.51100000000E-03 0. -1.
    9900012    2    1    2    0    0  0.44862344773E+02  0.28036735106E+01 -0.29364785600E+01  0.46142317965E+02  0.10000001856E+02 0.  0.
         12    1    1    2    0    0 -0.44862344773E+02 -0.28036735106E+01  0.29364785600E+01  0.45045682035E+02  0.00000000000E+00 0. -1.
         11    1    3    3    0    0  0.15442255585E+02  0.36610037189E+01  0.10133018226E+01  0.15902609428E+02  0.51100000000E-03 0. -1.
        -11    1    3    3    0    0  0.78991804579E+00 -0.71393629409E+00  0.64197321131E+00  0.12433042332E+01  0.51100000000E-03 0.  1.
         12    1    3    3    0    0  0.28630171142E+02 -0.14339391417E+00 -0.45917535939E+01  0.28996404303E+02  0.00000000000E+00 0. -1.
</event>
<event>
 7    1  0.2425980E-008  0.4614232E+02  0.7816164E-02  0.1320468E+00
        -11   -1    0    0    0    0  0.00000000000E+00  0.00000000000E+00  0.45593999997E+02  0.45594000000E+02  0.51100000000E-03 0. -1.
         11   -1    0    0    0    0 -0.00000000000E+00 -0.00000000000E+00 -0.45593999997E+02  0.45594000000E+02  0.51100000000E-03 0.  1.
    9900012    2    1    2    0    0  0.18428829673E+02  0.16126078931E+02 -0.37807952749E+02  0.46142317899E+02  0.10000001262E+02 0.  0.
         12    1    1    2    0    0 -0.18428829673E+02 -0.16126078931E+02  0.37807952749E+02  0.45045682101E+02  0.00000000000E+00 0. -1.
         11    1    3    3    0    0  0.80299549453E+01  0.78001426760E+01 -0.22178352017E+02  0.24843544446E+02  0.51100000000E-03 0. -1.
        -11    1    3    3    0    0  0.52810370633E+01  0.34448876082E+01 -0.33797795640E+01  0.71539858303E+01  0.51100000000E-03 0.  1.
        -12    1    3    3    0    0  0.51178376647E+01  0.48810486469E+01 -0.12249821168E+02  0.14144787623E+02  0.00000000000E+00 0.  1.
</event>
<event>
 7    1  0.2425980E-008  0.4614231E+02  0.7816164E-02  0.1320468E+00
        -11   -1    0    0    0    0  0.00000000000E+00  0.00000000000E+00  0.45593999997E+02  0.45594000000E+02  0.51100000000E-03 0.  1.
         11   -1    0    0    0    0 -0.00000000000E+00 -0.00000000000E+00 -0.45593999997E+02  0.45594000000E+02  0.51100000000E-03 0. -1.
    9900012    2    1    2    0    0 -0.14554278627E+02  0.41004472809E+02  0.11658471874E+02  0.46142314489E+02  0.99999701607E+01 0.  0.
         12    1    1    2    0    0  0.14554278627E+02 -0.41004472809E+02 -0.11658471874E+02  0.45045685511E+02  0.00000000000E+00 0. -1.
         11    1    3    3    0    0 -0.48682758590E+01  0.64283460202E+01  0.16247059917E+01  0.82257773016E+01  0.51100000000E-03 0.  1.
        -11    1    3    3    0    0 -0.96838258374E+01  0.27764093118E+02  0.60344012924E+01  0.30017250853E+02  0.51100000000E-03 0. -1.
         12    1    3    3    0    0 -0.21769306951E-02  0.68120336708E+01  0.39993645900E+01  0.78992863345E+01  0.00000000000E+00 0. -1.
</event>
<event>
 7    1  0.2425980E-008  0.4614232E+02  0.7816164E-02  0.1320468E+00
        -11   -1    0    0    0    0  0.00000000000E+00  0.00000000000E+00  0.45593999997E+02  0.45594000000E+02  0.51100000000E-03 0.  1.
         11   -1    0    0    0    0 -0.00000000000E+00 -0.00000000000E+00 -0.45593999997E+02  0.45594000000E+02  0.51100000000E-03 0. -1.
    9900012    2    1    2    0    0 -0.71914165320E+01 -0.10979573481E+02  0.43091135659E+02  0.46142317877E+02  0.10000001052E+02 0.  0.
         12    1    1    2    0    0  0.71914165320E+01  0.10979573481E+02 -0.43091135659E+02  0.45045682123E+02  0.00000000000E+00 0. -1.
         11    1    3    3    0    0 -0.28613278920E+01 -0.18015672129E+00  0.46980673332E+01  0.55037705874E+01  0.51100000000E-03 0. -1.
        -11    1    3    3    0    0  0.15691884183E+01 -0.26131403491E+01  0.12037292736E+02  0.12417216735E+02  0.51100000000E-03 0.  1.
        -12    1    3    3    0    0 -0.58992770583E+01 -0.81862764102E+01  0.26355775591E+02  0.28221330554E+02  0.00000000000E+00 0.  1.
</event>
<event>
 7    1  0.2425980E-008  0.4614232E+02  0.7816164E-02  0.1320468E+00
        -11   -1    0    0    0    0  0.00000000000E+00  0.00000000000E+00  0.45593999997E+02  0.45594000000E+02  0.51100000000E-03 0.  1.
         11   -1    0    0    0    0 -0.00000000000E+00 -0.00000000000E+00 -0.45593999997E+02  0.45594000000E+02  0.51100000000E-03 0. -1.
    9900012    2    1    2    0    0  0.14854246168E+02  0.33611060186E+02  0.26053051601E+02  0.46142317701E+02  0.99999994522E+01 0.  0.
         12    1    1    2    0    0 -0.14854246168E+02 -0.33611060186E+02 -0.26053051601E+02  0.45045682299E+02  0.00000000000E+00 0. -1.
         11    1    3    3    0    0  0.29630906916E+01  0.16715544309E+01  0.19610012202E+01  0.39267705190E+01  0.51100000000E-03 0. -1.
        -11    1    3    3    0    0  0.12558645508E+02  0.30840773747E+02  0.23696450183E+02  0.40870461874E+02  0.51100000000E-03 0.  1.
        -12    1    3    3    0    0 -0.66749003134E+00  0.10987320089E+01  0.39560019789E+00  0.13450853080E+01  0.00000000000E+00 0.  1.
</event>
<event>
 7    1  0.2425980E-008  0.4614232E+02  0.7816164E-02  0.1320468E+00
        -11   -1    0    0    0    0  0.00000000000E+00  0.00000000000E+00  0.45593999997E+02  0.45594000000E+02  0.51100000000E-03 0.  1.
         11   -1    0    0    0    0 -0.00000000000E+00 -0.00000000000E+00 -0.45593999997E+02  0.45594000000E+02  0.51100000000E-03 0. -1.
    9900012    2    1    2    0    0  0.59094787667E-01 -0.20918704386E+02  0.39893831722E+02  0.46142317689E+02  0.99999993459E+01 0.  0.
         12    1    1    2    0    0 -0.59094787667E-01  0.20918704386E+02 -0.39893831722E+02  0.45045682311E+02  0.00000000000E+00 0. -1.
         11    1    3    3    0    0  0.34867989552E+01 -0.34282193266E+01  0.12444680519E+02  0.13370883598E+02  0.51100000000E-03 0. -1.
        -11    1    3    3    0    0 -0.52843923435E+00 -0.29029769691E+01  0.57746713408E+01  0.64848556393E+01  0.51100000000E-03 0.  1.
         12    1    3    3    0    0 -0.28992649332E+01 -0.14587508090E+02  0.21674479862E+02  0.26286578453E+02  0.00000000000E+00 0. -1.
</event>
<event>
 7    1  0.2425980E-008  0.4614232E+02  0.7816164E-02  0.1320468E+00
        -11   -1    0    0    0    0  0.00000000000E+00  0.00000000000E+00  0.45593999997E+02  0.45594000000E+02  0.51100000000E-03 0. -1.
         11   -1    0    0    0    0 -0.00000000000E+00 -0.00000000000E+00 -0.45593999997E+02  0.45594000000E+02  0.51100000000E-03 0.  1.
    9900012    2    1    2    0    0  0.14344739933E+02 -0.47401610654E+01 -0.42436694483E+02  0.46142315086E+02  0.99999756069E+01 0.  0.
         12    1    1    2    0    0 -0.14344739933E+02  0.47401610654E+01  0.42436694483E+02  0.45045684914E+02  0.00000000000E+00 0. -1.
         11    1    3    3    0    0  0.83283227223E+01  0.85053845901E-01 -0.20796582795E+02  0.22402367057E+02  0.51100000000E-03 0. -1.
        -11    1    3    3    0    0  0.42750659196E+01 -0.36394328054E+01 -0.20673002184E+02  0.21421827170E+02  0.51100000000E-03 0.  1.
        -12    1    3    3    0    0  0.17413512916E+01 -0.11857821059E+01 -0.96710950428E+00  0.23181208589E+01  0.00000000000E+00 0.  1.
</event>
<event>
 7    1  0.2425980E-008  0.4614232E+02  0.7816164E-02  0.1320468E+00
        -11   -1    0    0    0    0  0.00000000000E+00  0.00000000000E+00  0.45593999997E+02  0.45594000000E+02  0.51100000000E-03 0.  1.
         11   -1    0    0    0    0 -0.00000000000E+00 -0.00000000000E+00 -0.45593999997E+02  0.45594000000E+02  0.51100000000E-03 0. -1.
    9900012    2    1    2    0    0  0.12960766771E+02 -0.26187478855E+02  0.34283348772E+02  0.46142317331E+02  0.99999960787E+01 0.  0.
         12    1    1    2    0    0 -0.12960766771E+02  0.26187478855E+02 -0.34283348772E+02  0.45045682669E+02  0.00000000000E+00 0. -1.
         11    1    3    3    0    0 -0.10190142023E+01 -0.23163097545E+01  0.12652968005E+01  0.28292502678E+01  0.51100000000E-03 0. -1.
        -11    1    3    3    0    0  0.77550372314E+01 -0.16658597018E+02  0.19717615324E+02  0.26952436094E+02  0.51100000000E-03 0.  1.
         12    1    3    3    0    0  0.62247437423E+01 -0.72125720827E+01  0.13300436647E+02  0.16360630969E+02  0.00000000000E+00 0. -1.
</event>
<event>
 7    1  0.2425980E-008  0.4614232E+02  0.7816164E-02  0.1320468E+00
        -11   -1    0    0    0    0  0.00000000000E+00  0.00000000000E+00  0.45593999997E+02  0.45594000000E+02  0.51100000000E-03 0.  1.
         11   -1    0    0    0    0 -0.00000000000E+00 -0.00000000000E+00 -0.45593999997E+02  0.45594000000E+02  0.51100000000E-03 0. -1.
    9900012    2    1    2    0    0  0.16030089992E+02 -0.42094185095E+02  0.47887096945E+00  0.46142317394E+02  0.99999966568E+01 0.  0.
         12    1    1    2    0    0 -0.16030089992E+02  0.42094185095E+02 -0.47887096945E+00  0.45045682606E+02  0.00000000000E+00 0. -1.
         11    1    3    3    0    0  0.28686424818E+01 -0.40440258160E+01 -0.22395085233E+01  0.54404644264E+01  0.51100000000E-03 0. -1.
        -11    1    3    3    0    0  0.82867330760E+01 -0.27587178967E+02 -0.16084872746E+00  0.28805351256E+02  0.51100000000E-03 0.  1.
         12    1    3    3    0    0  0.48747144338E+01 -0.10462980313E+02  0.28792282202E+01  0.11896501712E+02  0.00000000000E+00 0. -1.
</event>
<event>
 7    1  0.2425980E-008  0.4614232E+02  0.7816164E-02  0.1320468E+00
        -11   -1    0    0    0    0  0.00000000000E+00  0.00000000000E+00  0.45593999997E+02  0.45594000000E+02  0.51100000000E-03 0. -1.
         11   -1    0    0    0    0 -0.00000000000E+00 -0.00000000000E+00 -0.45593999997E+02  0.45594000000E+02  0.51100000000E-03 0.  1.
    9900012    2    1    2    0    0 -0.11648156310E+02  0.34163627588E+02 -0.26949590162E+02  0.46142318683E+02  0.10000008408E+02 0.  0.
         12    1    1    2    0    0  0.11648156310E+02 -0.34163627588E+02  0.26949590162E+02  0.45045681317E+02  0.00000000000E+00 0. -1.
         11    1    3    3    0    0 -0.29189023552E+00  0.28022954349E-01 -0.11574521695E+01  0.11940188362E+01  0.51100000000E-03 0. -1.
        -11    1    3    3    0    0 -0.81695363890E+01  0.12926316165E+02 -0.93490842480E+01  0.17923067566E+02  0.51100000000E-03 0.  1.
        -12    1    3    3    0    0 -0.31867296853E+01  0.21209288468E+02 -0.16443053745E+02  0.27025232281E+02  0.00000000000E+00 0.  1.
</event>
<event>
 7    1  0.2425980E-008  0.4614232E+02  0.7816164E-02  0.1320468E+00
        -11   -1    0    0    0    0  0.00000000000E+00  0.00000000000E+00  0.45593999997E+02  0.45594000000E+02  0.51100000000E-03 0. -1.
         11   -1    0    0    0    0 -0.00000000000E+00 -0.00000000000E+00 -0.45593999997E+02  0.45594000000E+02  0.51100000000E-03 0.  1.
    9900012    2    1    2    0    0 -0.20848259258E+02 -0.37967270634E+02 -0.12367292809E+02  0.46142317799E+02  0.10000000346E+02 0.  0.
         12    1    1    2    0    0  0.20848259258E+02  0.37967270634E+02  0.12367292809E+02  0.45045682201E+02  0.00000000000E+00 0. -1.
         11    1    3    3    0    0 -0.46361076543E+01 -0.93119143901E+01 -0.50184427588E+01  0.11549459372E+02  0.51100000000E-03 0. -1.
        -11    1    3    3    0    0 -0.16966720785E+02 -0.28229770687E+02 -0.71226891682E+01  0.33697511310E+02  0.51100000000E-03 0.  1.
        -12    1    3    3    0    0  0.75456918131E+00 -0.42558555729E+00 -0.22616088228E+00  0.89534711739E+00  0.00000000000E+00 0.  1.
</event>
<event>
 7    1  0.2425980E-008  0.4614232E+02  0.7816164E-02  0.1320468E+00
        -11   -1    0    0    0    0  0.00000000000E+00  0.00000000000E+00  0.45593999997E+02  0.45594000000E+02  0.51100000000E-03 0. -1.
         11   -1    0    0    0    0 -0.00000000000E+00 -0.00000000000E+00 -0.45593999997E+02  0.45594000000E+02  0.51100000000E-03 0.  1.
    9900012    2    1    2    0    0  0.29585478081E+02  0.49925794573E+01 -0.33598915352E+02  0.46142317901E+02  0.10000001280E+02 0.  0.
         12    1    1    2    0    0 -0.29585478081E+02 -0.49925794573E+01  0.33598915352E+02  0.45045682099E+02  0.00000000000E+00 0. -1.
         11    1    3    3    0    0  0.16200132906E+02  0.73679824144E+00 -0.14305281037E+02  0.21624713724E+02  0.51100000000E-03 0.  1.
        -11    1    3    3    0    0  0.10450962610E+02  0.56439078243E+01 -0.14898166775E+02  0.19053390473E+02  0.51100000000E-03 0. -1.
         12    1    3    3    0    0  0.29343825651E+01 -0.13881266084E+01 -0.43954675397E+01  0.54642137048E+01  0.00000000000E+00 0. -1.
</event>
<event>
 7    1  0.2425980E-008  0.4614232E+02  0.7816164E-02  0.1320468E+00
        -11   -1    0    0    0    0  0.00000000000E+00  0.00000000000E+00  0.45593999997E+02  0.45594000000E+02  0.51100000000E-03 0.  1.
         11   -1    0    0    0    0 -0.00000000000E+00 -0.00000000000E+00 -0.45593999997E+02  0.45594000000E+02  0.51100000000E-03 0. -1.
    9900012    2    1    2    0    0 -0.23555149421E+02  0.17343872129E+02  0.34255781475E+02  0.46142317309E+02  0.99999958739E+01 0.  0.
         12    1    1    2    0    0  0.23555149421E+02 -0.17343872129E+02 -0.34255781475E+02  0.45045682691E+02  0.00000000000E+00 0. -1.
         11    1    3    3    0    0 -0.27011446346E+01  0.20657313217E+01  0.21973498214E+01  0.40486756760E+01  0.51100000000E-03 0. -1.
        -11    1    3    3    0    0 -0.96172309383E+01  0.11324968120E+02  0.21752419213E+02  0.26342243180E+02  0.51100000000E-03 0.  1.
        -12    1    3    3    0    0 -0.11236773848E+02  0.39531726870E+01  0.10306012440E+02  0.15751398453E+02  0.00000000000E+00 0.  1.
</event>
<event>
 7    1  0.2425980E-008  0.4614232E+02  0.7816164E-02  0.1320468E+00
        -11   -1    0    0    0    0  0.00000000000E+00  0.00000000000E+00  0.45593999997E+02  0.45594000000E+02  0.51100000000E-03 0.  1.
         11   -1    0    0    0    0 -0.00000000000E+00 -0.00000000000E+00 -0.45593999997E+02  0.45594000000E+02  0.51100000000E-03 0. -1.
    9900012    2    1    2    0    0  0.13244894370E+02  0.21326461385E+02  0.37401447066E+02  0.46142318467E+02  0.10000006440E+02 0.  0.
         12    1    1    2    0    0 -0.13244894370E+02 -0.21326461385E+02 -0.37401447066E+02  0.45045681533E+02  0.00000000000E+00 0. -1.
         11    1    3    3    0    0  0.14819189853E+01  0.82051132645E+01  0.13153580085E+02  0.15573587797E+02  0.51100000000E-03 0.  1.
        -11    1    3    3    0    0  0.23176005315E+01  0.52495226773E+01  0.11530046161E+02  0.12879080918E+02  0.51100000000E-03 0. -1.
         12    1    3    3    0    0  0.94453748536E+01  0.78718254431E+01  0.12717820820E+02  0.17689649752E+02  0.00000000000E+00 0. -1.
</event>
<event>
 7    1  0.2425980E-008  0.4614232E+02  0.7816164E-02  0.1320468E+00
        -11   -1    0    0    0    0  0.00000000000E+00  0.00000000000E+00  0.45593999997E+02  0.45594000000E+02  0.51100000000E-03 0. -1.
         11   -1    0    0    0    0 -0.00000000000E+00 -0.00000000000E+00 -0.45593999997E+02  0.45594000000E+02  0.51100000000E-03 0.  1.
    9900012    2    1    2    0    0 -0.23102854930E+02  0.30316315613E+02 -0.24006093616E+02  0.46142318420E+02  0.10000006013E+02 0.  0.
         12    1    1    2    0    0  0.23102854930E+02 -0.30316315613E+02  0.24006093616E+02  0.45045681580E+02  0.00000000000E+00 0. -1.
         11    1    3    3    0    0 -0.39466086863E+01  0.88142072727E+01 -0.49174786210E+01  0.10837322834E+02  0.51100000000E-03 0. -1.
        -11    1    3    3    0    0 -0.17727744925E+02  0.21933800753E+02 -0.17983213660E+02  0.33447877802E+02  0.51100000000E-03 0.  1.
         12    1    3    3    0    0 -0.14285013179E+01 -0.43169241256E+00 -0.11054013347E+01  0.18571177844E+01  0.00000000000E+00 0. -1.
</event>
<event>
 7    1  0.2425980E-008  0.4614232E+02  0.7816164E-02  0.1320468E+00
        -11   -1    0    0    0    0  0.00000000000E+00  0.00000000000E+00  0.45593999997E+02  0.45594000000E+02  0.51100000000E-03 0. -1.
         11   -1    0    0    0    0 -0.00000000000E+00 -0.00000000000E+00 -0.45593999997E+02  0.45594000000E+02  0.51100000000E-03 0.  1.
    9900012    2    1    2    0    0  0.21905005498E+01 -0.44566483500E+02 -0.61760654940E+01  0.46142317307E+02  0.99999958626E+01 0.  0.
         12    1    1    2    0    0 -0.21905005498E+01  0.44566483500E+02  0.61760654940E+01  0.45045682693E+02  0.00000000000E+00 0. -1.
         11    1    3    3    0    0  0.26479005527E+01 -0.88971624066E+01 -0.36277631160E+01  0.99665210436E+01  0.51100000000E-03 0. -1.
        -11    1    3    3    0    0 -0.27695693429E+01 -0.17053610437E+02 -0.21742532735E+01  0.17413314470E+02  0.51100000000E-03 0.  1.
         12    1    3    3    0    0  0.23121693399E+01 -0.18615710657E+02 -0.37404910453E+00  0.18762481793E+02  0.00000000000E+00 0. -1.
</event>
<event>
 7    1  0.2425980E-008  0.4614231E+02  0.7816164E-02  0.1320468E+00
        -11   -1    0    0    0    0  0.00000000000E+00  0.00000000000E+00  0.45593999997E+02  0.45594000000E+02  0.51100000000E-03 0.  1.
         11   -1    0    0    0    0 -0.00000000000E+00 -0.00000000000E+00 -0.45593999997E+02  0.45594000000E+02  0.51100000000E-03 0. -1.
    9900012    2    1    2    0    0 -0.16614404188E+02  0.38588535631E+02  0.16248090710E+02  0.46142312522E+02  0.99999522216E+01 0.  0.
         12    1    1    2    0    0  0.16614404188E+02 -0.38588535631E+02 -0.16248090710E+02  0.45045687478E+02  0.00000000000E+00 0. -1.
         11    1    3    3    0    0 -0.12197626548E+02  0.24745027932E+02  0.57323485682E+01  0.28177266034E+02  0.51100000000E-03 0.  1.
        -11    1    3    3    0    0 -0.19246659756E+01  0.47922034501E+01  0.33657702368E+01  0.61642487435E+01  0.51100000000E-03 0. -1.
        -12    1    3    3    0    0 -0.24921116644E+01  0.90513042486E+01  0.71499719054E+01  0.11800797744E+02  0.00000000000E+00 0.  1.
</event>
<event>
 7    1  0.2425980E-008  0.4614232E+02  0.7816164E-02  0.1320468E+00
        -11   -1    0    0    0    0  0.00000000000E+00  0.00000000000E+00  0.45593999997E+02  0.45594000000E+02  0.51100000000E-03 0.  1.
         11   -1    0    0    0    0 -0.00000000000E+00 -0.00000000000E+00 -0.45593999997E+02  0.45594000000E+02  0.51100000000E-03 0. -1.
    9900012    2    1    2    0    0  0.26872624706E+02 -0.36152087773E+02 -0.45460416124E-01  0.46142317903E+02  0.10000001295E+02 0.  0.
         12    1    1    2    0    0 -0.26872624706E+02  0.36152087773E+02  0.45460416124E-01  0.45045682097E+02  0.00000000000E+00 0. -1.
         11    1    3    3    0    0  0.13170625754E+02 -0.16385744274E+02  0.63928806819E+00  0.21032515010E+02  0.51100000000E-03 0. -1.
        -11    1    3    3    0    0  0.13660423622E+02 -0.14826082958E+02 -0.58673457743E+00  0.20168395254E+02  0.51100000000E-03 0.  1.
         12    1    3    3    0    0  0.41575329703E-01 -0.49402605411E+01 -0.98013906883E-01  0.49414076383E+01  0.00000000000E+00 0. -1.
</event>
<event>
 7    1  0.2425980E-008  0.4614232E+02  0.7816164E-02  0.1320468E+00
        -11   -1    0    0    0    0  0.00000000000E+00  0.00000000000E+00  0.45593999997E+02  0.45594000000E+02  0.51100000000E-03 0.  1.
         11   -1    0    0    0    0 -0.00000000000E+00 -0.00000000000E+00 -0.45593999997E+02  0.45594000000E+02  0.51100000000E-03 0. -1.
    9900012    2    1    2    0    0  0.23628939766E+02  0.33159893671E+02 -0.19266761727E+02  0.46142318185E+02  0.10000003866E+02 0.  0.
         12    1    1    2    0    0 -0.23628939766E+02 -0.33159893671E+02  0.19266761727E+02  0.45045681815E+02  0.00000000000E+00 0. -1.
         11    1    3    3    0    0  0.30519366268E+01  0.32537943330E+01 -0.49709943724E+01  0.66792424755E+01  0.51100000000E-03 0. -1.
        -11    1    3    3    0    0  0.13386092872E+02  0.19549805618E+02 -0.62407657227E+01  0.24501623194E+02  0.51100000000E-03 0.  1.
        -12    1    3    3    0    0  0.71909102672E+01  0.10356293720E+02 -0.80550016319E+01  0.14961452515E+02  0.00000000000E+00 0.  1.
</event>
<event>
 7    1  0.2425980E-008  0.4614232E+02  0.7816164E-02  0.1320468E+00
        -11   -1    0    0    0    0  0.00000000000E+00  0.00000000000E+00  0.45593999997E+02  0.45594000000E+02  0.51100000000E-03 0. -1.
         11   -1    0    0    0    0 -0.00000000000E+00 -0.00000000000E+00 -0.45593999997E+02  0.45594000000E+02  0.51100000000E-03 0.  1.
    9900012    2    1    2    0    0  0.19465482584E+01 -0.44246814590E+02 -0.82185093884E+01  0.46142317099E+02  0.99999939614E+01 0.  0.
         12    1    1    2    0    0 -0.19465482584E+01  0.44246814590E+02  0.82185093884E+01  0.45045682901E+02  0.00000000000E+00 0. -1.
         11    1    3    3    0    0  0.94787490132E+00 -0.26421293455E+02 -0.18970173100E+01  0.26506261328E+02  0.51100000000E-03 0. -1.
        -11    1    3    3    0    0  0.20113426003E+01 -0.65131706507E+01 -0.40217712374E+00  0.68285165066E+01  0.51100000000E-03 0.  1.
        -12    1    3    3    0    0 -0.10126692432E+01 -0.11312350484E+02 -0.59193149546E+01  0.12807539264E+02  0.00000000000E+00 0.  1.
</event>
<event>
 7    1  0.2425980E-008  0.4614232E+02  0.7816164E-02  0.1320468E+00
        -11   -1    0    0    0    0  0.00000000000E+00  0.00000000000E+00  0.45593999997E+02  0.45594000000E+02  0.51100000000E-03 0.  1.
         11   -1    0    0    0    0 -0.00000000000E+00 -0.00000000000E+00 -0.45593999997E+02  0.45594000000E+02  0.51100000000E-03 0. -1.
    9900012    2    1    2    0    0  0.41007563013E+02 -0.13514014549E+02  0.12839964954E+02  0.46142317482E+02  0.99999974555E+01 0.  0.
         12    1    1    2    0    0 -0.41007563013E+02  0.13514014549E+02 -0.12839964954E+02  0.45045682518E+02  0.00000000000E+00 0. -1.
         11    1    3    3    0    0  0.18433455269E+02 -0.18084157651E+01  0.30922713951E+01  0.18778306190E+02  0.51100000000E-03 0. -1.
        -11    1    3    3    0    0  0.83847079596E+01 -0.54433161968E+01  0.47588050361E+01  0.11071551130E+02  0.51100000000E-03 0.  1.
         12    1    3    3    0    0  0.14189399785E+02 -0.62622825874E+01  0.49888885225E+01  0.16292460162E+02  0.00000000000E+00 0. -1.
</event>
<event>
 7    1  0.2425980E-008  0.4614232E+02  0.7816164E-02  0.1320468E+00
        -11   -1    0    0    0    0  0.00000000000E+00  0.00000000000E+00  0.45593999997E+02  0.45594000000E+02  0.51100000000E-03 0.  1.
         11   -1    0    0    0    0 -0.00000000000E+00 -0.00000000000E+00 -0.45593999997E+02  0.45594000000E+02  0.51100000000E-03 0. -1.
    9900012    2    1    2    0    0 -0.30048490731E+02 -0.85936113332E+01  0.32439967924E+02  0.46142317967E+02  0.10000001874E+02 0.  0.
         12    1    1    2    0    0  0.30048490731E+02  0.85936113332E+01 -0.32439967924E+02  0.45045682033E+02  0.00000000000E+00 0. -1.
         11    1    3    3    0    0 -0.15709945756E+02 -0.46989330356E+01  0.22503040902E+02  0.27843656682E+02  0.51100000000E-03 0.  1.
        -11    1    3    3    0    0 -0.12928959374E+02 -0.44096208716E+01  0.79383226442E+01  0.15799358006E+02  0.51100000000E-03 0. -1.
        -12    1    3    3    0    0 -0.14095856003E+01  0.51494257405E+00  0.19986043777E+01  0.24993032784E+01  0.00000000000E+00 0.  1.
</event>
<event>
 7    1  0.2425980E-008  0.4614232E+02  0.7816164E-02  0.1320468E+00
        -11   -1    0    0    0    0  0.00000000000E+00  0.00000000000E+00  0.45593999997E+02  0.45594000000E+02  0.51100000000E-03 0.  1.
         11   -1    0    0    0    0 -0.00000000000E+00 -0.00000000000E+00 -0.45593999997E+02  0.45594000000E+02  0.51100000000E-03 0. -1.
    9900012    2    1    2    0    0  0.23172951784E+02 -0.33409355561E+02  0.19389246640E+02  0.46142316315E+02  0.99999868122E+01 0.  0.
         12    1    1    2    0    0 -0.23172951784E+02  0.33409355561E+02 -0.19389246640E+02  0.45045683685E+02  0.00000000000E+00 0. -1.
         11    1    3    3    0    0  0.31986923015E+01 -0.81571856888E+01  0.27401423410E+01  0.91803971108E+01  0.51100000000E-03 0. -1.
        -11    1    3    3    0    0  0.12155466434E+02 -0.19504651233E+02  0.13969073229E+02  0.26894642424E+02  0.51100000000E-03 0.  1.
        -12    1    3    3    0    0  0.78187930479E+01 -0.57475186395E+01  0.26800310697E+01  0.10067276780E+02  0.00000000000E+00 0.  1.
</event>
<event>
 7    1  0.2425980E-008  0.4614231E+02  0.7816164E-02  0.1320468E+00
        -11   -1    0    0    0    0  0.00000000000E+00  0.00000000000E+00  0.45593999997E+02  0.45594000000E+02  0.51100000000E-03 0.  1.
         11   -1    0    0    0    0 -0.00000000000E+00 -0.00000000000E+00 -0.45593999997E+02  0.45594000000E+02  0.51100000000E-03 0. -1.
    9900012    2    1    2    0    0  0.82577466273E+01  0.44224203846E+02  0.22680163126E+01  0.46142306719E+02  0.99998993118E+01 0.  0.
         12    1    1    2    0    0 -0.82577466273E+01 -0.44224203846E+02 -0.22680163126E+01  0.45045693281E+02  0.00000000000E+00 0. -1.
         11    1    3    3    0    0  0.30802731489E+01  0.17942160960E+02  0.24107806979E+01  0.18363580436E+02  0.51100000000E-03 0. -1.
        -11    1    3    3    0    0  0.22890414604E+01  0.86457012314E+01  0.33846630551E+01  0.95626254161E+01  0.51100000000E-03 0.  1.
         12    1    3    3    0    0  0.28884320180E+01  0.17636341654E+02 -0.35274274405E+01  0.18216100867E+02  0.00000000000E+00 0. -1.
</event>
