<event>
 7    1  0.3004200E-011  0.5052887E+02  0.7816164E-02  0.1300439E+00
        -11   -1    0    0    0    0  0.00000000000E+00  0.00000000000E+00  0.45593999997E+02  0.45594000000E+02  0.51100000000E-03 0.  1.
         11   -1    0    0    0    0 -0.00000000000E+00 -0.00000000000E+00 -0.45593999997E+02  0.45594000000E+02  0.51100000000E-03 0. -1.
    9900012    2    1    2    0    0 -0.10669183060E+01 -0.26459334456E+02  0.30853370808E+02  0.50528865913E+02  0.30000018428E+02 0.  0.
         12    1    1    2    0    0  0.10669183060E+01  0.26459334456E+02 -0.30853370808E+02  0.40659134087E+02  0.00000000000E+00 0. -1.
         11    1    3    3    0    0 -0.16010149195E+01 -0.34901754228E+01 -0.57857710297E+01  0.69440420451E+01  0.51100000000E-03 0. -1.
        -11    1    3    3    0    0 -0.20621597586E+01 -0.85576410761E+01  0.11369072101E+02  0.14378509115E+02  0.51100000000E-03 0.  1.
         12    1    3    3    0    0  0.25962563721E+01 -0.14411517957E+02  0.25270069736E+02  0.29206314753E+02  0.00000000000E+00 0. -1.
</event>
<event>
 7    1  0.3004200E-011  0.5052886E+02  0.7816164E-02  0.1300439E+00
        -11   -1    0    0    0    0  0.00000000000E+00  0.00000000000E+00  0.45593999997E+02  0.45594000000E+02  0.51100000000E-03 0.  1.
         11   -1    0    0    0    0 -0.00000000000E+00 -0.00000000000E+00 -0.45593999997E+02  0.45594000000E+02  0.51100000000E-03 0. -1.
    9900012    2    1    2    0    0  0.13276590609E+02 -0.23630057174E+02  0.30307068236E+02  0.50528857790E+02  0.29999993737E+02 0.  0.
         12    1    1    2    0    0 -0.13276590609E+02  0.23630057174E+02 -0.30307068236E+02  0.40659142210E+02  0.00000000000E+00 0. -1.
         11    1    3    3    0    0  0.35776938634E+01 -0.27443067168E+01  0.28032334457E+01  0.53093531384E+01  0.51100000000E-03 0. -1.
        -11    1    3    3    0    0  0.95036226345E+01 -0.24904675685E+02  0.30272038147E+02  0.40335567531E+02  0.51100000000E-03 0.  1.
        -12    1    3    3    0    0  0.19527411079E+00  0.40189252283E+01 -0.27682033573E+01  0.48839371205E+01  0.00000000000E+00 0.  1.
</event>
<event>
 7    1  0.3004200E-011  0.5052891E+02  0.7816164E-02  0.1300439E+00
        -11   -1    0    0    0    0  0.00000000000E+00  0.00000000000E+00  0.45593999997E+02  0.45594000000E+02  0.51100000000E-03 0.  1.
         11   -1    0    0    0    0 -0.00000000000E+00 -0.00000000000E+00 -0.45593999997E+02  0.45594000000E+02  0.51100000000E-03 0. -1.
    9900012    2    1    2    0    0  0.42034270566E+00 -0.11555001672E+02  0.38980342071E+02  0.50528907295E+02  0.30000144213E+02 0.  0.
         12    1    1    2    0    0 -0.42034270566E+00  0.11555001672E+02 -0.38980342071E+02  0.40659092705E+02  0.00000000000E+00 0. -1.
         11    1    3    3    0    0 -0.77512301196E+01 -0.11139120866E+01  0.24358059841E+02  0.25585883763E+02  0.51100000000E-03 0. -1.
        -11    1    3    3    0    0  0.12005902463E+02 -0.68973513394E+01  0.13990637073E+02  0.19683827763E+02  0.51100000000E-03 0.  1.
         12    1    3    3    0    0 -0.38343296374E+01 -0.35437382460E+01  0.63164515758E+00  0.52591957683E+01  0.00000000000E+00 0. -1.
</event>
<event>
 7    1  0.3004200E-011  0.5052886E+02  0.7816164E-02  0.1300439E+00
        -11   -1    0    0    0    0  0.00000000000E+00  0.00000000000E+00  0.45593999997E+02  0.45594000000E+02  0.51100000000E-03 0. -1.
         11   -1    0    0    0    0 -0.00000000000E+00 -0.00000000000E+00 -0.45593999997E+02  0.45594000000E+02  0.51100000000E-03 0.  1.
    9900012    2    1    2    0    0  0.32484105008E+02  0.23969606443E+02 -0.48380364425E+01  0.50528859480E+02  0.29999998876E+02 0.  0.
         12    1    1    2    0    0 -0.32484105008E+02 -0.23969606443E+02  0.48380364425E+01  0.40659140520E+02  0.00000000000E+00 0. -1.
         11    1    3    3    0    0  0.57525094644E+01  0.37424437413E+01 -0.85560767455E+01  0.10968304328E+02  0.51100000000E-03 0. -1.
        -11    1    3    3    0    0  0.15772222256E+02  0.35233040541E+01  0.95205610381E+01  0.18756805408E+02  0.51100000000E-03 0.  1.
        -12    1    3    3    0    0  0.10959373287E+02  0.16703858647E+02 -0.58025207351E+01  0.20803749745E+02  0.00000000000E+00 0.  1.
</event>
<event>
 7    1  0.3004200E-011  0.5052886E+02  0.7816164E-02  0.1300439E+00
        -11   -1    0    0    0    0  0.00000000000E+00  0.00000000000E+00  0.45593999997E+02  0.45594000000E+02  0.51100000000E-03 0.  1.
         11   -1    0    0    0    0 -0.00000000000E+00 -0.00000000000E+00 -0.45593999997E+02  0.45594000000E+02  0.51100000000E-03 0. -1.
    9900012    2    1    2    0    0 -0.51737299784E+01  0.11201213529E+02  0.38741849218E+02  0.50528861455E+02  0.30000004878E+02 0.  0.
         12    1    1    2    0    0  0.51737299784E+01 -0.11201213529E+02 -0.38741849218E+02  0.40659138545E+02  0.00000000000E+00 0. -1.
         11    1    3    3    0    0  0.22164931158E+01  0.11789250168E+02  0.19608145982E+01  0.12155001251E+02  0.51100000000E-03 0. -1.
        -11    1    3    3    0    0 -0.72012926588E+01  0.23840531639E+01  0.21336846236E+02  0.22645161360E+02  0.51100000000E-03 0.  1.
         12    1    3    3    0    0 -0.18893043549E+00 -0.29720898031E+01  0.15444188384E+02  0.15728698844E+02  0.00000000000E+00 0. -1.
</event>
<event>
 7    1  0.3004200E-011  0.5052887E+02  0.7816164E-02  0.1300439E+00
        -11   -1    0    0    0    0  0.00000000000E+00  0.00000000000E+00  0.45593999997E+02  0.45594000000E+02  0.51100000000E-03 0. -1.
         11   -1    0    0    0    0 -0.00000000000E+00 -0.00000000000E+00 -0.45593999997E+02  0.45594000000E+02  0.51100000000E-03 0.  1.
    9900012    2    1    2    0    0 -0.33394507859E+00  0.38554209864E+02  0.12908385204E+02  0.50528867863E+02  0.30000024355E+02 0.  0.
         12    1    1    2    0    0  0.33394507859E+00 -0.38554209864E+02 -0.12908385204E+02  0.40659132137E+02  0.00000000000E+00 0. -1.
         11    1    3    3    0    0  0.31096531184E-02 -0.14195433184E+01  0.30373623855E+00  0.14516779486E+01  0.51100000000E-03 0. -1.
        -11    1    3    3    0    0  0.26555521304E+01  0.41169853146E+02  0.59487319300E+01  0.41682084605E+02  0.51100000000E-03 0.  1.
        -12    1    3    3    0    0 -0.29926068621E+01 -0.11960999629E+01  0.66559170357E+01  0.73951053095E+01  0.00000000000E+00 0.  1.
</event>
<event>
 7    1  0.3004200E-011  0.5052886E+02  0.7816164E-02  0.1300439E+00
        -11   -1    0    0    0    0  0.00000000000E+00  0.00000000000E+00  0.45593999997E+02  0.45594000000E+02  0.51100000000E-03 0. -1.
         11   -1    0    0    0    0 -0.00000000000E+00 -0.00000000000E+00 -0.45593999997E+02  0.45594000000E+02  0.51100000000E-03 0.  1.
    9900012    2    1    2    0    0 -0.19347558586E+02  0.16664764963E+02 -0.31640531572E+02  0.50528860158E+02  0.30000000936E+02 0.  0.
         12    1    1    2    0    0  0.19347558586E+02 -0.16664764963E+02  0.31640531572E+02  0.40659139842E+02  0.00000000000E+00 0. -1.
         11    1    3    3    0    0 -0.16142505650E+02 -0.18413734319E+01 -0.40088494276E+01  0.16734456034E+02  0.51100000000E-03 0. -1.
        -11    1    3    3    0    0 -0.45592431440E+01  0.14105846348E+02 -0.21835215112E+02  0.26392010505E+02  0.51100000000E-03 0.  1.
        -12    1    3    3    0    0  0.13541902082E+01  0.44002920477E+01 -0.57964670327E+01  0.74023936187E+01  0.00000000000E+00 0.  1.
</event>
<event>
 7    1  0.3004200E-011  0.5052887E+02  0.7816164E-02  0.1300439E+00
        -11   -1    0    0    0    0  0.00000000000E+00  0.00000000000E+00  0.45593999997E+02  0.45594000000E+02  0.51100000000E-03 0. -1.
         11   -1    0    0    0    0 -0.00000000000E+00 -0.00000000000E+00 -0.45593999997E+02  0.45594000000E+02  0.51100000000E-03 0.  1.
    9900012    2    1    2    0    0 -0.32456958640E+02 -0.85028787816E+01 -0.22965438241E+02  0.50528874759E+02  0.30000045319E+02 0.  0.
         12    1    1    2    0    0  0.32456958640E+02  0.85028787816E+01  0.22965438241E+02  0.40659125241E+02  0.00000000000E+00 0. -1.
         11    1    3    3    0    0 -0.18438372607E+02 -0.88838799364E+01  0.24864947998E+01  0.20617457742E+02  0.51100000000E-03 0. -1.
        -11    1    3    3    0    0 -0.31004820380E+01 -0.29112682488E+01 -0.80791631734E+01  0.91302436730E+01  0.51100000000E-03 0.  1.
         12    1    3    3    0    0 -0.10918103995E+02  0.32922694037E+01 -0.17372769868E+02  0.20781173344E+02  0.00000000000E+00 0. -1.
</event>
<event>
 7    1  0.3004200E-011  0.5052886E+02  0.7816164E-02  0.1300439E+00
        -11   -1    0    0    0    0  0.00000000000E+00  0.00000000000E+00  0.45593999997E+02  0.45594000000E+02  0.51100000000E-03 0.  1.
         11   -1    0    0    0    0 -0.00000000000E+00 -0.00000000000E+00 -0.45593999997E+02  0.45594000000E+02  0.51100000000E-03 0. -1.
    9900012    2    1    2    0    0 -0.92266484503E+01  0.29814449881E+02  0.26060184489E+02  0.50528859835E+02  0.29999999956E+02 0.  0.
         12    1    1    2    0    0  0.92266484503E+01 -0.29814449881E+02 -0.26060184489E+02  0.40659140165E+02  0.00000000000E+00 0. -1.
         11    1    3    3    0    0  0.34820554232E+01  0.19093197031E+02  0.10184668905E+02  0.21918083032E+02  0.51100000000E-03 0. -1.
        -11    1    3    3    0    0 -0.12247393101E+01 -0.15074790640E+01  0.10958575048E+02  0.11129368664E+02  0.51100000000E-03 0.  1.
         12    1    3    3    0    0 -0.11483964563E+02  0.12228731914E+02  0.49169405361E+01  0.17481408140E+02  0.00000000000E+00 0. -1.
</event>
<event>
 7    1  0.3004200E-011  0.5052886E+02  0.7816164E-02  0.1300439E+00
        -11   -1    0    0    0    0  0.00000000000E+00  0.00000000000E+00  0.45593999997E+02  0.45594000000E+02  0.51100000000E-03 0.  1.
         11   -1    0    0    0    0 -0.00000000000E+00 -0.00000000000E+00 -0.45593999997E+02  0.45594000000E+02  0.51100000000E-03 0. -1.
    9900012    2    1    2    0    0 -0.55237377906E+01  0.20199322183E+02  0.34851702740E+02  0.50528862286E+02  0.30000007404E+02 0.  0.
         12    1    1    2    0    0  0.55237377906E+01 -0.20199322183E+02 -0.34851702740E+02  0.40659137714E+02  0.00000000000E+00 0. -1.
         11    1    3    3    0    0  0.12018276021E+01 -0.15944078952E+01  0.22101781170E+02  0.22191783554E+02  0.51100000000E-03 0. -1.
        -11    1    3    3    0    0  0.64973651095E-01  0.12923059472E+02  0.24731479587E+01  0.13157741021E+02  0.51100000000E-03 0.  1.
         12    1    3    3    0    0 -0.67905390438E+01  0.88706706062E+01  0.10276773610E+02  0.15179337711E+02  0.00000000000E+00 0. -1.
</event>
<event>
 7    1  0.3004200E-011  0.5052876E+02  0.7816164E-02  0.1300439E+00
        -11   -1    0    0    0    0  0.00000000000E+00  0.00000000000E+00  0.45593999997E+02  0.45594000000E+02  0.51100000000E-03 0.  1.
         11   -1    0    0    0    0 -0.00000000000E+00 -0.00000000000E+00 -0.45593999997E+02  0.45594000000E+02  0.51100000000E-03 0. -1.
    9900012    2    1    2    0    0 -0.62102573447E+01 -0.21215899317E+02  0.34124649980E+02  0.50528764685E+02  0.29999710736E+02 0.  0.
         12    1    1    2    0    0  0.62102573447E+01  0.21215899317E+02 -0.34124649980E+02  0.40659235315E+02  0.00000000000E+00 0. -1.
         11    1    3    3    0    0  0.11855784709E+01 -0.13479632346E+01 -0.28589315211E+01  0.33758096652E+01  0.51100000000E-03 0. -1.
        -11    1    3    3    0    0 -0.25040115756E+01 -0.54254351519E+01  0.29625311596E+02  0.30221920984E+02  0.51100000000E-03 0.  1.
        -12    1    3    3    0    0 -0.48918242401E+01 -0.14442500931E+02  0.73582699050E+01  0.16931034036E+02  0.00000000000E+00 0.  1.
</event>
<event>
 7    1  0.3004200E-011  0.5052886E+02  0.7816164E-02  0.1300439E+00
        -11   -1    0    0    0    0  0.00000000000E+00  0.00000000000E+00  0.45593999997E+02  0.45594000000E+02  0.51100000000E-03 0.  1.
         11   -1    0    0    0    0 -0.00000000000E+00 -0.00000000000E+00 -0.45593999997E+02  0.45594000000E+02  0.51100000000E-03 0. -1.
    9900012    2    1    2    0    0  0.29048807934E+02 -0.14341584039E+02  0.24569316234E+02  0.50528861109E+02  0.30000003827E+02 0.  0.
         12    1    1    2    0    0 -0.29048807934E+02  0.14341584039E+02 -0.24569316234E+02  0.40659138891E+02  0.00000000000E+00 0. -1.
         11    1    3    3    0    0  0.58544669981E+01 -0.87777146400E+00 -0.50026240165E+01  0.77505815192E+01  0.51100000000E-03 0. -1.
        -11    1    3    3    0    0  0.11893767337E+02 -0.10078215515E+02  0.26237117876E+02  0.30519149466E+02  0.51100000000E-03 0.  1.
         12    1    3    3    0    0  0.11300573599E+02 -0.33855970599E+01  0.33348223739E+01  0.12259130124E+02  0.00000000000E+00 0. -1.
</event>
<event>
 7    1  0.3004200E-011  0.5052890E+02  0.7816164E-02  0.1300439E+00
        -11   -1    0    0    0    0  0.00000000000E+00  0.00000000000E+00  0.45593999997E+02  0.45594000000E+02  0.51100000000E-03 0.  1.
         11   -1    0    0    0    0 -0.00000000000E+00 -0.00000000000E+00 -0.45593999997E+02  0.45594000000E+02  0.51100000000E-03 0. -1.
    9900012    2    1    2    0    0 -0.19930049298E+02  0.71352268951E+01  0.34713742175E+02  0.50528902326E+02  0.30000129109E+02 0.  0.
         12    1    1    2    0    0  0.19930049298E+02 -0.71352268951E+01 -0.34713742175E+02  0.40659097674E+02  0.00000000000E+00 0. -1.
         11    1    3    3    0    0 -0.18990221760E+02 -0.74978799719E+01  0.12853437791E+02  0.24125869723E+02  0.51100000000E-03 0. -1.
        -11    1    3    3    0    0 -0.10494718834E+01  0.77474417214E+01  0.13158915480E+02  0.15306250401E+02  0.51100000000E-03 0.  1.
         12    1    3    3    0    0  0.10964434556E+00  0.68856651456E+01  0.87013889043E+01  0.11096782202E+02  0.00000000000E+00 0. -1.
</event>
<event>
 7    1  0.3004200E-011  0.5052886E+02  0.7816164E-02  0.1300439E+00
        -11   -1    0    0    0    0  0.00000000000E+00  0.00000000000E+00  0.45593999997E+02  0.45594000000E+02  0.51100000000E-03 0.  1.
         11   -1    0    0    0    0 -0.00000000000E+00 -0.00000000000E+00 -0.45593999997E+02  0.45594000000E+02  0.51100000000E-03 0. -1.
    9900012    2    1    2    0    0 -0.17170766133E+02  0.31429529950E+02  0.19248773724E+02  0.50528857702E+02  0.29999993472E+02 0.  0.
         12    1    1    2    0    0  0.17170766133E+02 -0.31429529950E+02 -0.19248773724E+02  0.40659142298E+02  0.00000000000E+00 0. -1.
         11    1    3    3    0    0 -0.17104530406E+02  0.15484571359E+02  0.10061737132E+02  0.25170924992E+02  0.51100000000E-03 0. -1.
        -11    1    3    3    0    0  0.36853414964E+01  0.25884640211E+01 -0.41423027246E+01  0.61188691812E+01  0.51100000000E-03 0.  1.
        -12    1    3    3    0    0 -0.37515772238E+01  0.13356494571E+02  0.13329339317E+02  0.19239063530E+02  0.00000000000E+00 0.  1.
</event>
<event>
 7    1  0.3004200E-011  0.5052884E+02  0.7816164E-02  0.1300439E+00
        -11   -1    0    0    0    0  0.00000000000E+00  0.00000000000E+00  0.45593999997E+02  0.45594000000E+02  0.51100000000E-03 0. -1.
         11   -1    0    0    0    0 -0.00000000000E+00 -0.00000000000E+00 -0.45593999997E+02  0.45594000000E+02  0.51100000000E-03 0.  1.
    9900012    2    1    2    0    0 -0.64654254101E+01 -0.33803356422E+02 -0.21649451703E+02  0.50528838792E+02  0.29999935991E+02 0.  0.
         12    1    1    2    0    0  0.64654254101E+01  0.33803356422E+02  0.21649451703E+02  0.40659161208E+02  0.00000000000E+00 0. -1.
         11    1    3    3    0    0  0.13742491568E+01 -0.80409468481E+01 -0.11721487291E+02  0.14280709069E+02  0.51100000000E-03 0. -1.
        -11    1    3    3    0    0  0.36003235622E+01 -0.96351866050E+00  0.41040329383E+01  0.55438059653E+01  0.51100000000E-03 0.  1.
        -12    1    3    3    0    0 -0.11439998129E+02 -0.24798890913E+02 -0.14031997351E+02  0.30704323757E+02  0.00000000000E+00 0.  1.
</event>
<event>
 7    1  0.3004200E-011  0.5052886E+02  0.7816164E-02  0.1300439E+00
        -11   -1    0    0    0    0  0.00000000000E+00  0.00000000000E+00  0.45593999997E+02  0.45594000000E+02  0.51100000000E-03 0. -1.
         11   -1    0    0    0    0 -0.00000000000E+00 -0.00000000000E+00 -0.45593999997E+02  0.45594000000E+02  0.51100000000E-03 0.  1.
    9900012    2    1    2    0    0 -0.18676725308E+01  0.39215996594E+02 -0.10572766757E+02  0.50528856053E+02  0.29999988460E+02 0.  0.
         12    1    1    2    0    0  0.18676725308E+01 -0.39215996594E+02  0.10572766757E+02  0.40659143947E+02  0.00000000000E+00 0. -1.
         11    1    3    3    0    0  0.32359890131E+01  0.21975944059E+02  0.19051632954E+01  0.22294469933E+02  0.51100000000E-03 0. -1.
        -11    1    3    3    0    0 -0.95870665160E+01  0.18029299505E+02 -0.11929539845E+02  0.23649131194E+02  0.51100000000E-03 0.  1.
         12    1    3    3    0    0  0.44834049720E+01 -0.78924696945E+00 -0.54839020752E+00  0.45852549266E+01  0.00000000000E+00 0. -1.
</event>
<event>
 7    1  0.3004200E-011  0.5052886E+02  0.7816164E-02  0.1300439E+00
        -11   -1    0    0    0    0  0.00000000000E+00  0.00000000000E+00  0.45593999997E+02  0.45594000000E+02  0.51100000000E-03 0.  1.
         11   -1    0    0    0    0 -0.00000000000E+00 -0.00000000000E+00 -0.45593999997E+02  0.45594000000E+02  0.51100000000E-03 0. -1.
    9900012    2    1    2    0    0  0.49949787727E+01 -0.16348447964E+01  0.40318029382E+02  0.50528855596E+02  0.29999987069E+02 0.  0.
         12    1    1    2    0    0 -0.49949787727E+01  0.16348447964E+01 -0.40318029382E+02  0.40659144404E+02  0.00000000000E+00 0. -1.
         11    1    3    3    0    0 -0.11356042324E+02  0.51663854983E+00  0.18050779206E+02  0.21332070759E+02  0.51100000000E-03 0. -1.
        -11    1    3    3    0    0  0.83397306701E+01 -0.45395649360E+01  0.70207807579E+01  0.11808900041E+02  0.51100000000E-03 0.  1.
         12    1    3    3    0    0  0.80112904264E+01  0.23880815898E+01  0.15246469418E+02  0.17387884797E+02  0.00000000000E+00 0. -1.
</event>
<event>
 7    1  0.3004200E-011  0.5052887E+02  0.7816164E-02  0.1300439E+00
        -11   -1    0    0    0    0  0.00000000000E+00  0.00000000000E+00  0.45593999997E+02  0.45594000000E+02  0.51100000000E-03 0.  1.
         11   -1    0    0    0    0 -0.00000000000E+00 -0.00000000000E+00 -0.45593999997E+02  0.45594000000E+02  0.51100000000E-03 0. -1.
    9900012    2    1    2    0    0 -0.40059630953E+02  0.98610645228E+00 -0.68861243890E+01  0.50528866375E+02  0.30000019834E+02 0.  0.
         12    1    1    2    0    0  0.40059630953E+02 -0.98610645228E+00  0.68861243890E+01  0.40659133625E+02  0.00000000000E+00 0. -1.
         11    1    3    3    0    0 -0.13017802331E+02 -0.72353896511E+01  0.56190487737E+01  0.15918157881E+02  0.51100000000E-03 0. -1.
        -11    1    3    3    0    0 -0.26501768272E+02  0.27648857557E+01 -0.91026218052E+01  0.28157521886E+02  0.51100000000E-03 0.  1.
         12    1    3    3    0    0 -0.54006035034E+00  0.54566103477E+01 -0.34025513575E+01  0.64531866089E+01  0.00000000000E+00 0. -1.
</event>
<event>
 7    1  0.3004200E-011  0.5052883E+02  0.7816164E-02  0.1300439E+00
        -11   -1    0    0    0    0  0.00000000000E+00  0.00000000000E+00  0.45593999997E+02  0.45594000000E+02  0.51100000000E-03 0.  1.
         11   -1    0    0    0    0 -0.00000000000E+00 -0.00000000000E+00 -0.45593999997E+02  0.45594000000E+02  0.51100000000E-03 0. -1.
    9900012    2    1    2    0    0  0.84719389886E+01 -0.39698178912E+02  0.23342594914E+01  0.50528832196E+02  0.29999915943E+02 0.  0.
         12    1    1    2    0    0 -0.84719389886E+01  0.39698178912E+02 -0.23342594914E+01  0.40659167804E+02  0.00000000000E+00 0. -1.
         11    1    3    3    0    0  0.83282556257E+01 -0.19101078625E+02 -0.67054422037E+01  0.21890043440E+02  0.51100000000E-03 0. -1.
        -11    1    3    3    0    0  0.58668937277E+01 -0.14759901970E+02  0.12039956102E+02  0.19930772473E+02  0.51100000000E-03 0.  1.
         12    1    3    3    0    0 -0.57232103647E+01 -0.58371983171E+01 -0.30002544071E+01  0.87080162827E+01  0.00000000000E+00 0. -1.
</event>
<event>
 7    1  0.3004200E-011  0.5052886E+02  0.7816164E-02  0.1300439E+00
        -11   -1    0    0    0    0  0.00000000000E+00  0.00000000000E+00  0.45593999997E+02  0.45594000000E+02  0.51100000000E-03 0.  1.
         11   -1    0    0    0    0 -0.00000000000E+00 -0.00000000000E+00 -0.45593999997E+02  0.45594000000E+02  0.51100000000E-03 0. -1.
    9900012    2    1    2    0    0  0.37171586365E+02  0.16440784797E+02 -0.10672555518E+01  0.50528864839E+02  0.30000015164E+02 0.  0.
         12    1    1    2    0    0 -0.37171586365E+02 -0.16440784797E+02  0.10672555518E+01  0.40659135161E+02  0.00000000000E+00 0. -1.
         11    1    3    3    0    0  0.28830774114E+01  0.12848422658E+02 -0.65219955629E+01  0.14694574732E+02  0.51100000000E-03 0. -1.
        -11    1    3    3    0    0  0.17620524920E+02  0.58764325915E+01  0.22861286731E+01  0.18714746673E+02  0.51100000000E-03 0.  1.
         12    1    3    3    0    0  0.16667984033E+02 -0.22840704526E+01  0.31686113380E+01  0.17119543434E+02  0.00000000000E+00 0. -1.
</event>
<event>
 7    1  0.3004200E-011  0.5052887E+02  0.7816164E-02  0.1300439E+00
        -11   -1    0    0    0    0  0.00000000000E+00  0.00000000000E+00  0.45593999997E+02  0.45594000000E+02  0.51100000000E-03 0.  1.
         11   -1    0    0    0    0 -0.00000000000E+00 -0.00000000000E+00 -0.45593999997E+02  0.45594000000E+02  0.51100000000E-03 0. -1.
    9900012    2    1    2    0    0 -0.24758242838E+02 -0.30718379296E+02  0.98272957828E+01  0.50528866249E+02  0.30000019450E+02 0.  0.
         12    1    1    2    0    0  0.24758242838E+02  0.30718379296E+02 -0.98272957828E+01  0.40659133751E+02  0.00000000000E+00 0. -1.
         11    1    3    3    0    0  0.34028090126E+01 -0.98823334365E+01 -0.20803752102E+01  0.10656809307E+02  0.51100000000E-03 0. -1.
        -11    1    3    3    0    0 -0.10519264519E+02 -0.12345252322E+02  0.12193230681E+02  0.20291255644E+02  0.51100000000E-03 0.  1.
         12    1    3    3    0    0 -0.17641787331E+02 -0.84907935371E+01 -0.28555968778E+00  0.19580801298E+02  0.00000000000E+00 0. -1.
</event>
<event>
 7    1  0.3004200E-011  0.5052886E+02  0.7816164E-02  0.1300439E+00
        -11   -1    0    0    0    0  0.00000000000E+00  0.00000000000E+00  0.45593999997E+02  0.45594000000E+02  0.51100000000E-03 0.  1.
         11   -1    0    0    0    0 -0.00000000000E+00 -0.00000000000E+00 -0.45593999997E+02  0.45594000000E+02  0.51100000000E-03 0. -1.
    9900012    2    1    2    0    0 -0.77221850298E+01  0.64261193491E+01  0.39398462623E+02  0.50528855782E+02  0.29999987634E+02 0.  0.
         12    1    1    2    0    0  0.77221850298E+01 -0.64261193491E+01 -0.39398462623E+02  0.40659144218E+02  0.00000000000E+00 0. -1.
         11    1    3    3    0    0 -0.16689702372E+02  0.20985507526E+01  0.16364022918E+02  0.23467665561E+02  0.51100000000E-03 0. -1.
        -11    1    3    3    0    0  0.99617697167E+01  0.53650030402E+01  0.22990148052E+02  0.25623563788E+02  0.51100000000E-03 0.  1.
        -12    1    3    3    0    0 -0.99425237453E+00 -0.10374344437E+01  0.44291652424E-01  0.14376264326E+01  0.00000000000E+00 0.  1.
</event>
<event>
 7    1  0.3004200E-011  0.5052886E+02  0.7816164E-02  0.1300439E+00
        -11   -1    0    0    0    0  0.00000000000E+00  0.00000000000E+00  0.45593999997E+02  0.45594000000E+02  0.51100000000E-03 0.  1.
         11   -1    0    0    0    0 -0.00000000000E+00 -0.00000000000E+00 -0.45593999997E+02  0.45594000000E+02  0.51100000000E-03 0. -1.
    9900012    2    1    2    0    0  0.11634134384E+02  0.23759785076E+02  0.30875321525E+02  0.50528856514E+02  0.29999989861E+02 0.  0.
         12    1    1    2    0    0 -0.11634134384E+02 -0.23759785076E+02 -0.30875321525E+02  0.40659143486E+02  0.00000000000E+00 0. -1.
         11    1    3    3    0    0 -0.15440571347E+00 -0.18823316814E+01 -0.98871268742E+00  0.21317989404E+01  0.51100000000E-03 0. -1.
        -11    1    3    3    0    0  0.16423420125E+02  0.13444454391E+02  0.11307244763E+02  0.24048614656E+02  0.51100000000E-03 0.  1.
        -12    1    3    3    0    0 -0.46348800269E+01  0.12197662366E+02  0.20556789450E+02  0.24348442918E+02  0.00000000000E+00 0.  1.
</event>
<event>
 7    1  0.3004200E-011  0.5052886E+02  0.7816164E-02  0.1300439E+00
        -11   -1    0    0    0    0  0.00000000000E+00  0.00000000000E+00  0.45593999997E+02  0.45594000000E+02  0.51100000000E-03 0. -1.
         11   -1    0    0    0    0 -0.00000000000E+00 -0.00000000000E+00 -0.45593999997E+02  0.45594000000E+02  0.51100000000E-03 0.  1.
    9900012    2    1    2    0    0 -0.13885983000E+02 -0.36482685156E+02  0.11373616019E+02  0.50528856115E+02  0.29999988648E+02 0.  0.
         12    1    1    2    0    0  0.13885983000E+02  0.36482685156E+02 -0.11373616019E+02  0.40659143885E+02  0.00000000000E+00 0. -1.
         11    1    3    3    0    0  0.80216167754E+01 -0.30328085761E+01  0.14224880344E+01  0.86929704946E+01  0.51100000000E-03 0. -1.
        -11    1    3    3    0    0 -0.12043199446E+02 -0.20482178262E+02  0.24105731070E+01  0.23882402354E+02  0.51100000000E-03 0.  1.
         12    1    3    3    0    0 -0.98644003295E+01 -0.12967698318E+02  0.75405548778E+01  0.17953483266E+02  0.00000000000E+00 0. -1.
</event>
<event>
 7    1  0.3004200E-011  0.5052886E+02  0.7816164E-02  0.1300439E+00
        -11   -1    0    0    0    0  0.00000000000E+00  0.00000000000E+00  0.45593999997E+02  0.45594000000E+02  0.51100000000E-03 0.  1.
         11   -1    0    0    0    0 -0.00000000000E+00 -0.00000000000E+00 -0.45593999997E+02  0.45594000000E+02  0.51100000000E-03 0. -1.
    9900012    2    1    2    0    0  0.18069698241E+02 -0.28523175695E+02  0.22651269009E+02  0.50528861618E+02  0.30000005375E+02 0.  0.
         12    1    1    2    0    0 -0.18069698241E+02  0.28523175695E+02 -0.22651269009E+02  0.40659138382E+02  0.00000000000E+00 0. -1.
         11    1    3    3    0    0  0.44238865235E+00 -0.13830604545E+02 -0.94733104397E+00  0.13870067273E+02  0.51100000000E-03 0. -1.
        -11    1    3    3    0    0  0.85918144660E+01  0.10412372716E+01  0.13087560063E+02  0.15690369006E+02  0.51100000000E-03 0.  1.
        -12    1    3    3    0    0  0.90354951224E+01 -0.15733808421E+02  0.10511039990E+02  0.20968425340E+02  0.00000000000E+00 0.  1.
</event>
<event>
 7    1  0.3004200E-011  0.5052886E+02  0.7816164E-02  0.1300439E+00
        -11   -1    0    0    0    0  0.00000000000E+00  0.00000000000E+00  0.45593999997E+02  0.45594000000E+02  0.51100000000E-03 0.  1.
         11   -1    0    0    0    0 -0.00000000000E+00 -0.00000000000E+00 -0.45593999997E+02  0.45594000000E+02  0.51100000000E-03 0. -1.
    9900012    2    1    2    0    0 -0.13654059747E+02  0.18060300283E+02  0.33772143226E+02  0.50528862626E+02  0.30000008439E+02 0.  0.
         12    1    1    2    0    0  0.13654059747E+02 -0.18060300283E+02 -0.33772143226E+02  0.40659137374E+02  0.00000000000E+00 0. -1.
         11    1    3    3    0    0  0.28982022482E+01  0.13495498262E+02  0.66555196061E+01  0.15323967864E+02  0.51100000000E-03 0. -1.
        -11    1    3    3    0    0 -0.12850544371E+02  0.91468794464E+01  0.23466781580E+02  0.28275284830E+02  0.51100000000E-03 0.  1.
         12    1    3    3    0    0 -0.37017176251E+01 -0.45820774249E+01  0.36498420393E+01  0.69296099325E+01  0.00000000000E+00 0. -1.
</event>
<event>
 7    1  0.3004200E-011  0.5052886E+02  0.7816164E-02  0.1300439E+00
        -11   -1    0    0    0    0  0.00000000000E+00  0.00000000000E+00  0.45593999997E+02  0.45594000000E+02  0.51100000000E-03 0. -1.
         11   -1    0    0    0    0 -0.00000000000E+00 -0.00000000000E+00 -0.45593999997E+02  0.45594000000E+02  0.51100000000E-03 0.  1.
    9900012    2    1    2    0    0 -0.26807484546E+00 -0.30412534297E+02 -0.26984655567E+02  0.50528859053E+02  0.29999997578E+02 0.  0.
         12    1    1    2    0    0  0.26807484546E+00  0.30412534297E+02  0.26984655567E+02  0.40659140947E+02  0.00000000000E+00 0. -1.
         11    1    3    3    0    0  0.49997590325E+00 -0.15163164137E+02 -0.82395787731E+01  0.17264477437E+02  0.51100000000E-03 0. -1.
        -11    1    3    3    0    0 -0.67098677400E+01  0.33067602049E+01 -0.24717335260E+01  0.78782266422E+01  0.51100000000E-03 0.  1.
        -12    1    3    3    0    0  0.59418169913E+01 -0.18556130365E+02 -0.16273343267E+02  0.25386154974E+02  0.00000000000E+00 0.  1.
</event>
<event>
 7    1  0.3004200E-011  0.5052887E+02  0.7816164E-02  0.1300439E+00
        -11   -1    0    0    0    0  0.00000000000E+00  0.00000000000E+00  0.45593999997E+02  0.45594000000E+02  0.51100000000E-03 0.  1.
         11   -1    0    0    0    0 -0.00000000000E+00 -0.00000000000E+00 -0.45593999997E+02  0.45594000000E+02  0.51100000000E-03 0. -1.
    9900012    2    1    2    0    0  0.33520599165E+02  0.87069776696E+01  0.21300772102E+02  0.50528869160E+02  0.30000028299E+02 0.  0.
         12    1    1    2    0    0 -0.33520599165E+02 -0.87069776696E+01 -0.21300772102E+02  0.40659130840E+02  0.00000000000E+00 0. -1.
         11    1    3    3    0    0  0.23017698153E+02  0.70144930089E+01  0.28763898888E+01  0.24234090853E+02  0.51100000000E-03 0. -1.
        -11    1    3    3    0    0 -0.35673885395E+01 -0.12716513278E+01  0.68852178683E+01  0.78580903180E+01  0.51100000000E-03 0.  1.
        -12    1    3    3    0    0  0.14070289551E+02  0.29641359886E+01  0.11539164345E+02  0.18436687989E+02  0.00000000000E+00 0.  1.
</event>
<event>
 7    1  0.3004200E-011  0.5052886E+02  0.7816164E-02  0.1300439E+00
        -11   -1    0    0    0    0  0.00000000000E+00  0.00000000000E+00  0.45593999997E+02  0.45594000000E+02  0.51100000000E-03 0.  1.
         11   -1    0    0    0    0 -0.00000000000E+00 -0.00000000000E+00 -0.45593999997E+02  0.45594000000E+02  0.51100000000E-03 0. -1.
    9900012    2    1    2    0    0 -0.35284643760E+01 -0.24427552361E+02  0.32311150458E+02  0.50528858111E+02  0.29999994716E+02 0.  0.
         12    1    1    2    0    0  0.35284643760E+01  0.24427552361E+02 -0.32311150458E+02  0.40659141889E+02  0.00000000000E+00 0. -1.
         11    1    3    3    0    0  0.75630185106E+01  0.22187390919E+01  0.71073175355E+01  0.10613011588E+02  0.51100000000E-03 0. -1.
        -11    1    3    3    0    0 -0.43380119377E+01 -0.20734107819E+02  0.21570733387E+02  0.30232732489E+02  0.51100000000E-03 0.  1.
         12    1    3    3    0    0 -0.67534709489E+01 -0.59121836343E+01  0.36330995353E+01  0.96831140351E+01  0.00000000000E+00 0. -1.
</event>
<event>
 7    1  0.3004200E-011  0.5052885E+02  0.7816164E-02  0.1300439E+00
        -11   -1    0    0    0    0  0.00000000000E+00  0.00000000000E+00  0.45593999997E+02  0.45594000000E+02  0.51100000000E-03 0.  1.
         11   -1    0    0    0    0 -0.00000000000E+00 -0.00000000000E+00 -0.45593999997E+02  0.45594000000E+02  0.51100000000E-03 0. -1.
    9900012    2    1    2    0    0 -0.34726542001E+02 -0.97961423332E+01  0.18742176245E+02  0.50528852267E+02  0.29999976951E+02 0.  0.
         12    1    1    2    0    0  0.34726542001E+02  0.97961423332E+01 -0.18742176245E+02  0.40659147733E+02  0.00000000000E+00 0. -1.
         11    1    3    3    0    0 -0.16128077895E+02 -0.57919687681E+01  0.27215944255E+01  0.17351336411E+02  0.51100000000E-03 0. -1.
        -11    1    3    3    0    0  0.44776315993E+01 -0.20918147716E+01  0.64418991725E+01  0.81192942419E+01  0.51100000000E-03 0.  1.
        -12    1    3    3    0    0 -0.23076095706E+02 -0.19123587934E+01  0.95786826469E+01  0.25058221614E+02  0.00000000000E+00 0.  1.
</event>
<event>
 7    1  0.3004200E-011  0.5052899E+02  0.7816164E-02  0.1300438E+00
        -11   -1    0    0    0    0  0.00000000000E+00  0.00000000000E+00  0.45593999997E+02  0.45594000000E+02  0.51100000000E-03 0.  1.
         11   -1    0    0    0    0 -0.00000000000E+00 -0.00000000000E+00 -0.45593999997E+02  0.45594000000E+02  0.51100000000E-03 0. -1.
    9900012    2    1    2    0    0 -0.21053986360E+02 -0.32939083627E+02  0.11175919828E+02  0.50528994160E+02  0.30000408247E+02 0.  0.
         12    1    1    2    0    0  0.21053986360E+02  0.32939083627E+02 -0.11175919828E+02  0.40659005840E+02  0.00000000000E+00 0. -1.
         11    1    3    3    0    0 -0.19756904696E+02 -0.24043964637E+02  0.18222608698E+02  0.36062598168E+02  0.51100000000E-03 0. -1.
        -11    1    3    3    0    0  0.22159380508E+01  0.16210741003E+00  0.35926375139E+00  0.22507178769E+01  0.51100000000E-03 0.  1.
         12    1    3    3    0    0 -0.35130197152E+01 -0.90572264006E+01 -0.74059526212E+01  0.12215678115E+02  0.00000000000E+00 0. -1.
</event>
<event>
 7    1  0.3004200E-011  0.5052886E+02  0.7816164E-02  0.1300439E+00
        -11   -1    0    0    0    0  0.00000000000E+00  0.00000000000E+00  0.45593999997E+02  0.45594000000E+02  0.51100000000E-03 0.  1.
         11   -1    0    0    0    0 -0.00000000000E+00 -0.00000000000E+00 -0.45593999997E+02  0.45594000000E+02  0.51100000000E-03 0. -1.
    9900012    2    1    2    0    0  0.18297082358E+02 -0.12244254092E+02  0.34182752078E+02  0.50528861781E+02  0.30000005871E+02 0.  0.
         12    1    1    2    0    0 -0.18297082358E+02  0.12244254092E+02 -0.34182752078E+02  0.40659138219E+02  0.00000000000E+00 0. -1.
         11    1    3    3    0    0 -0.51084265827E+01  0.25700517723E+01  0.18117926998E+01  0.59986482903E+01  0.51100000000E-03 0. -1.
        -11    1    3    3    0    0  0.10364322284E+02 -0.12690415319E+02  0.12246786001E+02  0.20456040306E+02  0.51100000000E-03 0.  1.
         12    1    3    3    0    0  0.13041186656E+02 -0.21238905449E+01  0.20124173377E+02  0.24074173185E+02  0.00000000000E+00 0. -1.
</event>
<event>
 7    1  0.3004200E-011  0.5052888E+02  0.7816164E-02  0.1300439E+00
        -11   -1    0    0    0    0  0.00000000000E+00  0.00000000000E+00  0.45593999997E+02  0.45594000000E+02  0.51100000000E-03 0. -1.
         11   -1    0    0    0    0 -0.00000000000E+00 -0.00000000000E+00 -0.45593999997E+02  0.45594000000E+02  0.51100000000E-03 0.  1.
    9900012    2    1    2    0    0  0.16105083143E+02 -0.31838600987E+01 -0.37197490141E+02  0.50528881207E+02  0.30000064918E+02 0.  0.
         12    1    1    2    0    0 -0.16105083143E+02  0.31838600987E+01  0.37197490141E+02  0.40659118793E+02  0.00000000000E+00 0. -1.
         11    1    3    3    0    0 -0.36007673875E+01 -0.75569383430E+01 -0.23018649379E+00  0.83741166090E+01  0.51100000000E-03 0. -1.
        -11    1    3    3    0    0  0.11096481773E+02  0.30902229010E+01 -0.22294319925E+02  0.25094184316E+02  0.51100000000E-03 0.  1.
         12    1    3    3    0    0  0.86093687578E+01  0.12828553433E+01 -0.14672983723E+02  0.17060580282E+02  0.00000000000E+00 0. -1.
</event>
<event>
 7    1  0.3004200E-011  0.5052897E+02  0.7816164E-02  0.1300438E+00
        -11   -1    0    0    0    0  0.00000000000E+00  0.00000000000E+00  0.45593999997E+02  0.45594000000E+02  0.51100000000E-03 0.  1.
         11   -1    0    0    0    0 -0.00000000000E+00 -0.00000000000E+00 -0.45593999997E+02  0.45594000000E+02  0.51100000000E-03 0. -1.
    9900012    2    1    2    0    0  0.23421903535E+02 -0.32179889511E+02  0.83081784129E+01  0.50528970465E+02  0.30000336225E+02 0.  0.
         12    1    1    2    0    0 -0.23421903535E+02  0.32179889511E+02 -0.83081784129E+01  0.40659029535E+02  0.00000000000E+00 0. -1.
         11    1    3    3    0    0  0.45212262167E+01 -0.52082928762E+01 -0.43577675184E+01  0.81583049215E+01  0.51100000000E-03 0. -1.
        -11    1    3    3    0    0 -0.98691199348E+00  0.46565603940E+00  0.81051368200E+01  0.81782683963E+01  0.51100000000E-03 0.  1.
        -12    1    3    3    0    0  0.19887589312E+02 -0.27437252674E+02  0.45608091113E+01  0.34192397148E+02  0.00000000000E+00 0.  1.
</event>
<event>
 7    1  0.3004200E-011  0.5052885E+02  0.7816164E-02  0.1300439E+00
        -11   -1    0    0    0    0  0.00000000000E+00  0.00000000000E+00  0.45593999997E+02  0.45594000000E+02  0.51100000000E-03 0.  1.
         11   -1    0    0    0    0 -0.00000000000E+00 -0.00000000000E+00 -0.45593999997E+02  0.45594000000E+02  0.51100000000E-03 0. -1.
    9900012    2    1    2    0    0  0.56692996849E+00 -0.28698995936E+02  0.28796057125E+02  0.50528847485E+02  0.29999962414E+02 0.  0.
         12    1    1    2    0    0 -0.56692996849E+00  0.28698995936E+02 -0.28796057125E+02  0.40659152515E+02  0.00000000000E+00 0. -1.
         11    1    3    3    0    0 -0.16626756020E+01  0.45729521497E+01 -0.88940960626E+00  0.49464564316E+01  0.51100000000E-03 0. -1.
        -11    1    3    3    0    0  0.54831876706E+01 -0.19621348876E+02  0.15235917738E+02  0.25440044582E+02  0.51100000000E-03 0.  1.
         12    1    3    3    0    0 -0.32535821002E+01 -0.13650599210E+02  0.14449548993E+02  0.20142346471E+02  0.00000000000E+00 0. -1.
</event>
<event>
 7    1  0.3004200E-011  0.5052886E+02  0.7816164E-02  0.1300439E+00
        -11   -1    0    0    0    0  0.00000000000E+00  0.00000000000E+00  0.45593999997E+02  0.45594000000E+02  0.51100000000E-03 0.  1.
         11   -1    0    0    0    0 -0.00000000000E+00 -0.00000000000E+00 -0.45593999997E+02  0.45594000000E+02  0.51100000000E-03 0. -1.
    9900012    2    1    2    0    0  0.23987921501E+02  0.84649727056E+01  0.31718916549E+02  0.50528858250E+02  0.29999995136E+02 0.  0.
         12    1    1    2    0    0 -0.23987921501E+02 -0.84649727056E+01 -0.31718916549E+02  0.40659141750E+02  0.00000000000E+00 0. -1.
         11    1    3    3    0    0  0.17219030134E+02  0.74237415336E+01  0.19453970299E+02  0.27019694627E+02  0.51100000000E-03 0.  1.
        -11    1    3    3    0    0  0.68478003657E+01 -0.58296628224E+01 -0.50557585585E+00  0.90073828429E+01  0.51100000000E-03 0. -1.
        -12    1    3    3    0    0 -0.78908998717E-01  0.68708939944E+01  0.12770522106E+02  0.14501780779E+02  0.00000000000E+00 0.  1.
</event>
<event>
 7    1  0.3004200E-011  0.5052888E+02  0.7816164E-02  0.1300439E+00
        -11   -1    0    0    0    0  0.00000000000E+00  0.00000000000E+00  0.45593999997E+02  0.45594000000E+02  0.51100000000E-03 0.  1.
         11   -1    0    0    0    0 -0.00000000000E+00 -0.00000000000E+00 -0.45593999997E+02  0.45594000000E+02  0.51100000000E-03 0. -1.
    9900012    2    1    2    0    0  0.49649617726E+01  0.34322968625E+02  0.21223730458E+02  0.50528883492E+02  0.30000071863E+02 0.  0.
         12    1    1    2    0    0 -0.49649617726E+01 -0.34322968625E+02 -0.21223730458E+02  0.40659116508E+02  0.00000000000E+00 0. -1.
         11    1    3    3    0    0  0.63282504021E+01  0.51920063589E+01 -0.10593831969E+00  0.81862632728E+01  0.51100000000E-03 0. -1.
        -11    1    3    3    0    0 -0.64185136206E+01  0.30301766926E+02  0.20352548970E+02  0.37062388560E+02  0.51100000000E-03 0.  1.
        -12    1    3    3    0    0  0.50552249912E+01 -0.11708046592E+01  0.97711980693E+00  0.52802316595E+01  0.00000000000E+00 0.  1.
</event>
<event>
 7    1  0.3004200E-011  0.5052881E+02  0.7816164E-02  0.1300439E+00
        -11   -1    0    0    0    0  0.00000000000E+00  0.00000000000E+00  0.45593999997E+02  0.45594000000E+02  0.51100000000E-03 0.  1.
         11   -1    0    0    0    0 -0.00000000000E+00 -0.00000000000E+00 -0.45593999997E+02  0.45594000000E+02  0.51100000000E-03 0. -1.
    9900012    2    1    2    0    0  0.81014745339E+01 -0.27801310098E+02  0.28541595123E+02  0.50528814261E+02  0.29999861427E+02 0.  0.
         12    1    1    2    0    0 -0.81014745339E+01  0.27801310098E+02 -0.28541595123E+02  0.40659185739E+02  0.00000000000E+00 0. -1.
         11    1    3    3    0    0  0.16602490859E+01 -0.26760574801E+02  0.18094107812E+02  0.32346275341E+02  0.51100000000E-03 0. -1.
        -11    1    3    3    0    0  0.53166300015E+01  0.55565010903E+01  0.32339222296E+01  0.83426322098E+01  0.51100000000E-03 0.  1.
        -12    1    3    3    0    0  0.11245954465E+01 -0.65972363879E+01  0.72135650811E+01  0.98399067097E+01  0.00000000000E+00 0.  1.
</event>
<event>
 7    1  0.3004200E-011  0.5052884E+02  0.7816164E-02  0.1300439E+00
        -11   -1    0    0    0    0  0.00000000000E+00  0.00000000000E+00  0.45593999997E+02  0.45594000000E+02  0.51100000000E-03 0. -1.
         11   -1    0    0    0    0 -0.00000000000E+00 -0.00000000000E+00 -0.45593999997E+02  0.45594000000E+02  0.51100000000E-03 0.  1.
    9900012    2    1    2    0    0  0.29552053480E+02 -0.24559262256E+02 -0.13292315755E+02  0.50528844997E+02  0.29999954853E+02 0.  0.
         12    1    1    2    0    0 -0.29552053480E+02  0.24559262256E+02  0.13292315755E+02  0.40659155003E+02  0.00000000000E+00 0. -1.
         11    1    3    3    0    0 -0.52783573956E+00 -0.32535506597E+00  0.63452539265E+01  0.63754775617E+01  0.51100000000E-03 0. -1.
        -11    1    3    3    0    0  0.14100509983E+02 -0.11173327688E+02 -0.44597309004E+01  0.18535286170E+02  0.51100000000E-03 0.  1.
         12    1    3    3    0    0  0.15979379236E+02 -0.13060579502E+02 -0.15177838781E+02  0.25618081266E+02  0.00000000000E+00 0. -1.
</event>
<event>
 7    1  0.3004200E-011  0.5052890E+02  0.7816164E-02  0.1300439E+00
        -11   -1    0    0    0    0  0.00000000000E+00  0.00000000000E+00  0.45593999997E+02  0.45594000000E+02  0.51100000000E-03 0.  1.
         11   -1    0    0    0    0 -0.00000000000E+00 -0.00000000000E+00 -0.45593999997E+02  0.45594000000E+02  0.51100000000E-03 0. -1.
    9900012    2    1    2    0    0  0.36640440312E+02 -0.50318692260E+01  0.16891432124E+02  0.50528904420E+02  0.30000135474E+02 0.  0.
         12    1    1    2    0    0 -0.36640440312E+02  0.50318692260E+01 -0.16891432124E+02  0.40659095580E+02  0.00000000000E+00 0. -1.
         11    1    3    3    0    0  0.32693705610E+02 -0.89914528984E+00  0.12412563635E+02  0.34982261005E+02  0.51100000000E-03 0.  1.
        -11    1    3    3    0    0  0.12916651050E+01 -0.42244914564E+01 -0.44263576899E+01  0.62535885273E+01  0.51100000000E-03 0. -1.
        -12    1    3    3    0    0  0.26550695974E+01  0.91767520234E-01  0.89052261790E+01  0.92930548876E+01  0.00000000000E+00 0.  1.
</event>
<event>
 7    1  0.3004200E-011  0.5052887E+02  0.7816164E-02  0.1300439E+00
        -11   -1    0    0    0    0  0.00000000000E+00  0.00000000000E+00  0.45593999997E+02  0.45594000000E+02  0.51100000000E-03 0.  1.
         11   -1    0    0    0    0 -0.00000000000E+00 -0.00000000000E+00 -0.45593999997E+02  0.45594000000E+02  0.51100000000E-03 0. -1.
    9900012    2    1    2    0    0 -0.31418522984E+02  0.69638303441E+01  0.24850483947E+02  0.50528867300E+02  0.30000022644E+02 0.  0.
         12    1    1    2    0    0  0.31418522984E+02 -0.69638303441E+01 -0.24850483947E+02  0.40659132700E+02  0.00000000000E+00 0. -1.
         11    1    3    3    0    0  0.15548047869E+01  0.31759516315E+01  0.16183624167E+01  0.38888537982E+01  0.51100000000E-03 0. -1.
        -11    1    3    3    0    0 -0.19392263161E+02 -0.58393536892E+01  0.22067448918E+02  0.29952132212E+02  0.51100000000E-03 0.  1.
        -12    1    3    3    0    0 -0.13581064610E+02  0.96272324018E+01  0.11646726121E+01  0.16687881290E+02  0.00000000000E+00 0.  1.
</event>
<event>
 7    1  0.3004200E-011  0.5052886E+02  0.7816164E-02  0.1300439E+00
        -11   -1    0    0    0    0  0.00000000000E+00  0.00000000000E+00  0.45593999997E+02  0.45594000000E+02  0.51100000000E-03 0. -1.
         11   -1    0    0    0    0 -0.00000000000E+00 -0.00000000000E+00 -0.45593999997E+02  0.45594000000E+02  0.51100000000E-03 0.  1.
    9900012    2    1    2    0    0 -0.20865210713E+01 -0.50611394655E+01 -0.40288918068E+02  0.50528860536E+02  0.30000002084E+02 0.  0.
         12    1    1    2    0    0  0.20865210713E+01  0.50611394655E+01  0.40288918068E+02  0.40659139464E+02  0.00000000000E+00 0. -1.
         11    1    3    3    0    0  0.31887886503E+01  0.39915998708E+01  0.68644028492E+00  0.51548465652E+01  0.51100000000E-03 0. -1.
        -11    1    3    3    0    0 -0.68135969024E+00 -0.11543935822E+02 -0.37120757692E+02  0.38880295230E+02  0.51100000000E-03 0.  1.
        -12    1    3    3    0    0 -0.45939500313E+01  0.24911964854E+01 -0.38546006609E+01  0.64937187400E+01  0.00000000000E+00 0.  1.
</event>
<event>
 7    1  0.3004200E-011  0.5052891E+02  0.7816164E-02  0.1300439E+00
        -11   -1    0    0    0    0  0.00000000000E+00  0.00000000000E+00  0.45593999997E+02  0.45594000000E+02  0.51100000000E-03 0.  1.
         11   -1    0    0    0    0 -0.00000000000E+00 -0.00000000000E+00 -0.45593999997E+02  0.45594000000E+02  0.51100000000E-03 0. -1.
    9900012    2    1    2    0    0 -0.31067271682E+01  0.10082515177E+01  0.40527682184E+02  0.50528913094E+02  0.30000161840E+02 0.  0.
         12    1    1    2    0    0  0.31067271682E+01 -0.10082515177E+01 -0.40527682184E+02  0.40659086906E+02  0.00000000000E+00 0. -1.
         11    1    3    3    0    0 -0.70247196173E+00 -0.55246640294E+01  0.45897738242E+01  0.72167446617E+01  0.51100000000E-03 0. -1.
        -11    1    3    3    0    0  0.23362615065E+01  0.51748960110E+01  0.37662514818E+02  0.38088091174E+02  0.51100000000E-03 0.  1.
        -12    1    3    3    0    0 -0.47405167130E+01  0.13580195361E+01 -0.17246064583E+01  0.52240772585E+01  0.00000000000E+00 0.  1.
</event>
<event>
 7    1  0.3004200E-011  0.5052888E+02  0.7816164E-02  0.1300439E+00
        -11   -1    0    0    0    0  0.00000000000E+00  0.00000000000E+00  0.45593999997E+02  0.45594000000E+02  0.51100000000E-03 0.  1.
         11   -1    0    0    0    0 -0.00000000000E+00 -0.00000000000E+00 -0.45593999997E+02  0.45594000000E+02  0.51100000000E-03 0. -1.
    9900012    2    1    2    0    0 -0.21965337703E+02  0.11009832080E+02  0.32395554590E+02  0.50528875317E+02  0.30000047013E+02 0.  0.
         12    1    1    2    0    0  0.21965337703E+02 -0.11009832080E+02 -0.32395554590E+02  0.40659124683E+02  0.00000000000E+00 0. -1.
         11    1    3    3    0    0 -0.28353995410E+01  0.15423992098E+02  0.69700246336E+01  0.17161592771E+02  0.51100000000E-03 0. -1.
        -11    1    3    3    0    0 -0.30813220425E+01 -0.39838061310E+01  0.95079726142E+01  0.10759498144E+02  0.51100000000E-03 0.  1.
         12    1    3    3    0    0 -0.16048616119E+02 -0.43035388669E+00  0.15917557342E+02  0.22607784402E+02  0.00000000000E+00 0. -1.
</event>
<event>
 7    1  0.3004200E-011  0.5052883E+02  0.7816164E-02  0.1300439E+00
        -11   -1    0    0    0    0  0.00000000000E+00  0.00000000000E+00  0.45593999997E+02  0.45594000000E+02  0.51100000000E-03 0.  1.
         11   -1    0    0    0    0 -0.00000000000E+00 -0.00000000000E+00 -0.45593999997E+02  0.45594000000E+02  0.51100000000E-03 0. -1.
    9900012    2    1    2    0    0 -0.18427470200E+02 -0.21973478864E+02  0.28822957709E+02  0.50528827327E+02  0.29999901142E+02 0.  0.
         12    1    1    2    0    0  0.18427470200E+02  0.21973478864E+02 -0.28822957709E+02  0.40659172673E+02  0.00000000000E+00 0. -1.
         11    1    3    3    0    0 -0.14679662374E+01 -0.12011806007E+02 -0.16484869432E+01  0.12212940592E+02  0.51100000000E-03 0. -1.
        -11    1    3    3    0    0 -0.85111205288E+01  0.10850694219E+00  0.19192951688E+02  0.20995721973E+02  0.51100000000E-03 0.  1.
        -12    1    3    3    0    0 -0.84483834341E+01 -0.10070179799E+02  0.11278492964E+02  0.17320164762E+02  0.00000000000E+00 0.  1.
</event>
<event>
 7    1  0.3004200E-011  0.5052886E+02  0.7816164E-02  0.1300439E+00
        -11   -1    0    0    0    0  0.00000000000E+00  0.00000000000E+00  0.45593999997E+02  0.45594000000E+02  0.51100000000E-03 0.  1.
         11   -1    0    0    0    0 -0.00000000000E+00 -0.00000000000E+00 -0.45593999997E+02  0.45594000000E+02  0.51100000000E-03 0. -1.
    9900012    2    1    2    0    0  0.35419344004E+02 -0.13738454002E+02  0.14487605124E+02  0.50528858958E+02  0.29999997288E+02 0.  0.
         12    1    1    2    0    0 -0.35419344004E+02  0.13738454002E+02 -0.14487605124E+02  0.40659141042E+02  0.00000000000E+00 0. -1.
         11    1    3    3    0    0  0.10119192032E+02 -0.36623509178E+01 -0.37320403088E+01  0.11390302312E+02  0.51100000000E-03 0. -1.
        -11    1    3    3    0    0  0.79251111573E+01  0.65233077503E+01  0.80530927428E+01  0.13046579393E+02  0.51100000000E-03 0.  1.
        -12    1    3    3    0    0  0.17375040815E+02 -0.16599410835E+02  0.10166552690E+02  0.26091977254E+02  0.00000000000E+00 0.  1.
</event>
<event>
 7    1  0.3004200E-011  0.5052886E+02  0.7816164E-02  0.1300439E+00
        -11   -1    0    0    0    0  0.00000000000E+00  0.00000000000E+00  0.45593999997E+02  0.45594000000E+02  0.51100000000E-03 0.  1.
         11   -1    0    0    0    0 -0.00000000000E+00 -0.00000000000E+00 -0.45593999997E+02  0.45594000000E+02  0.51100000000E-03 0. -1.
    9900012    2    1    2    0    0  0.15269360253E+02  0.36074341343E+02  0.10892854829E+02  0.50528858935E+02  0.29999997218E+02 0.  0.
         12    1    1    2    0    0 -0.15269360253E+02 -0.36074341343E+02 -0.10892854829E+02  0.40659141065E+02  0.00000000000E+00 0. -1.
         11    1    3    3    0    0  0.20724202178E+02  0.19830824919E+02  0.11230509779E+02  0.30803871884E+02  0.51100000000E-03 0.  1.
        -11    1    3    3    0    0 -0.42092058823E+01  0.61157238686E+01 -0.45256544536E+01  0.86948859159E+01  0.51100000000E-03 0. -1.
        -12    1    3    3    0    0 -0.12456360436E+01  0.10127792555E+02  0.41879995041E+01  0.11030101134E+02  0.00000000000E+00 0.  1.
</event>
<event>
 7    1  0.3004200E-011  0.5052889E+02  0.7816164E-02  0.1300439E+00
        -11   -1    0    0    0    0  0.00000000000E+00  0.00000000000E+00  0.45593999997E+02  0.45594000000E+02  0.51100000000E-03 0.  1.
         11   -1    0    0    0    0 -0.00000000000E+00 -0.00000000000E+00 -0.45593999997E+02  0.45594000000E+02  0.51100000000E-03 0. -1.
    9900012    2    1    2    0    0 -0.22967855229E+02 -0.33521111890E+02  0.14056037953E+01  0.50528892309E+02  0.30000098663E+02 0.  0.
         12    1    1    2    0    0  0.22967855229E+02  0.33521111890E+02 -0.14056037953E+01  0.40659107691E+02  0.00000000000E+00 0. -1.
         11    1    3    3    0    0 -0.26669322289E+02 -0.18003651167E+02  0.72104824340E+01  0.32975373597E+02  0.51100000000E-03 0. -1.
        -11    1    3    3    0    0  0.10976497529E+01 -0.11961752333E+02 -0.52586366181E+01  0.13112650883E+02  0.51100000000E-03 0.  1.
         12    1    3    3    0    0  0.26038173070E+01 -0.35557083906E+01 -0.54624202059E+00  0.44408678288E+01  0.00000000000E+00 0. -1.
</event>
<event>
 7    1  0.3004200E-011  0.5052886E+02  0.7816164E-02  0.1300439E+00
        -11   -1    0    0    0    0  0.00000000000E+00  0.00000000000E+00  0.45593999997E+02  0.45594000000E+02  0.51100000000E-03 0.  1.
         11   -1    0    0    0    0 -0.00000000000E+00 -0.00000000000E+00 -0.45593999997E+02  0.45594000000E+02  0.51100000000E-03 0. -1.
    9900012    2    1    2    0    0  0.33966237661E+02  0.19976474314E+02  0.10020022151E+02  0.50528859936E+02  0.30000000260E+02 0.  0.
         12    1    1    2    0    0 -0.33966237661E+02 -0.19976474314E+02 -0.10020022151E+02  0.40659140064E+02  0.00000000000E+00 0. -1.
         11    1    3    3    0    0  0.28365695962E+02  0.22702802264E+01  0.54587191450E+01  0.28975239338E+02  0.51100000000E-03 0. -1.
        -11    1    3    3    0    0  0.77548071362E+01  0.17171146463E+02  0.39402318976E+01  0.19248655336E+02  0.51100000000E-03 0.  1.
        -12    1    3    3    0    0 -0.21542654377E+01  0.53504762530E+00  0.62107110803E+00  0.23049652619E+01  0.00000000000E+00 0.  1.
</event>
<event>
 7    1  0.3004200E-011  0.5052888E+02  0.7816164E-02  0.1300439E+00
        -11   -1    0    0    0    0  0.00000000000E+00  0.00000000000E+00  0.45593999997E+02  0.45594000000E+02  0.51100000000E-03 0. -1.
         11   -1    0    0    0    0 -0.00000000000E+00 -0.00000000000E+00 -0.45593999997E+02  0.45594000000E+02  0.51100000000E-03 0.  1.
    9900012    2    1    2    0    0  0.18148342536E+02  0.33649325028E+02 -0.13839248751E+02  0.50528877806E+02  0.30000054579E+02 0.  0.
         12    1    1    2    0    0 -0.18148342536E+02 -0.33649325028E+02  0.13839248751E+02  0.40659122194E+02  0.00000000000E+00 0. -1.
         11    1    3    3    0    0 -0.41155143078E+01  0.43941530696E+01 -0.68927799564E+01  0.91518552767E+01  0.51100000000E-03 0. -1.
        -11    1    3    3    0    0  0.20920397251E+02  0.23637014478E+02  0.96620441660E+00  0.31580136571E+02  0.51100000000E-03 0.  1.
        -12    1    3    3    0    0  0.13434595921E+01  0.56181574801E+01 -0.79126732107E+01  0.97968859586E+01  0.00000000000E+00 0.  1.
</event>
<event>
 7    1  0.3004200E-011  0.5052885E+02  0.7816164E-02  0.1300439E+00
        -11   -1    0    0    0    0  0.00000000000E+00  0.00000000000E+00  0.45593999997E+02  0.45594000000E+02  0.51100000000E-03 0.  1.
         11   -1    0    0    0    0 -0.00000000000E+00 -0.00000000000E+00 -0.45593999997E+02  0.45594000000E+02  0.51100000000E-03 0. -1.
    9900012    2    1    2    0    0 -0.17248576545E+02 -0.34429513597E+02 -0.13048436517E+02  0.50528849801E+02  0.29999969456E+02 0.  0.
         12    1    1    2    0    0  0.17248576545E+02  0.34429513597E+02  0.13048436517E+02  0.40659150199E+02  0.00000000000E+00 0. -1.
         11    1    3    3    0    0 -0.75980139405E+01  0.34272931045E+01 -0.75843672151E+00  0.83696702674E+01  0.51100000000E-03 0. -1.
        -11    1    3    3    0    0 -0.87279907231E+01 -0.28282044714E+02 -0.13373465409E+02  0.32479246490E+02  0.51100000000E-03 0.  1.
         12    1    3    3    0    0 -0.92257188177E+00 -0.95747619873E+01  0.10834656136E+01  0.96799330435E+01  0.00000000000E+00 0. -1.
</event>
<event>
 7    1  0.3004200E-011  0.5052886E+02  0.7816164E-02  0.1300439E+00
        -11   -1    0    0    0    0  0.00000000000E+00  0.00000000000E+00  0.45593999997E+02  0.45594000000E+02  0.51100000000E-03 0.  1.
         11   -1    0    0    0    0 -0.00000000000E+00 -0.00000000000E+00 -0.45593999997E+02  0.45594000000E+02  0.51100000000E-03 0. -1.
    9900012    2    1    2    0    0 -0.18006400565E+02 -0.31829768866E+02 -0.17770793237E+02  0.50528859089E+02  0.29999997686E+02 0.  0.
         12    1    1    2    0    0  0.18006400565E+02  0.31829768866E+02  0.17770793237E+02  0.40659140911E+02  0.00000000000E+00 0. -1.
         11    1    3    3    0    0 -0.98189503909E+01 -0.26772923773E+02 -0.23126871537E+02  0.36715847007E+02  0.51100000000E-03 0. -1.
        -11    1    3    3    0    0 -0.72956217848E+01  0.26473725404E+00  0.25636976377E+01  0.77374885383E+01  0.51100000000E-03 0.  1.
         12    1    3    3    0    0 -0.89182838906E+00 -0.53215823475E+01  0.27923806622E+01  0.60755235428E+01  0.00000000000E+00 0. -1.
</event>
<event>
 7    1  0.3004200E-011  0.5052884E+02  0.7816164E-02  0.1300439E+00
        -11   -1    0    0    0    0  0.00000000000E+00  0.00000000000E+00  0.45593999997E+02  0.45594000000E+02  0.51100000000E-03 0.  1.
         11   -1    0    0    0    0 -0.00000000000E+00 -0.00000000000E+00 -0.45593999997E+02  0.45594000000E+02  0.51100000000E-03 0. -1.
    9900012    2    1    2    0    0 -0.15793245362E+02  0.20088635534E+02 -0.31625745701E+02  0.50528835377E+02  0.29999925612E+02 0.  0.
         12    1    1    2    0    0  0.15793245362E+02 -0.20088635534E+02  0.31625745701E+02  0.40659164623E+02  0.00000000000E+00 0. -1.
         11    1    3    3    0    0 -0.97134011529E+01  0.17712745511E+02 -0.24966798701E+02  0.32115923670E+02  0.51100000000E-03 0. -1.
        -11    1    3    3    0    0 -0.81411149963E+01 -0.49084373946E+01 -0.27677583729E+01  0.99010604337E+01  0.51100000000E-03 0.  1.
         12    1    3    3    0    0  0.20612707870E+01  0.72843274168E+01 -0.38911886270E+01  0.85118512736E+01  0.00000000000E+00 0. -1.
</event>
<event>
 7    1  0.3004200E-011  0.5052886E+02  0.7816164E-02  0.1300439E+00
        -11   -1    0    0    0    0  0.00000000000E+00  0.00000000000E+00  0.45593999997E+02  0.45594000000E+02  0.51100000000E-03 0.  1.
         11   -1    0    0    0    0 -0.00000000000E+00 -0.00000000000E+00 -0.45593999997E+02  0.45594000000E+02  0.51100000000E-03 0. -1.
    9900012    2    1    2    0    0  0.71605500882E+01 -0.36312880522E+01  0.39858573822E+02  0.50528860344E+02  0.30000001500E+02 0.  0.
         12    1    1    2    0    0 -0.71605500882E+01  0.36312880522E+01 -0.39858573822E+02  0.40659139656E+02  0.00000000000E+00 0. -1.
         11    1    3    3    0    0 -0.10703469691E+01 -0.14393739164E+02  0.21710740251E+02  0.26070704100E+02  0.51100000000E-03 0. -1.
        -11    1    3    3    0    0  0.99623522812E+00  0.72914135824E+01  0.12957841541E+02  0.14901773529E+02  0.51100000000E-03 0.  1.
         12    1    3    3    0    0  0.72346618292E+01  0.34710375295E+01  0.51899920304E+01  0.95563827147E+01  0.00000000000E+00 0. -1.
</event>
<event>
 7    1  0.3004200E-011  0.5052885E+02  0.7816164E-02  0.1300439E+00
        -11   -1    0    0    0    0  0.00000000000E+00  0.00000000000E+00  0.45593999997E+02  0.45594000000E+02  0.51100000000E-03 0. -1.
         11   -1    0    0    0    0 -0.00000000000E+00 -0.00000000000E+00 -0.45593999997E+02  0.45594000000E+02  0.51100000000E-03 0.  1.
    9900012    2    1    2    0    0 -0.94399614599E+01  0.11733399809E+02 -0.37767458775E+02  0.50528849913E+02  0.29999969797E+02 0.  0.
         12    1    1    2    0    0  0.94399614599E+01 -0.11733399809E+02  0.37767458775E+02  0.40659150087E+02  0.00000000000E+00 0. -1.
         11    1    3    3    0    0 -0.48099883461E+01  0.87033460048E+01 -0.29961445324E+02  0.31568535375E+02  0.51100000000E-03 0.  1.
        -11    1    3    3    0    0 -0.72671518922E+01 -0.48795043969E+01 -0.26019381684E+01  0.91318750691E+01  0.51100000000E-03 0. -1.
         12    1    3    3    0    0  0.26371787784E+01  0.79095582012E+01 -0.52040752825E+01  0.98284394689E+01  0.00000000000E+00 0. -1.
</event>
<event>
 7    1  0.3004200E-011  0.5052886E+02  0.7816164E-02  0.1300439E+00
        -11   -1    0    0    0    0  0.00000000000E+00  0.00000000000E+00  0.45593999997E+02  0.45594000000E+02  0.51100000000E-03 0.  1.
         11   -1    0    0    0    0 -0.00000000000E+00 -0.00000000000E+00 -0.45593999997E+02  0.45594000000E+02  0.51100000000E-03 0. -1.
    9900012    2    1    2    0    0  0.55960341951E+01  0.15582909664E+02  0.37135193742E+02  0.50528864660E+02  0.30000014620E+02 0.  0.
         12    1    1    2    0    0 -0.55960341951E+01 -0.15582909664E+02 -0.37135193742E+02  0.40659135340E+02  0.00000000000E+00 0. -1.
         11    1    3    3    0    0  0.57050925188E+01  0.96903004184E+01  0.31645783357E+01  0.11681804619E+02  0.51100000000E-03 0. -1.
        -11    1    3    3    0    0 -0.60126554767E+01 -0.25385141349E+01  0.53732245738E+01  0.84538525227E+01  0.51100000000E-03 0.  1.
        -12    1    3    3    0    0  0.59035971531E+01  0.84311233806E+01  0.28597390833E+02  0.30393207518E+02  0.00000000000E+00 0.  1.
</event>
<event>
 7    1  0.3004200E-011  0.5052884E+02  0.7816164E-02  0.1300439E+00
        -11   -1    0    0    0    0  0.00000000000E+00  0.00000000000E+00  0.45593999997E+02  0.45594000000E+02  0.51100000000E-03 0.  1.
         11   -1    0    0    0    0 -0.00000000000E+00 -0.00000000000E+00 -0.45593999997E+02  0.45594000000E+02  0.51100000000E-03 0. -1.
    9900012    2    1    2    0    0 -0.20663365833E+02 -0.34512859039E+02 -0.59207152753E+01  0.50528843640E+02  0.29999950728E+02 0.  0.
         12    1    1    2    0    0  0.20663365833E+02  0.34512859039E+02  0.59207152753E+01  0.40659156360E+02  0.00000000000E+00 0. -1.
         11    1    3    3    0    0 -0.54229135400E+01 -0.25399151661E+02  0.81730529854E+01  0.27227260085E+02  0.51100000000E-03 0. -1.
        -11    1    3    3    0    0 -0.16123848448E+01 -0.26483183396E+01 -0.81582321385E+00  0.32060790216E+01  0.51100000000E-03 0.  1.
         12    1    3    3    0    0 -0.13628067448E+02 -0.64653890375E+01 -0.13277945047E+02  0.20095504533E+02  0.00000000000E+00 0. -1.
</event>
<event>
 7    1  0.3004200E-011  0.5052884E+02  0.7816164E-02  0.1300439E+00
        -11   -1    0    0    0    0  0.00000000000E+00  0.00000000000E+00  0.45593999997E+02  0.45594000000E+02  0.51100000000E-03 0.  1.
         11   -1    0    0    0    0 -0.00000000000E+00 -0.00000000000E+00 -0.45593999997E+02  0.45594000000E+02  0.51100000000E-03 0. -1.
    9900012    2    1    2    0    0  0.39569608328E+02  0.60246251242E+01 -0.71496582813E+01  0.50528835908E+02  0.29999927225E+02 0.  0.
         12    1    1    2    0    0 -0.39569608328E+02 -0.60246251242E+01  0.71496582813E+01  0.40659164092E+02  0.00000000000E+00 0. -1.
         11    1    3    3    0    0  0.18431880991E+02 -0.42587843665E+00 -0.64080676455E+01  0.19518681834E+02  0.51100000000E-03 0. -1.
        -11    1    3    3    0    0  0.11845199538E+02  0.12274861334E+02  0.60630913836E+01  0.18103647430E+02  0.51100000000E-03 0.  1.
        -12    1    3    3    0    0  0.92925277986E+01 -0.58243577734E+01 -0.68046820194E+01  0.12906506644E+02  0.00000000000E+00 0.  1.
</event>
<event>
 7    1  0.3004200E-011  0.5052879E+02  0.7816164E-02  0.1300439E+00
        -11   -1    0    0    0    0  0.00000000000E+00  0.00000000000E+00  0.45593999997E+02  0.45594000000E+02  0.51100000000E-03 0.  1.
         11   -1    0    0    0    0 -0.00000000000E+00 -0.00000000000E+00 -0.45593999997E+02  0.45594000000E+02  0.51100000000E-03 0. -1.
    9900012    2    1    2    0    0 -0.23825222839E+02 -0.12355178762E+01  0.32924206453E+02  0.50528792945E+02  0.29999796635E+02 0.  0.
         12    1    1    2    0    0  0.23825222839E+02  0.12355178762E+01 -0.32924206453E+02  0.40659207055E+02  0.00000000000E+00 0. -1.
         11    1    3    3    0    0 -0.15943000355E+02  0.34555712493E+01  0.42419374855E+01  0.16855689451E+02  0.51100000000E-03 0. -1.
        -11    1    3    3    0    0 -0.40781568163E+01 -0.11398040124E+01  0.28121921076E+02  0.28438933902E+02  0.51100000000E-03 0.  1.
         12    1    3    3    0    0 -0.38040656685E+01 -0.35512851131E+01  0.56034789142E+00  0.52341695926E+01  0.00000000000E+00 0. -1.
</event>
<event>
 7    1  0.3004200E-011  0.5052887E+02  0.7816164E-02  0.1300439E+00
        -11   -1    0    0    0    0  0.00000000000E+00  0.00000000000E+00  0.45593999997E+02  0.45594000000E+02  0.51100000000E-03 0.  1.
         11   -1    0    0    0    0 -0.00000000000E+00 -0.00000000000E+00 -0.45593999997E+02  0.45594000000E+02  0.51100000000E-03 0. -1.
    9900012    2    1    2    0    0  0.14513476684E+02  0.15454683844E+02  0.34694046900E+02  0.50528866359E+02  0.30000019785E+02 0.  0.
         12    1    1    2    0    0 -0.14513476684E+02 -0.15454683844E+02 -0.34694046900E+02  0.40659133641E+02  0.00000000000E+00 0. -1.
         11    1    3    3    0    0 -0.67197745249E+00  0.17915494571E+02  0.22367345584E+02  0.28665565547E+02  0.51100000000E-03 0. -1.
        -11    1    3    3    0    0  0.91899421030E+01  0.78567859893E+00  0.11866810400E+02  0.15029754358E+02  0.51100000000E-03 0.  1.
         12    1    3    3    0    0  0.59955120338E+01 -0.32464893259E+01  0.45989091590E+00  0.68335464545E+01  0.00000000000E+00 0. -1.
</event>
<event>
 7    1  0.3004200E-011  0.5052886E+02  0.7816164E-02  0.1300439E+00
        -11   -1    0    0    0    0  0.00000000000E+00  0.00000000000E+00  0.45593999997E+02  0.45594000000E+02  0.51100000000E-03 0.  1.
         11   -1    0    0    0    0 -0.00000000000E+00 -0.00000000000E+00 -0.45593999997E+02  0.45594000000E+02  0.51100000000E-03 0. -1.
    9900012    2    1    2    0    0  0.34021579482E+02 -0.15466155419E+02  0.16015492298E+02  0.50528858009E+02  0.29999994403E+02 0.  0.
         12    1    1    2    0    0 -0.34021579482E+02  0.15466155419E+02 -0.16015492298E+02  0.40659141991E+02  0.00000000000E+00 0. -1.
         11    1    3    3    0    0  0.21324786995E+02 -0.10741438017E+02 -0.52101571165E+01  0.24439123726E+02  0.51100000000E-03 0. -1.
        -11    1    3    3    0    0  0.11110350182E+02 -0.12847955045E+01  0.17553831486E+02  0.20814119745E+02  0.51100000000E-03 0.  1.
         12    1    3    3    0    0  0.15864423055E+01 -0.34399218973E+01  0.36718179284E+01  0.52756145374E+01  0.00000000000E+00 0. -1.
</event>
<event>
 7    1  0.3004200E-011  0.5052886E+02  0.7816164E-02  0.1300439E+00
        -11   -1    0    0    0    0  0.00000000000E+00  0.00000000000E+00  0.45593999997E+02  0.45594000000E+02  0.51100000000E-03 0.  1.
         11   -1    0    0    0    0 -0.00000000000E+00 -0.00000000000E+00 -0.45593999997E+02  0.45594000000E+02  0.51100000000E-03 0. -1.
    9900012    2    1    2    0    0 -0.11090960243E+02  0.36891125636E+02  0.13007742850E+02  0.50528856823E+02  0.29999990800E+02 0.  0.
         12    1    1    2    0    0  0.11090960243E+02 -0.36891125636E+02 -0.13007742850E+02  0.40659143177E+02  0.00000000000E+00 0. -1.
         11    1    3    3    0    0  0.44656725997E+01  0.28182421718E+02  0.44510164475E+01  0.28879104441E+02  0.51100000000E-03 0. -1.
        -11    1    3    3    0    0 -0.11247743852E+02  0.17845463161E+01  0.29861305091E+01  0.11773415944E+02  0.51100000000E-03 0.  1.
        -12    1    3    3    0    0 -0.43088889909E+01  0.69241576018E+01  0.55705958934E+01  0.98763364381E+01  0.00000000000E+00 0.  1.
</event>
<event>
 7    1  0.3004200E-011  0.5052889E+02  0.7816164E-02  0.1300439E+00
        -11   -1    0    0    0    0  0.00000000000E+00  0.00000000000E+00  0.45593999997E+02  0.45594000000E+02  0.51100000000E-03 0. -1.
         11   -1    0    0    0    0 -0.00000000000E+00 -0.00000000000E+00 -0.45593999997E+02  0.45594000000E+02  0.51100000000E-03 0.  1.
    9900012    2    1    2    0    0 -0.22481222933E+02 -0.15096733815E+02 -0.30328972675E+02  0.50528888598E+02  0.30000087383E+02 0.  0.
         12    1    1    2    0    0  0.22481222933E+02  0.15096733815E+02  0.30328972675E+02  0.40659111402E+02  0.00000000000E+00 0. -1.
         11    1    3    3    0    0 -0.74633822784E+01  0.68515318275E+01 -0.79916896555E+01  0.12903978736E+02  0.51100000000E-03 0. -1.
        -11    1    3    3    0    0 -0.16676875901E+02 -0.22205398559E+02 -0.22746294714E+02  0.35896961410E+02  0.51100000000E-03 0.  1.
         12    1    3    3    0    0  0.16590352465E+01  0.25713291650E+00  0.40901169452E+00  0.17279484518E+01  0.00000000000E+00 0. -1.
</event>
<event>
 7    1  0.3004200E-011  0.5052885E+02  0.7816164E-02  0.1300439E+00
        -11   -1    0    0    0    0  0.00000000000E+00  0.00000000000E+00  0.45593999997E+02  0.45594000000E+02  0.51100000000E-03 0.  1.
         11   -1    0    0    0    0 -0.00000000000E+00 -0.00000000000E+00 -0.45593999997E+02  0.45594000000E+02  0.51100000000E-03 0. -1.
    9900012    2    1    2    0    0  0.34271218333E+02  0.32733177705E+01  0.21631808168E+02  0.50528854167E+02  0.29999982727E+02 0.  0.
         12    1    1    2    0    0 -0.34271218333E+02 -0.32733177705E+01 -0.21631808168E+02  0.40659145833E+02  0.00000000000E+00 0. -1.
         11    1    3    3    0    0  0.65863747653E+01  0.83101137210E+01 -0.21312834517E+01  0.10815761278E+02  0.51100000000E-03 0. -1.
        -11    1    3    3    0    0  0.28148820514E+02 -0.42115919038E+01  0.25184925660E+02  0.38004921832E+02  0.51100000000E-03 0.  1.
         12    1    3    3    0    0 -0.46397694653E+00 -0.82520404668E+00 -0.14218340402E+01  0.17081710580E+01  0.00000000000E+00 0. -1.
</event>
<event>
 7    1  0.3004200E-011  0.5052887E+02  0.7816164E-02  0.1300439E+00
        -11   -1    0    0    0    0  0.00000000000E+00  0.00000000000E+00  0.45593999997E+02  0.45594000000E+02  0.51100000000E-03 0.  1.
         11   -1    0    0    0    0 -0.00000000000E+00 -0.00000000000E+00 -0.45593999997E+02  0.45594000000E+02  0.51100000000E-03 0. -1.
    9900012    2    1    2    0    0  0.16315599143E+02 -0.54601826691E+01  0.36839554195E+02  0.50528866666E+02  0.30000020718E+02 0.  0.
         12    1    1    2    0    0 -0.16315599143E+02  0.54601826691E+01 -0.36839554195E+02  0.40659133334E+02  0.00000000000E+00 0. -1.
         11    1    3    3    0    0  0.48020294624E+01  0.22154830935E+01 -0.73667820670E+00  0.53395268832E+01  0.51100000000E-03 0. -1.
        -11    1    3    3    0    0  0.96661381849E+01 -0.14329901948E+02  0.20783889353E+02  0.27032394902E+02  0.51100000000E-03 0.  1.
        -12    1    3    3    0    0  0.18474314962E+01  0.66542361850E+01  0.16792343049E+02  0.18156944881E+02  0.00000000000E+00 0.  1.
</event>
<event>
 7    1  0.3004200E-011  0.5052885E+02  0.7816164E-02  0.1300439E+00
        -11   -1    0    0    0    0  0.00000000000E+00  0.00000000000E+00  0.45593999997E+02  0.45594000000E+02  0.51100000000E-03 0.  1.
         11   -1    0    0    0    0 -0.00000000000E+00 -0.00000000000E+00 -0.45593999997E+02  0.45594000000E+02  0.51100000000E-03 0. -1.
    9900012    2    1    2    0    0  0.35629799842E+02  0.10105972674E+02  0.16779539066E+02  0.50528852791E+02  0.29999978543E+02 0.  0.
         12    1    1    2    0    0 -0.35629799842E+02 -0.10105972674E+02 -0.16779539066E+02  0.40659147209E+02  0.00000000000E+00 0. -1.
         11    1    3    3    0    0  0.86464580697E+01  0.51469976545E+01 -0.60140636382E+01  0.11722703771E+02  0.51100000000E-03 0. -1.
        -11    1    3    3    0    0  0.24090210159E+02 -0.16493421518E+01  0.16647981029E+02  0.29329402101E+02  0.51100000000E-03 0.  1.
        -12    1    3    3    0    0  0.28931316141E+01  0.66083171717E+01  0.61456216751E+01  0.94767469182E+01  0.00000000000E+00 0.  1.
</event>
<event>
 7    1  0.3004200E-011  0.5052886E+02  0.7816164E-02  0.1300439E+00
        -11   -1    0    0    0    0  0.00000000000E+00  0.00000000000E+00  0.45593999997E+02  0.45594000000E+02  0.51100000000E-03 0.  1.
         11   -1    0    0    0    0 -0.00000000000E+00 -0.00000000000E+00 -0.45593999997E+02  0.45594000000E+02  0.51100000000E-03 0. -1.
    9900012    2    1    2    0    0 -0.32029700082E+02  0.10522471581E+02  0.22727558177E+02  0.50528855934E+02  0.29999988096E+02 0.  0.
         12    1    1    2    0    0  0.32029700082E+02 -0.10522471581E+02 -0.22727558177E+02  0.40659144066E+02  0.00000000000E+00 0. -1.
         11    1    3    3    0    0 -0.17862401388E+02 -0.41793956488E+01  0.12830437720E+02  0.22386443748E+02  0.51100000000E-03 0. -1.
        -11    1    3    3    0    0 -0.57863221981E+01  0.10169889846E+02  0.13581817183E+02  0.17926905542E+02  0.51100000000E-03 0.  1.
        -12    1    3    3    0    0 -0.83809764960E+01  0.45319773841E+01 -0.36846967255E+01  0.10215506644E+02  0.00000000000E+00 0.  1.
</event>
<event>
 7    1  0.3004200E-011  0.5052885E+02  0.7816164E-02  0.1300439E+00
        -11   -1    0    0    0    0  0.00000000000E+00  0.00000000000E+00  0.45593999997E+02  0.45594000000E+02  0.51100000000E-03 0. -1.
         11   -1    0    0    0    0 -0.00000000000E+00 -0.00000000000E+00 -0.45593999997E+02  0.45594000000E+02  0.51100000000E-03 0.  1.
    9900012    2    1    2    0    0  0.76114919205E+01  0.39869990449E+02 -0.23697649160E+01  0.50528846868E+02  0.29999960539E+02 0.  0.
         12    1    1    2    0    0 -0.76114919205E+01 -0.39869990449E+02  0.23697649160E+01  0.40659153132E+02  0.00000000000E+00 0. -1.
         11    1    3    3    0    0 -0.92685929526E+01  0.42239399902E+01 -0.28278255622E+01  0.10570954642E+02  0.51100000000E-03 0. -1.
        -11    1    3    3    0    0  0.83603062403E+01  0.23214908176E+02 -0.17035896212E+01  0.24733153861E+02  0.51100000000E-03 0.  1.
         12    1    3    3    0    0  0.85197786328E+01  0.12431142283E+02  0.21616502674E+01  0.15224738366E+02  0.00000000000E+00 0. -1.
</event>
<event>
 7    1  0.3004200E-011  0.5052885E+02  0.7816164E-02  0.1300439E+00
        -11   -1    0    0    0    0  0.00000000000E+00  0.00000000000E+00  0.45593999997E+02  0.45594000000E+02  0.51100000000E-03 0.  1.
         11   -1    0    0    0    0 -0.00000000000E+00 -0.00000000000E+00 -0.45593999997E+02  0.45594000000E+02  0.51100000000E-03 0. -1.
    9900012    2    1    2    0    0 -0.23277359904E+02 -0.27484248170E+02  0.18866549928E+02  0.50528854808E+02  0.29999984675E+02 0.  0.
         12    1    1    2    0    0  0.23277359904E+02  0.27484248170E+02 -0.18866549928E+02  0.40659145192E+02  0.00000000000E+00 0. -1.
         11    1    3    3    0    0 -0.10941420620E+01 -0.13128023809E+02 -0.21397179716E+01  0.13346181073E+02  0.51100000000E-03 0. -1.
        -11    1    3    3    0    0 -0.18395060118E+02 -0.17755677307E+02  0.16958339444E+02  0.30679432692E+02  0.51100000000E-03 0.  1.
         12    1    3    3    0    0 -0.37881577242E+01  0.33994529460E+01  0.40479284555E+01  0.65032410425E+01  0.00000000000E+00 0. -1.
</event>
<event>
 7    1  0.3004200E-011  0.5052886E+02  0.7816164E-02  0.1300439E+00
        -11   -1    0    0    0    0  0.00000000000E+00  0.00000000000E+00  0.45593999997E+02  0.45594000000E+02  0.51100000000E-03 0.  1.
         11   -1    0    0    0    0 -0.00000000000E+00 -0.00000000000E+00 -0.45593999997E+02  0.45594000000E+02  0.51100000000E-03 0. -1.
    9900012    2    1    2    0    0  0.36258986857E+02 -0.16806263767E+02 -0.74833578191E+01  0.50528864816E+02  0.30000015094E+02 0.  0.
         12    1    1    2    0    0 -0.36258986857E+02  0.16806263767E+02  0.74833578191E+01  0.40659135184E+02  0.00000000000E+00 0. -1.
         11    1    3    3    0    0 -0.48565562716E+01 -0.32468998996E+01 -0.28101322684E+01  0.64826955354E+01  0.51100000000E-03 0. -1.
        -11    1    3    3    0    0  0.17363529464E+02 -0.23869932643E+01 -0.11830150015E+01  0.17566713325E+02  0.51100000000E-03 0.  1.
         12    1    3    3    0    0  0.23752013665E+02 -0.11172370603E+02 -0.34902105492E+01  0.26479455956E+02  0.00000000000E+00 0. -1.
</event>
<event>
 7    1  0.3004200E-011  0.5052884E+02  0.7816164E-02  0.1300439E+00
        -11   -1    0    0    0    0  0.00000000000E+00  0.00000000000E+00  0.45593999997E+02  0.45594000000E+02  0.51100000000E-03 0.  1.
         11   -1    0    0    0    0 -0.00000000000E+00 -0.00000000000E+00 -0.45593999997E+02  0.45594000000E+02  0.51100000000E-03 0. -1.
    9900012    2    1    2    0    0 -0.10788814654E+02 -0.21668228950E+02  0.32668896606E+02  0.50528837774E+02  0.29999932898E+02 0.  0.
         12    1    1    2    0    0  0.10788814654E+02  0.21668228950E+02 -0.32668896606E+02  0.40659162226E+02  0.00000000000E+00 0. -1.
         11    1    3    3    0    0  0.31669240295E+01 -0.79484473621E+01  0.16462324389E+02  0.18553041471E+02  0.51100000000E-03 0.  1.
        -11    1    3    3    0    0 -0.64045080651E+01 -0.74505754331E+01 -0.31129555536E+01  0.10306274321E+02  0.51100000000E-03 0. -1.
        -12    1    3    3    0    0 -0.75512306182E+01 -0.62692061544E+01  0.19319527771E+02  0.21669521982E+02  0.00000000000E+00 0.  1.
</event>
<event>
 7    1  0.3004200E-011  0.5052886E+02  0.7816164E-02  0.1300439E+00
        -11   -1    0    0    0    0  0.00000000000E+00  0.00000000000E+00  0.45593999997E+02  0.45594000000E+02  0.51100000000E-03 0.  1.
         11   -1    0    0    0    0 -0.00000000000E+00 -0.00000000000E+00 -0.45593999997E+02  0.45594000000E+02  0.51100000000E-03 0. -1.
    9900012    2    1    2    0    0  0.32926533222E+02 -0.11118539308E+02  0.21104193949E+02  0.50528861931E+02  0.30000006324E+02 0.  0.
         12    1    1    2    0    0 -0.32926533222E+02  0.11118539308E+02 -0.21104193949E+02  0.40659138069E+02  0.00000000000E+00 0. -1.
         11    1    3    3    0    0 -0.86049009113E+00 -0.22004143577E+00  0.76921334479E+01  0.77432408377E+01  0.51100000000E-03 0. -1.
        -11    1    3    3    0    0  0.24393663185E+02 -0.16638971982E+02  0.11040055043E+02  0.31524419230E+02  0.51100000000E-03 0.  1.
        -12    1    3    3    0    0  0.93933601276E+01  0.57404741099E+01  0.23720054578E+01  0.11261201862E+02  0.00000000000E+00 0.  1.
</event>
<event>
 7    1  0.3004200E-011  0.5052890E+02  0.7816164E-02  0.1300439E+00
        -11   -1    0    0    0    0  0.00000000000E+00  0.00000000000E+00  0.45593999997E+02  0.45594000000E+02  0.51100000000E-03 0.  1.
         11   -1    0    0    0    0 -0.00000000000E+00 -0.00000000000E+00 -0.45593999997E+02  0.45594000000E+02  0.51100000000E-03 0. -1.
    9900012    2    1    2    0    0 -0.12293769233E+02  0.37400129666E+02  0.10161508059E+02  0.50528896382E+02  0.30000111041E+02 0.  0.
         12    1    1    2    0    0  0.12293769233E+02 -0.37400129666E+02 -0.10161508059E+02  0.40659103618E+02  0.00000000000E+00 0. -1.
         11    1    3    3    0    0  0.48392692385E-01  0.15841381750E+02  0.15277431638E+02  0.22007990260E+02  0.51100000000E-03 0. -1.
        -11    1    3    3    0    0 -0.82126958410E+01  0.15210727704E+02 -0.95464300847E+01  0.19747124801E+02  0.51100000000E-03 0.  1.
        -12    1    3    3    0    0 -0.41294660845E+01  0.63480202124E+01  0.44305065064E+01  0.87737813207E+01  0.00000000000E+00 0.  1.
</event>
<event>
 7    1  0.3004200E-011  0.5052886E+02  0.7816164E-02  0.1300439E+00
        -11   -1    0    0    0    0  0.00000000000E+00  0.00000000000E+00  0.45593999997E+02  0.45594000000E+02  0.51100000000E-03 0.  1.
         11   -1    0    0    0    0 -0.00000000000E+00 -0.00000000000E+00 -0.45593999997E+02  0.45594000000E+02  0.51100000000E-03 0. -1.
    9900012    2    1    2    0    0  0.15677872776E+02  0.30855896861E+02  0.21337370857E+02  0.50528862516E+02  0.30000008104E+02 0.  0.
         12    1    1    2    0    0 -0.15677872776E+02 -0.30855896861E+02 -0.21337370857E+02  0.40659137484E+02  0.00000000000E+00 0. -1.
         11    1    3    3    0    0  0.79805669902E+01  0.31317828626E+01  0.17261812909E+02  0.19273497310E+02  0.51100000000E-03 0. -1.
        -11    1    3    3    0    0  0.67564440727E+01  0.13324574174E+02  0.70534686043E+01  0.16521054235E+02  0.51100000000E-03 0.  1.
         12    1    3    3    0    0  0.94086171275E+00  0.14399539825E+02 -0.29779106570E+01  0.14734310972E+02  0.00000000000E+00 0. -1.
</event>
<event>
 7    1  0.3004200E-011  0.5052886E+02  0.7816164E-02  0.1300439E+00
        -11   -1    0    0    0    0  0.00000000000E+00  0.00000000000E+00  0.45593999997E+02  0.45594000000E+02  0.51100000000E-03 0.  1.
         11   -1    0    0    0    0 -0.00000000000E+00 -0.00000000000E+00 -0.45593999997E+02  0.45594000000E+02  0.51100000000E-03 0. -1.
    9900012    2    1    2    0    0 -0.20136924757E+02  0.11561773859E+02  0.33376563098E+02  0.50528864278E+02  0.30000013460E+02 0.  0.
         12    1    1    2    0    0  0.20136924757E+02 -0.11561773859E+02 -0.33376563098E+02  0.40659135722E+02  0.00000000000E+00 0. -1.
         11    1    3    3    0    0  0.43499344318E+01 -0.44549370192E+01  0.10211993343E+02  0.11960485011E+02  0.51100000000E-03 0. -1.
        -11    1    3    3    0    0 -0.12646116991E+02  0.85054733500E+01  0.59379054312E+01  0.16356224290E+02  0.51100000000E-03 0.  1.
         12    1    3    3    0    0 -0.11840742199E+02  0.75112375279E+01  0.17226664324E+02  0.22212154977E+02  0.00000000000E+00 0. -1.
</event>
<event>
 7    1  0.3004200E-011  0.5052887E+02  0.7816164E-02  0.1300439E+00
        -11   -1    0    0    0    0  0.00000000000E+00  0.00000000000E+00  0.45593999997E+02  0.45594000000E+02  0.51100000000E-03 0.  1.
         11   -1    0    0    0    0 -0.00000000000E+00 -0.00000000000E+00 -0.45593999997E+02  0.45594000000E+02  0.51100000000E-03 0. -1.
    9900012    2    1    2    0    0 -0.21571549826E+02  0.67414373401E+01  0.33799207184E+02  0.50528866395E+02  0.30000019893E+02 0.  0.
         12    1    1    2    0    0  0.21571549826E+02 -0.67414373401E+01 -0.33799207184E+02  0.40659133605E+02  0.00000000000E+00 0. -1.
         11    1    3    3    0    0 -0.57551620173E+01 -0.60228568340E+01  0.57013552336E+01  0.10094659283E+02  0.51100000000E-03 0. -1.
        -11    1    3    3    0    0  0.30939265657E+01  0.88973698259E+01  0.63714165373E+01  0.11372357731E+02  0.51100000000E-03 0.  1.
        -12    1    3    3    0    0 -0.18910314374E+02  0.38669243481E+01  0.21726435413E+02  0.29061849380E+02  0.00000000000E+00 0.  1.
</event>
<event>
 7    1  0.3004200E-011  0.5052885E+02  0.7816164E-02  0.1300439E+00
        -11   -1    0    0    0    0  0.00000000000E+00  0.00000000000E+00  0.45593999997E+02  0.45594000000E+02  0.51100000000E-03 0. -1.
         11   -1    0    0    0    0 -0.00000000000E+00 -0.00000000000E+00 -0.45593999997E+02  0.45594000000E+02  0.51100000000E-03 0.  1.
    9900012    2    1    2    0    0  0.11227041907E+01  0.40114950602E+02 -0.65342533401E+01  0.50528853511E+02  0.29999980732E+02 0.  0.
         12    1    1    2    0    0 -0.11227041907E+01 -0.40114950602E+02  0.65342533401E+01  0.40659146489E+02  0.00000000000E+00 0. -1.
         11    1    3    3    0    0 -0.12278929777E+00  0.96045593265E+01  0.11422801541E+02  0.14924578130E+02  0.51100000000E-03 0. -1.
        -11    1    3    3    0    0 -0.75619544370E+00  0.13223585204E+02 -0.91665093190E+01  0.16107759949E+02  0.51100000000E-03 0.  1.
         12    1    3    3    0    0  0.20016889322E+01  0.17286806071E+02 -0.87905455617E+01  0.19496515432E+02  0.00000000000E+00 0. -1.
</event>
<event>
 7    1  0.3004200E-011  0.5052885E+02  0.7816164E-02  0.1300439E+00
        -11   -1    0    0    0    0  0.00000000000E+00  0.00000000000E+00  0.45593999997E+02  0.45594000000E+02  0.51100000000E-03 0.  1.
         11   -1    0    0    0    0 -0.00000000000E+00 -0.00000000000E+00 -0.45593999997E+02  0.45594000000E+02  0.51100000000E-03 0. -1.
    9900012    2    1    2    0    0  0.24290916055E+02 -0.24689758170E+02  0.21296331933E+02  0.50528849553E+02  0.29999968701E+02 0.  0.
         12    1    1    2    0    0 -0.24290916055E+02  0.24689758170E+02 -0.21296331933E+02  0.40659150447E+02  0.00000000000E+00 0. -1.
         11    1    3    3    0    0  0.86855787579E+01  0.54106177622E+01  0.64765535196E+01  0.12110318273E+02  0.51100000000E-03 0. -1.
        -11    1    3    3    0    0  0.84177737864E+01 -0.10404133628E+02  0.12445679317E+01  0.13440753761E+02  0.51100000000E-03 0.  1.
         12    1    3    3    0    0  0.71875635105E+01 -0.19696242305E+02  0.13575210482E+02  0.24977777518E+02  0.00000000000E+00 0. -1.
</event>
<event>
 7    1  0.3004200E-011  0.5052894E+02  0.7816164E-02  0.1300438E+00
        -11   -1    0    0    0    0  0.00000000000E+00  0.00000000000E+00  0.45593999997E+02  0.45594000000E+02  0.51100000000E-03 0.  1.
         11   -1    0    0    0    0 -0.00000000000E+00 -0.00000000000E+00 -0.45593999997E+02  0.45594000000E+02  0.51100000000E-03 0. -1.
    9900012    2    1    2    0    0 -0.39753334401E+01 -0.30499480438E+02  0.26592053938E+02  0.50528943007E+02  0.30000252763E+02 0.  0.
         12    1    1    2    0    0  0.39753334401E+01  0.30499480438E+02 -0.26592053938E+02  0.40659056993E+02  0.00000000000E+00 0. -1.
         11    1    3    3    0    0  0.22206499350E+01 -0.24975419181E+02  0.27114731724E+02  0.36931172823E+02  0.51100000000E-03 0. -1.
        -11    1    3    3    0    0  0.16306970081E+01 -0.20780951937E+01 -0.36383840904E+01  0.44961640780E+01  0.51100000000E-03 0.  1.
         12    1    3    3    0    0 -0.78266803832E+01 -0.34459660631E+01  0.31157063044E+01  0.91016061057E+01  0.00000000000E+00 0. -1.
</event>
<event>
 7    1  0.3004200E-011  0.5052885E+02  0.7816164E-02  0.1300439E+00
        -11   -1    0    0    0    0  0.00000000000E+00  0.00000000000E+00  0.45593999997E+02  0.45594000000E+02  0.51100000000E-03 0.  1.
         11   -1    0    0    0    0 -0.00000000000E+00 -0.00000000000E+00 -0.45593999997E+02  0.45594000000E+02  0.51100000000E-03 0. -1.
    9900012    2    1    2    0    0  0.39693831658E+02 -0.54537275173E+01 -0.69154056685E+01  0.50528852799E+02  0.29999978569E+02 0.  0.
         12    1    1    2    0    0 -0.39693831658E+02  0.54537275173E+01  0.69154056685E+01  0.40659147201E+02  0.00000000000E+00 0. -1.
         11    1    3    3    0    0  0.18449382378E+02 -0.86428142640E+01 -0.90489757947E+01  0.22292642547E+02  0.51100000000E-03 0. -1.
        -11    1    3    3    0    0  0.22818101820E+02  0.87679156176E+00  0.58619231194E+01  0.23575340443E+02  0.51100000000E-03 0.  1.
        -12    1    3    3    0    0 -0.15736525396E+01  0.23122951849E+01 -0.37283529931E+01  0.46608698093E+01  0.00000000000E+00 0.  1.
</event>
<event>
 7    1  0.3004200E-011  0.5052886E+02  0.7816164E-02  0.1300439E+00
        -11   -1    0    0    0    0  0.00000000000E+00  0.00000000000E+00  0.45593999997E+02  0.45594000000E+02  0.51100000000E-03 0.  1.
         11   -1    0    0    0    0 -0.00000000000E+00 -0.00000000000E+00 -0.45593999997E+02  0.45594000000E+02  0.51100000000E-03 0. -1.
    9900012    2    1    2    0    0 -0.27465328680E+02 -0.27838390729E+02 -0.11128592263E+02  0.50528857810E+02  0.29999993799E+02 0.  0.
         12    1    1    2    0    0  0.27465328680E+02  0.27838390729E+02  0.11128592263E+02  0.40659142190E+02  0.00000000000E+00 0. -1.
         11    1    3    3    0    0 -0.11334675867E+02  0.37167780804E+01  0.30286882355E+01  0.12307000813E+02  0.51100000000E-03 0. -1.
        -11    1    3    3    0    0 -0.87033831809E+01 -0.15469557185E+02 -0.79443361176E+01  0.19446556377E+02  0.51100000000E-03 0.  1.
         12    1    3    3    0    0 -0.74272696313E+01 -0.16085611624E+02 -0.62129443811E+01  0.18775300621E+02  0.00000000000E+00 0. -1.
</event>
<event>
 7    1  0.3004200E-011  0.5052886E+02  0.7816164E-02  0.1300439E+00
        -11   -1    0    0    0    0  0.00000000000E+00  0.00000000000E+00  0.45593999997E+02  0.45594000000E+02  0.51100000000E-03 0.  1.
         11   -1    0    0    0    0 -0.00000000000E+00 -0.00000000000E+00 -0.45593999997E+02  0.45594000000E+02  0.51100000000E-03 0. -1.
    9900012    2    1    2    0    0  0.14572800186E+02  0.28327050475E+02  0.25266129437E+02  0.50528860922E+02  0.30000003259E+02 0.  0.
         12    1    1    2    0    0 -0.14572800186E+02 -0.28327050475E+02 -0.25266129437E+02  0.40659139078E+02  0.00000000000E+00 0. -1.
         11    1    3    3    0    0  0.25391742376E+00  0.19674662335E+02  0.10485437076E+02  0.22295766482E+02  0.51100000000E-03 0. -1.
        -11    1    3    3    0    0  0.11506603743E+02 -0.30175042951E+01  0.57560278810E+01  0.13215109500E+02  0.51100000000E-03 0.  1.
        -12    1    3    3    0    0  0.28122790191E+01  0.11669892435E+02  0.90246644796E+01  0.15017984941E+02  0.00000000000E+00 0.  1.
</event>
<event>
 7    1  0.3004200E-011  0.5052886E+02  0.7816164E-02  0.1300439E+00
        -11   -1    0    0    0    0  0.00000000000E+00  0.00000000000E+00  0.45593999997E+02  0.45594000000E+02  0.51100000000E-03 0.  1.
         11   -1    0    0    0    0 -0.00000000000E+00 -0.00000000000E+00 -0.45593999997E+02  0.45594000000E+02  0.51100000000E-03 0. -1.
    9900012    2    1    2    0    0  0.91546554540E+01 -0.16570302692E+02  0.35983097510E+02  0.50528856450E+02  0.29999989665E+02 0.  0.
         12    1    1    2    0    0 -0.91546554540E+01  0.16570302692E+02 -0.35983097510E+02  0.40659143550E+02  0.00000000000E+00 0. -1.
         11    1    3    3    0    0 -0.43319839576E+01  0.15767927983E+01  0.69116730813E+01  0.83080434268E+01  0.51100000000E-03 0.  1.
        -11    1    3    3    0    0  0.14363088034E+02 -0.12129319418E+02  0.82509269810E+01  0.20530379532E+02  0.51100000000E-03 0. -1.
        -12    1    3    3    0    0 -0.87644862237E+00 -0.60177760721E+01  0.20820497448E+02  0.21690433491E+02  0.00000000000E+00 0.  1.
</event>
<event>
 7    1  0.3004200E-011  0.5052886E+02  0.7816164E-02  0.1300439E+00
        -11   -1    0    0    0    0  0.00000000000E+00  0.00000000000E+00  0.45593999997E+02  0.45594000000E+02  0.51100000000E-03 0. -1.
         11   -1    0    0    0    0 -0.00000000000E+00 -0.00000000000E+00 -0.45593999997E+02  0.45594000000E+02  0.51100000000E-03 0.  1.
    9900012    2    1    2    0    0  0.28431637400E+02 -0.25736555202E+02 -0.13506950252E+02  0.50528856084E+02  0.29999988552E+02 0.  0.
         12    1    1    2    0    0 -0.28431637400E+02  0.25736555202E+02  0.13506950252E+02  0.40659143916E+02  0.00000000000E+00 0. -1.
         11    1    3    3    0    0  0.88139379292E+01  0.38775906257E+00  0.24725649139E+01  0.91623925055E+01  0.51100000000E-03 0. -1.
        -11    1    3    3    0    0  0.19207711308E+02 -0.27884911537E+02 -0.10278569951E+02  0.35385780557E+02  0.51100000000E-03 0.  1.
        -12    1    3    3    0    0  0.40998816287E+00  0.17605972729E+01 -0.57009452156E+01  0.59806830214E+01  0.00000000000E+00 0.  1.
</event>
<event>
 7    1  0.3004200E-011  0.5052886E+02  0.7816164E-02  0.1300439E+00
        -11   -1    0    0    0    0  0.00000000000E+00  0.00000000000E+00  0.45593999997E+02  0.45594000000E+02  0.51100000000E-03 0.  1.
         11   -1    0    0    0    0 -0.00000000000E+00 -0.00000000000E+00 -0.45593999997E+02  0.45594000000E+02  0.51100000000E-03 0. -1.
    9900012    2    1    2    0    0 -0.45647786663E+01 -0.19763380564E+02  0.35238294270E+02  0.50528858364E+02  0.29999995482E+02 0.  0.
         12    1    1    2    0    0  0.45647786663E+01  0.19763380564E+02 -0.35238294270E+02  0.40659141636E+02  0.00000000000E+00 0. -1.
         11    1    3    3    0    0 -0.70950182161E+01 -0.20252349760E+01  0.91179749473E+01  0.11729378824E+02  0.51100000000E-03 0. -1.
        -11    1    3    3    0    0  0.11164020739E+02 -0.13445015141E+02  0.22523743565E+02  0.28508293805E+02  0.51100000000E-03 0.  1.
        -12    1    3    3    0    0 -0.86337811895E+01 -0.42931304463E+01  0.35965757575E+01  0.10291185735E+02  0.00000000000E+00 0.  1.
</event>
<event>
 7    1  0.3004200E-011  0.5052887E+02  0.7816164E-02  0.1300439E+00
        -11   -1    0    0    0    0  0.00000000000E+00  0.00000000000E+00  0.45593999997E+02  0.45594000000E+02  0.51100000000E-03 0.  1.
         11   -1    0    0    0    0 -0.00000000000E+00 -0.00000000000E+00 -0.45593999997E+02  0.45594000000E+02  0.51100000000E-03 0. -1.
    9900012    2    1    2    0    0  0.24513664813E+02  0.32278849019E+02  0.32126703812E+01  0.50528866862E+02  0.30000021314E+02 0.  0.
         12    1    1    2    0    0 -0.24513664813E+02 -0.32278849019E+02 -0.32126703812E+01  0.40659133138E+02  0.00000000000E+00 0. -1.
         11    1    3    3    0    0  0.54860308966E+01  0.65598276735E+01 -0.40879144594E+01  0.94783394639E+01  0.51100000000E-03 0. -1.
        -11    1    3    3    0    0  0.21320615920E+02  0.27275928115E+02  0.11092522323E+02  0.36353665145E+02  0.51100000000E-03 0.  1.
        -12    1    3    3    0    0 -0.22929820035E+01 -0.15569067692E+01 -0.37919374823E+01  0.46968622533E+01  0.00000000000E+00 0.  1.
</event>
<event>
 7    1  0.3004200E-011  0.5052887E+02  0.7816164E-02  0.1300439E+00
        -11   -1    0    0    0    0  0.00000000000E+00  0.00000000000E+00  0.45593999997E+02  0.45594000000E+02  0.51100000000E-03 0.  1.
         11   -1    0    0    0    0 -0.00000000000E+00 -0.00000000000E+00 -0.45593999997E+02  0.45594000000E+02  0.51100000000E-03 0. -1.
    9900012    2    1    2    0    0 -0.15374072713E+02 -0.35177038792E+02  0.13393234575E+02  0.50528869385E+02  0.30000028984E+02 0.  0.
         12    1    1    2    0    0  0.15374072713E+02  0.35177038792E+02 -0.13393234575E+02  0.40659130615E+02  0.00000000000E+00 0. -1.
         11    1    3    3    0    0 -0.29448535262E+01 -0.26166313165E+02 -0.10237018559E+01  0.26351396029E+02  0.51100000000E-03 0. -1.
        -11    1    3    3    0    0 -0.80699306056E+01 -0.11321655515E+02  0.78592773973E+01  0.15970970698E+02  0.51100000000E-03 0.  1.
         12    1    3    3    0    0 -0.43592885808E+01  0.23109298875E+01  0.65576590334E+01  0.82065026579E+01  0.00000000000E+00 0. -1.
</event>
<event>
 7    1  0.3004200E-011  0.5052887E+02  0.7816164E-02  0.1300439E+00
        -11   -1    0    0    0    0  0.00000000000E+00  0.00000000000E+00  0.45593999997E+02  0.45594000000E+02  0.51100000000E-03 0. -1.
         11   -1    0    0    0    0 -0.00000000000E+00 -0.00000000000E+00 -0.45593999997E+02  0.45594000000E+02  0.51100000000E-03 0.  1.
    9900012    2    1    2    0    0  0.39574069575E+02  0.44351438326E+01  0.82089986264E+01  0.50528866438E+02  0.30000020026E+02 0.  0.
         12    1    1    2    0    0 -0.39574069575E+02 -0.44351438326E+01 -0.82089986264E+01  0.40659133562E+02  0.00000000000E+00 0. -1.
         11    1    3    3    0    0  0.14091777241E+02 -0.20902693623E+01 -0.10495591895E+02  0.17694769321E+02  0.51100000000E-03 0. -1.
        -11    1    3    3    0    0  0.11856720672E+02 -0.44599824124E-01  0.84092623677E+01  0.14536144883E+02  0.51100000000E-03 0.  1.
         12    1    3    3    0    0  0.13625571662E+02  0.65700130189E+01  0.10295328154E+02  0.18297952234E+02  0.00000000000E+00 0. -1.
</event>
<event>
 7    1  0.3004200E-011  0.5052887E+02  0.7816164E-02  0.1300439E+00
        -11   -1    0    0    0    0  0.00000000000E+00  0.00000000000E+00  0.45593999997E+02  0.45594000000E+02  0.51100000000E-03 0. -1.
         11   -1    0    0    0    0 -0.00000000000E+00 -0.00000000000E+00 -0.45593999997E+02  0.45594000000E+02  0.51100000000E-03 0.  1.
    9900012    2    1    2    0    0  0.28430771728E+02 -0.14162476706E+01 -0.29031882651E+02  0.50528871274E+02  0.30000034724E+02 0.  0.
         12    1    1    2    0    0 -0.28430771728E+02  0.14162476706E+01  0.29031882651E+02  0.40659128726E+02  0.00000000000E+00 0. -1.
         11    1    3    3    0    0 -0.13062972202E+00  0.10793114700E+01 -0.21036562277E-01  0.10873914528E+01  0.51100000000E-03 0. -1.
        -11    1    3    3    0    0  0.64975337666E+01  0.41985109056E+00  0.54012024903E+01  0.84597404563E+01  0.51100000000E-03 0.  1.
        -12    1    3    3    0    0  0.22063867683E+02 -0.29154102312E+01 -0.34412048579E+02  0.40981739365E+02  0.00000000000E+00 0.  1.
</event>
<event>
 7    1  0.3004200E-011  0.5052886E+02  0.7816164E-02  0.1300439E+00
        -11   -1    0    0    0    0  0.00000000000E+00  0.00000000000E+00  0.45593999997E+02  0.45594000000E+02  0.51100000000E-03 0.  1.
         11   -1    0    0    0    0 -0.00000000000E+00 -0.00000000000E+00 -0.45593999997E+02  0.45594000000E+02  0.51100000000E-03 0. -1.
    9900012    2    1    2    0    0  0.12221840387E+02 -0.38000790086E+02  0.77286594714E+01  0.50528860722E+02  0.30000002650E+02 0.  0.
         12    1    1    2    0    0 -0.12221840387E+02  0.38000790086E+02 -0.77286594714E+01  0.40659139278E+02  0.00000000000E+00 0. -1.
         11    1    3    3    0    0  0.11779363822E+02 -0.34295315587E+02  0.10010080947E+02  0.37618131321E+02  0.51100000000E-03 0. -1.
        -11    1    3    3    0    0  0.29445944704E+01 -0.38874073865E+00  0.42409047295E+01  0.51775504964E+01  0.51100000000E-03 0.  1.
         12    1    3    3    0    0 -0.25021179049E+01 -0.33167337609E+01 -0.65223262047E+01  0.77331789046E+01  0.00000000000E+00 0. -1.
</event>
<event>
 7    1  0.3004200E-011  0.5052886E+02  0.7816164E-02  0.1300439E+00
        -11   -1    0    0    0    0  0.00000000000E+00  0.00000000000E+00  0.45593999997E+02  0.45594000000E+02  0.51100000000E-03 0.  1.
         11   -1    0    0    0    0 -0.00000000000E+00 -0.00000000000E+00 -0.45593999997E+02  0.45594000000E+02  0.51100000000E-03 0. -1.
    9900012    2    1    2    0    0 -0.69020937061E+01 -0.39888280052E+02 -0.38015210932E+01  0.50528863934E+02  0.30000012413E+02 0.  0.
         12    1    1    2    0    0  0.69020937061E+01  0.39888280052E+02  0.38015210932E+01  0.40659136066E+02  0.00000000000E+00 0. -1.
         11    1    3    3    0    0  0.74574882329E+01 -0.86981921559E-01 -0.25745577441E+01  0.78898697351E+01  0.51100000000E-03 0. -1.
        -11    1    3    3    0    0 -0.79108465474E+01 -0.25058966596E+02  0.14897712297E+01  0.26320196020E+02  0.51100000000E-03 0.  1.
         12    1    3    3    0    0 -0.64487353916E+01 -0.14742331535E+02 -0.27167345789E+01  0.16318798179E+02  0.00000000000E+00 0. -1.
</event>
<event>
 7    1  0.3004200E-011  0.5052886E+02  0.7816164E-02  0.1300439E+00
        -11   -1    0    0    0    0  0.00000000000E+00  0.00000000000E+00  0.45593999997E+02  0.45594000000E+02  0.51100000000E-03 0. -1.
         11   -1    0    0    0    0 -0.00000000000E+00 -0.00000000000E+00 -0.45593999997E+02  0.45594000000E+02  0.51100000000E-03 0.  1.
    9900012    2    1    2    0    0  0.20246576011E+02  0.18015814361E+02 -0.30309608882E+02  0.50528858373E+02  0.29999995511E+02 0.  0.
         12    1    1    2    0    0 -0.20246576011E+02 -0.18015814361E+02  0.30309608882E+02  0.40659141627E+02  0.00000000000E+00 0. -1.
         11    1    3    3    0    0  0.91786863713E+01  0.10322001981E+02  0.66204883904E+00  0.13828605039E+02  0.51100000000E-03 0. -1.
        -11    1    3    3    0    0  0.13364001339E+02  0.75916735627E+01 -0.30767447253E+02  0.34392816837E+02  0.51100000000E-03 0.  1.
         12    1    3    3    0    0 -0.22961116994E+01  0.10213881768E+00 -0.20421046822E+00  0.23074364974E+01  0.00000000000E+00 0. -1.
</event>
<event>
 7    1  0.3004200E-011  0.5052884E+02  0.7816164E-02  0.1300439E+00
        -11   -1    0    0    0    0  0.00000000000E+00  0.00000000000E+00  0.45593999997E+02  0.45594000000E+02  0.51100000000E-03 0.  1.
         11   -1    0    0    0    0 -0.00000000000E+00 -0.00000000000E+00 -0.45593999997E+02  0.45594000000E+02  0.51100000000E-03 0. -1.
    9900012    2    1    2    0    0  0.20860659532E+02 -0.26956359400E+02  0.22166520312E+02  0.50528842963E+02  0.29999948669E+02 0.  0.
         12    1    1    2    0    0 -0.20860659532E+02  0.26956359400E+02 -0.22166520312E+02  0.40659157037E+02  0.00000000000E+00 0. -1.
         11    1    3    3    0    0  0.72481108652E+01 -0.99485591624E+01 -0.36650431096E+01  0.12842954558E+02  0.51100000000E-03 0. -1.
        -11    1    3    3    0    0  0.16297221371E+01 -0.12826511224E+02  0.19766635260E+02  0.23619806396E+02  0.51100000000E-03 0.  1.
        -12    1    3    3    0    0  0.11982826530E+02 -0.41812890135E+01  0.60649281619E+01  0.14066082008E+02  0.00000000000E+00 0.  1.
</event>
<event>
 7    1  0.3004200E-011  0.5052885E+02  0.7816164E-02  0.1300439E+00
        -11   -1    0    0    0    0  0.00000000000E+00  0.00000000000E+00  0.45593999997E+02  0.45594000000E+02  0.51100000000E-03 0.  1.
         11   -1    0    0    0    0 -0.00000000000E+00 -0.00000000000E+00 -0.45593999997E+02  0.45594000000E+02  0.51100000000E-03 0. -1.
    9900012    2    1    2    0    0  0.24188707503E+02 -0.26353793859E+02  0.19327442961E+02  0.50528854991E+02  0.29999985232E+02 0.  0.
         12    1    1    2    0    0 -0.24188707503E+02  0.26353793859E+02 -0.19327442961E+02  0.40659145009E+02  0.00000000000E+00 0. -1.
         11    1    3    3    0    0  0.15218511041E+02 -0.22379021958E+02  0.24802673055E+02  0.36709621260E+02  0.51100000000E-03 0. -1.
        -11    1    3    3    0    0  0.62596268243E+01 -0.62463556945E+01 -0.24787185459E+01  0.91838953246E+01  0.51100000000E-03 0.  1.
         12    1    3    3    0    0  0.27105696368E+01  0.22715837931E+01 -0.29965115485E+01  0.46353384068E+01  0.00000000000E+00 0. -1.
</event>
<event>
 7    1  0.3062647E-011  0.5052883E+02  0.7816164E-02  0.1300439E+00
        -11   -1    0    0    0    0  0.00000000000E+00  0.00000000000E+00  0.45593999997E+02  0.45594000000E+02  0.51100000000E-03 0. -1.
         11   -1    0    0    0    0 -0.00000000000E+00 -0.00000000000E+00 -0.45593999997E+02  0.45594000000E+02  0.51100000000E-03 0.  1.
    9900012    2    1    2    0    0 -0.35387336586E+02 -0.19604407270E+02 -0.40707913522E+01  0.50528834769E+02  0.29999923765E+02 0.  0.
         12    1    1    2    0    0  0.35387336586E+02  0.19604407270E+02  0.40707913522E+01  0.40659165231E+02  0.00000000000E+00 0. -1.
         11    1    3    3    0    0  0.22601306187E+01  0.52549387444E+00 -0.30849031540E+01  0.38601764152E+01  0.51100000000E-03 0. -1.
        -11    1    3    3    0    0 -0.23156615677E+02 -0.54712448544E+01  0.66200876523E+01  0.24697953977E+02  0.51100000000E-03 0.  1.
        -12    1    3    3    0    0 -0.14490851528E+02 -0.14658656290E+02 -0.76059758504E+01  0.21970704378E+02  0.00000000000E+00 0.  1.
</event>
<event>
 7    1  0.3004200E-011  0.5052887E+02  0.7816164E-02  0.1300439E+00
        -11   -1    0    0    0    0  0.00000000000E+00  0.00000000000E+00  0.45593999997E+02  0.45594000000E+02  0.51100000000E-03 0.  1.
         11   -1    0    0    0    0 -0.00000000000E+00 -0.00000000000E+00 -0.45593999997E+02  0.45594000000E+02  0.51100000000E-03 0. -1.
    9900012    2    1    2    0    0  0.47187252441E+01  0.35810855453E+01  0.40225292021E+02  0.50528872368E+02  0.30000038049E+02 0.  0.
         12    1    1    2    0    0 -0.47187252441E+01 -0.35810855453E+01 -0.40225292021E+02  0.40659127632E+02  0.00000000000E+00 0. -1.
         11    1    3    3    0    0 -0.84925255961E+00  0.68187178516E+01 -0.81221155082E+00  0.69192362956E+01  0.51100000000E-03 0. -1.
        -11    1    3    3    0    0  0.79379869503E+01  0.20098153027E+01  0.16689192691E+02  0.18589786102E+02  0.51100000000E-03 0.  1.
         12    1    3    3    0    0 -0.23700091465E+01 -0.52474476090E+01  0.24348310881E+02  0.25019849970E+02  0.00000000000E+00 0. -1.
</event>
<event>
 7    1  0.3004200E-011  0.5052883E+02  0.7816164E-02  0.1300439E+00
        -11   -1    0    0    0    0  0.00000000000E+00  0.00000000000E+00  0.45593999997E+02  0.45594000000E+02  0.51100000000E-03 0.  1.
         11   -1    0    0    0    0 -0.00000000000E+00 -0.00000000000E+00 -0.45593999997E+02  0.45594000000E+02  0.51100000000E-03 0. -1.
    9900012    2    1    2    0    0 -0.28934530925E+02  0.28558545822E+02  0.60874286278E+00  0.50528828990E+02  0.29999906198E+02 0.  0.
         12    1    1    2    0    0  0.28934530925E+02 -0.28558545822E+02 -0.60874286278E+00  0.40659171010E+02  0.00000000000E+00 0. -1.
         11    1    3    3    0    0 -0.18726345580E+02  0.21306423447E+02 -0.57503766090E+01  0.28943160337E+02  0.51100000000E-03 0. -1.
        -11    1    3    3    0    0  0.34286685288E+01 -0.21636182905E+01  0.13635185238E+01  0.42774051729E+01  0.51100000000E-03 0.  1.
        -12    1    3    3    0    0 -0.13636853874E+02  0.94157406650E+01  0.49956009479E+01  0.17308263480E+02  0.00000000000E+00 0.  1.
</event>
<event>
 7    1  0.3004200E-011  0.5052886E+02  0.7816164E-02  0.1300439E+00
        -11   -1    0    0    0    0  0.00000000000E+00  0.00000000000E+00  0.45593999997E+02  0.45594000000E+02  0.51100000000E-03 0. -1.
         11   -1    0    0    0    0 -0.00000000000E+00 -0.00000000000E+00 -0.45593999997E+02  0.45594000000E+02  0.51100000000E-03 0.  1.
    9900012    2    1    2    0    0  0.17177912785E+02  0.22842404851E+02 -0.28919022897E+02  0.50528855489E+02  0.29999986746E+02 0.  0.
         12    1    1    2    0    0 -0.17177912785E+02 -0.22842404851E+02  0.28919022897E+02  0.40659144511E+02  0.00000000000E+00 0. -1.
         11    1    3    3    0    0 -0.20873331516E+01  0.71038297595E+01 -0.12105920765E+02  0.14190654487E+02  0.51100000000E-03 0.  1.
        -11    1    3    3    0    0  0.19865418848E+02  0.15601004078E+02 -0.20542721624E+02  0.32558095863E+02  0.51100000000E-03 0. -1.
         12    1    3    3    0    0 -0.60017291123E+00  0.13757101338E+00  0.37296194923E+01  0.37801051393E+01  0.00000000000E+00 0. -1.
</event>
<event>
 7    1  0.3004200E-011  0.5052884E+02  0.7816164E-02  0.1300439E+00
        -11   -1    0    0    0    0  0.00000000000E+00  0.00000000000E+00  0.45593999997E+02  0.45594000000E+02  0.51100000000E-03 0.  1.
         11   -1    0    0    0    0 -0.00000000000E+00 -0.00000000000E+00 -0.45593999997E+02  0.45594000000E+02  0.51100000000E-03 0. -1.
    9900012    2    1    2    0    0  0.41742839843E+00 -0.18153558085E+02  0.36379129358E+02  0.50528843953E+02  0.29999951680E+02 0.  0.
         12    1    1    2    0    0 -0.41742839843E+00  0.18153558085E+02 -0.36379129358E+02  0.40659156047E+02  0.00000000000E+00 0. -1.
         11    1    3    3    0    0 -0.17993384517E+00  0.22491224660E+01 -0.49269531745E+00  0.23094754800E+01  0.51100000000E-03 0. -1.
        -11    1    3    3    0    0  0.10869215152E+02 -0.13866111738E+02  0.14789647457E+02  0.23003099029E+02  0.51100000000E-03 0.  1.
        -12    1    3    3    0    0 -0.10271852908E+02 -0.65365688128E+01  0.22082177218E+02  0.25216269444E+02  0.00000000000E+00 0.  1.
</event>
<event>
 7    1  0.3004200E-011  0.5052886E+02  0.7816164E-02  0.1300439E+00
        -11   -1    0    0    0    0  0.00000000000E+00  0.00000000000E+00  0.45593999997E+02  0.45594000000E+02  0.51100000000E-03 0.  1.
         11   -1    0    0    0    0 -0.00000000000E+00 -0.00000000000E+00 -0.45593999997E+02  0.45594000000E+02  0.51100000000E-03 0. -1.
    9900012    2    1    2    0    0 -0.23229116455E+02 -0.11741693663E+02  0.31236300017E+02  0.50528860067E+02  0.30000000659E+02 0.  0.
         12    1    1    2    0    0  0.23229116455E+02  0.11741693663E+02 -0.31236300017E+02  0.40659139933E+02  0.00000000000E+00 0. -1.
         11    1    3    3    0    0  0.49958735170E+01 -0.28795261725E+01  0.16442608324E+00  0.57686618356E+01  0.51100000000E-03 0. -1.
        -11    1    3    3    0    0 -0.15813226172E+02 -0.11275703147E+02  0.16663384487E+02  0.25590388552E+02  0.51100000000E-03 0.  1.
         12    1    3    3    0    0 -0.12411763800E+02  0.24135356569E+01  0.14408489446E+02  0.19169809679E+02  0.00000000000E+00 0. -1.
</event>
<event>
 7    1  0.3004200E-011  0.5052885E+02  0.7816164E-02  0.1300439E+00
        -11   -1    0    0    0    0  0.00000000000E+00  0.00000000000E+00  0.45593999997E+02  0.45594000000E+02  0.51100000000E-03 0. -1.
         11   -1    0    0    0    0 -0.00000000000E+00 -0.00000000000E+00 -0.45593999997E+02  0.45594000000E+02  0.51100000000E-03 0.  1.
    9900012    2    1    2    0    0  0.31104707294E+02  0.19069123589E+02  0.17945248780E+02  0.50528852886E+02  0.29999978831E+02 0.  0.
         12    1    1    2    0    0 -0.31104707294E+02 -0.19069123589E+02 -0.17945248780E+02  0.40659147114E+02  0.00000000000E+00 0. -1.
         11    1    3    3    0    0  0.67512324967E+01 -0.18958292311E+00 -0.57740829471E+01  0.88856691391E+01  0.51100000000E-03 0. -1.
        -11    1    3    3    0    0  0.11054482385E+02  0.16821936419E+02  0.10370817475E+02  0.22643607951E+02  0.51100000000E-03 0.  1.
         12    1    3    3    0    0  0.13298992412E+02  0.24367700930E+01  0.13348514252E+02  0.18999575795E+02  0.00000000000E+00 0. -1.
</event>
<event>
 7    1  0.3004200E-011  0.5052887E+02  0.7816164E-02  0.1300439E+00
        -11   -1    0    0    0    0  0.00000000000E+00  0.00000000000E+00  0.45593999997E+02  0.45594000000E+02  0.51100000000E-03 0. -1.
         11   -1    0    0    0    0 -0.00000000000E+00 -0.00000000000E+00 -0.45593999997E+02  0.45594000000E+02  0.51100000000E-03 0.  1.
    9900012    2    1    2    0    0  0.13037140018E+02 -0.23557264361E+02 -0.30467246080E+02  0.50528870548E+02  0.30000032519E+02 0.  0.
         12    1    1    2    0    0 -0.13037140018E+02  0.23557264361E+02  0.30467246080E+02  0.40659129452E+02  0.00000000000E+00 0. -1.
         11    1    3    3    0    0  0.83000402402E+01 -0.17029979086E+02 -0.30334308955E+02  0.35764244096E+02  0.51100000000E-03 0. -1.
        -11    1    3    3    0    0  0.76845506492E+01 -0.56243181740E+01 -0.35495308182E+01  0.10162895399E+02  0.51100000000E-03 0.  1.
         12    1    3    3    0    0 -0.29474508711E+01 -0.90296710135E+00  0.34165936936E+01  0.46017310538E+01  0.00000000000E+00 0. -1.
</event>
<event>
 7    1  0.3004200E-011  0.5052885E+02  0.7816164E-02  0.1300439E+00
        -11   -1    0    0    0    0  0.00000000000E+00  0.00000000000E+00  0.45593999997E+02  0.45594000000E+02  0.51100000000E-03 0.  1.
         11   -1    0    0    0    0 -0.00000000000E+00 -0.00000000000E+00 -0.45593999997E+02  0.45594000000E+02  0.51100000000E-03 0. -1.
    9900012    2    1    2    0    0 -0.40087976551E+01  0.40455654907E+02  0.66018952773E+00  0.50528851917E+02  0.29999975888E+02 0.  0.
         12    1    1    2    0    0  0.40087976551E+01 -0.40455654907E+02 -0.66018952773E+00  0.40659148083E+02  0.00000000000E+00 0. -1.
         11    1    3    3    0    0  0.35779745081E+01  0.80790850060E+01  0.11948887768E+02  0.14861003844E+02  0.51100000000E-03 0. -1.
        -11    1    3    3    0    0 -0.87022953934E+01  0.28418494022E+02 -0.10005711982E+02  0.31360086418E+02  0.51100000000E-03 0.  1.
         12    1    3    3    0    0  0.11155232302E+01  0.39580758790E+01 -0.12829862582E+01  0.43077616554E+01  0.00000000000E+00 0. -1.
</event>
<event>
 7    1  0.3004200E-011  0.5052886E+02  0.7816164E-02  0.1300439E+00
        -11   -1    0    0    0    0  0.00000000000E+00  0.00000000000E+00  0.45593999997E+02  0.45594000000E+02  0.51100000000E-03 0.  1.
         11   -1    0    0    0    0 -0.00000000000E+00 -0.00000000000E+00 -0.45593999997E+02  0.45594000000E+02  0.51100000000E-03 0. -1.
    9900012    2    1    2    0    0 -0.26011428452E+02 -0.29819291387E+02  0.93477705226E+01  0.50528863724E+02  0.30000011776E+02 0.  0.
         12    1    1    2    0    0  0.26011428452E+02  0.29819291387E+02 -0.93477705226E+01  0.40659136276E+02  0.00000000000E+00 0. -1.
         11    1    3    3    0    0 -0.11143489635E+02 -0.18036428760E+01 -0.60766232220E+01  0.12820134123E+02  0.51100000000E-03 0. -1.
        -11    1    3    3    0    0 -0.17071932283E+02 -0.21064900621E+02  0.12383505986E+02  0.29808256084E+02  0.51100000000E-03 0.  1.
         12    1    3    3    0    0  0.22039934663E+01 -0.69507478908E+01  0.30408877582E+01  0.79004735174E+01  0.00000000000E+00 0. -1.
</event>
<event>
 7    1  0.3004200E-011  0.5052886E+02  0.7816164E-02  0.1300439E+00
        -11   -1    0    0    0    0  0.00000000000E+00  0.00000000000E+00  0.45593999997E+02  0.45594000000E+02  0.51100000000E-03 0. -1.
         11   -1    0    0    0    0 -0.00000000000E+00 -0.00000000000E+00 -0.45593999997E+02  0.45594000000E+02  0.51100000000E-03 0.  1.
    9900012    2    1    2    0    0 -0.39068722404E+02 -0.11199848721E+02 -0.11678489866E+01  0.50528861385E+02  0.30000004666E+02 0.  0.
         12    1    1    2    0    0  0.39068722404E+02  0.11199848721E+02  0.11678489866E+01  0.40659138615E+02  0.00000000000E+00 0. -1.
         11    1    3    3    0    0  0.18955994028E+01 -0.14247529360E+01  0.21943229048E+01  0.32308313630E+01  0.51100000000E-03 0. -1.
        -11    1    3    3    0    0 -0.15915538679E+02 -0.13423759786E+02 -0.64509133439E+01  0.21797155353E+02  0.51100000000E-03 0.  1.
        -12    1    3    3    0    0 -0.25048783127E+02  0.36486640006E+01  0.30887414525E+01  0.25500874669E+02  0.00000000000E+00 0.  1.
</event>
<event>
 7    1  0.3004200E-011  0.5052887E+02  0.7816164E-02  0.1300439E+00
        -11   -1    0    0    0    0  0.00000000000E+00  0.00000000000E+00  0.45593999997E+02  0.45594000000E+02  0.51100000000E-03 0.  1.
         11   -1    0    0    0    0 -0.00000000000E+00 -0.00000000000E+00 -0.45593999997E+02  0.45594000000E+02  0.51100000000E-03 0. -1.
    9900012    2    1    2    0    0  0.13151611424E+02 -0.34414038069E+01  0.38319140275E+02  0.50528872432E+02  0.30000038245E+02 0.  0.
         12    1    1    2    0    0 -0.13151611424E+02  0.34414038069E+01 -0.38319140275E+02  0.40659127568E+02  0.00000000000E+00 0. -1.
         11    1    3    3    0    0  0.32729567861E-01  0.23841596087E+01  0.83396187785E+01  0.86737840586E+01  0.51100000000E-03 0. -1.
        -11    1    3    3    0    0  0.20266019353E+02 -0.65504627437E+01  0.26111424452E+02  0.33696091610E+02  0.51100000000E-03 0.  1.
        -12    1    3    3    0    0 -0.71471374978E+01  0.72489932801E+00  0.38680970436E+01  0.81589967635E+01  0.00000000000E+00 0.  1.
</event>
<event>
 7    1  0.3004200E-011  0.5052886E+02  0.7816164E-02  0.1300439E+00
        -11   -1    0    0    0    0  0.00000000000E+00  0.00000000000E+00  0.45593999997E+02  0.45594000000E+02  0.51100000000E-03 0. -1.
         11   -1    0    0    0    0 -0.00000000000E+00 -0.00000000000E+00 -0.45593999997E+02  0.45594000000E+02  0.51100000000E-03 0.  1.
    9900012    2    1    2    0    0  0.17313708569E+02  0.27846351249E+02 -0.24041253120E+02  0.50528860389E+02  0.30000001639E+02 0.  0.
         12    1    1    2    0    0 -0.17313708569E+02 -0.27846351249E+02  0.24041253120E+02  0.40659139611E+02  0.00000000000E+00 0. -1.
         11    1    3    3    0    0  0.13911799073E+02 -0.22819110540E+00 -0.40374658997E+01  0.14487627679E+02  0.51100000000E-03 0. -1.
        -11    1    3    3    0    0  0.54144892830E+01  0.12895369239E+02 -0.13388603051E+02  0.19361351552E+02  0.51100000000E-03 0.  1.
         12    1    3    3    0    0 -0.20125797862E+01  0.15179173115E+02 -0.66151841697E+01  0.16679881158E+02  0.00000000000E+00 0. -1.
</event>
<event>
 7    1  0.3004200E-011  0.5052886E+02  0.7816164E-02  0.1300439E+00
        -11   -1    0    0    0    0  0.00000000000E+00  0.00000000000E+00  0.45593999997E+02  0.45594000000E+02  0.51100000000E-03 0. -1.
         11   -1    0    0    0    0 -0.00000000000E+00 -0.00000000000E+00 -0.45593999997E+02  0.45594000000E+02  0.51100000000E-03 0.  1.
    9900012    2    1    2    0    0 -0.12280256193E+02  0.85323127296E+01 -0.37809527039E+02  0.50528863418E+02  0.30000010846E+02 0.  0.
         12    1    1    2    0    0  0.12280256193E+02 -0.85323127296E+01  0.37809527039E+02  0.40659136582E+02  0.00000000000E+00 0. -1.
         11    1    3    3    0    0 -0.42278672169E+00  0.12107927127E+01  0.46822622941E+01  0.48547243029E+01  0.51100000000E-03 0. -1.
        -11    1    3    3    0    0 -0.15505680002E+01  0.44300034799E+01 -0.58469089057E+01  0.74977020458E+01  0.51100000000E-03 0.  1.
         12    1    3    3    0    0 -0.10306901471E+02  0.28915165370E+01 -0.36644880427E+02  0.38176437070E+02  0.00000000000E+00 0. -1.
</event>
<event>
 7    1  0.3004200E-011  0.5052886E+02  0.7816164E-02  0.1300439E+00
        -11   -1    0    0    0    0  0.00000000000E+00  0.00000000000E+00  0.45593999997E+02  0.45594000000E+02  0.51100000000E-03 0.  1.
         11   -1    0    0    0    0 -0.00000000000E+00 -0.00000000000E+00 -0.45593999997E+02  0.45594000000E+02  0.51100000000E-03 0. -1.
    9900012    2    1    2    0    0 -0.12110215486E+02  0.27798266571E+02  0.27088091248E+02  0.50528860426E+02  0.30000001751E+02 0.  0.
         12    1    1    2    0    0  0.12110215486E+02 -0.27798266571E+02 -0.27088091248E+02  0.40659139574E+02  0.00000000000E+00 0. -1.
         11    1    3    3    0    0  0.20394890640E+01 -0.11842439144E+01  0.26017168995E+01  0.35115353305E+01  0.51100000000E-03 0. -1.
        -11    1    3    3    0    0 -0.78187307876E+01  0.31474386168E+02  0.16067826138E+02  0.36193156436E+02  0.51100000000E-03 0.  1.
        -12    1    3    3    0    0 -0.63309737626E+01 -0.24918756825E+01  0.84185482105E+01  0.10824168660E+02  0.00000000000E+00 0.  1.
</event>
<event>
 7    1  0.3004200E-011  0.5052885E+02  0.7816164E-02  0.1300439E+00
        -11   -1    0    0    0    0  0.00000000000E+00  0.00000000000E+00  0.45593999997E+02  0.45594000000E+02  0.51100000000E-03 0.  1.
         11   -1    0    0    0    0 -0.00000000000E+00 -0.00000000000E+00 -0.45593999997E+02  0.45594000000E+02  0.51100000000E-03 0. -1.
    9900012    2    1    2    0    0 -0.16831139530E+02 -0.14566483815E+02  0.34024946760E+02  0.50528847149E+02  0.29999961393E+02 0.  0.
         12    1    1    2    0    0  0.16831139530E+02  0.14566483815E+02 -0.34024946760E+02  0.40659152851E+02  0.00000000000E+00 0. -1.
         11    1    3    3    0    0 -0.59460942995E+01 -0.63375014642E+01  0.98503539809E+00  0.87458708671E+01  0.51100000000E-03 0. -1.
        -11    1    3    3    0    0 -0.12747921512E+02 -0.13392024358E+02  0.30653194511E+02  0.35797683629E+02  0.51100000000E-03 0.  1.
        -12    1    3    3    0    0  0.18628762814E+01  0.51630420069E+01  0.23867168508E+01  0.59852926521E+01  0.00000000000E+00 0.  1.
</event>
<event>
 7    1  0.3004200E-011  0.5052886E+02  0.7816164E-02  0.1300439E+00
        -11   -1    0    0    0    0  0.00000000000E+00  0.00000000000E+00  0.45593999997E+02  0.45594000000E+02  0.51100000000E-03 0. -1.
         11   -1    0    0    0    0 -0.00000000000E+00 -0.00000000000E+00 -0.45593999997E+02  0.45594000000E+02  0.51100000000E-03 0.  1.
    9900012    2    1    2    0    0  0.15058849112E+00 -0.40576223185E+02  0.25908868746E+01  0.50528864992E+02  0.30000015629E+02 0.  0.
         12    1    1    2    0    0 -0.15058849112E+00  0.40576223185E+02 -0.25908868746E+01  0.40659135008E+02  0.00000000000E+00 0. -1.
         11    1    3    3    0    0  0.13987540513E+01 -0.19971975436E+02  0.13836623406E+02  0.24336977283E+02  0.51100000000E-03 0. -1.
        -11    1    3    3    0    0 -0.29115409229E+01 -0.42764872408E+01 -0.78981033652E+01  0.94416868564E+01  0.51100000000E-03 0.  1.
        -12    1    3    3    0    0  0.16633753628E+01 -0.16327760508E+02 -0.33476331659E+01  0.16750200853E+02  0.00000000000E+00 0.  1.
</event>
<event>
 7    1  0.3004200E-011  0.5052888E+02  0.7816164E-02  0.1300439E+00
        -11   -1    0    0    0    0  0.00000000000E+00  0.00000000000E+00  0.45593999997E+02  0.45594000000E+02  0.51100000000E-03 0.  1.
         11   -1    0    0    0    0 -0.00000000000E+00 -0.00000000000E+00 -0.45593999997E+02  0.45594000000E+02  0.51100000000E-03 0. -1.
    9900012    2    1    2    0    0 -0.40351717913E+02 -0.27318740216E+01  0.41760486349E+01  0.50528884707E+02  0.30000075554E+02 0.  0.
         12    1    1    2    0    0  0.40351717913E+02  0.27318740216E+01 -0.41760486349E+01  0.40659115293E+02  0.00000000000E+00 0. -1.
         11    1    3    3    0    0 -0.28491779568E+01  0.54290253796E+01  0.73658957594E+01  0.95837650327E+01  0.51100000000E-03 0. -1.
        -11    1    3    3    0    0 -0.32552012744E+02 -0.40209298800E+01 -0.68770138950E+01  0.33512605556E+02  0.51100000000E-03 0.  1.
        -12    1    3    3    0    0 -0.49505272130E+01 -0.41399695212E+01  0.36871667705E+01  0.74325141181E+01  0.00000000000E+00 0.  1.
</event>
<event>
 7    1  0.3004200E-011  0.5052886E+02  0.7816164E-02  0.1300439E+00
        -11   -1    0    0    0    0  0.00000000000E+00  0.00000000000E+00  0.45593999997E+02  0.45594000000E+02  0.51100000000E-03 0.  1.
         11   -1    0    0    0    0 -0.00000000000E+00 -0.00000000000E+00 -0.45593999997E+02  0.45594000000E+02  0.51100000000E-03 0. -1.
    9900012    2    1    2    0    0  0.85653688996E+01 -0.20975314172E+02  0.33761465835E+02  0.50528856817E+02  0.29999990782E+02 0.  0.
         12    1    1    2    0    0 -0.85653688996E+01  0.20975314172E+02 -0.33761465835E+02  0.40659143183E+02  0.00000000000E+00 0. -1.
         11    1    3    3    0    0 -0.33149168710E+01 -0.81212477369E+01 -0.13080707653E+01  0.88687309157E+01  0.51100000000E-03 0. -1.
        -11    1    3    3    0    0  0.13114248451E+02 -0.13330716009E+02  0.23581388448E+02  0.30096069230E+02  0.51100000000E-03 0.  1.
         12    1    3    3    0    0 -0.12339626799E+01  0.47664957379E+00  0.11488148153E+02  0.11564056671E+02  0.00000000000E+00 0. -1.
</event>
<event>
 7    1  0.3004200E-011  0.5052887E+02  0.7816164E-02  0.1300439E+00
        -11   -1    0    0    0    0  0.00000000000E+00  0.00000000000E+00  0.45593999997E+02  0.45594000000E+02  0.51100000000E-03 0. -1.
         11   -1    0    0    0    0 -0.00000000000E+00 -0.00000000000E+00 -0.45593999997E+02  0.45594000000E+02  0.51100000000E-03 0.  1.
    9900012    2    1    2    0    0  0.40444576741E+02 -0.10180651135E+01 -0.40453520810E+01  0.50528866735E+02  0.30000020929E+02 0.  0.
         12    1    1    2    0    0 -0.40444576741E+02  0.10180651135E+01  0.40453520810E+01  0.40659133265E+02  0.00000000000E+00 0. -1.
         11    1    3    3    0    0 -0.16339050787E+01 -0.89690156495E+00  0.54482051854E+01  0.57582131106E+01  0.51100000000E-03 0. -1.
        -11    1    3    3    0    0  0.19067750746E+02 -0.47278471439E+01 -0.81385784013E+01  0.21264245009E+02  0.51100000000E-03 0.  1.
         12    1    3    3    0    0  0.23010731074E+02  0.46066835954E+01 -0.13549788651E+01  0.23506408616E+02  0.00000000000E+00 0. -1.
</event>
<event>
 7    1  0.3004200E-011  0.5052889E+02  0.7816164E-02  0.1300439E+00
        -11   -1    0    0    0    0  0.00000000000E+00  0.00000000000E+00  0.45593999997E+02  0.45594000000E+02  0.51100000000E-03 0. -1.
         11   -1    0    0    0    0 -0.00000000000E+00 -0.00000000000E+00 -0.45593999997E+02  0.45594000000E+02  0.51100000000E-03 0.  1.
    9900012    2    1    2    0    0  0.19255404380E+02  0.78605006091E+01 -0.34937159449E+02  0.50528890590E+02  0.30000093437E+02 0.  0.
         12    1    1    2    0    0 -0.19255404380E+02 -0.78605006091E+01  0.34937159449E+02  0.40659109410E+02  0.00000000000E+00 0. -1.
         11    1    3    3    0    0 -0.36951176260E+01  0.10834614490E+01 -0.38466905003E+01  0.54428679065E+01  0.51100000000E-03 0. -1.
        -11    1    3    3    0    0  0.20758760299E+02  0.41147336263E+01 -0.34346842870E+02  0.40343063559E+02  0.51100000000E-03 0.  1.
        -12    1    3    3    0    0  0.21917617075E+01  0.26623055338E+01  0.32563739216E+01  0.47429591243E+01  0.00000000000E+00 0.  1.
</event>
<event>
 7    1  0.3004200E-011  0.5052886E+02  0.7816164E-02  0.1300439E+00
        -11   -1    0    0    0    0  0.00000000000E+00  0.00000000000E+00  0.45593999997E+02  0.45594000000E+02  0.51100000000E-03 0.  1.
         11   -1    0    0    0    0 -0.00000000000E+00 -0.00000000000E+00 -0.45593999997E+02  0.45594000000E+02  0.51100000000E-03 0. -1.
    9900012    2    1    2    0    0 -0.27508911627E+02 -0.14693371850E+02  0.26086976999E+02  0.50528858787E+02  0.29999996768E+02 0.  0.
         12    1    1    2    0    0  0.27508911627E+02  0.14693371850E+02 -0.26086976999E+02  0.40659141213E+02  0.00000000000E+00 0. -1.
         11    1    3    3    0    0 -0.10922417093E+02 -0.13542478494E+02  0.70823067992E+00  0.17412625014E+02  0.51100000000E-03 0. -1.
        -11    1    3    3    0    0 -0.17616079732E+02  0.18004504326E+01  0.18764961149E+02  0.25801001028E+02  0.51100000000E-03 0.  1.
         12    1    3    3    0    0  0.10295851968E+01 -0.29513437883E+01  0.66137851702E+01  0.73152327449E+01  0.00000000000E+00 0. -1.
</event>
<event>
 7    1  0.3004200E-011  0.5052883E+02  0.7816164E-02  0.1300439E+00
        -11   -1    0    0    0    0  0.00000000000E+00  0.00000000000E+00  0.45593999997E+02  0.45594000000E+02  0.51100000000E-03 0.  1.
         11   -1    0    0    0    0 -0.00000000000E+00 -0.00000000000E+00 -0.45593999997E+02  0.45594000000E+02  0.51100000000E-03 0. -1.
    9900012    2    1    2    0    0  0.23549572963E+02 -0.31292035112E+02  0.10926775304E+02  0.50528828012E+02  0.29999903226E+02 0.  0.
         12    1    1    2    0    0 -0.23549572963E+02  0.31292035112E+02 -0.10926775304E+02  0.40659171988E+02  0.00000000000E+00 0. -1.
         11    1    3    3    0    0  0.18685527337E+02 -0.10771188155E+02  0.36899637870E+01  0.21881116497E+02  0.51100000000E-03 0. -1.
        -11    1    3    3    0    0  0.66531814331E+00 -0.22533510514E+02  0.80173559534E+01  0.23926548874E+02  0.51100000000E-03 0.  1.
         12    1    3    3    0    0  0.41987274823E+01  0.20126635566E+01 -0.78054443677E+00  0.47211626408E+01  0.00000000000E+00 0. -1.
</event>
<event>
 7    1  0.3004200E-011  0.5052886E+02  0.7816164E-02  0.1300439E+00
        -11   -1    0    0    0    0  0.00000000000E+00  0.00000000000E+00  0.45593999997E+02  0.45594000000E+02  0.51100000000E-03 0. -1.
         11   -1    0    0    0    0 -0.00000000000E+00 -0.00000000000E+00 -0.45593999997E+02  0.45594000000E+02  0.51100000000E-03 0.  1.
    9900012    2    1    2    0    0  0.13234452674E+02  0.33729087792E+02  0.18448939085E+02  0.50528862599E+02  0.30000008355E+02 0.  0.
         12    1    1    2    0    0 -0.13234452674E+02 -0.33729087792E+02 -0.18448939085E+02  0.40659137401E+02  0.00000000000E+00 0. -1.
         11    1    3    3    0    0 -0.42882060083E+01  0.19541618227E+01  0.40895975709E+01  0.62395727219E+01  0.51100000000E-03 0. -1.
        -11    1    3    3    0    0  0.12675755550E+02  0.33942430452E+02  0.14375690874E+02  0.38979787739E+02  0.51100000000E-03 0.  1.
        -12    1    3    3    0    0  0.48469031319E+01 -0.21675044834E+01 -0.16349359431E-01  0.53095021383E+01  0.00000000000E+00 0.  1.
</event>
<event>
 7    1  0.3004200E-011  0.5052885E+02  0.7816164E-02  0.1300439E+00
        -11   -1    0    0    0    0  0.00000000000E+00  0.00000000000E+00  0.45593999997E+02  0.45594000000E+02  0.51100000000E-03 0.  1.
         11   -1    0    0    0    0 -0.00000000000E+00 -0.00000000000E+00 -0.45593999997E+02  0.45594000000E+02  0.51100000000E-03 0. -1.
    9900012    2    1    2    0    0 -0.44866037766E+01  0.35140560829E+02  0.19954384232E+02  0.50528854917E+02  0.29999985006E+02 0.  0.
         12    1    1    2    0    0  0.44866037766E+01 -0.35140560829E+02 -0.19954384232E+02  0.40659145083E+02  0.00000000000E+00 0. -1.
         11    1    3    3    0    0 -0.27922942959E+01  0.35701028529E+01  0.44149843859E+01  0.63272924070E+01  0.51100000000E-03 0.  1.
        -11    1    3    3    0    0  0.81068159551E+01  0.13908947489E+02  0.17654080180E+02  0.23892380218E+02  0.51100000000E-03 0. -1.
        -12    1    3    3    0    0 -0.98011254359E+01  0.17661510486E+02 -0.21146803346E+01  0.20309182293E+02  0.00000000000E+00 0.  1.
</event>
<event>
 7    1  0.3004200E-011  0.5052886E+02  0.7816164E-02  0.1300439E+00
        -11   -1    0    0    0    0  0.00000000000E+00  0.00000000000E+00  0.45593999997E+02  0.45594000000E+02  0.51100000000E-03 0.  1.
         11   -1    0    0    0    0 -0.00000000000E+00 -0.00000000000E+00 -0.45593999997E+02  0.45594000000E+02  0.51100000000E-03 0. -1.
    9900012    2    1    2    0    0 -0.38948903701E+02 -0.71946446011E+01 -0.91861807252E+01  0.50528856788E+02  0.29999990692E+02 0.  0.
         12    1    1    2    0    0  0.38948903701E+02  0.71946446011E+01  0.91861807252E+01  0.40659143212E+02  0.00000000000E+00 0. -1.
         11    1    3    3    0    0 -0.27017900108E+02 -0.12983180224E+02 -0.51279848197E+01  0.30410954006E+02  0.51100000000E-03 0.  1.
        -11    1    3    3    0    0 -0.44625028439E+01  0.98873625458E+01 -0.41048976536E+01  0.11598450532E+02  0.51100000000E-03 0. -1.
         12    1    3    3    0    0 -0.74685007490E+01 -0.40988269227E+01  0.46701748133E-01  0.85194522496E+01  0.00000000000E+00 0. -1.
</event>
<event>
 7    1  0.3004200E-011  0.5052887E+02  0.7816164E-02  0.1300439E+00
        -11   -1    0    0    0    0  0.00000000000E+00  0.00000000000E+00  0.45593999997E+02  0.45594000000E+02  0.51100000000E-03 0.  1.
         11   -1    0    0    0    0 -0.00000000000E+00 -0.00000000000E+00 -0.45593999997E+02  0.45594000000E+02  0.51100000000E-03 0. -1.
    9900012    2    1    2    0    0 -0.19564466742E+02  0.26790961798E+02  0.23508315076E+02  0.50528869775E+02  0.30000030168E+02 0.  0.
         12    1    1    2    0    0  0.19564466742E+02 -0.26790961798E+02 -0.23508315076E+02  0.40659130225E+02  0.00000000000E+00 0. -1.
         11    1    3    3    0    0 -0.25924294723E+02  0.20333364840E+02  0.15446408085E+02  0.36388271539E+02  0.51100000000E-03 0. -1.
        -11    1    3    3    0    0  0.15013170047E+01  0.39406161173E+01  0.75462837537E+01  0.86445825165E+01  0.51100000000E-03 0.  1.
         12    1    3    3    0    0  0.48585109767E+01  0.25169808406E+01  0.51562323636E+00  0.54960157191E+01  0.00000000000E+00 0. -1.
</event>
<event>
 7    1  0.3004200E-011  0.5052885E+02  0.7816164E-02  0.1300439E+00
        -11   -1    0    0    0    0  0.00000000000E+00  0.00000000000E+00  0.45593999997E+02  0.45594000000E+02  0.51100000000E-03 0. -1.
         11   -1    0    0    0    0 -0.00000000000E+00 -0.00000000000E+00 -0.45593999997E+02  0.45594000000E+02  0.51100000000E-03 0.  1.
    9900012    2    1    2    0    0  0.10097583125E+02  0.31215444343E+02 -0.24016683165E+02  0.50528853173E+02  0.29999979704E+02 0.  0.
         12    1    1    2    0    0 -0.10097583125E+02 -0.31215444343E+02  0.24016683165E+02  0.40659146827E+02  0.00000000000E+00 0. -1.
         11    1    3    3    0    0  0.76399090155E+01  0.48907377454E+01  0.10329744476E+01  0.91298719558E+01  0.51100000000E-03 0. -1.
        -11    1    3    3    0    0 -0.21738248903E+01  0.27468474237E+02 -0.18092677045E+02  0.32963427530E+02  0.51100000000E-03 0.  1.
        -12    1    3    3    0    0  0.46314989995E+01 -0.11437676399E+01 -0.69569805673E+01  0.84355536872E+01  0.00000000000E+00 0.  1.
</event>
<event>
 7    1  0.3004200E-011  0.5052886E+02  0.7816164E-02  0.1300439E+00
        -11   -1    0    0    0    0  0.00000000000E+00  0.00000000000E+00  0.45593999997E+02  0.45594000000E+02  0.51100000000E-03 0.  1.
         11   -1    0    0    0    0 -0.00000000000E+00 -0.00000000000E+00 -0.45593999997E+02  0.45594000000E+02  0.51100000000E-03 0. -1.
    9900012    2    1    2    0    0  0.61874228735E+01  0.40150828990E+02 -0.16711588521E+01  0.50528855366E+02  0.29999986371E+02 0.  0.
         12    1    1    2    0    0 -0.61874228735E+01 -0.40150828990E+02  0.16711588521E+01  0.40659144634E+02  0.00000000000E+00 0. -1.
         11    1    3    3    0    0 -0.30829910847E+01 -0.18291993095E+01 -0.43013080586E+01  0.55992906174E+01  0.51100000000E-03 0. -1.
        -11    1    3    3    0    0  0.44744570681E+01  0.38868660881E+02  0.19722822007E+01  0.39175036210E+02  0.51100000000E-03 0.  1.
        -12    1    3    3    0    0  0.47959568901E+01  0.31113674194E+01  0.65786700581E+00  0.57545285391E+01  0.00000000000E+00 0.  1.
</event>
<event>
 7    1  0.3004200E-011  0.5052887E+02  0.7816164E-02  0.1300439E+00
        -11   -1    0    0    0    0  0.00000000000E+00  0.00000000000E+00  0.45593999997E+02  0.45594000000E+02  0.51100000000E-03 0. -1.
         11   -1    0    0    0    0 -0.00000000000E+00 -0.00000000000E+00 -0.45593999997E+02  0.45594000000E+02  0.51100000000E-03 0.  1.
    9900012    2    1    2    0    0  0.21972756625E+02  0.79971348348E+01 -0.33262725654E+02  0.50528866743E+02  0.30000020953E+02 0.  0.
         12    1    1    2    0    0 -0.21972756625E+02 -0.79971348348E+01  0.33262725654E+02  0.40659133257E+02  0.00000000000E+00 0. -1.
         11    1    3    3    0    0  0.18205122212E+02 -0.47227607144E+01 -0.17932922928E+02  0.25986932649E+02  0.51100000000E-03 0. -1.
        -11    1    3    3    0    0  0.75254391031E+00  0.14785323143E+02 -0.92758396722E+01  0.17470355024E+02  0.51100000000E-03 0.  1.
        -12    1    3    3    0    0  0.30150905034E+01 -0.20654275939E+01 -0.60539630539E+01  0.70715790703E+01  0.00000000000E+00 0.  1.
</event>
<event>
 7    1  0.3004200E-011  0.5052885E+02  0.7816164E-02  0.1300439E+00
        -11   -1    0    0    0    0  0.00000000000E+00  0.00000000000E+00  0.45593999997E+02  0.45594000000E+02  0.51100000000E-03 0.  1.
         11   -1    0    0    0    0 -0.00000000000E+00 -0.00000000000E+00 -0.45593999997E+02  0.45594000000E+02  0.51100000000E-03 0. -1.
    9900012    2    1    2    0    0 -0.30507784124E+01  0.39897243207E+02  0.72158765195E+01  0.50528854185E+02  0.29999982781E+02 0.  0.
         12    1    1    2    0    0  0.30507784124E+01 -0.39897243207E+02 -0.72158765195E+01  0.40659145815E+02  0.00000000000E+00 0. -1.
         11    1    3    3    0    0  0.38420310753E+01  0.34494261547E+02  0.60554111246E+01  0.35231850456E+02  0.51100000000E-03 0. -1.
        -11    1    3    3    0    0 -0.10326335303E+02  0.42756457275E+01 -0.76415049474E+00  0.11202601190E+02  0.51100000000E-03 0.  1.
        -12    1    3    3    0    0  0.34335258152E+01  0.11273359330E+01  0.19246158896E+01  0.40944025391E+01  0.00000000000E+00 0.  1.
</event>
<event>
 7    1  0.3004200E-011  0.5052886E+02  0.7816164E-02  0.1300439E+00
        -11   -1    0    0    0    0  0.00000000000E+00  0.00000000000E+00  0.45593999997E+02  0.45594000000E+02  0.51100000000E-03 0.  1.
         11   -1    0    0    0    0 -0.00000000000E+00 -0.00000000000E+00 -0.45593999997E+02  0.45594000000E+02  0.51100000000E-03 0. -1.
    9900012    2    1    2    0    0  0.14138555129E+01 -0.52636257559E+01  0.40292189732E+02  0.50528864533E+02  0.30000014234E+02 0.  0.
         12    1    1    2    0    0 -0.14138555129E+01  0.52636257559E+01 -0.40292189732E+02  0.40659135467E+02  0.00000000000E+00 0. -1.
         11    1    3    3    0    0  0.11761985189E+02 -0.21000401765E+01  0.97106060982E+01  0.15396439049E+02  0.51100000000E-03 0. -1.
        -11    1    3    3    0    0 -0.72638798265E+01 -0.80291791091E+01  0.24334875501E+02  0.26634898783E+02  0.51100000000E-03 0.  1.
        -12    1    3    3    0    0 -0.30842498494E+01  0.48655935297E+01  0.62467081336E+01  0.84975267011E+01  0.00000000000E+00 0.  1.
</event>
<event>
 7    1  0.3004200E-011  0.5052886E+02  0.7816164E-02  0.1300439E+00
        -11   -1    0    0    0    0  0.00000000000E+00  0.00000000000E+00  0.45593999997E+02  0.45594000000E+02  0.51100000000E-03 0. -1.
         11   -1    0    0    0    0 -0.00000000000E+00 -0.00000000000E+00 -0.45593999997E+02  0.45594000000E+02  0.51100000000E-03 0.  1.
    9900012    2    1    2    0    0 -0.45682943502E+01  0.16371950931E+02 -0.36935829479E+02  0.50528860931E+02  0.30000003285E+02 0.  0.
         12    1    1    2    0    0  0.45682943502E+01 -0.16371950931E+02  0.36935829479E+02  0.40659139069E+02  0.00000000000E+00 0. -1.
         11    1    3    3    0    0 -0.57867360003E+00 -0.45568879061E+00  0.20889355246E+01  0.22149869743E+01  0.51100000000E-03 0. -1.
        -11    1    3    3    0    0 -0.84804706121E+01  0.16839073657E+02 -0.39528651480E+02  0.43794829279E+02  0.51100000000E-03 0.  1.
        -12    1    3    3    0    0  0.44908498619E+01 -0.11433936174E-01  0.50388647641E+00  0.45190446776E+01  0.00000000000E+00 0.  1.
</event>
<event>
 7    1  0.3004200E-011  0.5052884E+02  0.7816164E-02  0.1300439E+00
        -11   -1    0    0    0    0  0.00000000000E+00  0.00000000000E+00  0.45593999997E+02  0.45594000000E+02  0.51100000000E-03 0.  1.
         11   -1    0    0    0    0 -0.00000000000E+00 -0.00000000000E+00 -0.45593999997E+02  0.45594000000E+02  0.51100000000E-03 0. -1.
    9900012    2    1    2    0    0  0.35731042241E+02 -0.16306616317E+02  0.10514487371E+02  0.50528836703E+02  0.29999929642E+02 0.  0.
         12    1    1    2    0    0 -0.35731042241E+02  0.16306616317E+02 -0.10514487371E+02  0.40659163297E+02  0.00000000000E+00 0. -1.
         11    1    3    3    0    0  0.12297507375E+02 -0.13145623380E+02 -0.53448067856E+01  0.18777727805E+02  0.51100000000E-03 0. -1.
        -11    1    3    3    0    0  0.83292057510E+01  0.55715439088E+01  0.49804640126E+01  0.11190299014E+02  0.51100000000E-03 0.  1.
         12    1    3    3    0    0  0.15104329115E+02 -0.87325368460E+01  0.10878830145E+02  0.20560809884E+02  0.00000000000E+00 0. -1.
</event>
<event>
 7    1  0.3004200E-011  0.5052884E+02  0.7816164E-02  0.1300439E+00
        -11   -1    0    0    0    0  0.00000000000E+00  0.00000000000E+00  0.45593999997E+02  0.45594000000E+02  0.51100000000E-03 0.  1.
         11   -1    0    0    0    0 -0.00000000000E+00 -0.00000000000E+00 -0.45593999997E+02  0.45594000000E+02  0.51100000000E-03 0. -1.
    9900012    2    1    2    0    0  0.10749434408E+02 -0.31529192318E+02  0.23313664089E+02  0.50528840619E+02  0.29999941545E+02 0.  0.
         12    1    1    2    0    0 -0.10749434408E+02  0.31529192318E+02 -0.23313664089E+02  0.40659159381E+02  0.00000000000E+00 0. -1.
         11    1    3    3    0    0  0.14140388309E+02 -0.52703261447E+01  0.33058517946E+00  0.15094244135E+02  0.51100000000E-03 0. -1.
        -11    1    3    3    0    0 -0.31266068788E+01 -0.68508969318E+01  0.71823967979E+01  0.10406598069E+02  0.51100000000E-03 0.  1.
         12    1    3    3    0    0 -0.26434702196E+00 -0.19407969241E+02  0.15800682112E+02  0.25027998414E+02  0.00000000000E+00 0. -1.
</event>
<event>
 7    1  0.3004200E-011  0.5052889E+02  0.7816164E-02  0.1300439E+00
        -11   -1    0    0    0    0  0.00000000000E+00  0.00000000000E+00  0.45593999997E+02  0.45594000000E+02  0.51100000000E-03 0.  1.
         11   -1    0    0    0    0 -0.00000000000E+00 -0.00000000000E+00 -0.45593999997E+02  0.45594000000E+02  0.51100000000E-03 0. -1.
    9900012    2    1    2    0    0  0.30477620179E+02  0.17527200972E+02  0.20422414679E+02  0.50528891217E+02  0.30000095343E+02 0.  0.
         12    1    1    2    0    0 -0.30477620179E+02 -0.17527200972E+02 -0.20422414679E+02  0.40659108783E+02  0.00000000000E+00 0. -1.
         11    1    3    3    0    0  0.70360792383E+01  0.11683860064E+02 -0.51404812722E+01  0.14575443218E+02  0.51100000000E-03 0. -1.
        -11    1    3    3    0    0  0.13865661249E+02 -0.32824757531E+00  0.14749070215E+02  0.20245971965E+02  0.51100000000E-03 0.  1.
        -12    1    3    3    0    0  0.95758796915E+01  0.61715884836E+01  0.10813825737E+02  0.15707476033E+02  0.00000000000E+00 0.  1.
</event>
<event>
 7    1  0.3004200E-011  0.5052886E+02  0.7816164E-02  0.1300439E+00
        -11   -1    0    0    0    0  0.00000000000E+00  0.00000000000E+00  0.45593999997E+02  0.45594000000E+02  0.51100000000E-03 0.  1.
         11   -1    0    0    0    0 -0.00000000000E+00 -0.00000000000E+00 -0.45593999997E+02  0.45594000000E+02  0.51100000000E-03 0. -1.
    9900012    2    1    2    0    0  0.36645688490E+02 -0.79730132737E+01  0.15706373305E+02  0.50528860954E+02  0.30000003355E+02 0.  0.
         12    1    1    2    0    0 -0.36645688490E+02  0.79730132737E+01 -0.15706373305E+02  0.40659139046E+02  0.00000000000E+00 0. -1.
         11    1    3    3    0    0  0.70057427602E+01  0.31584183751E+01 -0.42631056478E+01  0.87880662423E+01  0.51100000000E-03 0. -1.
        -11    1    3    3    0    0  0.30345716236E+02 -0.12697729278E+02  0.21615574553E+02  0.39361502591E+02  0.51100000000E-03 0.  1.
        -12    1    3    3    0    0 -0.70577050603E+00  0.15662976293E+01 -0.16460956001E+01  0.23792921206E+01  0.00000000000E+00 0.  1.
</event>
<event>
 7    1  0.3004200E-011  0.5052886E+02  0.7816164E-02  0.1300439E+00
        -11   -1    0    0    0    0  0.00000000000E+00  0.00000000000E+00  0.45593999997E+02  0.45594000000E+02  0.51100000000E-03 0.  1.
         11   -1    0    0    0    0 -0.00000000000E+00 -0.00000000000E+00 -0.45593999997E+02  0.45594000000E+02  0.51100000000E-03 0. -1.
    9900012    2    1    2    0    0 -0.11760924182E+02  0.30493036924E+02  0.24187209007E+02  0.50528859355E+02  0.29999998495E+02 0.  0.
         12    1    1    2    0    0  0.11760924182E+02 -0.30493036924E+02 -0.24187209007E+02  0.40659140645E+02  0.00000000000E+00 0. -1.
         11    1    3    3    0    0  0.36578079007E+01  0.15047940668E+01  0.21574755668E+01  0.45054039669E+01  0.51100000000E-03 0. -1.
        -11    1    3    3    0    0 -0.11273362962E+02  0.34550855973E+01 -0.38262530279E+00  0.11797149288E+02  0.51100000000E-03 0.  1.
        -12    1    3    3    0    0 -0.41453691215E+01  0.25533157260E+02  0.22412358743E+02  0.34226306100E+02  0.00000000000E+00 0.  1.
</event>
<event>
 7    1  0.3004200E-011  0.5052886E+02  0.7816164E-02  0.1300439E+00
        -11   -1    0    0    0    0  0.00000000000E+00  0.00000000000E+00  0.45593999997E+02  0.45594000000E+02  0.51100000000E-03 0.  1.
         11   -1    0    0    0    0 -0.00000000000E+00 -0.00000000000E+00 -0.45593999997E+02  0.45594000000E+02  0.51100000000E-03 0. -1.
    9900012    2    1    2    0    0 -0.31687106330E+02  0.20224244305E+02  0.15494291391E+02  0.50528857965E+02  0.29999994272E+02 0.  0.
         12    1    1    2    0    0  0.31687106330E+02 -0.20224244305E+02 -0.15494291391E+02  0.40659142035E+02  0.00000000000E+00 0. -1.
         11    1    3    3    0    0 -0.32189670603E+00  0.75856096579E+01  0.39787369306E+00  0.76028544053E+01  0.51100000000E-03 0. -1.
        -11    1    3    3    0    0 -0.29674520321E+02  0.13802131260E+02  0.19479803636E+02  0.38085938791E+02  0.51100000000E-03 0.  1.
        -12    1    3    3    0    0 -0.16906893028E+01 -0.11634966132E+01 -0.43833859383E+01  0.48400647693E+01  0.00000000000E+00 0.  1.
</event>
<event>
 7    1  0.3004200E-011  0.5052885E+02  0.7816164E-02  0.1300439E+00
        -11   -1    0    0    0    0  0.00000000000E+00  0.00000000000E+00  0.45593999997E+02  0.45594000000E+02  0.51100000000E-03 0.  1.
         11   -1    0    0    0    0 -0.00000000000E+00 -0.00000000000E+00 -0.45593999997E+02  0.45594000000E+02  0.51100000000E-03 0. -1.
    9900012    2    1    2    0    0  0.38424582492E+02 -0.12869777637E+02  0.33296792626E+01  0.50528849983E+02  0.29999970009E+02 0.  0.
         12    1    1    2    0    0 -0.38424582492E+02  0.12869777637E+02 -0.33296792626E+01  0.40659150017E+02  0.00000000000E+00 0. -1.
         11    1    3    3    0    0  0.27074348872E+02  0.40775135340E+01  0.41885298548E+01  0.27698199690E+02  0.51100000000E-03 0. -1.
        -11    1    3    3    0    0  0.11645156375E+02 -0.16741714244E+02  0.14962104444E+01  0.20448308213E+02  0.51100000000E-03 0.  1.
         12    1    3    3    0    0 -0.29492275466E+00 -0.20557692697E+00 -0.23550610366E+01  0.23823420809E+01  0.00000000000E+00 0. -1.
</event>
<event>
 7    1  0.3004200E-011  0.5052880E+02  0.7816164E-02  0.1300439E+00
        -11   -1    0    0    0    0  0.00000000000E+00  0.00000000000E+00  0.45593999997E+02  0.45594000000E+02  0.51100000000E-03 0.  1.
         11   -1    0    0    0    0 -0.00000000000E+00 -0.00000000000E+00 -0.45593999997E+02  0.45594000000E+02  0.51100000000E-03 0. -1.
    9900012    2    1    2    0    0 -0.29680509014E+02  0.26866723594E+02  0.71005196361E+01  0.50528796477E+02  0.29999807371E+02 0.  0.
         12    1    1    2    0    0  0.29680509014E+02 -0.26866723594E+02 -0.71005196361E+01  0.40659203523E+02  0.00000000000E+00 0. -1.
         11    1    3    3    0    0 -0.28833233083E+02  0.11497557105E+02  0.86168811672E+01  0.32214900135E+02  0.51100000000E-03 0. -1.
        -11    1    3    3    0    0 -0.44820942597E+01  0.99272861744E+01 -0.35580979160E+01  0.11458631715E+02  0.51100000000E-03 0.  1.
         12    1    3    3    0    0  0.36348183285E+01  0.54418803150E+01  0.20417363849E+01  0.68552646272E+01  0.00000000000E+00 0. -1.
</event>
<event>
 7    1  0.3004200E-011  0.5052886E+02  0.7816164E-02  0.1300439E+00
        -11   -1    0    0    0    0  0.00000000000E+00  0.00000000000E+00  0.45593999997E+02  0.45594000000E+02  0.51100000000E-03 0.  1.
         11   -1    0    0    0    0 -0.00000000000E+00 -0.00000000000E+00 -0.45593999997E+02  0.45594000000E+02  0.51100000000E-03 0. -1.
    9900012    2    1    2    0    0  0.85265966823E+01 -0.23869695312E+02  0.31791510390E+02  0.50528864026E+02  0.30000012694E+02 0.  0.
         12    1    1    2    0    0 -0.85265966823E+01  0.23869695312E+02 -0.31791510390E+02  0.40659135974E+02  0.00000000000E+00 0. -1.
         11    1    3    3    0    0  0.14824803362E+02 -0.23283554432E+02  0.32602527181E+02  0.42717952673E+02  0.51100000000E-03 0.  1.
        -11    1    3    3    0    0 -0.49838516859E+01 -0.16690467588E+01  0.97227750136E+00  0.53450742287E+01  0.51100000000E-03 0. -1.
        -12    1    3    3    0    0 -0.13143549935E+01  0.10829058790E+01 -0.17832942923E+01  0.24658371245E+01  0.00000000000E+00 0.  1.
</event>
<event>
 7    1  0.3004200E-011  0.5052886E+02  0.7816164E-02  0.1300439E+00
        -11   -1    0    0    0    0  0.00000000000E+00  0.00000000000E+00  0.45593999997E+02  0.45594000000E+02  0.51100000000E-03 0. -1.
         11   -1    0    0    0    0 -0.00000000000E+00 -0.00000000000E+00 -0.45593999997E+02  0.45594000000E+02  0.51100000000E-03 0.  1.
    9900012    2    1    2    0    0 -0.28283974355E+02 -0.11320037804E+02 -0.26926556170E+02  0.50528857260E+02  0.29999992128E+02 0.  0.
         12    1    1    2    0    0  0.28283974355E+02  0.11320037804E+02  0.26926556170E+02  0.40659142740E+02  0.00000000000E+00 0. -1.
         11    1    3    3    0    0 -0.93059079248E+01 -0.21369513764E+01  0.59974555637E+01  0.11275458172E+02  0.51100000000E-03 0. -1.
        -11    1    3    3    0    0 -0.77722787210E+01 -0.52146973897E+01 -0.16643651925E+02  0.19094830061E+02  0.51100000000E-03 0.  1.
         12    1    3    3    0    0 -0.11205787709E+02 -0.39683890381E+01 -0.16280359808E+02  0.20158569027E+02  0.00000000000E+00 0. -1.
</event>
<event>
 7    1  0.3004200E-011  0.5052886E+02  0.7816164E-02  0.1300439E+00
        -11   -1    0    0    0    0  0.00000000000E+00  0.00000000000E+00  0.45593999997E+02  0.45594000000E+02  0.51100000000E-03 0.  1.
         11   -1    0    0    0    0 -0.00000000000E+00 -0.00000000000E+00 -0.45593999997E+02  0.45594000000E+02  0.51100000000E-03 0. -1.
    9900012    2    1    2    0    0  0.17687672110E+02  0.48860910194E+01  0.36282746993E+02  0.50528863763E+02  0.30000011895E+02 0.  0.
         12    1    1    2    0    0 -0.17687672110E+02 -0.48860910194E+01 -0.36282746993E+02  0.40659136237E+02  0.00000000000E+00 0. -1.
         11    1    3    3    0    0 -0.99181958609E+00 -0.62435075593E+01  0.27594060035E+01  0.68977833025E+01  0.51100000000E-03 0. -1.
        -11    1    3    3    0    0  0.16118396985E+02  0.12480938263E+02  0.16121587833E+02  0.25990039166E+02  0.51100000000E-03 0.  1.
        -12    1    3    3    0    0  0.25610947110E+01 -0.13513396842E+01  0.17401753157E+02  0.17641041295E+02  0.00000000000E+00 0.  1.
</event>
<event>
 7    1  0.3004200E-011  0.5052892E+02  0.7816164E-02  0.1300439E+00
        -11   -1    0    0    0    0  0.00000000000E+00  0.00000000000E+00  0.45593999997E+02  0.45594000000E+02  0.51100000000E-03 0.  1.
         11   -1    0    0    0    0 -0.00000000000E+00 -0.00000000000E+00 -0.45593999997E+02  0.45594000000E+02  0.51100000000E-03 0. -1.
    9900012    2    1    2    0    0 -0.15059425764E+01 -0.64888342734E+01  0.40109698102E+02  0.50528920877E+02  0.30000185497E+02 0.  0.
         12    1    1    2    0    0  0.15059425764E+01  0.64888342734E+01 -0.40109698102E+02  0.40659079123E+02  0.00000000000E+00 0. -1.
         11    1    3    3    0    0 -0.75895128319E+01  0.74735573176E+01  0.69186719793E+01  0.12701290731E+02  0.51100000000E-03 0.  1.
        -11    1    3    3    0    0  0.21259945074E+01 -0.11129511410E+02  0.29839302777E+02  0.31918174561E+02  0.51100000000E-03 0. -1.
        -12    1    3    3    0    0  0.39575757481E+01 -0.28328801809E+01  0.33517233462E+01  0.59094555849E+01  0.00000000000E+00 0.  1.
</event>
<event>
 7    1  0.3004200E-011  0.5052886E+02  0.7816164E-02  0.1300439E+00
        -11   -1    0    0    0    0  0.00000000000E+00  0.00000000000E+00  0.45593999997E+02  0.45594000000E+02  0.51100000000E-03 0.  1.
         11   -1    0    0    0    0 -0.00000000000E+00 -0.00000000000E+00 -0.45593999997E+02  0.45594000000E+02  0.51100000000E-03 0. -1.
    9900012    2    1    2    0    0  0.23562434314E+02 -0.49571120406E+00  0.33132035941E+02  0.50528857781E+02  0.29999993710E+02 0.  0.
         12    1    1    2    0    0 -0.23562434314E+02  0.49571120406E+00 -0.33132035941E+02  0.40659142219E+02  0.00000000000E+00 0. -1.
         11    1    3    3    0    0  0.15040380865E+02  0.73498763705E+01  0.18516695776E+01  0.16842280716E+02  0.51100000000E-03 0. -1.
        -11    1    3    3    0    0  0.89007471425E+01 -0.66793270540E+01  0.29460213812E+02  0.31491918133E+02  0.51100000000E-03 0.  1.
         12    1    3    3    0    0 -0.37869369321E+00 -0.11662605206E+01  0.18201525521E+01  0.21946589320E+01  0.00000000000E+00 0. -1.
</event>
<event>
 7    1  0.3004200E-011  0.5052886E+02  0.7816164E-02  0.1300439E+00
        -11   -1    0    0    0    0  0.00000000000E+00  0.00000000000E+00  0.45593999997E+02  0.45594000000E+02  0.51100000000E-03 0.  1.
         11   -1    0    0    0    0 -0.00000000000E+00 -0.00000000000E+00 -0.45593999997E+02  0.45594000000E+02  0.51100000000E-03 0. -1.
    9900012    2    1    2    0    0 -0.22843182752E+02  0.16814783534E+01  0.33593565785E+02  0.50528855520E+02  0.29999986838E+02 0.  0.
         12    1    1    2    0    0  0.22843182752E+02 -0.16814783534E+01 -0.33593565785E+02  0.40659144480E+02  0.00000000000E+00 0. -1.
         11    1    3    3    0    0 -0.86623300796E+01 -0.34743498277E+01 -0.34272412589E+01  0.99424872160E+01  0.51100000000E-03 0. -1.
        -11    1    3    3    0    0 -0.10151594820E+02  0.50578182680E+00  0.26719079632E+02  0.28587058423E+02  0.51100000000E-03 0.  1.
         12    1    3    3    0    0 -0.40292578526E+01  0.46500463543E+01  0.10301727412E+02  0.11999309880E+02  0.00000000000E+00 0. -1.
</event>
<event>
 7    1  0.3004200E-011  0.5052887E+02  0.7816164E-02  0.1300439E+00
        -11   -1    0    0    0    0  0.00000000000E+00  0.00000000000E+00  0.45593999997E+02  0.45594000000E+02  0.51100000000E-03 0.  1.
         11   -1    0    0    0    0 -0.00000000000E+00 -0.00000000000E+00 -0.45593999997E+02  0.45594000000E+02  0.51100000000E-03 0. -1.
    9900012    2    1    2    0    0  0.34786343326E+02 -0.49400065541E+01  0.20461463965E+02  0.50528869976E+02  0.30000030778E+02 0.  0.
         12    1    1    2    0    0 -0.34786343326E+02  0.49400065541E+01 -0.20461463965E+02  0.40659130024E+02  0.00000000000E+00 0. -1.
         11    1    3    3    0    0 -0.11920676513E+01 -0.52440284741E+01  0.13669834686E+01  0.55488290645E+01  0.51100000000E-03 0. -1.
        -11    1    3    3    0    0  0.33611145071E+02  0.60481282517E+01  0.18216024657E+02  0.38705458050E+02  0.51100000000E-03 0.  1.
        -12    1    3    3    0    0  0.23672659063E+01 -0.57441063318E+01  0.87845584012E+00  0.62745828614E+01  0.00000000000E+00 0.  1.
</event>
<event>
 7    1  0.3004200E-011  0.5052885E+02  0.7816164E-02  0.1300439E+00
        -11   -1    0    0    0    0  0.00000000000E+00  0.00000000000E+00  0.45593999997E+02  0.45594000000E+02  0.51100000000E-03 0.  1.
         11   -1    0    0    0    0 -0.00000000000E+00 -0.00000000000E+00 -0.45593999997E+02  0.45594000000E+02  0.51100000000E-03 0. -1.
    9900012    2    1    2    0    0  0.27194466181E+02 -0.17064871189E+02  0.24948303087E+02  0.50528847937E+02  0.29999963789E+02 0.  0.
         12    1    1    2    0    0 -0.27194466181E+02  0.17064871189E+02 -0.24948303087E+02  0.40659152063E+02  0.00000000000E+00 0. -1.
         11    1    3    3    0    0  0.92982996258E+01 -0.16060617994E+02  0.10548893447E+02  0.21346685446E+02  0.51100000000E-03 0. -1.
        -11    1    3    3    0    0  0.18868416749E+02  0.24698169637E+01  0.16343254398E+02  0.25084240292E+02  0.51100000000E-03 0.  1.
         12    1    3    3    0    0 -0.97225019391E+00 -0.34740701586E+01 -0.19438447583E+01  0.40979221992E+01  0.00000000000E+00 0. -1.
</event>
<event>
 7    1  0.3004200E-011  0.5052884E+02  0.7816164E-02  0.1300439E+00
        -11   -1    0    0    0    0  0.00000000000E+00  0.00000000000E+00  0.45593999997E+02  0.45594000000E+02  0.51100000000E-03 0.  1.
         11   -1    0    0    0    0 -0.00000000000E+00 -0.00000000000E+00 -0.45593999997E+02  0.45594000000E+02  0.51100000000E-03 0. -1.
    9900012    2    1    2    0    0 -0.65396241366E+01 -0.97492545600E+01  0.38927527525E+02  0.50528843005E+02  0.29999948798E+02 0.  0.
         12    1    1    2    0    0  0.65396241366E+01  0.97492545600E+01 -0.38927527525E+02  0.40659156995E+02  0.00000000000E+00 0. -1.
         11    1    3    3    0    0 -0.34018347356E+01  0.24352377348E+01  0.23694844827E+02  0.24061349381E+02  0.51100000000E-03 0. -1.
        -11    1    3    3    0    0  0.62470822077E+00 -0.14006461887E+02  0.16907197846E+02  0.21964165684E+02  0.51100000000E-03 0.  1.
         12    1    3    3    0    0 -0.37624976218E+01  0.18219695922E+01 -0.16745151479E+01  0.45033279394E+01  0.00000000000E+00 0. -1.
</event>
<event>
 7    1  0.3004200E-011  0.5052887E+02  0.7816164E-02  0.1300439E+00
        -11   -1    0    0    0    0  0.00000000000E+00  0.00000000000E+00  0.45593999997E+02  0.45594000000E+02  0.51100000000E-03 0. -1.
         11   -1    0    0    0    0 -0.00000000000E+00 -0.00000000000E+00 -0.45593999997E+02  0.45594000000E+02  0.51100000000E-03 0.  1.
    9900012    2    1    2    0    0 -0.25750510190E+02 -0.26316753262E+01 -0.31355234198E+02  0.50528865704E+02  0.30000017794E+02 0.  0.
         12    1    1    2    0    0  0.25750510190E+02  0.26316753262E+01  0.31355234198E+02  0.40659134296E+02  0.00000000000E+00 0. -1.
         11    1    3    3    0    0 -0.26242409739E+02  0.52904301923E+01 -0.13448622405E+02  0.29958607534E+02  0.51100000000E-03 0.  1.
        -11    1    3    3    0    0  0.32482866722E+01 -0.53153968100E+01 -0.96823034601E+01  0.11513114701E+02  0.51100000000E-03 0. -1.
        -12    1    3    3    0    0 -0.27563871234E+01 -0.26067087085E+01 -0.82243083336E+01  0.90571434697E+01  0.00000000000E+00 0.  1.
</event>
<event>
 7    1  0.3004200E-011  0.5052886E+02  0.7816164E-02  0.1300439E+00
        -11   -1    0    0    0    0  0.00000000000E+00  0.00000000000E+00  0.45593999997E+02  0.45594000000E+02  0.51100000000E-03 0.  1.
         11   -1    0    0    0    0 -0.00000000000E+00 -0.00000000000E+00 -0.45593999997E+02  0.45594000000E+02  0.51100000000E-03 0. -1.
    9900012    2    1    2    0    0  0.92177783836E+00 -0.86707386070E+01  0.39713154462E+02  0.50528855644E+02  0.29999987216E+02 0.  0.
         12    1    1    2    0    0 -0.92177783836E+00  0.86707386070E+01 -0.39713154462E+02  0.40659144356E+02  0.00000000000E+00 0. -1.
         11    1    3    3    0    0 -0.27683447286E+01 -0.78330459897E+01  0.32150014673E+01  0.89082308406E+01  0.51100000000E-03 0. -1.
        -11    1    3    3    0    0 -0.78460048421E+00 -0.52584961368E+00  0.37084820309E+02  0.37096846407E+02  0.51100000000E-03 0.  1.
        -12    1    3    3    0    0  0.44747230512E+01 -0.31184300364E+00 -0.58666731396E+00  0.45237783966E+01  0.00000000000E+00 0.  1.
</event>
<event>
 7    1  0.3004200E-011  0.5052886E+02  0.7816164E-02  0.1300439E+00
        -11   -1    0    0    0    0  0.00000000000E+00  0.00000000000E+00  0.45593999997E+02  0.45594000000E+02  0.51100000000E-03 0.  1.
         11   -1    0    0    0    0 -0.00000000000E+00 -0.00000000000E+00 -0.45593999997E+02  0.45594000000E+02  0.51100000000E-03 0. -1.
    9900012    2    1    2    0    0 -0.54919283201E+01  0.25908952073E+02  0.30850132195E+02  0.50528859199E+02  0.29999998023E+02 0.  0.
         12    1    1    2    0    0  0.54919283201E+01 -0.25908952073E+02 -0.30850132195E+02  0.40659140801E+02  0.00000000000E+00 0. -1.
         11    1    3    3    0    0 -0.53351674809E+01 -0.36409515453E+01  0.10851556646E+02  0.12628413286E+02  0.51100000000E-03 0. -1.
        -11    1    3    3    0    0 -0.62803939843E+01  0.18082058445E+02  0.12966976084E+02  0.23120265033E+02  0.51100000000E-03 0.  1.
         12    1    3    3    0    0  0.61236331450E+01  0.11467845174E+02  0.70315994646E+01  0.14780180880E+02  0.00000000000E+00 0. -1.
</event>
<event>
 7    1  0.3004200E-011  0.5052888E+02  0.7816164E-02  0.1300439E+00
        -11   -1    0    0    0    0  0.00000000000E+00  0.00000000000E+00  0.45593999997E+02  0.45594000000E+02  0.51100000000E-03 0.  1.
         11   -1    0    0    0    0 -0.00000000000E+00 -0.00000000000E+00 -0.45593999997E+02  0.45594000000E+02  0.51100000000E-03 0. -1.
    9900012    2    1    2    0    0 -0.65400946257E+01 -0.60564979223E+01  0.39670012980E+02  0.50528881286E+02  0.30000065157E+02 0.  0.
         12    1    1    2    0    0  0.65400946257E+01  0.60564979223E+01 -0.39670012980E+02  0.40659118714E+02  0.00000000000E+00 0. -1.
         11    1    3    3    0    0  0.98271525377E+01 -0.59626050368E+01  0.16263338394E+02  0.19915364968E+02  0.51100000000E-03 0. -1.
        -11    1    3    3    0    0 -0.15775369415E+02  0.26860487694E+01  0.15778586732E+02  0.22473115888E+02  0.51100000000E-03 0.  1.
         12    1    3    3    0    0 -0.59187774863E+00 -0.27799416548E+01  0.76280878529E+01  0.81404004302E+01  0.00000000000E+00 0. -1.
</event>
<event>
 7    1  0.3004200E-011  0.5052888E+02  0.7816164E-02  0.1300439E+00
        -11   -1    0    0    0    0  0.00000000000E+00  0.00000000000E+00  0.45593999997E+02  0.45594000000E+02  0.51100000000E-03 0.  1.
         11   -1    0    0    0    0 -0.00000000000E+00 -0.00000000000E+00 -0.45593999997E+02  0.45594000000E+02  0.51100000000E-03 0. -1.
    9900012    2    1    2    0    0 -0.34949030763E+02  0.15127111345E+02  0.14244282224E+02  0.50528882634E+02  0.30000069254E+02 0.  0.
         12    1    1    2    0    0  0.34949030763E+02 -0.15127111345E+02 -0.14244282224E+02  0.40659117366E+02  0.00000000000E+00 0. -1.
         11    1    3    3    0    0 -0.10416686392E+02  0.88997481409E+01 -0.12256722685E+01  0.13755549612E+02  0.51100000000E-03 0. -1.
        -11    1    3    3    0    0 -0.18025246462E+02  0.65557855984E+01  0.20845186891E+02  0.28326836245E+02  0.51100000000E-03 0.  1.
        -12    1    3    3    0    0 -0.65070979092E+01 -0.32842239434E+00 -0.53752323990E+01  0.84464967775E+01  0.00000000000E+00 0.  1.
</event>
<event>
 7    1  0.3004200E-011  0.5052886E+02  0.7816164E-02  0.1300439E+00
        -11   -1    0    0    0    0  0.00000000000E+00  0.00000000000E+00  0.45593999997E+02  0.45594000000E+02  0.51100000000E-03 0.  1.
         11   -1    0    0    0    0 -0.00000000000E+00 -0.00000000000E+00 -0.45593999997E+02  0.45594000000E+02  0.51100000000E-03 0. -1.
    9900012    2    1    2    0    0  0.26287363075E+02  0.30911743661E+02  0.25699245428E+01  0.50528857538E+02  0.29999992973E+02 0.  0.
         12    1    1    2    0    0 -0.26287363075E+02 -0.30911743661E+02 -0.25699245428E+01  0.40659142462E+02  0.00000000000E+00 0. -1.
         11    1    3    3    0    0  0.58839253378E+01 -0.17882476710E+01  0.81441820246E+01  0.10205200058E+02  0.51100000000E-03 0. -1.
        -11    1    3    3    0    0  0.31501877349E+01  0.10293145221E+02 -0.54010773314E+01  0.12043427997E+02  0.51100000000E-03 0.  1.
        -12    1    3    3    0    0  0.17253250002E+02  0.22406846110E+02 -0.17318015047E+00  0.28280229483E+02  0.00000000000E+00 0.  1.
</event>
<event>
 7    1  0.3004200E-011  0.5052896E+02  0.7816164E-02  0.1300438E+00
        -11   -1    0    0    0    0  0.00000000000E+00  0.00000000000E+00  0.45593999997E+02  0.45594000000E+02  0.51100000000E-03 0.  1.
         11   -1    0    0    0    0 -0.00000000000E+00 -0.00000000000E+00 -0.45593999997E+02  0.45594000000E+02  0.51100000000E-03 0. -1.
    9900012    2    1    2    0    0  0.31867576664E+02  0.19915866291E+02  0.15523312005E+02  0.50528961790E+02  0.30000309856E+02 0.  0.
         12    1    1    2    0    0 -0.31867576664E+02 -0.19915866291E+02 -0.15523312005E+02  0.40659038210E+02  0.00000000000E+00 0. -1.
         11    1    3    3    0    0  0.39191166204E+01 -0.15190942795E+00  0.12140283250E+02  0.12758096614E+02  0.51100000000E-03 0. -1.
        -11    1    3    3    0    0  0.27490176382E+02  0.18796928212E+02  0.68946111231E+01  0.34008380886E+02  0.51100000000E-03 0.  1.
         12    1    3    3    0    0  0.45828366196E+00  0.12708475063E+01 -0.35115823685E+01  0.37624842897E+01  0.00000000000E+00 0. -1.
</event>
<event>
 7    1  0.3004200E-011  0.5052890E+02  0.7816164E-02  0.1300439E+00
        -11   -1    0    0    0    0  0.00000000000E+00  0.00000000000E+00  0.45593999997E+02  0.45594000000E+02  0.51100000000E-03 0.  1.
         11   -1    0    0    0    0 -0.00000000000E+00 -0.00000000000E+00 -0.45593999997E+02  0.45594000000E+02  0.51100000000E-03 0. -1.
    9900012    2    1    2    0    0  0.31021181631E+02  0.15801775971E+02  0.21003629535E+02  0.50528901543E+02  0.30000126731E+02 0.  0.
         12    1    1    2    0    0 -0.31021181631E+02 -0.15801775971E+02 -0.21003629535E+02  0.40659098457E+02  0.00000000000E+00 0. -1.
         11    1    3    3    0    0  0.93512980543E+01  0.45233728405E+01 -0.54026189549E+01  0.11708798785E+02  0.51100000000E-03 0. -1.
        -11    1    3    3    0    0  0.20627718103E+02  0.13487362108E+02  0.26728007235E+02  0.36356540839E+02  0.51100000000E-03 0.  1.
        -12    1    3    3    0    0  0.10421654742E+01 -0.22089589775E+01 -0.32175874514E+00  0.24635619193E+01  0.00000000000E+00 0.  1.
</event>
<event>
 7    1  0.3004200E-011  0.5052885E+02  0.7816164E-02  0.1300439E+00
        -11   -1    0    0    0    0  0.00000000000E+00  0.00000000000E+00  0.45593999997E+02  0.45594000000E+02  0.51100000000E-03 0.  1.
         11   -1    0    0    0    0 -0.00000000000E+00 -0.00000000000E+00 -0.45593999997E+02  0.45594000000E+02  0.51100000000E-03 0. -1.
    9900012    2    1    2    0    0 -0.27863648281E+02  0.29607816117E+02  0.40060732184E+00  0.50528853957E+02  0.29999982086E+02 0.  0.
         12    1    1    2    0    0  0.27863648281E+02 -0.29607816117E+02 -0.40060732184E+00  0.40659146043E+02  0.00000000000E+00 0. -1.
         11    1    3    3    0    0 -0.23483910563E+01  0.10737328832E+02  0.98417341906E+01  0.14753470885E+02  0.51100000000E-03 0.  1.
        -11    1    3    3    0    0 -0.22932348735E+02  0.19818438696E+02 -0.52484017519E+01  0.30760507994E+02  0.51100000000E-03 0. -1.
        -12    1    3    3    0    0 -0.25829084897E+01 -0.94795141071E+00 -0.41927251168E+01  0.50148750780E+01  0.00000000000E+00 0.  1.
</event>
<event>
 7    1  0.3004200E-011  0.5052888E+02  0.7816164E-02  0.1300439E+00
        -11   -1    0    0    0    0  0.00000000000E+00  0.00000000000E+00  0.45593999997E+02  0.45594000000E+02  0.51100000000E-03 0. -1.
         11   -1    0    0    0    0 -0.00000000000E+00 -0.00000000000E+00 -0.45593999997E+02  0.45594000000E+02  0.51100000000E-03 0.  1.
    9900012    2    1    2    0    0  0.23520474052E+02  0.76832933246E+01 -0.32263267418E+02  0.50528879000E+02  0.30000058210E+02 0.  0.
         12    1    1    2    0    0 -0.23520474052E+02 -0.76832933246E+01  0.32263267418E+02  0.40659121000E+02  0.00000000000E+00 0. -1.
         11    1    3    3    0    0  0.11008478643E+02  0.93542978275E+01 -0.22481106577E+02  0.26722455783E+02  0.51100000000E-03 0. -1.
        -11    1    3    3    0    0  0.15710430817E+02 -0.50094054689E+01 -0.98019782298E+01  0.19183079969E+02  0.51100000000E-03 0.  1.
         12    1    3    3    0    0 -0.31984354074E+01  0.33384009660E+01  0.19817389142E-01  0.46233432486E+01  0.00000000000E+00 0. -1.
</event>
<event>
 7    1  0.3004200E-011  0.5052886E+02  0.7816164E-02  0.1300439E+00
        -11   -1    0    0    0    0  0.00000000000E+00  0.00000000000E+00  0.45593999997E+02  0.45594000000E+02  0.51100000000E-03 0.  1.
         11   -1    0    0    0    0 -0.00000000000E+00 -0.00000000000E+00 -0.45593999997E+02  0.45594000000E+02  0.51100000000E-03 0. -1.
    9900012    2    1    2    0    0  0.28004650013E+02  0.15748930642E+02  0.24917399037E+02  0.50528855721E+02  0.29999987451E+02 0.  0.
         12    1    1    2    0    0 -0.28004650013E+02 -0.15748930642E+02 -0.24917399037E+02  0.40659144279E+02  0.00000000000E+00 0. -1.
         11    1    3    3    0    0  0.12562787892E+02  0.84680273301E+01  0.29191480970E+02  0.32888807944E+02  0.51100000000E-03 0. -1.
        -11    1    3    3    0    0  0.14024931869E+02  0.66444122643E+01 -0.35203371808E+01  0.15913506917E+02  0.51100000000E-03 0.  1.
         12    1    3    3    0    0  0.14169302517E+01  0.63649104772E+00 -0.75374475221E+00  0.17265408606E+01  0.00000000000E+00 0. -1.
</event>
<event>
 7    1  0.3004200E-011  0.5052881E+02  0.7816164E-02  0.1300439E+00
        -11   -1    0    0    0    0  0.00000000000E+00  0.00000000000E+00  0.45593999997E+02  0.45594000000E+02  0.51100000000E-03 0. -1.
         11   -1    0    0    0    0 -0.00000000000E+00 -0.00000000000E+00 -0.45593999997E+02  0.45594000000E+02  0.51100000000E-03 0.  1.
    9900012    2    1    2    0    0 -0.30583059896E+01 -0.17266046733E+02 -0.36683790619E+02  0.50528805474E+02  0.29999834717E+02 0.  0.
         12    1    1    2    0    0  0.30583059896E+01  0.17266046733E+02  0.36683790619E+02  0.40659194526E+02  0.00000000000E+00 0. -1.
         11    1    3    3    0    0 -0.10576554967E+02  0.28937359492E+00 -0.63384604776E+01  0.12333828827E+02  0.51100000000E-03 0. -1.
        -11    1    3    3    0    0  0.79793878573E+01 -0.15252637387E+02 -0.15496270391E+02  0.23161346553E+02  0.51100000000E-03 0.  1.
         12    1    3    3    0    0 -0.46113888037E+00 -0.23027829414E+01 -0.14849059751E+02  0.15033630094E+02  0.00000000000E+00 0. -1.
</event>
<event>
 7    1  0.3004200E-011  0.5052886E+02  0.7816164E-02  0.1300439E+00
        -11   -1    0    0    0    0  0.00000000000E+00  0.00000000000E+00  0.45593999997E+02  0.45594000000E+02  0.51100000000E-03 0. -1.
         11   -1    0    0    0    0 -0.00000000000E+00 -0.00000000000E+00 -0.45593999997E+02  0.45594000000E+02  0.51100000000E-03 0.  1.
    9900012    2    1    2    0    0 -0.18819870084E+02  0.96381134461E+01 -0.34728734031E+02  0.50528859476E+02  0.29999998862E+02 0.  0.
         12    1    1    2    0    0  0.18819870084E+02 -0.96381134461E+01  0.34728734031E+02  0.40659140524E+02  0.00000000000E+00 0. -1.
         11    1    3    3    0    0 -0.67840998753E+01 -0.58147693000E+01 -0.50684786693E+01  0.10272537633E+02  0.51100000000E-03 0.  1.
        -11    1    3    3    0    0 -0.56775986236E+01  0.16630953938E+02 -0.11557449992E+02  0.21033269018E+02  0.51100000000E-03 0. -1.
         12    1    3    3    0    0 -0.63581715846E+01 -0.11780711920E+01 -0.18102805370E+02  0.19223052825E+02  0.00000000000E+00 0. -1.
</event>
<event>
 7    1  0.3004200E-011  0.5052886E+02  0.7816164E-02  0.1300439E+00
        -11   -1    0    0    0    0  0.00000000000E+00  0.00000000000E+00  0.45593999997E+02  0.45594000000E+02  0.51100000000E-03 0. -1.
         11   -1    0    0    0    0 -0.00000000000E+00 -0.00000000000E+00 -0.45593999997E+02  0.45594000000E+02  0.51100000000E-03 0.  1.
    9900012    2    1    2    0    0 -0.16246996134E+02  0.36967662302E+02 -0.47532071570E+01  0.50528856899E+02  0.29999991031E+02 0.  0.
         12    1    1    2    0    0  0.16246996134E+02 -0.36967662302E+02  0.47532071570E+01  0.40659143101E+02  0.00000000000E+00 0. -1.
         11    1    3    3    0    0 -0.16194371038E+02  0.26226435447E+02  0.42175566965E+01  0.31110630889E+02  0.51100000000E-03 0. -1.
        -11    1    3    3    0    0 -0.24485376223E+01  0.12956615277E+02 -0.93041754616E+01  0.16138057417E+02  0.51100000000E-03 0.  1.
         12    1    3    3    0    0  0.23959125267E+01 -0.22153884222E+01  0.33341160810E+00  0.32801685928E+01  0.00000000000E+00 0. -1.
</event>
<event>
 7    1  0.3004200E-011  0.5052891E+02  0.7816164E-02  0.1300439E+00
        -11   -1    0    0    0    0  0.00000000000E+00  0.00000000000E+00  0.45593999997E+02  0.45594000000E+02  0.51100000000E-03 0.  1.
         11   -1    0    0    0    0 -0.00000000000E+00 -0.00000000000E+00 -0.45593999997E+02  0.45594000000E+02  0.51100000000E-03 0. -1.
    9900012    2    1    2    0    0 -0.20163566212E+02  0.35151595704E+02  0.33101767933E+01  0.50528913029E+02  0.30000161642E+02 0.  0.
         12    1    1    2    0    0  0.20163566212E+02 -0.35151595704E+02 -0.33101767933E+01  0.40659086971E+02  0.00000000000E+00 0. -1.
         11    1    3    3    0    0 -0.16432782542E+02  0.13315560566E+02 -0.95474125091E+01  0.23205464467E+02  0.51100000000E-03 0. -1.
        -11    1    3    3    0    0  0.90442718074E+00  0.16098210711E+02  0.58580392432E+01  0.17154795267E+02  0.51100000000E-03 0.  1.
        -12    1    3    3    0    0 -0.46352108504E+01  0.57378244275E+01  0.69995500592E+01  0.10168653294E+02  0.00000000000E+00 0.  1.
</event>
<event>
 7    1  0.3004200E-011  0.5052885E+02  0.7816164E-02  0.1300439E+00
        -11   -1    0    0    0    0  0.00000000000E+00  0.00000000000E+00  0.45593999997E+02  0.45594000000E+02  0.51100000000E-03 0.  1.
         11   -1    0    0    0    0 -0.00000000000E+00 -0.00000000000E+00 -0.45593999997E+02  0.45594000000E+02  0.51100000000E-03 0. -1.
    9900012    2    1    2    0    0  0.31006356108E+02 -0.40958556428E+01  0.25980683934E+02  0.50528854777E+02  0.29999984581E+02 0.  0.
         12    1    1    2    0    0 -0.31006356108E+02  0.40958556428E+01 -0.25980683934E+02  0.40659145223E+02  0.00000000000E+00 0. -1.
         11    1    3    3    0    0  0.12910064464E+02 -0.57312275672E+01 -0.31696260823E+01  0.14476300068E+02  0.51100000000E-03 0. -1.
        -11    1    3    3    0    0  0.10880214798E+02 -0.42744277714E+01  0.13745577846E+02  0.18044132493E+02  0.51100000000E-03 0.  1.
         12    1    3    3    0    0  0.72160768455E+01  0.59097996958E+01  0.15404732171E+02  0.18008422217E+02  0.00000000000E+00 0. -1.
</event>
<event>
 7    1  0.3004200E-011  0.5052886E+02  0.7816164E-02  0.1300439E+00
        -11   -1    0    0    0    0  0.00000000000E+00  0.00000000000E+00  0.45593999997E+02  0.45594000000E+02  0.51100000000E-03 0.  1.
         11   -1    0    0    0    0 -0.00000000000E+00 -0.00000000000E+00 -0.45593999997E+02  0.45594000000E+02  0.51100000000E-03 0. -1.
    9900012    2    1    2    0    0 -0.33658521951E+02 -0.18078080186E+02  0.13908720938E+02  0.50528860791E+02  0.30000002859E+02 0.  0.
         12    1    1    2    0    0  0.33658521951E+02  0.18078080186E+02 -0.13908720938E+02  0.40659139209E+02  0.00000000000E+00 0. -1.
         11    1    3    3    0    0 -0.15919197271E+02  0.29682088939E+01  0.11227417508E+02  0.19704974244E+02  0.51100000000E-03 0. -1.
        -11    1    3    3    0    0 -0.17679082626E+02 -0.13623833259E+02 -0.13812311411E+01  0.22362168833E+02  0.51100000000E-03 0.  1.
        -12    1    3    3    0    0 -0.60242052808E-01 -0.74224558210E+01  0.40625345711E+01  0.84617177133E+01  0.00000000000E+00 0.  1.
</event>
<event>
 7    1  0.3004200E-011  0.5052886E+02  0.7816164E-02  0.1300439E+00
        -11   -1    0    0    0    0  0.00000000000E+00  0.00000000000E+00  0.45593999997E+02  0.45594000000E+02  0.51100000000E-03 0.  1.
         11   -1    0    0    0    0 -0.00000000000E+00 -0.00000000000E+00 -0.45593999997E+02  0.45594000000E+02  0.51100000000E-03 0. -1.
    9900012    2    1    2    0    0  0.16073147260E+02 -0.56792486711E+01  0.36912946040E+02  0.50528861868E+02  0.30000006134E+02 0.  0.
         12    1    1    2    0    0 -0.16073147260E+02  0.56792486711E+01 -0.36912946040E+02  0.40659138132E+02  0.00000000000E+00 0. -1.
         11    1    3    3    0    0 -0.80344842987E+00 -0.81725636299E+01  0.29411220223E+02  0.30536145810E+02  0.51100000000E-03 0. -1.
        -11    1    3    3    0    0  0.13806269593E+02  0.28406216509E+00  0.83210334563E+01  0.16122449238E+02  0.51100000000E-03 0.  1.
         12    1    3    3    0    0  0.30703260969E+01  0.22092527938E+01 -0.81930763982E+00  0.38702668198E+01  0.00000000000E+00 0. -1.
</event>
<event>
 7    1  0.3004200E-011  0.5052886E+02  0.7816164E-02  0.1300439E+00
        -11   -1    0    0    0    0  0.00000000000E+00  0.00000000000E+00  0.45593999997E+02  0.45594000000E+02  0.51100000000E-03 0.  1.
         11   -1    0    0    0    0 -0.00000000000E+00 -0.00000000000E+00 -0.45593999997E+02  0.45594000000E+02  0.51100000000E-03 0. -1.
    9900012    2    1    2    0    0 -0.53507769106E+01 -0.36763753411E+02  0.16521546322E+02  0.50528857470E+02  0.29999992766E+02 0.  0.
         12    1    1    2    0    0  0.53507769106E+01  0.36763753411E+02 -0.16521546322E+02  0.40659142530E+02  0.00000000000E+00 0. -1.
         11    1    3    3    0    0 -0.73986582697E+01 -0.23806047821E+02  0.67507993149E+01  0.25827143641E+02  0.51100000000E-03 0. -1.
        -11    1    3    3    0    0  0.66588703208E+01  0.12863630299E+01 -0.75421688359E-01  0.67824016754E+01  0.51100000000E-03 0.  1.
        -12    1    3    3    0    0 -0.46109889617E+01 -0.14244068620E+02  0.98461686956E+01  0.17919312153E+02  0.00000000000E+00 0.  1.
</event>
<event>
 7    1  0.3004200E-011  0.5052888E+02  0.7816164E-02  0.1300439E+00
        -11   -1    0    0    0    0  0.00000000000E+00  0.00000000000E+00  0.45593999997E+02  0.45594000000E+02  0.51100000000E-03 0.  1.
         11   -1    0    0    0    0 -0.00000000000E+00 -0.00000000000E+00 -0.45593999997E+02  0.45594000000E+02  0.51100000000E-03 0. -1.
    9900012    2    1    2    0    0  0.27046457375E+02 -0.43076830215E+01  0.30051578865E+02  0.50528875786E+02  0.30000048440E+02 0.  0.
         12    1    1    2    0    0 -0.27046457375E+02  0.43076830215E+01 -0.30051578865E+02  0.40659124214E+02  0.00000000000E+00 0. -1.
         11    1    3    3    0    0  0.35178449034E+01 -0.34373048846E+01 -0.51122394302E+01  0.70940319908E+01  0.51100000000E-03 0. -1.
        -11    1    3    3    0    0  0.15184386712E+02 -0.52146361377E+01  0.23252654399E+02  0.28256750817E+02  0.51100000000E-03 0.  1.
         12    1    3    3    0    0  0.83442257601E+01  0.43442580008E+01  0.11911163895E+02  0.15178092978E+02  0.00000000000E+00 0. -1.
</event>
<event>
 7    1  0.3004200E-011  0.5052886E+02  0.7816164E-02  0.1300439E+00
        -11   -1    0    0    0    0  0.00000000000E+00  0.00000000000E+00  0.45593999997E+02  0.45594000000E+02  0.51100000000E-03 0. -1.
         11   -1    0    0    0    0 -0.00000000000E+00 -0.00000000000E+00 -0.45593999997E+02  0.45594000000E+02  0.51100000000E-03 0.  1.
    9900012    2    1    2    0    0 -0.24499834561E+02  0.29959662165E+02  0.12463650923E+02  0.50528857794E+02  0.29999993752E+02 0.  0.
         12    1    1    2    0    0  0.24499834561E+02 -0.29959662165E+02 -0.12463650923E+02  0.40659142206E+02  0.00000000000E+00 0. -1.
         11    1    3    3    0    0 -0.14144629833E+01  0.11803749997E+02  0.11089877423E+01  0.11939810450E+02  0.51100000000E-03 0. -1.
        -11    1    3    3    0    0 -0.26468193619E+02  0.17194795185E+02  0.13651420567E+02  0.34388770531E+02  0.51100000000E-03 0.  1.
        -12    1    3    3    0    0  0.33828220413E+01  0.96111698327E+00 -0.22967573854E+01  0.42002768130E+01  0.00000000000E+00 0.  1.
</event>
<event>
 7    1  0.3004200E-011  0.5052886E+02  0.7816164E-02  0.1300439E+00
        -11   -1    0    0    0    0  0.00000000000E+00  0.00000000000E+00  0.45593999997E+02  0.45594000000E+02  0.51100000000E-03 0.  1.
         11   -1    0    0    0    0 -0.00000000000E+00 -0.00000000000E+00 -0.45593999997E+02  0.45594000000E+02  0.51100000000E-03 0. -1.
    9900012    2    1    2    0    0 -0.19610459458E+02 -0.35386136799E+02  0.40517490819E+01  0.50528862426E+02  0.30000007829E+02 0.  0.
         12    1    1    2    0    0  0.19610459458E+02  0.35386136799E+02 -0.40517490819E+01  0.40659137574E+02  0.00000000000E+00 0. -1.
         11    1    3    3    0    0 -0.62726418130E+01 -0.96810838884E+00 -0.53760957745E+01  0.83177926883E+01  0.51100000000E-03 0. -1.
        -11    1    3    3    0    0 -0.16830270525E+02 -0.27843897696E+02  0.35544364211E+01  0.32728804796E+02  0.51100000000E-03 0.  1.
        -12    1    3    3    0    0  0.34924528805E+01 -0.65741307144E+01  0.58734084353E+01  0.94822649415E+01  0.00000000000E+00 0.  1.
</event>
<event>
 7    1  0.3004200E-011  0.5052886E+02  0.7816164E-02  0.1300439E+00
        -11   -1    0    0    0    0  0.00000000000E+00  0.00000000000E+00  0.45593999997E+02  0.45594000000E+02  0.51100000000E-03 0. -1.
         11   -1    0    0    0    0 -0.00000000000E+00 -0.00000000000E+00 -0.45593999997E+02  0.45594000000E+02  0.51100000000E-03 0.  1.
    9900012    2    1    2    0    0 -0.32619524895E+02  0.45402115389E+01 -0.23843635199E+02  0.50528857551E+02  0.29999993011E+02 0.  0.
         12    1    1    2    0    0  0.32619524895E+02 -0.45402115389E+01  0.23843635199E+02  0.40659142449E+02  0.00000000000E+00 0. -1.
         11    1    3    3    0    0 -0.22078251225E+00 -0.30918616851E+01 -0.80267339329E+01  0.86044646253E+01  0.51100000000E-03 0. -1.
        -11    1    3    3    0    0 -0.26405303807E+02  0.33652420083E+01 -0.20150572573E+02  0.33385782875E+02  0.51100000000E-03 0.  1.
         12    1    3    3    0    0 -0.59934385761E+01  0.42668312157E+01  0.43336713073E+01  0.85386100501E+01  0.00000000000E+00 0. -1.
</event>
<event>
 7    1  0.3004200E-011  0.5052885E+02  0.7816164E-02  0.1300439E+00
        -11   -1    0    0    0    0  0.00000000000E+00  0.00000000000E+00  0.45593999997E+02  0.45594000000E+02  0.51100000000E-03 0. -1.
         11   -1    0    0    0    0 -0.00000000000E+00 -0.00000000000E+00 -0.45593999997E+02  0.45594000000E+02  0.51100000000E-03 0.  1.
    9900012    2    1    2    0    0  0.23055812670E+01 -0.30407298480E+02 -0.26893247022E+02  0.50528852921E+02  0.29999978938E+02 0.  0.
         12    1    1    2    0    0 -0.23055812670E+01  0.30407298480E+02  0.26893247022E+02  0.40659147079E+02  0.00000000000E+00 0. -1.
         11    1    3    3    0    0 -0.20402269818E+01 -0.61674699407E+01 -0.22595807516E+00  0.65000976084E+01  0.51100000000E-03 0. -1.
        -11    1    3    3    0    0  0.13222736349E+02 -0.18787848460E+02 -0.24107089329E+02  0.33301287700E+02  0.51100000000E-03 0.  1.
        -12    1    3    3    0    0 -0.88769281007E+01 -0.54519800795E+01 -0.25601996178E+01  0.10727467612E+02  0.00000000000E+00 0.  1.
</event>
<event>
 7    1  0.3004200E-011  0.5052887E+02  0.7816164E-02  0.1300439E+00
        -11   -1    0    0    0    0  0.00000000000E+00  0.00000000000E+00  0.45593999997E+02  0.45594000000E+02  0.51100000000E-03 0.  1.
         11   -1    0    0    0    0 -0.00000000000E+00 -0.00000000000E+00 -0.45593999997E+02  0.45594000000E+02  0.51100000000E-03 0. -1.
    9900012    2    1    2    0    0 -0.23795869616E+02  0.15431269436E+02  0.29134132426E+02  0.50528866224E+02  0.30000019373E+02 0.  0.
         12    1    1    2    0    0  0.23795869616E+02 -0.15431269436E+02 -0.29134132426E+02  0.40659133776E+02  0.00000000000E+00 0. -1.
         11    1    3    3    0    0 -0.41310711268E+01 -0.18686748016E+01 -0.56281553153E+00  0.45688571605E+01  0.51100000000E-03 0. -1.
        -11    1    3    3    0    0 -0.74566524375E+01  0.19915067360E+02  0.12363195692E+02  0.24597971085E+02  0.51100000000E-03 0.  1.
        -12    1    3    3    0    0 -0.12208146052E+02 -0.26151231217E+01  0.17333752266E+02  0.21362037978E+02  0.00000000000E+00 0.  1.
</event>
<event>
 7    1  0.3004200E-011  0.5052887E+02  0.7816164E-02  0.1300439E+00
        -11   -1    0    0    0    0  0.00000000000E+00  0.00000000000E+00  0.45593999997E+02  0.45594000000E+02  0.51100000000E-03 0.  1.
         11   -1    0    0    0    0 -0.00000000000E+00 -0.00000000000E+00 -0.45593999997E+02  0.45594000000E+02  0.51100000000E-03 0. -1.
    9900012    2    1    2    0    0  0.38967305374E+02 -0.11382129815E+02 -0.22718153021E+01  0.50528869266E+02  0.30000028622E+02 0.  0.
         12    1    1    2    0    0 -0.38967305374E+02  0.11382129815E+02  0.22718153021E+01  0.40659130734E+02  0.00000000000E+00 0. -1.
         11    1    3    3    0    0  0.12992534512E+02 -0.50962508280E+01 -0.93849261511E+01  0.16818280669E+02  0.51100000000E-03 0. -1.
        -11    1    3    3    0    0 -0.27396173135E+01  0.54903541448E+00  0.26639420662E+01  0.38605090991E+01  0.51100000000E-03 0.  1.
        -12    1    3    3    0    0  0.28714388176E+02 -0.68349144017E+01  0.44491687827E+01  0.29850079498E+02  0.00000000000E+00 0.  1.
</event>
<event>
 7    1  0.3004200E-011  0.5052886E+02  0.7816164E-02  0.1300439E+00
        -11   -1    0    0    0    0  0.00000000000E+00  0.00000000000E+00  0.45593999997E+02  0.45594000000E+02  0.51100000000E-03 0.  1.
         11   -1    0    0    0    0 -0.00000000000E+00 -0.00000000000E+00 -0.45593999997E+02  0.45594000000E+02  0.51100000000E-03 0. -1.
    9900012    2    1    2    0    0  0.72904898198E+00 -0.30253372890E+02  0.27154508207E+02  0.50528863270E+02  0.30000010397E+02 0.  0.
         12    1    1    2    0    0 -0.72904898198E+00  0.30253372890E+02 -0.27154508207E+02  0.40659136730E+02  0.00000000000E+00 0. -1.
         11    1    3    3    0    0 -0.99959295651E+01 -0.79508274227E+00  0.11347549145E+02  0.15143237312E+02  0.51100000000E-03 0. -1.
        -11    1    3    3    0    0  0.27561675595E+01 -0.13629723398E+02  0.61634175248E+01  0.15210310166E+02  0.51100000000E-03 0.  1.
         12    1    3    3    0    0  0.79688109876E+01 -0.15828566750E+02  0.96435415374E+01  0.20175315792E+02  0.00000000000E+00 0. -1.
</event>
<event>
 7    1  0.3004200E-011  0.5052900E+02  0.7816164E-02  0.1300438E+00
        -11   -1    0    0    0    0  0.00000000000E+00  0.00000000000E+00  0.45593999997E+02  0.45594000000E+02  0.51100000000E-03 0.  1.
         11   -1    0    0    0    0 -0.00000000000E+00 -0.00000000000E+00 -0.45593999997E+02  0.45594000000E+02  0.51100000000E-03 0. -1.
    9900012    2    1    2    0    0  0.16827851723E+02  0.16808219300E+01  0.36975028767E+02  0.50528997205E+02  0.30000417502E+02 0.  0.
         12    1    1    2    0    0 -0.16827851723E+02 -0.16808219300E+01 -0.36975028767E+02  0.40659002795E+02  0.00000000000E+00 0. -1.
         11    1    3    3    0    0  0.83422320379E+00 -0.13532413260E+01 -0.32888061353E+01  0.36528668874E+01  0.51100000000E-03 0. -1.
        -11    1    3    3    0    0  0.12733099154E+02  0.77834899066E+01  0.37745872529E+02  0.40588981539E+02  0.51100000000E-03 0.  1.
        -12    1    3    3    0    0  0.32605293649E+01 -0.47494266506E+01  0.25179623736E+01  0.62871487785E+01  0.00000000000E+00 0.  1.
</event>
<event>
 7    1  0.3004200E-011  0.5052899E+02  0.7816164E-02  0.1300438E+00
        -11   -1    0    0    0    0  0.00000000000E+00  0.00000000000E+00  0.45593999997E+02  0.45594000000E+02  0.51100000000E-03 0.  1.
         11   -1    0    0    0    0 -0.00000000000E+00 -0.00000000000E+00 -0.45593999997E+02  0.45594000000E+02  0.51100000000E-03 0. -1.
    9900012    2    1    2    0    0 -0.12714178625E+02 -0.31857305228E+02  0.21831547907E+02  0.50528994619E+02  0.30000409642E+02 0.  0.
         12    1    1    2    0    0  0.12714178625E+02  0.31857305228E+02 -0.21831547907E+02  0.40659005381E+02  0.00000000000E+00 0. -1.
         11    1    3    3    0    0  0.23427037200E+00  0.33201085229E+01 -0.17215035996E+01  0.37472093771E+01  0.51100000000E-03 0. -1.
        -11    1    3    3    0    0 -0.27956427346E+01 -0.11676495590E+02  0.16166266021E+02  0.20137137952E+02  0.51100000000E-03 0.  1.
         12    1    3    3    0    0 -0.10152806262E+02 -0.23500918161E+02  0.73867854857E+01  0.26644647290E+02  0.00000000000E+00 0. -1.
</event>
<event>
 7    1  0.3004200E-011  0.5052887E+02  0.7816164E-02  0.1300439E+00
        -11   -1    0    0    0    0  0.00000000000E+00  0.00000000000E+00  0.45593999997E+02  0.45594000000E+02  0.51100000000E-03 0.  1.
         11   -1    0    0    0    0 -0.00000000000E+00 -0.00000000000E+00 -0.45593999997E+02  0.45594000000E+02  0.51100000000E-03 0. -1.
    9900012    2    1    2    0    0 -0.10778136065E+02 -0.33379780781E+02  0.20561786028E+02  0.50528867856E+02  0.30000024336E+02 0.  0.
         12    1    1    2    0    0  0.10778136065E+02  0.33379780781E+02 -0.20561786028E+02  0.40659132144E+02  0.00000000000E+00 0. -1.
         11    1    3    3    0    0 -0.15459181555E+02 -0.17564732365E+02  0.54454087503E+01  0.24024125252E+02  0.51100000000E-03 0. -1.
        -11    1    3    3    0    0 -0.39589429856E+00 -0.13074867533E+02  0.16001763446E+02  0.20667978299E+02  0.51100000000E-03 0.  1.
        -12    1    3    3    0    0  0.50769397887E+01 -0.27401808836E+01 -0.88538616902E+00  0.58367643058E+01  0.00000000000E+00 0.  1.
</event>
<event>
 7    1  0.3004200E-011  0.5052888E+02  0.7816164E-02  0.1300439E+00
        -11   -1    0    0    0    0  0.00000000000E+00  0.00000000000E+00  0.45593999997E+02  0.45594000000E+02  0.51100000000E-03 0.  1.
         11   -1    0    0    0    0 -0.00000000000E+00 -0.00000000000E+00 -0.45593999997E+02  0.45594000000E+02  0.51100000000E-03 0. -1.
    9900012    2    1    2    0    0 -0.24427672954E+02  0.23356555980E+02  0.22603630698E+02  0.50528880064E+02  0.30000061443E+02 0.  0.
         12    1    1    2    0    0  0.24427672954E+02 -0.23356555980E+02 -0.22603630698E+02  0.40659119936E+02  0.00000000000E+00 0. -1.
         11    1    3    3    0    0 -0.20634341152E+01  0.20180109427E+02  0.65205619101E+01  0.21307564495E+02  0.51100000000E-03 0. -1.
        -11    1    3    3    0    0 -0.23026627217E+02  0.25432223929E+01  0.16239616070E+02  0.28291671416E+02  0.51100000000E-03 0.  1.
        -12    1    3    3    0    0  0.66238837760E+00  0.63322416024E+00 -0.15654728218E+00  0.92964415313E+00  0.00000000000E+00 0.  1.
</event>
<event>
 7    1  0.3004200E-011  0.5052886E+02  0.7816164E-02  0.1300439E+00
        -11   -1    0    0    0    0  0.00000000000E+00  0.00000000000E+00  0.45593999997E+02  0.45594000000E+02  0.51100000000E-03 0. -1.
         11   -1    0    0    0    0 -0.00000000000E+00 -0.00000000000E+00 -0.45593999997E+02  0.45594000000E+02  0.51100000000E-03 0.  1.
    9900012    2    1    2    0    0 -0.39386071789E+02  0.47568848490E+01  0.89036462688E+01  0.50528861774E+02  0.30000005847E+02 0.  0.
         12    1    1    2    0    0  0.39386071789E+02 -0.47568848490E+01 -0.89036462688E+01  0.40659138226E+02  0.00000000000E+00 0. -1.
         11    1    3    3    0    0 -0.20851107800E+02 -0.25837667578E+01  0.11426904763E+02  0.23916912424E+02  0.51100000000E-03 0. -1.
        -11    1    3    3    0    0 -0.18225152839E+02  0.10072058789E+02  0.24124096970E+01  0.20962401701E+02  0.51100000000E-03 0.  1.
         12    1    3    3    0    0 -0.30981115020E+00 -0.27314071827E+01 -0.49356681914E+01  0.56495476494E+01  0.00000000000E+00 0. -1.
</event>
<event>
 7    1  0.3004200E-011  0.5052886E+02  0.7816164E-02  0.1300439E+00
        -11   -1    0    0    0    0  0.00000000000E+00  0.00000000000E+00  0.45593999997E+02  0.45594000000E+02  0.51100000000E-03 0.  1.
         11   -1    0    0    0    0 -0.00000000000E+00 -0.00000000000E+00 -0.45593999997E+02  0.45594000000E+02  0.51100000000E-03 0. -1.
    9900012    2    1    2    0    0 -0.22141546430E+02  0.33362467928E+02 -0.70613748137E+01  0.50528863772E+02  0.30000011922E+02 0.  0.
         12    1    1    2    0    0  0.22141546430E+02 -0.33362467928E+02  0.70613748137E+01  0.40659136228E+02  0.00000000000E+00 0. -1.
         11    1    3    3    0    0 -0.13068256800E+02  0.37013735380E+01 -0.36103188262E+01  0.14053964002E+02  0.51100000000E-03 0. -1.
        -11    1    3    3    0    0 -0.67926726012E+01  0.23558679760E+02  0.57666692218E+01  0.25187422799E+02  0.51100000000E-03 0.  1.
        -12    1    3    3    0    0 -0.22806170284E+01  0.61024146297E+01 -0.92177252093E+01  0.11287476971E+02  0.00000000000E+00 0.  1.
</event>
<event>
 7    1  0.3004200E-011  0.5052885E+02  0.7816164E-02  0.1300439E+00
        -11   -1    0    0    0    0  0.00000000000E+00  0.00000000000E+00  0.45593999997E+02  0.45594000000E+02  0.51100000000E-03 0. -1.
         11   -1    0    0    0    0 -0.00000000000E+00 -0.00000000000E+00 -0.45593999997E+02  0.45594000000E+02  0.51100000000E-03 0.  1.
    9900012    2    1    2    0    0  0.34993926599E+02  0.20701191761E+02  0.22787580917E+00  0.50528853840E+02  0.29999981731E+02 0.  0.
         12    1    1    2    0    0 -0.34993926599E+02 -0.20701191761E+02 -0.22787580917E+00  0.40659146160E+02  0.00000000000E+00 0. -1.
         11    1    3    3    0    0  0.11458595445E+02  0.17125002674E+02  0.59958451564E+01  0.21459619884E+02  0.51100000000E-03 0. -1.
        -11    1    3    3    0    0  0.21292554442E+02  0.55103899512E+00 -0.98918851193E+01  0.23484588779E+02  0.51100000000E-03 0.  1.
        -12    1    3    3    0    0  0.22427767115E+01  0.30251500915E+01  0.41239157720E+01  0.55846451766E+01  0.00000000000E+00 0.  1.
</event>
<event>
 7    1  0.3004200E-011  0.5052886E+02  0.7816164E-02  0.1300439E+00
        -11   -1    0    0    0    0  0.00000000000E+00  0.00000000000E+00  0.45593999997E+02  0.45594000000E+02  0.51100000000E-03 0.  1.
         11   -1    0    0    0    0 -0.00000000000E+00 -0.00000000000E+00 -0.45593999997E+02  0.45594000000E+02  0.51100000000E-03 0. -1.
    9900012    2    1    2    0    0 -0.30154334316E+02  0.17907882207E+02  0.20571575788E+02  0.50528857688E+02  0.29999993427E+02 0.  0.
         12    1    1    2    0    0  0.30154334316E+02 -0.17907882207E+02 -0.20571575788E+02  0.40659142312E+02  0.00000000000E+00 0. -1.
         11    1    3    3    0    0  0.12444401671E+01  0.67273315930E+01 -0.90133403661E+00  0.69005814971E+01  0.51100000000E-03 0. -1.
        -11    1    3    3    0    0 -0.23704137177E+02 -0.21719535965E+00  0.16986919858E+02  0.29163140086E+02  0.51100000000E-03 0.  1.
        -12    1    3    3    0    0 -0.76946373063E+01  0.11397745974E+02  0.44859899663E+01  0.14465136105E+02  0.00000000000E+00 0.  1.
</event>
<event>
 7    1  0.3004200E-011  0.5052896E+02  0.7816164E-02  0.1300438E+00
        -11   -1    0    0    0    0  0.00000000000E+00  0.00000000000E+00  0.45593999997E+02  0.45594000000E+02  0.51100000000E-03 0. -1.
         11   -1    0    0    0    0 -0.00000000000E+00 -0.00000000000E+00 -0.45593999997E+02  0.45594000000E+02  0.51100000000E-03 0.  1.
    9900012    2    1    2    0    0  0.34647860257E+02 -0.12379752674E+02  0.17303896915E+02  0.50528962319E+02  0.30000311465E+02 0.  0.
         12    1    1    2    0    0 -0.34647860257E+02  0.12379752674E+02 -0.17303896915E+02  0.40659037681E+02  0.00000000000E+00 0. -1.
         11    1    3    3    0    0  0.87283434379E+01  0.11410993713E+01  0.10663608527E+02  0.13827459421E+02  0.51100000000E-03 0. -1.
        -11    1    3    3    0    0 -0.63454294854E+00 -0.16085857212E+01 -0.50499444573E+01  0.53378021750E+01  0.51100000000E-03 0.  1.
        -12    1    3    3    0    0  0.26554059768E+02 -0.11912266324E+02  0.11690232845E+02  0.31363700724E+02  0.00000000000E+00 0.  1.
</event>
<event>
 7    1  0.3004200E-011  0.5052886E+02  0.7816164E-02  0.1300439E+00
        -11   -1    0    0    0    0  0.00000000000E+00  0.00000000000E+00  0.45593999997E+02  0.45594000000E+02  0.51100000000E-03 0.  1.
         11   -1    0    0    0    0 -0.00000000000E+00 -0.00000000000E+00 -0.45593999997E+02  0.45594000000E+02  0.51100000000E-03 0. -1.
    9900012    2    1    2    0    0  0.26245950331E+02 -0.26064761022E+02  0.16880291096E+02  0.50528857075E+02  0.29999991566E+02 0.  0.
         12    1    1    2    0    0 -0.26245950331E+02  0.26064761022E+02 -0.16880291096E+02  0.40659142925E+02  0.00000000000E+00 0. -1.
         11    1    3    3    0    0  0.94029251875E+01 -0.78870538790E+01 -0.74739004623E+01  0.14369405324E+02  0.51100000000E-03 0. -1.
        -11    1    3    3    0    0  0.44394267790E+01 -0.49522890442E+01  0.12124487752E+01  0.67604518486E+01  0.51100000000E-03 0.  1.
         12    1    3    3    0    0  0.12403598364E+02 -0.13225418099E+02  0.23141742783E+02  0.29398999903E+02  0.00000000000E+00 0. -1.
</event>
<event>
 7    1  0.3004200E-011  0.5052888E+02  0.7816164E-02  0.1300439E+00
        -11   -1    0    0    0    0  0.00000000000E+00  0.00000000000E+00  0.45593999997E+02  0.45594000000E+02  0.51100000000E-03 0.  1.
         11   -1    0    0    0    0 -0.00000000000E+00 -0.00000000000E+00 -0.45593999997E+02  0.45594000000E+02  0.51100000000E-03 0. -1.
    9900012    2    1    2    0    0 -0.37035907057E+02  0.79878526465E+01 -0.14754658414E+02  0.50528878682E+02  0.30000057243E+02 0.  0.
         12    1    1    2    0    0  0.37035907057E+02 -0.79878526465E+01  0.14754658414E+02  0.40659121318E+02  0.00000000000E+00 0. -1.
         11    1    3    3    0    0 -0.16013128390E+02  0.13476783966E+02 -0.15766993820E+02  0.26203856229E+02  0.51100000000E-03 0. -1.
        -11    1    3    3    0    0 -0.68698241990E+01 -0.52202549009E+01 -0.37248734612E+01  0.93978842469E+01  0.51100000000E-03 0.  1.
         12    1    3    3    0    0 -0.14152954468E+02 -0.26867641822E+00  0.47372088671E+01  0.14927138206E+02  0.00000000000E+00 0. -1.
</event>
<event>
 7    1  0.3004200E-011  0.5052887E+02  0.7816164E-02  0.1300439E+00
        -11   -1    0    0    0    0  0.00000000000E+00  0.00000000000E+00  0.45593999997E+02  0.45594000000E+02  0.51100000000E-03 0.  1.
         11   -1    0    0    0    0 -0.00000000000E+00 -0.00000000000E+00 -0.45593999997E+02  0.45594000000E+02  0.51100000000E-03 0. -1.
    9900012    2    1    2    0    0  0.28197793886E+02 -0.20369906438E+02  0.21050332712E+02  0.50528866026E+02  0.30000018771E+02 0.  0.
         12    1    1    2    0    0 -0.28197793886E+02  0.20369906438E+02 -0.21050332712E+02  0.40659133974E+02  0.00000000000E+00 0. -1.
         11    1    3    3    0    0  0.16663864222E+00 -0.41604223704E+01  0.65897356353E+01  0.77949662438E+01  0.51100000000E-03 0. -1.
        -11    1    3    3    0    0  0.20234496801E+02  0.17990072289E+01  0.98468426262E+01  0.22575021545E+02  0.51100000000E-03 0.  1.
        -12    1    3    3    0    0  0.77966584422E+01 -0.18008491296E+02  0.46137544501E+01  0.20158878236E+02  0.00000000000E+00 0.  1.
</event>
<event>
 7    1  0.3004200E-011  0.5052886E+02  0.7816164E-02  0.1300439E+00
        -11   -1    0    0    0    0  0.00000000000E+00  0.00000000000E+00  0.45593999997E+02  0.45594000000E+02  0.51100000000E-03 0. -1.
         11   -1    0    0    0    0 -0.00000000000E+00 -0.00000000000E+00 -0.45593999997E+02  0.45594000000E+02  0.51100000000E-03 0.  1.
    9900012    2    1    2    0    0 -0.18783153210E+02 -0.35372082385E+02  0.70124360770E+01  0.50528864292E+02  0.30000013502E+02 0.  0.
         12    1    1    2    0    0  0.18783153210E+02  0.35372082385E+02 -0.70124360770E+01  0.40659135708E+02  0.00000000000E+00 0. -1.
         11    1    3    3    0    0  0.13157326600E+01 -0.14708317783E+02 -0.66741378163E+01  0.16205242370E+02  0.51100000000E-03 0. -1.
        -11    1    3    3    0    0 -0.15754008579E+02 -0.15691856043E+02  0.39874917132E+01  0.22590334721E+02  0.51100000000E-03 0.  1.
         12    1    3    3    0    0 -0.43448772915E+01 -0.49719085593E+01  0.96990821802E+01  0.11733287201E+02  0.00000000000E+00 0. -1.
</event>
<event>
 7    1  0.3004200E-011  0.5052885E+02  0.7816164E-02  0.1300439E+00
        -11   -1    0    0    0    0  0.00000000000E+00  0.00000000000E+00  0.45593999997E+02  0.45594000000E+02  0.51100000000E-03 0.  1.
         11   -1    0    0    0    0 -0.00000000000E+00 -0.00000000000E+00 -0.45593999997E+02  0.45594000000E+02  0.51100000000E-03 0. -1.
    9900012    2    1    2    0    0 -0.23160987090E+02 -0.22912010246E+02 -0.24326422038E+02  0.50528851636E+02  0.29999975033E+02 0.  0.
         12    1    1    2    0    0  0.23160987090E+02  0.22912010246E+02  0.24326422038E+02  0.40659148364E+02  0.00000000000E+00 0. -1.
         11    1    3    3    0    0 -0.12131170093E+02 -0.15706273157E+02  0.21882043663E+01  0.19965984647E+02  0.51100000000E-03 0. -1.
        -11    1    3    3    0    0 -0.85737563516E+01 -0.53764621139E+01 -0.11856308023E+02  0.15588062197E+02  0.51100000000E-03 0.  1.
         12    1    3    3    0    0 -0.24560606460E+01 -0.18292749752E+01 -0.14658318381E+02  0.14974804793E+02  0.00000000000E+00 0. -1.
</event>
<event>
 7    1  0.3004200E-011  0.5052887E+02  0.7816164E-02  0.1300439E+00
        -11   -1    0    0    0    0  0.00000000000E+00  0.00000000000E+00  0.45593999997E+02  0.45594000000E+02  0.51100000000E-03 0. -1.
         11   -1    0    0    0    0 -0.00000000000E+00 -0.00000000000E+00 -0.45593999997E+02  0.45594000000E+02  0.51100000000E-03 0.  1.
    9900012    2    1    2    0    0  0.10178082791E+02 -0.39111487670E+02 -0.44568366461E+01  0.50528865357E+02  0.30000016738E+02 0.  0.
         12    1    1    2    0    0 -0.10178082791E+02  0.39111487670E+02  0.44568366461E+01  0.40659134643E+02  0.00000000000E+00 0. -1.
         11    1    3    3    0    0  0.12419162172E+02 -0.14679783964E+02  0.84828734635E+01  0.21016440915E+02  0.51100000000E-03 0. -1.
        -11    1    3    3    0    0  0.36654969224E+01 -0.65586740984E+01 -0.53138113811E+01  0.92026444717E+01  0.51100000000E-03 0.  1.
         12    1    3    3    0    0 -0.59065763039E+01 -0.17873029608E+02 -0.76258987284E+01  0.20309779970E+02  0.00000000000E+00 0. -1.
</event>
<event>
 7    1  0.3004200E-011  0.5052885E+02  0.7816164E-02  0.1300439E+00
        -11   -1    0    0    0    0  0.00000000000E+00  0.00000000000E+00  0.45593999997E+02  0.45594000000E+02  0.51100000000E-03 0.  1.
         11   -1    0    0    0    0 -0.00000000000E+00 -0.00000000000E+00 -0.45593999997E+02  0.45594000000E+02  0.51100000000E-03 0. -1.
    9900012    2    1    2    0    0 -0.12922268643E+02  0.22953656322E+02  0.30972753985E+02  0.50528845375E+02  0.29999956001E+02 0.  0.
         12    1    1    2    0    0  0.12922268643E+02 -0.22953656322E+02 -0.30972753985E+02  0.40659154625E+02  0.00000000000E+00 0. -1.
         11    1    3    3    0    0 -0.12282874742E+02 -0.21341518643E+01  0.52690249005E+01  0.13534631128E+02  0.51100000000E-03 0. -1.
        -11    1    3    3    0    0  0.31469211034E+01  0.20074601563E+02  0.19357157428E+02  0.28064074621E+02  0.51100000000E-03 0.  1.
        -12    1    3    3    0    0 -0.37863150044E+01  0.50132066232E+01  0.63465716556E+01  0.89301396260E+01  0.00000000000E+00 0.  1.
</event>
<event>
 7    1  0.3004200E-011  0.5052885E+02  0.7816164E-02  0.1300439E+00
        -11   -1    0    0    0    0  0.00000000000E+00  0.00000000000E+00  0.45593999997E+02  0.45594000000E+02  0.51100000000E-03 0. -1.
         11   -1    0    0    0    0 -0.00000000000E+00 -0.00000000000E+00 -0.45593999997E+02  0.45594000000E+02  0.51100000000E-03 0.  1.
    9900012    2    1    2    0    0 -0.25645813606E+02 -0.31288010071E+02  0.40643992775E+01  0.50528847632E+02  0.29999962864E+02 0.  0.
         12    1    1    2    0    0  0.25645813606E+02  0.31288010071E+02 -0.40643992775E+01  0.40659152368E+02  0.00000000000E+00 0. -1.
         11    1    3    3    0    0  0.41657167170E+01 -0.87015397230E+00  0.29095279474E+01  0.51551640943E+01  0.51100000000E-03 0. -1.
        -11    1    3    3    0    0 -0.20437512516E+02 -0.28225244009E+02  0.45975775837E+01  0.35149595120E+02  0.51100000000E-03 0.  1.
         12    1    3    3    0    0 -0.93740178072E+01 -0.21926120900E+01 -0.34427062536E+01  0.10224088418E+02  0.00000000000E+00 0. -1.
</event>
<event>
 7    1  0.3004200E-011  0.5052882E+02  0.7816164E-02  0.1300439E+00
        -11   -1    0    0    0    0  0.00000000000E+00  0.00000000000E+00  0.45593999997E+02  0.45594000000E+02  0.51100000000E-03 0.  1.
         11   -1    0    0    0    0 -0.00000000000E+00 -0.00000000000E+00 -0.45593999997E+02  0.45594000000E+02  0.51100000000E-03 0. -1.
    9900012    2    1    2    0    0  0.58227031033E+01 -0.89429684965E+00  0.40230156600E+02  0.50528817294E+02  0.29999870646E+02 0.  0.
         12    1    1    2    0    0 -0.58227031033E+01  0.89429684965E+00 -0.40230156600E+02  0.40659182706E+02  0.00000000000E+00 0. -1.
         11    1    3    3    0    0  0.54220849330E+00  0.42866904475E+01 -0.30949609994E+01  0.53149307514E+01  0.51100000000E-03 0. -1.
        -11    1    3    3    0    0 -0.19573480811E+00 -0.70921794967E+01  0.22131780050E+02  0.23241192108E+02  0.51100000000E-03 0.  1.
         12    1    3    3    0    0  0.54762294181E+01  0.19111921995E+01  0.21193337549E+02  0.21972694435E+02  0.00000000000E+00 0. -1.
</event>
<event>
 7    1  0.3004200E-011  0.5052886E+02  0.7816164E-02  0.1300439E+00
        -11   -1    0    0    0    0  0.00000000000E+00  0.00000000000E+00  0.45593999997E+02  0.45594000000E+02  0.51100000000E-03 0.  1.
         11   -1    0    0    0    0 -0.00000000000E+00 -0.00000000000E+00 -0.45593999997E+02  0.45594000000E+02  0.51100000000E-03 0. -1.
    9900012    2    1    2    0    0 -0.21221009969E+02 -0.64609718179E+01  0.34074773863E+02  0.50528860379E+02  0.30000001607E+02 0.  0.
         12    1    1    2    0    0  0.21221009969E+02  0.64609718179E+01 -0.34074773863E+02  0.40659139621E+02  0.00000000000E+00 0. -1.
         11    1    3    3    0    0 -0.15635291444E+01  0.88971773603E+01  0.17941556901E+01  0.92099610893E+01  0.51100000000E-03 0. -1.
        -11    1    3    3    0    0 -0.12954536882E+02 -0.60749824801E+01  0.16883288346E+02  0.22130767352E+02  0.51100000000E-03 0.  1.
         12    1    3    3    0    0 -0.67029439426E+01 -0.92831666981E+01  0.15397329827E+02  0.19188131938E+02  0.00000000000E+00 0. -1.
</event>
<event>
 7    1  0.3004200E-011  0.5052886E+02  0.7816164E-02  0.1300439E+00
        -11   -1    0    0    0    0  0.00000000000E+00  0.00000000000E+00  0.45593999997E+02  0.45594000000E+02  0.51100000000E-03 0.  1.
         11   -1    0    0    0    0 -0.00000000000E+00 -0.00000000000E+00 -0.45593999997E+02  0.45594000000E+02  0.51100000000E-03 0. -1.
    9900012    2    1    2    0    0  0.39557386964E+00  0.39524657001E+02  0.95294617550E+01  0.50528860424E+02  0.30000001745E+02 0.  0.
         12    1    1    2    0    0 -0.39557386964E+00 -0.39524657001E+02 -0.95294617550E+01  0.40659139576E+02  0.00000000000E+00 0. -1.
         11    1    3    3    0    0 -0.82857060645E+01  0.13682836992E+02  0.13570446556E+02  0.20976891408E+02  0.51100000000E-03 0. -1.
        -11    1    3    3    0    0  0.59063593966E+01  0.12026965441E+02  0.31030685208E+01  0.13753618198E+02  0.51100000000E-03 0.  1.
         12    1    3    3    0    0  0.27749205375E+01  0.13814854568E+02 -0.71440533217E+01  0.15798350819E+02  0.00000000000E+00 0. -1.
</event>
<event>
 7    1  0.3004200E-011  0.5052894E+02  0.7816164E-02  0.1300439E+00
        -11   -1    0    0    0    0  0.00000000000E+00  0.00000000000E+00  0.45593999997E+02  0.45594000000E+02  0.51100000000E-03 0.  1.
         11   -1    0    0    0    0 -0.00000000000E+00 -0.00000000000E+00 -0.45593999997E+02  0.45594000000E+02  0.51100000000E-03 0. -1.
    9900012    2    1    2    0    0  0.16024854292E+02 -0.20163869509E+01  0.37313502975E+02  0.50528938579E+02  0.30000239303E+02 0.  0.
         12    1    1    2    0    0 -0.16024854292E+02  0.20163869509E+01 -0.37313502975E+02  0.40659061421E+02  0.00000000000E+00 0. -1.
         11    1    3    3    0    0 -0.13288472937E+01  0.89790755452E+01  0.10970692090E+02  0.14238880503E+02  0.51100000000E-03 0.  1.
        -11    1    3    3    0    0  0.11954662015E+02 -0.11900380197E+02  0.11355427706E+02  0.20334176437E+02  0.51100000000E-03 0. -1.
        -12    1    3    3    0    0  0.53990395704E+01  0.90491770064E+00  0.14987383179E+02  0.15955881639E+02  0.00000000000E+00 0.  1.
</event>
<event>
 7    1  0.3004200E-011  0.5052886E+02  0.7816164E-02  0.1300439E+00
        -11   -1    0    0    0    0  0.00000000000E+00  0.00000000000E+00  0.45593999997E+02  0.45594000000E+02  0.51100000000E-03 0.  1.
         11   -1    0    0    0    0 -0.00000000000E+00 -0.00000000000E+00 -0.45593999997E+02  0.45594000000E+02  0.51100000000E-03 0. -1.
    9900012    2    1    2    0    0  0.23627388760E+02  0.14219803718E+02  0.29878238956E+02  0.50528862276E+02  0.30000007373E+02 0.  0.
         12    1    1    2    0    0 -0.23627388760E+02 -0.14219803718E+02 -0.29878238956E+02  0.40659137724E+02  0.00000000000E+00 0. -1.
         11    1    3    3    0    0  0.12376855388E+02 -0.52676015539E+01  0.96572346912E+01  0.16558875492E+02  0.51100000000E-03 0. -1.
        -11    1    3    3    0    0  0.90648671152E+01  0.20179178386E+02  0.11459811045E+02  0.24913817964E+02  0.51100000000E-03 0.  1.
        -12    1    3    3    0    0  0.21856662565E+01 -0.69177311399E+00  0.87611932206E+01  0.90561688188E+01  0.00000000000E+00 0.  1.
</event>
<event>
 7    1  0.3004200E-011  0.5052886E+02  0.7816164E-02  0.1300439E+00
        -11   -1    0    0    0    0  0.00000000000E+00  0.00000000000E+00  0.45593999997E+02  0.45594000000E+02  0.51100000000E-03 0. -1.
         11   -1    0    0    0    0 -0.00000000000E+00 -0.00000000000E+00 -0.45593999997E+02  0.45594000000E+02  0.51100000000E-03 0.  1.
    9900012    2    1    2    0    0  0.31826753697E+02 -0.74523367360E+00 -0.25291658818E+02  0.50528860439E+02  0.30000001789E+02 0.  0.
         12    1    1    2    0    0 -0.31826753697E+02  0.74523367360E+00  0.25291658818E+02  0.40659139561E+02  0.00000000000E+00 0. -1.
         11    1    3    3    0    0  0.19681558434E+02  0.62685448388E+01 -0.91192928342E+01  0.22579191722E+02  0.51100000000E-03 0. -1.
        -11    1    3    3    0    0 -0.39408457183E+01 -0.35681927246E+01 -0.69319232875E+00  0.53612293517E+01  0.51100000000E-03 0.  1.
        -12    1    3    3    0    0  0.16086040981E+02 -0.34455857878E+01 -0.15479173655E+02  0.22588439365E+02  0.00000000000E+00 0.  1.
</event>
<event>
 7    1  0.3004200E-011  0.5052885E+02  0.7816164E-02  0.1300439E+00
        -11   -1    0    0    0    0  0.00000000000E+00  0.00000000000E+00  0.45593999997E+02  0.45594000000E+02  0.51100000000E-03 0.  1.
         11   -1    0    0    0    0 -0.00000000000E+00 -0.00000000000E+00 -0.45593999997E+02  0.45594000000E+02  0.51100000000E-03 0. -1.
    9900012    2    1    2    0    0 -0.29267648269E+00 -0.36217532458E+02  0.18476226140E+02  0.50528852822E+02  0.29999978638E+02 0.  0.
         12    1    1    2    0    0  0.29267648269E+00  0.36217532458E+02 -0.18476226140E+02  0.40659147178E+02  0.00000000000E+00 0. -1.
         11    1    3    3    0    0  0.12875942915E+01  0.79187078055E+00 -0.11660391941E+01  0.19090851359E+01  0.51100000000E-03 0. -1.
        -11    1    3    3    0    0  0.29073908495E+01 -0.34310605340E+02  0.72808639619E+01  0.35194907880E+02  0.51100000000E-03 0.  1.
        -12    1    3    3    0    0 -0.44876616237E+01 -0.26987978979E+01  0.12361401372E+02  0.13424859807E+02  0.00000000000E+00 0.  1.
</event>
<event>
 7    1  0.3004200E-011  0.5052886E+02  0.7816164E-02  0.1300439E+00
        -11   -1    0    0    0    0  0.00000000000E+00  0.00000000000E+00  0.45593999997E+02  0.45594000000E+02  0.51100000000E-03 0.  1.
         11   -1    0    0    0    0 -0.00000000000E+00 -0.00000000000E+00 -0.45593999997E+02  0.45594000000E+02  0.51100000000E-03 0. -1.
    9900012    2    1    2    0    0  0.36794087812E+02  0.17234612628E+02 -0.15260338707E+01  0.50528861424E+02  0.30000004785E+02 0.  0.
         12    1    1    2    0    0 -0.36794087812E+02 -0.17234612628E+02  0.15260338707E+01  0.40659138576E+02  0.00000000000E+00 0. -1.
         11    1    3    3    0    0  0.14506480130E+02  0.10939255702E+02 -0.11939033722E+02  0.21740418754E+02  0.51100000000E-03 0. -1.
        -11    1    3    3    0    0  0.16235149999E+02  0.10040088284E+02  0.10255821927E+02  0.21669456659E+02  0.51100000000E-03 0.  1.
         12    1    3    3    0    0  0.60524576823E+01 -0.37447313578E+01  0.15717792511E+00  0.71189860119E+01  0.00000000000E+00 0. -1.
</event>
<event>
 7    1  0.3004200E-011  0.5052885E+02  0.7816164E-02  0.1300439E+00
        -11   -1    0    0    0    0  0.00000000000E+00  0.00000000000E+00  0.45593999997E+02  0.45594000000E+02  0.51100000000E-03 0.  1.
         11   -1    0    0    0    0 -0.00000000000E+00 -0.00000000000E+00 -0.45593999997E+02  0.45594000000E+02  0.51100000000E-03 0. -1.
    9900012    2    1    2    0    0  0.31336478803E+02 -0.73526373640E+01  0.24842109819E+02  0.50528848506E+02  0.29999965518E+02 0.  0.
         12    1    1    2    0    0 -0.31336478803E+02  0.73526373640E+01 -0.24842109819E+02  0.40659151494E+02  0.00000000000E+00 0. -1.
         11    1    3    3    0    0  0.12292527551E+02  0.88264068095E+01  0.60232015561E+00  0.15145114083E+02  0.51100000000E-03 0. -1.
        -11    1    3    3    0    0  0.83597118016E+01 -0.98567455785E+01  0.91097709088E+01  0.15812278175E+02  0.51100000000E-03 0.  1.
         12    1    3    3    0    0  0.10684239450E+02 -0.63222985950E+01  0.15130018755E+02  0.19571456248E+02  0.00000000000E+00 0. -1.
</event>
<event>
 7    1  0.3004200E-011  0.5052885E+02  0.7816164E-02  0.1300439E+00
        -11   -1    0    0    0    0  0.00000000000E+00  0.00000000000E+00  0.45593999997E+02  0.45594000000E+02  0.51100000000E-03 0.  1.
         11   -1    0    0    0    0 -0.00000000000E+00 -0.00000000000E+00 -0.45593999997E+02  0.45594000000E+02  0.51100000000E-03 0. -1.
    9900012    2    1    2    0    0  0.16435740759E+02 -0.15676433227E+02  0.33723614429E+02  0.50528852159E+02  0.29999976623E+02 0.  0.
         12    1    1    2    0    0 -0.16435740759E+02  0.15676433227E+02 -0.33723614429E+02  0.40659147841E+02  0.00000000000E+00 0. -1.
         11    1    3    3    0    0 -0.11946468820E+00 -0.11067810435E+02  0.94359670994E+01  0.14544695768E+02  0.51100000000E-03 0. -1.
        -11    1    3    3    0    0  0.17977187020E+02 -0.96123369101E+01  0.14895926004E+02  0.25248066972E+02  0.51100000000E-03 0.  1.
         12    1    3    3    0    0 -0.14219815722E+01  0.50037141183E+01  0.93917213248E+01  0.10736089419E+02  0.00000000000E+00 0. -1.
</event>
<event>
 7    1  0.3004200E-011  0.5052886E+02  0.7816164E-02  0.1300439E+00
        -11   -1    0    0    0    0  0.00000000000E+00  0.00000000000E+00  0.45593999997E+02  0.45594000000E+02  0.51100000000E-03 0. -1.
         11   -1    0    0    0    0 -0.00000000000E+00 -0.00000000000E+00 -0.45593999997E+02  0.45594000000E+02  0.51100000000E-03 0.  1.
    9900012    2    1    2    0    0  0.24649414687E+02 -0.25703225948E+02 -0.19619290069E+02  0.50528855747E+02  0.29999987529E+02 0.  0.
         12    1    1    2    0    0 -0.24649414687E+02  0.25703225948E+02  0.19619290069E+02  0.40659144253E+02  0.00000000000E+00 0. -1.
         11    1    3    3    0    0  0.65931209604E+01 -0.26754285955E+01 -0.47740557537E+01  0.85684754051E+01  0.51100000000E-03 0. -1.
        -11    1    3    3    0    0  0.13800600855E+02 -0.28829892342E+02 -0.13187253231E+02  0.34576334746E+02  0.51100000000E-03 0.  1.
        -12    1    3    3    0    0  0.42556928717E+01  0.58020949896E+01 -0.16579810847E+01  0.73840455960E+01  0.00000000000E+00 0.  1.
</event>
<event>
 7    1  0.3004200E-011  0.5052886E+02  0.7816164E-02  0.1300439E+00
        -11   -1    0    0    0    0  0.00000000000E+00  0.00000000000E+00  0.45593999997E+02  0.45594000000E+02  0.51100000000E-03 0.  1.
         11   -1    0    0    0    0 -0.00000000000E+00 -0.00000000000E+00 -0.45593999997E+02  0.45594000000E+02  0.51100000000E-03 0. -1.
    9900012    2    1    2    0    0  0.82638671953E+01  0.22523795616E+02  0.32826104520E+02  0.50528855789E+02  0.29999987657E+02 0.  0.
         12    1    1    2    0    0 -0.82638671953E+01 -0.22523795616E+02 -0.32826104520E+02  0.40659144211E+02  0.00000000000E+00 0. -1.
         11    1    3    3    0    0  0.55083042046E+00 -0.54771942897E+01  0.59509853082E+01  0.81066206176E+01  0.51100000000E-03 0. -1.
        -11    1    3    3    0    0  0.31449671778E+01  0.23409374543E+02  0.12654295635E+02  0.26795910758E+02  0.51100000000E-03 0.  1.
        -12    1    3    3    0    0  0.45680695971E+01  0.45916153626E+01  0.14220823577E+02  0.15626324414E+02  0.00000000000E+00 0.  1.
</event>
<event>
 7    1  0.3004200E-011  0.5052887E+02  0.7816164E-02  0.1300439E+00
        -11   -1    0    0    0    0  0.00000000000E+00  0.00000000000E+00  0.45593999997E+02  0.45594000000E+02  0.51100000000E-03 0.  1.
         11   -1    0    0    0    0 -0.00000000000E+00 -0.00000000000E+00 -0.45593999997E+02  0.45594000000E+02  0.51100000000E-03 0. -1.
    9900012    2    1    2    0    0 -0.16261385585E+01  0.31636796989E+02  0.25487905066E+02  0.50528873657E+02  0.30000041968E+02 0.  0.
         12    1    1    2    0    0  0.16261385585E+01 -0.31636796989E+02 -0.25487905066E+02  0.40659126343E+02  0.00000000000E+00 0. -1.
         11    1    3    3    0    0  0.55964234541E+01  0.28142082135E+02  0.92661815911E+01  0.30152261340E+02  0.51100000000E-03 0. -1.
        -11    1    3    3    0    0  0.19249364383E+01  0.69671442954E+00  0.61695192405E+01  0.65002891634E+01  0.51100000000E-03 0.  1.
         12    1    3    3    0    0 -0.91474984509E+01  0.27980004238E+01  0.10052204235E+02  0.13876323153E+02  0.00000000000E+00 0. -1.
</event>
<event>
 7    1  0.3004200E-011  0.5052877E+02  0.7816164E-02  0.1300439E+00
        -11   -1    0    0    0    0  0.00000000000E+00  0.00000000000E+00  0.45593999997E+02  0.45594000000E+02  0.51100000000E-03 0.  1.
         11   -1    0    0    0    0 -0.00000000000E+00 -0.00000000000E+00 -0.45593999997E+02  0.45594000000E+02  0.51100000000E-03 0. -1.
    9900012    2    1    2    0    0  0.18061452501E+02  0.33330774826E+02  0.14697499883E+02  0.50528768333E+02  0.29999721824E+02 0.  0.
         12    1    1    2    0    0 -0.18061452501E+02 -0.33330774826E+02 -0.14697499883E+02  0.40659231667E+02  0.00000000000E+00 0. -1.
         11    1    3    3    0    0 -0.85828471216E-02 -0.18980073110E+01 -0.58802393991E-01  0.18989374398E+01  0.51100000000E-03 0. -1.
        -11    1    3    3    0    0  0.16301688894E+02  0.38642224484E+02  0.15503084921E+02  0.44713669232E+02  0.51100000000E-03 0.  1.
        -12    1    3    3    0    0  0.17683464541E+01 -0.34134423470E+01 -0.74678264438E+00  0.39161616611E+01  0.00000000000E+00 0.  1.
</event>
<event>
 7    1  0.3004200E-011  0.5052886E+02  0.7816164E-02  0.1300439E+00
        -11   -1    0    0    0    0  0.00000000000E+00  0.00000000000E+00  0.45593999997E+02  0.45594000000E+02  0.51100000000E-03 0.  1.
         11   -1    0    0    0    0 -0.00000000000E+00 -0.00000000000E+00 -0.45593999997E+02  0.45594000000E+02  0.51100000000E-03 0. -1.
    9900012    2    1    2    0    0  0.76499427143E+01  0.19351834730E+01  0.39886073998E+02  0.50528862557E+02  0.30000008229E+02 0.  0.
         12    1    1    2    0    0 -0.76499427143E+01 -0.19351834730E+01 -0.39886073998E+02  0.40659137443E+02  0.00000000000E+00 0. -1.
         11    1    3    3    0    0  0.55569450420E+01  0.14377900396E+01  0.37442071981E+02  0.37879488287E+02  0.51100000000E-03 0. -1.
        -11    1    3    3    0    0  0.67250995110E+01 -0.41875106352E-01 -0.10705677559E+01  0.68099069406E+01  0.51100000000E-03 0.  1.
         12    1    3    3    0    0 -0.46321018388E+01  0.53926853974E+00  0.35145697733E+01  0.58394673297E+01  0.00000000000E+00 0. -1.
</event>
<event>
 7    1  0.3004200E-011  0.5052886E+02  0.7816164E-02  0.1300439E+00
        -11   -1    0    0    0    0  0.00000000000E+00  0.00000000000E+00  0.45593999997E+02  0.45594000000E+02  0.51100000000E-03 0. -1.
         11   -1    0    0    0    0 -0.00000000000E+00 -0.00000000000E+00 -0.45593999997E+02  0.45594000000E+02  0.51100000000E-03 0.  1.
    9900012    2    1    2    0    0  0.24151219553E+02  0.32231882809E+02 -0.55668518936E+01  0.50528861848E+02  0.30000006073E+02 0.  0.
         12    1    1    2    0    0 -0.24151219553E+02 -0.32231882809E+02  0.55668518936E+01  0.40659138152E+02  0.00000000000E+00 0. -1.
         11    1    3    3    0    0 -0.29302831708E+01  0.54839852684E+01 -0.54196240738E+01  0.82482106694E+01  0.51100000000E-03 0. -1.
        -11    1    3    3    0    0  0.25840563336E+02  0.23757438314E+02  0.57338653030E+01  0.35567229304E+02  0.51100000000E-03 0.  1.
        -12    1    3    3    0    0  0.12409393870E+01  0.29904592259E+01 -0.58810931228E+01  0.67134218744E+01  0.00000000000E+00 0.  1.
</event>
<event>
 7    1  0.3004200E-011  0.5052886E+02  0.7816164E-02  0.1300439E+00
        -11   -1    0    0    0    0  0.00000000000E+00  0.00000000000E+00  0.45593999997E+02  0.45594000000E+02  0.51100000000E-03 0.  1.
         11   -1    0    0    0    0 -0.00000000000E+00 -0.00000000000E+00 -0.45593999997E+02  0.45594000000E+02  0.51100000000E-03 0. -1.
    9900012    2    1    2    0    0 -0.72035598951E+00  0.40256334274E+02  0.56633898423E+01  0.50528863924E+02  0.30000012384E+02 0.  0.
         12    1    1    2    0    0  0.72035598951E+00 -0.40256334274E+02 -0.56633898423E+01  0.40659136076E+02  0.00000000000E+00 0. -1.
         11    1    3    3    0    0  0.10219505926E+02  0.10237940513E+02  0.91137184679E+01  0.17097180817E+02  0.51100000000E-03 0. -1.
        -11    1    3    3    0    0 -0.36579996822E+01  0.11369147668E+02  0.31494758817E+01  0.12351424167E+02  0.51100000000E-03 0.  1.
         12    1    3    3    0    0 -0.72818622336E+01  0.18649246093E+02 -0.65998045073E+01  0.21080258940E+02  0.00000000000E+00 0. -1.
</event>
<event>
 7    1  0.3004200E-011  0.5052887E+02  0.7816164E-02  0.1300439E+00
        -11   -1    0    0    0    0  0.00000000000E+00  0.00000000000E+00  0.45593999997E+02  0.45594000000E+02  0.51100000000E-03 0. -1.
         11   -1    0    0    0    0 -0.00000000000E+00 -0.00000000000E+00 -0.45593999997E+02  0.45594000000E+02  0.51100000000E-03 0.  1.
    9900012    2    1    2    0    0  0.37618030249E+02  0.14064868849E+02 -0.63425823269E+01  0.50528867126E+02  0.30000022115E+02 0.  0.
         12    1    1    2    0    0 -0.37618030249E+02 -0.14064868849E+02  0.63425823269E+01  0.40659132874E+02  0.00000000000E+00 0. -1.
         11    1    3    3    0    0 -0.59538060545E+00  0.11173819641E+02  0.11076516067E+01  0.11244359288E+02  0.51100000000E-03 0.  1.
        -11    1    3    3    0    0  0.26431731811E+02  0.11772083852E+01 -0.70093657665E+01  0.27370668147E+02  0.51100000000E-03 0. -1.
        -12    1    3    3    0    0  0.11781679043E+02  0.17138408219E+01 -0.44086816709E+00  0.11913839691E+02  0.00000000000E+00 0.  1.
</event>
<event>
 7    1  0.3004200E-011  0.5052886E+02  0.7816164E-02  0.1300439E+00
        -11   -1    0    0    0    0  0.00000000000E+00  0.00000000000E+00  0.45593999997E+02  0.45594000000E+02  0.51100000000E-03 0. -1.
         11   -1    0    0    0    0 -0.00000000000E+00 -0.00000000000E+00 -0.45593999997E+02  0.45594000000E+02  0.51100000000E-03 0.  1.
    9900012    2    1    2    0    0  0.37363064105E+02 -0.12903586188E+02 -0.95217748094E+01  0.50528864601E+02  0.30000014443E+02 0.  0.
         12    1    1    2    0    0 -0.37363064105E+02  0.12903586188E+02  0.95217748094E+01  0.40659135399E+02  0.00000000000E+00 0. -1.
         11    1    3    3    0    0  0.14350999013E+00  0.51867388056E+01 -0.54300028544E+01  0.75105116880E+01  0.51100000000E-03 0. -1.
        -11    1    3    3    0    0  0.30785835651E+02 -0.17535798941E+02 -0.66931746030E+01  0.36056490508E+02  0.51100000000E-03 0.  1.
        -12    1    3    3    0    0  0.64337184644E+01 -0.55452605287E+00  0.26014026480E+01  0.69618624059E+01  0.00000000000E+00 0.  1.
</event>
<event>
 7    1  0.3004200E-011  0.5052886E+02  0.7816164E-02  0.1300439E+00
        -11   -1    0    0    0    0  0.00000000000E+00  0.00000000000E+00  0.45593999997E+02  0.45594000000E+02  0.51100000000E-03 0. -1.
         11   -1    0    0    0    0 -0.00000000000E+00 -0.00000000000E+00 -0.45593999997E+02  0.45594000000E+02  0.51100000000E-03 0.  1.
    9900012    2    1    2    0    0  0.35343885615E+02 -0.18336149072E+02 -0.82317119913E+01  0.50528859632E+02  0.29999999338E+02 0.  0.
         12    1    1    2    0    0 -0.35343885615E+02  0.18336149072E+02  0.82317119913E+01  0.40659140368E+02  0.00000000000E+00 0. -1.
         11    1    3    3    0    0  0.12635725928E+02  0.18972784355E+01  0.72715989161E+01  0.14701611689E+02  0.51100000000E-03 0. -1.
        -11    1    3    3    0    0  0.14604054350E+02 -0.60293851622E+01 -0.59175105934E+01  0.16871538779E+02  0.51100000000E-03 0.  1.
         12    1    3    3    0    0  0.81041053366E+01 -0.14204042346E+02 -0.95858003140E+01  0.18955709164E+02  0.00000000000E+00 0. -1.
</event>
<event>
 7    1  0.3004200E-011  0.5052886E+02  0.7816164E-02  0.1300439E+00
        -11   -1    0    0    0    0  0.00000000000E+00  0.00000000000E+00  0.45593999997E+02  0.45594000000E+02  0.51100000000E-03 0. -1.
         11   -1    0    0    0    0 -0.00000000000E+00 -0.00000000000E+00 -0.45593999997E+02  0.45594000000E+02  0.51100000000E-03 0.  1.
    9900012    2    1    2    0    0 -0.19061892780E+02  0.35913751183E+02 -0.11204363169E+00  0.50528857926E+02  0.29999994151E+02 0.  0.
         12    1    1    2    0    0  0.19061892780E+02 -0.35913751183E+02  0.11204363169E+00  0.40659142074E+02  0.00000000000E+00 0. -1.
         11    1    3    3    0    0 -0.29386413582E+01 -0.28280653777E+01  0.25176535912E+01  0.47929267342E+01  0.51100000000E-03 0. -1.
        -11    1    3    3    0    0 -0.12105034659E+02  0.36483129058E+02  0.28867037970E+01  0.38547161102E+02  0.51100000000E-03 0.  1.
        -12    1    3    3    0    0 -0.40182167627E+01  0.22586875037E+01 -0.55164010199E+01  0.71887700898E+01  0.00000000000E+00 0.  1.
</event>
<event>
 7    1  0.3004200E-011  0.5052887E+02  0.7816164E-02  0.1300439E+00
        -11   -1    0    0    0    0  0.00000000000E+00  0.00000000000E+00  0.45593999997E+02  0.45594000000E+02  0.51100000000E-03 0.  1.
         11   -1    0    0    0    0 -0.00000000000E+00 -0.00000000000E+00 -0.45593999997E+02  0.45594000000E+02  0.51100000000E-03 0. -1.
    9900012    2    1    2    0    0 -0.16498171479E+02  0.36700037829E+02  0.58380444780E+01  0.50528865699E+02  0.30000017778E+02 0.  0.
         12    1    1    2    0    0  0.16498171479E+02 -0.36700037829E+02 -0.58380444780E+01  0.40659134301E+02  0.00000000000E+00 0. -1.
         11    1    3    3    0    0 -0.18321974074E+02  0.14823713587E+02 -0.19646596817E+01  0.23649463131E+02  0.51100000000E-03 0. -1.
        -11    1    3    3    0    0 -0.16420957439E+01  0.22181919285E+02  0.67571232652E+01  0.23246348890E+02  0.51100000000E-03 0.  1.
         12    1    3    3    0    0  0.34658983384E+01 -0.30559504323E+00  0.10455808945E+01  0.36330536783E+01  0.00000000000E+00 0. -1.
</event>
<event>
 7    1  0.3004200E-011  0.5052885E+02  0.7816164E-02  0.1300439E+00
        -11   -1    0    0    0    0  0.00000000000E+00  0.00000000000E+00  0.45593999997E+02  0.45594000000E+02  0.51100000000E-03 0.  1.
         11   -1    0    0    0    0 -0.00000000000E+00 -0.00000000000E+00 -0.45593999997E+02  0.45594000000E+02  0.51100000000E-03 0. -1.
    9900012    2    1    2    0    0  0.23466149991E+02 -0.33159369191E+02 -0.17212451016E+01  0.50528847953E+02  0.29999963837E+02 0.  0.
         12    1    1    2    0    0 -0.23466149991E+02  0.33159369191E+02  0.17212451016E+01  0.40659152047E+02  0.00000000000E+00 0. -1.
         11    1    3    3    0    0 -0.72572412776E-01  0.12338351135E+01  0.47447462205E+00  0.13239117307E+01  0.51100000000E-03 0. -1.
        -11    1    3    3    0    0 -0.35173795892E+01 -0.14405545050E+02  0.31082119446E+01  0.15150995648E+02  0.51100000000E-03 0.  1.
        -12    1    3    3    0    0  0.27056101993E+02 -0.19987659254E+02 -0.53039316682E+01  0.34053940574E+02  0.00000000000E+00 0.  1.
</event>
<event>
 7    1  0.3004200E-011  0.5052879E+02  0.7816164E-02  0.1300439E+00
        -11   -1    0    0    0    0  0.00000000000E+00  0.00000000000E+00  0.45593999997E+02  0.45594000000E+02  0.51100000000E-03 0.  1.
         11   -1    0    0    0    0 -0.00000000000E+00 -0.00000000000E+00 -0.45593999997E+02  0.45594000000E+02  0.51100000000E-03 0. -1.
    9900012    2    1    2    0    0 -0.29507950937E+02 -0.18458723625E+02  0.21017320143E+02  0.50528789575E+02  0.29999786393E+02 0.  0.
         12    1    1    2    0    0  0.29507950937E+02  0.18458723625E+02 -0.21017320143E+02  0.40659210425E+02  0.00000000000E+00 0. -1.
         11    1    3    3    0    0  0.40161393033E+01  0.15078855249E+01 -0.48758579985E-02  0.42898855107E+01  0.51100000000E-03 0. -1.
        -11    1    3    3    0    0 -0.22052512237E+02 -0.13120795419E+02  0.64275237530E+01  0.26453385988E+02  0.51100000000E-03 0.  1.
        -12    1    3    3    0    0 -0.11471578004E+02 -0.68458137300E+01  0.14594672248E+02  0.19785518076E+02  0.00000000000E+00 0.  1.
</event>
<event>
 7    1  0.3004200E-011  0.5052886E+02  0.7816164E-02  0.1300439E+00
        -11   -1    0    0    0    0  0.00000000000E+00  0.00000000000E+00  0.45593999997E+02  0.45594000000E+02  0.51100000000E-03 0.  1.
         11   -1    0    0    0    0 -0.00000000000E+00 -0.00000000000E+00 -0.45593999997E+02  0.45594000000E+02  0.51100000000E-03 0. -1.
    9900012    2    1    2    0    0  0.47085974483E+01  0.36801040428E+02 -0.16633645575E+02  0.50528860417E+02  0.30000001723E+02 0.  0.
         12    1    1    2    0    0 -0.47085974483E+01 -0.36801040428E+02  0.16633645575E+02  0.40659139583E+02  0.00000000000E+00 0. -1.
         11    1    3    3    0    0 -0.59845690141E+00 -0.51035236820E+01 -0.29670615945E+00  0.51470515289E+01  0.51100000000E-03 0. -1.
        -11    1    3    3    0    0  0.35495152185E+01  0.27200309783E+02 -0.91145265010E+01  0.28905544523E+02  0.51100000000E-03 0.  1.
         12    1    3    3    0    0  0.17575391313E+01  0.14704254327E+02 -0.72224129141E+01  0.16476264365E+02  0.00000000000E+00 0. -1.
</event>
<event>
 7    1  0.3004200E-011  0.5052886E+02  0.7816164E-02  0.1300439E+00
        -11   -1    0    0    0    0  0.00000000000E+00  0.00000000000E+00  0.45593999997E+02  0.45594000000E+02  0.51100000000E-03 0.  1.
         11   -1    0    0    0    0 -0.00000000000E+00 -0.00000000000E+00 -0.45593999997E+02  0.45594000000E+02  0.51100000000E-03 0. -1.
    9900012    2    1    2    0    0 -0.86604077914E+01  0.38516934685E+02  0.97267125922E+01  0.50528857627E+02  0.29999993244E+02 0.  0.
         12    1    1    2    0    0  0.86604077914E+01 -0.38516934685E+02 -0.97267125922E+01  0.40659142373E+02  0.00000000000E+00 0. -1.
         11    1    3    3    0    0 -0.16623344936E+02  0.35023050319E+02  0.26851471936E+01  0.38860772846E+02  0.51100000000E-03 0. -1.
        -11    1    3    3    0    0  0.34939281413E+01  0.78089074954E+00  0.10813479479E+01  0.37398713701E+01  0.51100000000E-03 0.  1.
         12    1    3    3    0    0  0.44690090030E+01  0.27129936162E+01  0.59602174507E+01  0.79282134110E+01  0.00000000000E+00 0. -1.
</event>
<event>
 7    1  0.3004200E-011  0.5052886E+02  0.7816164E-02  0.1300439E+00
        -11   -1    0    0    0    0  0.00000000000E+00  0.00000000000E+00  0.45593999997E+02  0.45594000000E+02  0.51100000000E-03 0. -1.
         11   -1    0    0    0    0 -0.00000000000E+00 -0.00000000000E+00 -0.45593999997E+02  0.45594000000E+02  0.51100000000E-03 0.  1.
    9900012    2    1    2    0    0  0.13204503035E+02 -0.20205028920E+02 -0.32719464341E+02  0.50528862763E+02  0.30000008855E+02 0.  0.
         12    1    1    2    0    0 -0.13204503035E+02  0.20205028920E+02  0.32719464341E+02  0.40659137237E+02  0.00000000000E+00 0. -1.
         11    1    3    3    0    0  0.12104331202E+01 -0.23563632134E+01  0.33276263056E+01  0.42533155330E+01  0.51100000000E-03 0. -1.
        -11    1    3    3    0    0  0.16132892703E+02 -0.18653318571E+02 -0.29054031335E+02  0.38109752790E+02  0.51100000000E-03 0.  1.
        -12    1    3    3    0    0 -0.41388227873E+01  0.80465286433E+00 -0.69930593121E+01  0.81657944402E+01  0.00000000000E+00 0.  1.
</event>
<event>
 7    1  0.3004200E-011  0.5052886E+02  0.7816164E-02  0.1300439E+00
        -11   -1    0    0    0    0  0.00000000000E+00  0.00000000000E+00  0.45593999997E+02  0.45594000000E+02  0.51100000000E-03 0.  1.
         11   -1    0    0    0    0 -0.00000000000E+00 -0.00000000000E+00 -0.45593999997E+02  0.45594000000E+02  0.51100000000E-03 0. -1.
    9900012    2    1    2    0    0 -0.49783133688E+01  0.38117777789E+02  0.13244500974E+02  0.50528863344E+02  0.30000010620E+02 0.  0.
         12    1    1    2    0    0  0.49783133688E+01 -0.38117777789E+02 -0.13244500974E+02  0.40659136656E+02  0.00000000000E+00 0. -1.
         11    1    3    3    0    0 -0.15422577642E+02  0.16724662166E+02 -0.51799590825E+00  0.22756066130E+02  0.51100000000E-03 0. -1.
        -11    1    3    3    0    0  0.55746682783E+01  0.71419553707E+01  0.53765320353E+01  0.10535252722E+02  0.51100000000E-03 0.  1.
         12    1    3    3    0    0  0.48695959952E+01  0.14251160252E+02  0.83859648469E+01  0.17237544491E+02  0.00000000000E+00 0. -1.
</event>
<event>
 7    1  0.3004200E-011  0.5052886E+02  0.7816164E-02  0.1300439E+00
        -11   -1    0    0    0    0  0.00000000000E+00  0.00000000000E+00  0.45593999997E+02  0.45594000000E+02  0.51100000000E-03 0.  1.
         11   -1    0    0    0    0 -0.00000000000E+00 -0.00000000000E+00 -0.45593999997E+02  0.45594000000E+02  0.51100000000E-03 0. -1.
    9900012    2    1    2    0    0  0.59067584956E+01  0.27697320744E+02  0.29174212095E+02  0.50528855596E+02  0.29999987069E+02 0.  0.
         12    1    1    2    0    0 -0.59067584956E+01 -0.27697320744E+02 -0.29174212095E+02  0.40659144404E+02  0.00000000000E+00 0. -1.
         11    1    3    3    0    0 -0.41062136275E+01  0.29286080527E+01 -0.37331315825E+01  0.62748710867E+01  0.51100000000E-03 0. -1.
        -11    1    3    3    0    0 -0.57809259892E+00  0.23414121437E+01  0.10680886774E+02  0.10949782848E+02  0.51100000000E-03 0.  1.
         12    1    3    3    0    0  0.10591064722E+02  0.22427300548E+02  0.22226456903E+02  0.33304201661E+02  0.00000000000E+00 0. -1.
</event>
<event>
 7    1  0.3004200E-011  0.5052889E+02  0.7816164E-02  0.1300439E+00
        -11   -1    0    0    0    0  0.00000000000E+00  0.00000000000E+00  0.45593999997E+02  0.45594000000E+02  0.51100000000E-03 0.  1.
         11   -1    0    0    0    0 -0.00000000000E+00 -0.00000000000E+00 -0.45593999997E+02  0.45594000000E+02  0.51100000000E-03 0. -1.
    9900012    2    1    2    0    0  0.28184833306E+02  0.29161226222E+02  0.28985197645E+01  0.50528888352E+02  0.30000086633E+02 0.  0.
         12    1    1    2    0    0 -0.28184833306E+02 -0.29161226222E+02 -0.28985197645E+01  0.40659111648E+02  0.00000000000E+00 0. -1.
         11    1    3    3    0    0  0.27412958982E+02  0.25689875477E+02 -0.26862006498E+01  0.37665046082E+02  0.51100000000E-03 0. -1.
        -11    1    3    3    0    0  0.26955034291E+01  0.34977769936E+01  0.83789545741E+01  0.94713812429E+01  0.51100000000E-03 0.  1.
         12    1    3    3    0    0 -0.19236291049E+01 -0.26426249010E-01 -0.27942341597E+01  0.33924610269E+01  0.00000000000E+00 0. -1.
</event>
<event>
 7    1  0.3004200E-011  0.5052886E+02  0.7816164E-02  0.1300439E+00
        -11   -1    0    0    0    0  0.00000000000E+00  0.00000000000E+00  0.45593999997E+02  0.45594000000E+02  0.51100000000E-03 0.  1.
         11   -1    0    0    0    0 -0.00000000000E+00 -0.00000000000E+00 -0.45593999997E+02  0.45594000000E+02  0.51100000000E-03 0. -1.
    9900012    2    1    2    0    0 -0.37632365368E+02 -0.65429748984E+01  0.13934135474E+02  0.50528861112E+02  0.30000003836E+02 0.  0.
         12    1    1    2    0    0  0.37632365368E+02  0.65429748984E+01 -0.13934135474E+02  0.40659138888E+02  0.00000000000E+00 0. -1.
         11    1    3    3    0    0 -0.38577340683E+01  0.87845365215E+01  0.46992944241E+01  0.10683331053E+02  0.51100000000E-03 0. -1.
        -11    1    3    3    0    0 -0.83619261970E+01 -0.92336851687E+01  0.12502051090E+01  0.12519814879E+02  0.51100000000E-03 0.  1.
         12    1    3    3    0    0 -0.25412705103E+02 -0.60938262512E+01  0.79846359414E+01  0.27325715180E+02  0.00000000000E+00 0. -1.
</event>
<event>
 7    1  0.3004200E-011  0.5052886E+02  0.7816164E-02  0.1300439E+00
        -11   -1    0    0    0    0  0.00000000000E+00  0.00000000000E+00  0.45593999997E+02  0.45594000000E+02  0.51100000000E-03 0.  1.
         11   -1    0    0    0    0 -0.00000000000E+00 -0.00000000000E+00 -0.45593999997E+02  0.45594000000E+02  0.51100000000E-03 0. -1.
    9900012    2    1    2    0    0  0.28920922054E+01  0.97712050228E+01  0.39361463402E+02  0.50528862699E+02  0.30000008658E+02 0.  0.
         12    1    1    2    0    0 -0.28920922054E+01 -0.97712050228E+01 -0.39361463402E+02  0.40659137301E+02  0.00000000000E+00 0. -1.
         11    1    3    3    0    0 -0.25971905563E+00 -0.12598020615E+01  0.83083620427E+01  0.84073441297E+01  0.51100000000E-03 0. -1.
        -11    1    3    3    0    0 -0.14062633685E+01  0.11045195165E+02  0.41066700078E+00  0.11141928044E+02  0.51100000000E-03 0.  1.
        -12    1    3    3    0    0  0.45580746295E+01 -0.14188080798E-01  0.30642434359E+02  0.30979590525E+02  0.00000000000E+00 0.  1.
</event>
<event>
 7    1  0.3004200E-011  0.5052886E+02  0.7816164E-02  0.1300439E+00
        -11   -1    0    0    0    0  0.00000000000E+00  0.00000000000E+00  0.45593999997E+02  0.45594000000E+02  0.51100000000E-03 0. -1.
         11   -1    0    0    0    0 -0.00000000000E+00 -0.00000000000E+00 -0.45593999997E+02  0.45594000000E+02  0.51100000000E-03 0.  1.
    9900012    2    1    2    0    0  0.39174480668E+02 -0.32056575818E+01  0.10404301612E+02  0.50528859968E+02  0.30000000358E+02 0.  0.
         12    1    1    2    0    0 -0.39174480668E+02  0.32056575818E+01 -0.10404301612E+02  0.40659140032E+02  0.00000000000E+00 0. -1.
         11    1    3    3    0    0 -0.85292633853E+00 -0.17959786487E+01 -0.53535145986E+01  0.57107916670E+01  0.51100000000E-03 0. -1.
        -11    1    3    3    0    0  0.36921523989E+02 -0.36110230307E+01  0.10938850340E+02  0.38676825982E+02  0.51100000000E-03 0.  1.
         12    1    3    3    0    0  0.31058830172E+01  0.22013440976E+01  0.48189658709E+01  0.61412423187E+01  0.00000000000E+00 0. -1.
</event>
<event>
 7    1  0.3004200E-011  0.5052886E+02  0.7816164E-02  0.1300439E+00
        -11   -1    0    0    0    0  0.00000000000E+00  0.00000000000E+00  0.45593999997E+02  0.45594000000E+02  0.51100000000E-03 0.  1.
         11   -1    0    0    0    0 -0.00000000000E+00 -0.00000000000E+00 -0.45593999997E+02  0.45594000000E+02  0.51100000000E-03 0. -1.
    9900012    2    1    2    0    0  0.39132768755E+02 -0.10885499013E+02 -0.18160974903E+01  0.50528857248E+02  0.29999992092E+02 0.  0.
         12    1    1    2    0    0 -0.39132768755E+02  0.10885499013E+02  0.18160974903E+01  0.40659142752E+02  0.00000000000E+00 0. -1.
         11    1    3    3    0    0  0.36446874823E+02 -0.17172071168E+02 -0.72670166298E+01  0.40939763599E+02  0.51100000000E-03 0. -1.
        -11    1    3    3    0    0  0.17612069975E+01  0.25858833688E+01  0.24909563338E+00  0.31385811732E+01  0.51100000000E-03 0.  1.
         12    1    3    3    0    0  0.92468693476E+00  0.37006887862E+01  0.52018235061E+01  0.64505124764E+01  0.00000000000E+00 0. -1.
</event>
<event>
 7    1  0.3004200E-011  0.5052886E+02  0.7816164E-02  0.1300439E+00
        -11   -1    0    0    0    0  0.00000000000E+00  0.00000000000E+00  0.45593999997E+02  0.45594000000E+02  0.51100000000E-03 0.  1.
         11   -1    0    0    0    0 -0.00000000000E+00 -0.00000000000E+00 -0.45593999997E+02  0.45594000000E+02  0.51100000000E-03 0. -1.
    9900012    2    1    2    0    0  0.26606573720E+02  0.30743927729E+02  0.25901093401E+00  0.50528856576E+02  0.29999990050E+02 0.  0.
         12    1    1    2    0    0 -0.26606573720E+02 -0.30743927729E+02 -0.25901093401E+00  0.40659143424E+02  0.00000000000E+00 0. -1.
         11    1    3    3    0    0  0.12292164427E+02 -0.36842610111E+01 -0.23580071552E+01  0.13047271113E+02  0.51100000000E-03 0. -1.
        -11    1    3    3    0    0  0.28814437661E+01  0.91754960894E+01  0.15452016076E+01  0.97406414026E+01  0.51100000000E-03 0.  1.
         12    1    3    3    0    0  0.11432965527E+02  0.25252692650E+02  0.10718164815E+01  0.27740944061E+02  0.00000000000E+00 0. -1.
</event>
<event>
 7    1  0.3004200E-011  0.5052886E+02  0.7816164E-02  0.1300439E+00
        -11   -1    0    0    0    0  0.00000000000E+00  0.00000000000E+00  0.45593999997E+02  0.45594000000E+02  0.51100000000E-03 0.  1.
         11   -1    0    0    0    0 -0.00000000000E+00 -0.00000000000E+00 -0.45593999997E+02  0.45594000000E+02  0.51100000000E-03 0. -1.
    9900012    2    1    2    0    0 -0.26819455554E+02 -0.10838417142E+02  0.28572912489E+02  0.50528858218E+02  0.29999995040E+02 0.  0.
         12    1    1    2    0    0  0.26819455554E+02  0.10838417142E+02 -0.28572912489E+02  0.40659141782E+02  0.00000000000E+00 0. -1.
         11    1    3    3    0    0 -0.10383151994E+02  0.24817037190E+00 -0.25545920929E+01  0.10695670848E+02  0.51100000000E-03 0. -1.
        -11    1    3    3    0    0 -0.11732952374E+02 -0.14340833841E+02  0.19641874313E+02  0.27002313113E+02  0.51100000000E-03 0.  1.
         12    1    3    3    0    0 -0.47033511853E+01  0.32542463264E+01  0.11485630268E+02  0.12830874257E+02  0.00000000000E+00 0. -1.
</event>
<event>
 7    1  0.3004200E-011  0.5052886E+02  0.7816164E-02  0.1300439E+00
        -11   -1    0    0    0    0  0.00000000000E+00  0.00000000000E+00  0.45593999997E+02  0.45594000000E+02  0.51100000000E-03 0. -1.
         11   -1    0    0    0    0 -0.00000000000E+00 -0.00000000000E+00 -0.45593999997E+02  0.45594000000E+02  0.51100000000E-03 0.  1.
    9900012    2    1    2    0    0 -0.15908110311E+02  0.83592122195E+01 -0.36472197519E+02  0.50528860874E+02  0.30000003112E+02 0.  0.
         12    1    1    2    0    0  0.15908110311E+02 -0.83592122195E+01  0.36472197519E+02  0.40659139126E+02  0.00000000000E+00 0. -1.
         11    1    3    3    0    0 -0.10666398573E+02  0.34853090383E+01  0.97766465370E+00  0.11263892135E+02  0.51100000000E-03 0.  1.
        -11    1    3    3    0    0 -0.16553972764E+01  0.70057120740E+01 -0.28425825335E+02  0.29323162995E+02  0.51100000000E-03 0. -1.
        -12    1    3    3    0    0 -0.35863144618E+01 -0.21318088927E+01 -0.90240368380E+01  0.99418057428E+01  0.00000000000E+00 0.  1.
</event>
<event>
 7    1  0.3004200E-011  0.5052885E+02  0.7816164E-02  0.1300439E+00
        -11   -1    0    0    0    0  0.00000000000E+00  0.00000000000E+00  0.45593999997E+02  0.45594000000E+02  0.51100000000E-03 0.  1.
         11   -1    0    0    0    0 -0.00000000000E+00 -0.00000000000E+00 -0.45593999997E+02  0.45594000000E+02  0.51100000000E-03 0. -1.
    9900012    2    1    2    0    0  0.34970902082E+02  0.14765810740E+02  0.14566175657E+02  0.50528848109E+02  0.29999964313E+02 0.  0.
         12    1    1    2    0    0 -0.34970902082E+02 -0.14765810740E+02 -0.14566175657E+02  0.40659151891E+02  0.00000000000E+00 0. -1.
         11    1    3    3    0    0  0.21991443931E+01  0.12621534798E+01 -0.34616926226E+01  0.42909886440E+01  0.51100000000E-03 0. -1.
        -11    1    3    3    0    0  0.31063281440E+02  0.18912609368E+02  0.12889994240E+02  0.38584533154E+02  0.51100000000E-03 0.  1.
        -12    1    3    3    0    0  0.17084762487E+01 -0.54089521076E+01  0.51378740389E+01  0.76533263117E+01  0.00000000000E+00 0.  1.
</event>
<event>
 7    1  0.3004200E-011  0.5052886E+02  0.7816164E-02  0.1300439E+00
        -11   -1    0    0    0    0  0.00000000000E+00  0.00000000000E+00  0.45593999997E+02  0.45594000000E+02  0.51100000000E-03 0.  1.
         11   -1    0    0    0    0 -0.00000000000E+00 -0.00000000000E+00 -0.45593999997E+02  0.45594000000E+02  0.51100000000E-03 0. -1.
    9900012    2    1    2    0    0 -0.12090175757E+02  0.19176670414E+02  0.33752755086E+02  0.50528861864E+02  0.30000006123E+02 0.  0.
         12    1    1    2    0    0  0.12090175757E+02 -0.19176670414E+02 -0.33752755086E+02  0.40659138136E+02  0.00000000000E+00 0. -1.
         11    1    3    3    0    0 -0.98955884393E+01  0.74657439618E+01  0.20956481098E+01  0.12571863216E+02  0.51100000000E-03 0. -1.
        -11    1    3    3    0    0  0.75147102004E+01  0.52403380861E+01  0.15895184294E+02  0.18346359221E+02  0.51100000000E-03 0.  1.
         12    1    3    3    0    0 -0.97092975185E+01  0.64705883660E+01  0.15761922682E+02  0.19610639427E+02  0.00000000000E+00 0. -1.
</event>
<event>
 7    1  0.3004200E-011  0.5052885E+02  0.7816164E-02  0.1300439E+00
        -11   -1    0    0    0    0  0.00000000000E+00  0.00000000000E+00  0.45593999997E+02  0.45594000000E+02  0.51100000000E-03 0. -1.
         11   -1    0    0    0    0 -0.00000000000E+00 -0.00000000000E+00 -0.45593999997E+02  0.45594000000E+02  0.51100000000E-03 0.  1.
    9900012    2    1    2    0    0  0.92008078679E+01  0.16503203842E+02 -0.36002164678E+02  0.50528850182E+02  0.29999970612E+02 0.  0.
         12    1    1    2    0    0 -0.92008078679E+01 -0.16503203842E+02  0.36002164678E+02  0.40659149818E+02  0.00000000000E+00 0. -1.
         11    1    3    3    0    0  0.31801715581E+01 -0.36647984371E+01  0.58612493977E+00  0.48875128061E+01  0.51100000000E-03 0. -1.
        -11    1    3    3    0    0  0.25787558787E+01  0.16787988215E+02 -0.37087293728E+02  0.40791590880E+02  0.51100000000E-03 0.  1.
        -12    1    3    3    0    0  0.34418804310E+01  0.33800140635E+01  0.49900411011E+00  0.48497464958E+01  0.00000000000E+00 0.  1.
</event>
<event>
 7    1  0.3004200E-011  0.5052886E+02  0.7816164E-02  0.1300439E+00
        -11   -1    0    0    0    0  0.00000000000E+00  0.00000000000E+00  0.45593999997E+02  0.45594000000E+02  0.51100000000E-03 0. -1.
         11   -1    0    0    0    0 -0.00000000000E+00 -0.00000000000E+00 -0.45593999997E+02  0.45594000000E+02  0.51100000000E-03 0.  1.
    9900012    2    1    2    0    0 -0.36740813334E+02  0.15942344074E+02  0.70085711142E+01  0.50528858739E+02  0.29999996624E+02 0.  0.
         12    1    1    2    0    0  0.36740813334E+02 -0.15942344074E+02 -0.70085711142E+01  0.40659141261E+02  0.00000000000E+00 0. -1.
         11    1    3    3    0    0 -0.40272326157E+01 -0.25427262425E+01  0.51294996513E+01  0.69997018664E+01  0.51100000000E-03 0. -1.
        -11    1    3    3    0    0 -0.33743561703E+02  0.18515644891E+02 -0.29393630584E+01  0.38601773503E+02  0.51100000000E-03 0.  1.
        -12    1    3    3    0    0  0.10299809852E+01 -0.30574574664E-01  0.48184345213E+01  0.49273833696E+01  0.00000000000E+00 0.  1.
</event>
<event>
 7    1  0.3004200E-011  0.5052886E+02  0.7816164E-02  0.1300439E+00
        -11   -1    0    0    0    0  0.00000000000E+00  0.00000000000E+00  0.45593999997E+02  0.45594000000E+02  0.51100000000E-03 0.  1.
         11   -1    0    0    0    0 -0.00000000000E+00 -0.00000000000E+00 -0.45593999997E+02  0.45594000000E+02  0.51100000000E-03 0. -1.
    9900012    2    1    2    0    0  0.23706959745E+02  0.30872189242E+02 -0.11749608826E+02  0.50528864292E+02  0.30000013502E+02 0.  0.
         12    1    1    2    0    0 -0.23706959745E+02 -0.30872189242E+02  0.11749608826E+02  0.40659135708E+02  0.00000000000E+00 0. -1.
         11    1    3    3    0    0  0.62481186191E+01  0.12624871957E+00 -0.10346937102E+02  0.12087763758E+02  0.51100000000E-03 0. -1.
        -11    1    3    3    0    0  0.18997492418E+02  0.21272156306E+02  0.10327130834E+01  0.28539023260E+02  0.51100000000E-03 0.  1.
         12    1    3    3    0    0 -0.15386512912E+01  0.94737842166E+01 -0.24353848074E+01  0.99020772740E+01  0.00000000000E+00 0. -1.
</event>
<event>
 7    1  0.3004200E-011  0.5052888E+02  0.7816164E-02  0.1300439E+00
        -11   -1    0    0    0    0  0.00000000000E+00  0.00000000000E+00  0.45593999997E+02  0.45594000000E+02  0.51100000000E-03 0. -1.
         11   -1    0    0    0    0 -0.00000000000E+00 -0.00000000000E+00 -0.45593999997E+02  0.45594000000E+02  0.51100000000E-03 0.  1.
    9900012    2    1    2    0    0 -0.19215607464E+02 -0.35733332587E+02 -0.26557824521E+01  0.50528882838E+02  0.30000069873E+02 0.  0.
         12    1    1    2    0    0  0.19215607464E+02  0.35733332587E+02  0.26557824521E+01  0.40659117162E+02  0.00000000000E+00 0. -1.
         11    1    3    3    0    0 -0.19448509184E+02 -0.21696401890E+02 -0.10175694853E+02  0.30862973454E+02  0.51100000000E-03 0. -1.
        -11    1    3    3    0    0 -0.85187317082E+00 -0.12812038024E+02  0.92782815746E+00  0.12873805637E+02  0.51100000000E-03 0.  1.
         12    1    3    3    0    0  0.10847748909E+01 -0.12248926727E+01  0.65920842432E+01  0.67921037458E+01  0.00000000000E+00 0. -1.
</event>
<event>
 7    1  0.3004200E-011  0.5052886E+02  0.7816164E-02  0.1300439E+00
        -11   -1    0    0    0    0  0.00000000000E+00  0.00000000000E+00  0.45593999997E+02  0.45594000000E+02  0.51100000000E-03 0. -1.
         11   -1    0    0    0    0 -0.00000000000E+00 -0.00000000000E+00 -0.45593999997E+02  0.45594000000E+02  0.51100000000E-03 0.  1.
    9900012    2    1    2    0    0 -0.27918046010E+02 -0.29226112347E+02 -0.44252173007E+01  0.50528862231E+02  0.30000007239E+02 0.  0.
         12    1    1    2    0    0  0.27918046010E+02  0.29226112347E+02  0.44252173007E+01  0.40659137769E+02  0.00000000000E+00 0. -1.
         11    1    3    3    0    0 -0.93227298531E+00  0.35741245135E+01  0.56195232700E+01  0.67247707024E+01  0.51100000000E-03 0. -1.
        -11    1    3    3    0    0 -0.16558090359E+02 -0.20141298586E+02 -0.80168897081E+01  0.27278430781E+02  0.51100000000E-03 0.  1.
         12    1    3    3    0    0 -0.10427682666E+02 -0.12658938275E+02 -0.20278508626E+01  0.16525660748E+02  0.00000000000E+00 0. -1.
</event>
<event>
 7    1  0.3004200E-011  0.5052886E+02  0.7816164E-02  0.1300439E+00
        -11   -1    0    0    0    0  0.00000000000E+00  0.00000000000E+00  0.45593999997E+02  0.45594000000E+02  0.51100000000E-03 0.  1.
         11   -1    0    0    0    0 -0.00000000000E+00 -0.00000000000E+00 -0.45593999997E+02  0.45594000000E+02  0.51100000000E-03 0. -1.
    9900012    2    1    2    0    0 -0.91952412809E+01  0.10433994372E+02  0.38206610482E+02  0.50528858527E+02  0.29999995980E+02 0.  0.
         12    1    1    2    0    0  0.91952412809E+01 -0.10433994372E+02 -0.38206610482E+02  0.40659141473E+02  0.00000000000E+00 0. -1.
         11    1    3    3    0    0  0.64409301221E+01  0.47728522265E+01  0.11218326797E+01  0.80947024674E+01  0.51100000000E-03 0. -1.
        -11    1    3    3    0    0 -0.12118277965E+02  0.35007374814E+01  0.36028624087E+02  0.38172890611E+02  0.51100000000E-03 0.  1.
         12    1    3    3    0    0 -0.35178934378E+01  0.21604046640E+01  0.10561537152E+01  0.42612654484E+01  0.00000000000E+00 0. -1.
</event>
<event>
 7    1  0.3004200E-011  0.5052886E+02  0.7816164E-02  0.1300439E+00
        -11   -1    0    0    0    0  0.00000000000E+00  0.00000000000E+00  0.45593999997E+02  0.45594000000E+02  0.51100000000E-03 0.  1.
         11   -1    0    0    0    0 -0.00000000000E+00 -0.00000000000E+00 -0.45593999997E+02  0.45594000000E+02  0.51100000000E-03 0. -1.
    9900012    2    1    2    0    0  0.27859301375E+02 -0.22661334161E+01  0.29527783981E+02  0.50528855142E+02  0.29999985690E+02 0.  0.
         12    1    1    2    0    0 -0.27859301375E+02  0.22661334161E+01 -0.29527783981E+02  0.40659144858E+02  0.00000000000E+00 0. -1.
         11    1    3    3    0    0 -0.75539573045E+00  0.15500613165E+01 -0.89519217872E+00  0.19428541099E+01  0.51100000000E-03 0. -1.
        -11    1    3    3    0    0  0.15809094264E+02 -0.55582592315E+01  0.31435128841E+02  0.35622872324E+02  0.51100000000E-03 0.  1.
        -12    1    3    3    0    0  0.12805602841E+02  0.17420644989E+01 -0.10121526813E+01  0.12963128708E+02  0.00000000000E+00 0.  1.
</event>
<event>
 7    1  0.3004200E-011  0.5052886E+02  0.7816164E-02  0.1300439E+00
        -11   -1    0    0    0    0  0.00000000000E+00  0.00000000000E+00  0.45593999997E+02  0.45594000000E+02  0.51100000000E-03 0.  1.
         11   -1    0    0    0    0 -0.00000000000E+00 -0.00000000000E+00 -0.45593999997E+02  0.45594000000E+02  0.51100000000E-03 0. -1.
    9900012    2    1    2    0    0 -0.23312244405E+01  0.83873939504E+01  0.39716275079E+02  0.50528862149E+02  0.30000006988E+02 0.  0.
         12    1    1    2    0    0  0.23312244405E+01 -0.83873939504E+01 -0.39716275079E+02  0.40659137851E+02  0.00000000000E+00 0. -1.
         11    1    3    3    0    0 -0.85031627903E+01  0.95982003810E+00  0.46918699564E+01  0.97590304791E+01  0.51100000000E-03 0. -1.
        -11    1    3    3    0    0  0.87839840913E+01  0.11618309540E+02  0.31495786939E+02  0.34700548818E+02  0.51100000000E-03 0.  1.
        -12    1    3    3    0    0 -0.26120457416E+01 -0.41907356276E+01  0.35286181828E+01  0.60692828519E+01  0.00000000000E+00 0.  1.
</event>
<event>
 7    1  0.3004200E-011  0.5052886E+02  0.7816164E-02  0.1300439E+00
        -11   -1    0    0    0    0  0.00000000000E+00  0.00000000000E+00  0.45593999997E+02  0.45594000000E+02  0.51100000000E-03 0.  1.
         11   -1    0    0    0    0 -0.00000000000E+00 -0.00000000000E+00 -0.45593999997E+02  0.45594000000E+02  0.51100000000E-03 0. -1.
    9900012    2    1    2    0    0  0.68336421568E+01  0.43053708437E+01  0.39848853739E+02  0.50528855548E+02  0.29999986925E+02 0.  0.
         12    1    1    2    0    0 -0.68336421568E+01 -0.43053708437E+01 -0.39848853739E+02  0.40659144452E+02  0.00000000000E+00 0. -1.
         11    1    3    3    0    0 -0.10635584634E+02 -0.26077586982E+01  0.18741268407E+02  0.21706017776E+02  0.51100000000E-03 0. -1.
        -11    1    3    3    0    0  0.12095674661E+02  0.29323533219E+01  0.16643037248E+02  0.20782077149E+02  0.51100000000E-03 0.  1.
         12    1    3    3    0    0  0.53735521299E+01  0.39807762200E+01  0.44645480846E+01  0.80407606236E+01  0.00000000000E+00 0. -1.
</event>
<event>
 7    1  0.3004200E-011  0.5052885E+02  0.7816164E-02  0.1300439E+00
        -11   -1    0    0    0    0  0.00000000000E+00  0.00000000000E+00  0.45593999997E+02  0.45594000000E+02  0.51100000000E-03 0.  1.
         11   -1    0    0    0    0 -0.00000000000E+00 -0.00000000000E+00 -0.45593999997E+02  0.45594000000E+02  0.51100000000E-03 0. -1.
    9900012    2    1    2    0    0 -0.21460078119E+02 -0.42824159127E+01  0.34267945349E+02  0.50528854444E+02  0.29999983568E+02 0.  0.
         12    1    1    2    0    0  0.21460078119E+02  0.42824159127E+01 -0.34267945349E+02  0.40659145556E+02  0.00000000000E+00 0. -1.
         11    1    3    3    0    0 -0.96579438336E+01  0.78665276824E+01  0.50250870921E+01  0.13431665474E+02  0.51100000000E-03 0. -1.
        -11    1    3    3    0    0 -0.12561119025E+02 -0.56335807895E+01  0.26741507260E+02  0.30077020373E+02  0.51100000000E-03 0.  1.
        -12    1    3    3    0    0  0.75898473943E+00 -0.65153628056E+01  0.25013509961E+01  0.70201685969E+01  0.00000000000E+00 0.  1.
</event>
<event>
 7    1  0.3004200E-011  0.5052886E+02  0.7816164E-02  0.1300439E+00
        -11   -1    0    0    0    0  0.00000000000E+00  0.00000000000E+00  0.45593999997E+02  0.45594000000E+02  0.51100000000E-03 0.  1.
         11   -1    0    0    0    0 -0.00000000000E+00 -0.00000000000E+00 -0.45593999997E+02  0.45594000000E+02  0.51100000000E-03 0. -1.
    9900012    2    1    2    0    0 -0.17925812573E+02  0.27825435253E+02  0.23613042513E+02  0.50528863510E+02  0.30000011125E+02 0.  0.
         12    1    1    2    0    0  0.17925812573E+02 -0.27825435253E+02 -0.23613042513E+02  0.40659136490E+02  0.00000000000E+00 0. -1.
         11    1    3    3    0    0  0.13374849059E+01 -0.28863156824E+01  0.84827298835E+01  0.90596021231E+01  0.51100000000E-03 0. -1.
        -11    1    3    3    0    0 -0.12474515546E+02  0.24220592271E+02  0.16686918618E+02  0.31948456634E+02  0.51100000000E-03 0.  1.
        -12    1    3    3    0    0 -0.67887819337E+01  0.64911586636E+01 -0.15566059889E+01  0.95208047529E+01  0.00000000000E+00 0.  1.
</event>
<event>
 7    1  0.3004200E-011  0.5052885E+02  0.7816164E-02  0.1300439E+00
        -11   -1    0    0    0    0  0.00000000000E+00  0.00000000000E+00  0.45593999997E+02  0.45594000000E+02  0.51100000000E-03 0. -1.
         11   -1    0    0    0    0 -0.00000000000E+00 -0.00000000000E+00 -0.45593999997E+02  0.45594000000E+02  0.51100000000E-03 0.  1.
    9900012    2    1    2    0    0  0.35649485272E+02  0.12257443613E+02 -0.15232710104E+02  0.50528853659E+02  0.29999981182E+02 0.  0.
         12    1    1    2    0    0 -0.35649485272E+02 -0.12257443613E+02  0.15232710104E+02  0.40659146341E+02  0.00000000000E+00 0. -1.
         11    1    3    3    0    0  0.64614251019E+01  0.14391776800E+01  0.77082451668E+01  0.10160624516E+02  0.51100000000E-03 0. -1.
        -11    1    3    3    0    0  0.14060007982E+02  0.32110298660E+01 -0.17294085284E+02  0.22518435188E+02  0.51100000000E-03 0.  1.
        -12    1    3    3    0    0  0.15128052188E+02  0.76072360670E+01 -0.56468699864E+01  0.17849793955E+02  0.00000000000E+00 0.  1.
</event>
<event>
 7    1  0.3004200E-011  0.5052884E+02  0.7816164E-02  0.1300439E+00
        -11   -1    0    0    0    0  0.00000000000E+00  0.00000000000E+00  0.45593999997E+02  0.45594000000E+02  0.51100000000E-03 0. -1.
         11   -1    0    0    0    0 -0.00000000000E+00 -0.00000000000E+00 -0.45593999997E+02  0.45594000000E+02  0.51100000000E-03 0.  1.
    9900012    2    1    2    0    0 -0.19864148808E+02  0.33463906337E+02  0.11779206900E+02  0.50528841740E+02  0.29999944953E+02 0.  0.
         12    1    1    2    0    0  0.19864148808E+02 -0.33463906337E+02 -0.11779206900E+02  0.40659158260E+02  0.00000000000E+00 0. -1.
         11    1    3    3    0    0  0.11926292970E+00  0.10379892734E+01 -0.58083432607E+01  0.59015673404E+01  0.51100000000E-03 0. -1.
        -11    1    3    3    0    0 -0.18221031978E+02  0.25987700936E+02  0.76365162368E+01  0.32644800303E+02  0.51100000000E-03 0.  1.
        -12    1    3    3    0    0 -0.17623797592E+01  0.64382161280E+01  0.99510339241E+01  0.11982474097E+02  0.00000000000E+00 0.  1.
</event>
<event>
 7    1  0.3004200E-011  0.5052888E+02  0.7816164E-02  0.1300439E+00
        -11   -1    0    0    0    0  0.00000000000E+00  0.00000000000E+00  0.45593999997E+02  0.45594000000E+02  0.51100000000E-03 0. -1.
         11   -1    0    0    0    0 -0.00000000000E+00 -0.00000000000E+00 -0.45593999997E+02  0.45594000000E+02  0.51100000000E-03 0.  1.
    9900012    2    1    2    0    0 -0.10755945685E+02 -0.78384334040E+00 -0.39202799817E+02  0.50528876898E+02  0.30000051819E+02 0.  0.
         12    1    1    2    0    0  0.10755945685E+02  0.78384334040E+00  0.39202799817E+02  0.40659123102E+02  0.00000000000E+00 0. -1.
         11    1    3    3    0    0 -0.63507320544E+01  0.96526165647E+01 -0.58700552461E+01  0.12960029052E+02  0.51100000000E-03 0. -1.
        -11    1    3    3    0    0 -0.79728426997E+01 -0.98461192915E+01 -0.19369642220E+02  0.23145092910E+02  0.51100000000E-03 0.  1.
        -12    1    3    3    0    0  0.35676290686E+01 -0.59034061360E+00 -0.13963102350E+02  0.14423754936E+02  0.00000000000E+00 0.  1.
</event>
<event>
 7    1  0.3004200E-011  0.5052884E+02  0.7816164E-02  0.1300439E+00
        -11   -1    0    0    0    0  0.00000000000E+00  0.00000000000E+00  0.45593999997E+02  0.45594000000E+02  0.51100000000E-03 0. -1.
         11   -1    0    0    0    0 -0.00000000000E+00 -0.00000000000E+00 -0.45593999997E+02  0.45594000000E+02  0.51100000000E-03 0.  1.
    9900012    2    1    2    0    0  0.50390313367E+01  0.11696034034E+02 -0.38613183283E+02  0.50528843931E+02  0.29999951614E+02 0.  0.
         12    1    1    2    0    0 -0.50390313367E+01 -0.11696034034E+02  0.38613183283E+02  0.40659156069E+02  0.00000000000E+00 0. -1.
         11    1    3    3    0    0 -0.11717253656E+01  0.11116136036E+01 -0.27875163371E+00  0.16390020959E+01  0.51100000000E-03 0. -1.
        -11    1    3    3    0    0 -0.32238615095E+01  0.17580353585E+02 -0.17747505974E+02  0.25188014685E+02  0.51100000000E-03 0.  1.
        -12    1    3    3    0    0  0.94346182118E+01 -0.69959331548E+01 -0.20586925676E+02  0.23701827151E+02  0.00000000000E+00 0.  1.
</event>
<event>
 7    1  0.3004200E-011  0.5052887E+02  0.7816164E-02  0.1300439E+00
        -11   -1    0    0    0    0  0.00000000000E+00  0.00000000000E+00  0.45593999997E+02  0.45594000000E+02  0.51100000000E-03 0. -1.
         11   -1    0    0    0    0 -0.00000000000E+00 -0.00000000000E+00 -0.45593999997E+02  0.45594000000E+02  0.51100000000E-03 0.  1.
    9900012    2    1    2    0    0  0.25375433685E+02  0.29822913707E+02  0.10947419846E+02  0.50528870423E+02  0.30000032138E+02 0.  0.
         12    1    1    2    0    0 -0.25375433685E+02 -0.29822913707E+02 -0.10947419846E+02  0.40659129577E+02  0.00000000000E+00 0. -1.
         11    1    3    3    0    0 -0.34439224233E+01  0.14685590988E+01  0.52095283380E+01  0.64153295512E+01  0.51100000000E-03 0. -1.
        -11    1    3    3    0    0  0.21995354875E+02  0.18146651049E+02  0.11250740858E+02  0.30654131051E+02  0.51100000000E-03 0.  1.
        -12    1    3    3    0    0  0.68240012336E+01  0.10207703559E+02 -0.55128493497E+01  0.13459409821E+02  0.00000000000E+00 0.  1.
</event>
<event>
 7    1  0.3004200E-011  0.5052890E+02  0.7816164E-02  0.1300439E+00
        -11   -1    0    0    0    0  0.00000000000E+00  0.00000000000E+00  0.45593999997E+02  0.45594000000E+02  0.51100000000E-03 0.  1.
         11   -1    0    0    0    0 -0.00000000000E+00 -0.00000000000E+00 -0.45593999997E+02  0.45594000000E+02  0.51100000000E-03 0. -1.
    9900012    2    1    2    0    0 -0.20949186479E+02  0.27615298510E+02  0.21252988826E+02  0.50528896961E+02  0.30000112803E+02 0.  0.
         12    1    1    2    0    0  0.20949186479E+02 -0.27615298510E+02 -0.21252988826E+02  0.40659103039E+02  0.00000000000E+00 0. -1.
         11    1    3    3    0    0 -0.90280220135E+01  0.12587624044E+02  0.16690863667E+02  0.22771438048E+02  0.51100000000E-03 0.  1.
        -11    1    3    3    0    0 -0.32240757812E+01 -0.47242428959E+01  0.18196884692E+01  0.60020331529E+01  0.51100000000E-03 0. -1.
        -12    1    3    3    0    0 -0.86970886841E+01  0.19751917361E+02  0.27424366893E+01  0.21755425761E+02  0.00000000000E+00 0.  1.
</event>
<event>
 7    1  0.3004200E-011  0.5052885E+02  0.7816164E-02  0.1300439E+00
        -11   -1    0    0    0    0  0.00000000000E+00  0.00000000000E+00  0.45593999997E+02  0.45594000000E+02  0.51100000000E-03 0.  1.
         11   -1    0    0    0    0 -0.00000000000E+00 -0.00000000000E+00 -0.45593999997E+02  0.45594000000E+02  0.51100000000E-03 0. -1.
    9900012    2    1    2    0    0 -0.95855110161E+01 -0.27001773882E+02  0.28847676927E+02  0.50528852464E+02  0.29999977551E+02 0.  0.
         12    1    1    2    0    0  0.95855110161E+01  0.27001773882E+02 -0.28847676927E+02  0.40659147536E+02  0.00000000000E+00 0. -1.
         11    1    3    3    0    0 -0.17622551318E+02 -0.18747022695E+02  0.26962461690E+02  0.37269015489E+02  0.51100000000E-03 0. -1.
        -11    1    3    3    0    0  0.18891134186E+01 -0.64417941717E+01  0.83790176687E+00  0.67651711945E+01  0.51100000000E-03 0.  1.
         12    1    3    3    0    0  0.61479268831E+01 -0.18129570151E+01  0.10473134707E+01  0.64946657808E+01  0.00000000000E+00 0. -1.
</event>
<event>
 7    1  0.3004200E-011  0.5052886E+02  0.7816164E-02  0.1300439E+00
        -11   -1    0    0    0    0  0.00000000000E+00  0.00000000000E+00  0.45593999997E+02  0.45594000000E+02  0.51100000000E-03 0. -1.
         11   -1    0    0    0    0 -0.00000000000E+00 -0.00000000000E+00 -0.45593999997E+02  0.45594000000E+02  0.51100000000E-03 0.  1.
    9900012    2    1    2    0    0 -0.63216914435E+01  0.27815290406E+02  0.28974323756E+02  0.50528860804E+02  0.30000002898E+02 0.  0.
         12    1    1    2    0    0  0.63216914435E+01 -0.27815290406E+02 -0.28974323756E+02  0.40659139196E+02  0.00000000000E+00 0. -1.
         11    1    3    3    0    0  0.97027584317E+00  0.63709151567E+01  0.24920638200E+02  0.25740400224E+02  0.51100000000E-03 0. -1.
        -11    1    3    3    0    0 -0.11266249333E+01  0.19460283309E+01 -0.24536885540E+01  0.33281973778E+01  0.51100000000E-03 0.  1.
         12    1    3    3    0    0 -0.61653423534E+01  0.19498346918E+02  0.65073741105E+01  0.21460263202E+02  0.00000000000E+00 0. -1.
</event>
<event>
 7    1  0.3004200E-011  0.5052885E+02  0.7816164E-02  0.1300439E+00
        -11   -1    0    0    0    0  0.00000000000E+00  0.00000000000E+00  0.45593999997E+02  0.45594000000E+02  0.51100000000E-03 0.  1.
         11   -1    0    0    0    0 -0.00000000000E+00 -0.00000000000E+00 -0.45593999997E+02  0.45594000000E+02  0.51100000000E-03 0. -1.
    9900012    2    1    2    0    0 -0.33123819099E+01  0.40097268788E+02  0.58654926318E+01  0.50528845532E+02  0.29999956481E+02 0.  0.
         12    1    1    2    0    0  0.33123819099E+01 -0.40097268788E+02 -0.58654926318E+01  0.40659154468E+02  0.00000000000E+00 0. -1.
         11    1    3    3    0    0 -0.15575936078E+01 -0.12579345651E+01 -0.41158865751E+01  0.45770099167E+01  0.51100000000E-03 0. -1.
        -11    1    3    3    0    0  0.69402604422E+01  0.26318254709E+02  0.85211636339E+01  0.28520658756E+02  0.51100000000E-03 0.  1.
         12    1    3    3    0    0 -0.86950487443E+01  0.15036948644E+02  0.14602155729E+01  0.17431176860E+02  0.00000000000E+00 0. -1.
</event>
<event>
 7    1  0.3004200E-011  0.5052885E+02  0.7816164E-02  0.1300439E+00
        -11   -1    0    0    0    0  0.00000000000E+00  0.00000000000E+00  0.45593999997E+02  0.45594000000E+02  0.51100000000E-03 0.  1.
         11   -1    0    0    0    0 -0.00000000000E+00 -0.00000000000E+00 -0.45593999997E+02  0.45594000000E+02  0.51100000000E-03 0. -1.
    9900012    2    1    2    0    0 -0.20096320954E+02  0.77704610526E+01  0.34480776545E+02  0.50528854264E+02  0.29999983021E+02 0.  0.
         12    1    1    2    0    0  0.20096320954E+02 -0.77704610526E+01 -0.34480776545E+02  0.40659145736E+02  0.00000000000E+00 0. -1.
         11    1    3    3    0    0 -0.20955336353E+02  0.28098939309E+01  0.79006558682E+01  0.22570821629E+02  0.51100000000E-03 0. -1.
        -11    1    3    3    0    0  0.12858290234E+01 -0.13501195270E+01  0.10759942493E+02  0.10920281211E+02  0.51100000000E-03 0.  1.
         12    1    3    3    0    0 -0.42681362382E+00  0.63106866487E+01  0.15820178184E+02  0.17037751425E+02  0.00000000000E+00 0. -1.
</event>
<event>
 7    1  0.3004200E-011  0.5052887E+02  0.7816164E-02  0.1300439E+00
        -11   -1    0    0    0    0  0.00000000000E+00  0.00000000000E+00  0.45593999997E+02  0.45594000000E+02  0.51100000000E-03 0.  1.
         11   -1    0    0    0    0 -0.00000000000E+00 -0.00000000000E+00 -0.45593999997E+02  0.45594000000E+02  0.51100000000E-03 0. -1.
    9900012    2    1    2    0    0  0.57381153394E+01 -0.31404868384E+02  0.25178826865E+02  0.50528867592E+02  0.30000023533E+02 0.  0.
         12    1    1    2    0    0 -0.57381153394E+01  0.31404868384E+02 -0.25178826865E+02  0.40659132408E+02  0.00000000000E+00 0. -1.
         11    1    3    3    0    0 -0.16670231529E+01  0.50821165497E+01  0.53431327468E+01  0.75601549341E+01  0.51100000000E-03 0. -1.
        -11    1    3    3    0    0  0.86844877452E+01 -0.23272656478E+02  0.12923119046E+02  0.28000783437E+02  0.51100000000E-03 0.  1.
        -12    1    3    3    0    0 -0.12793492529E+01 -0.13214328455E+02  0.69125750730E+01  0.14967929221E+02  0.00000000000E+00 0.  1.
</event>
<event>
 7    1  0.3004200E-011  0.5052885E+02  0.7816164E-02  0.1300439E+00
        -11   -1    0    0    0    0  0.00000000000E+00  0.00000000000E+00  0.45593999997E+02  0.45594000000E+02  0.51100000000E-03 0.  1.
         11   -1    0    0    0    0 -0.00000000000E+00 -0.00000000000E+00 -0.45593999997E+02  0.45594000000E+02  0.51100000000E-03 0. -1.
    9900012    2    1    2    0    0  0.38521338093E+02  0.11940934122E+02  0.51659151741E+01  0.50528854955E+02  0.29999985121E+02 0.  0.
         12    1    1    2    0    0 -0.38521338093E+02 -0.11940934122E+02 -0.51659151741E+01  0.40659145045E+02  0.00000000000E+00 0. -1.
         11    1    3    3    0    0  0.12048157540E+01 -0.64359594809E+01 -0.77953413448E+00  0.65939994820E+01  0.51100000000E-03 0. -1.
        -11    1    3    3    0    0  0.23361544624E+02  0.77568757357E+01 -0.19708388039E+01  0.24694434479E+02  0.51100000000E-03 0.  1.
        -12    1    3    3    0    0  0.13954977715E+02  0.10620017867E+02  0.79162881125E+01  0.19240420994E+02  0.00000000000E+00 0.  1.
</event>
<event>
 7    1  0.3004200E-011  0.5052886E+02  0.7816164E-02  0.1300439E+00
        -11   -1    0    0    0    0  0.00000000000E+00  0.00000000000E+00  0.45593999997E+02  0.45594000000E+02  0.51100000000E-03 0. -1.
         11   -1    0    0    0    0 -0.00000000000E+00 -0.00000000000E+00 -0.45593999997E+02  0.45594000000E+02  0.51100000000E-03 0.  1.
    9900012    2    1    2    0    0  0.16452280771E+02 -0.94199721489E+01 -0.35968768477E+02  0.50528859286E+02  0.29999998285E+02 0.  0.
         12    1    1    2    0    0 -0.16452280771E+02  0.94199721489E+01  0.35968768477E+02  0.40659140714E+02  0.00000000000E+00 0. -1.
         11    1    3    3    0    0  0.15805946176E+02 -0.14604308355E+01 -0.81418317934E+01  0.17839568884E+02  0.51100000000E-03 0. -1.
        -11    1    3    3    0    0 -0.59952804255E+01 -0.65994580180E+01 -0.89558341897E+01  0.12637373137E+02  0.51100000000E-03 0.  1.
        -12    1    3    3    0    0  0.66416150202E+01 -0.13600832954E+01 -0.18871102494E+02  0.20051917265E+02  0.00000000000E+00 0.  1.
</event>
<event>
 7    1  0.3004200E-011  0.5052889E+02  0.7816164E-02  0.1300439E+00
        -11   -1    0    0    0    0  0.00000000000E+00  0.00000000000E+00  0.45593999997E+02  0.45594000000E+02  0.51100000000E-03 0.  1.
         11   -1    0    0    0    0 -0.00000000000E+00 -0.00000000000E+00 -0.45593999997E+02  0.45594000000E+02  0.51100000000E-03 0. -1.
    9900012    2    1    2    0    0  0.37857091820E+02 -0.21426438714E+01  0.14676948967E+02  0.50528890875E+02  0.30000094305E+02 0.  0.
         12    1    1    2    0    0 -0.37857091820E+02  0.21426438714E+01 -0.14676948967E+02  0.40659109125E+02  0.00000000000E+00 0. -1.
         11    1    3    3    0    0  0.13202353411E+02  0.45916152438E+01  0.19706070767E+02  0.24160179872E+02  0.51100000000E-03 0. -1.
        -11    1    3    3    0    0  0.24460312341E+02 -0.69110449133E+01 -0.45495298189E+01  0.25821844308E+02  0.51100000000E-03 0.  1.
        -12    1    3    3    0    0  0.19442606754E+00  0.17678579802E+00 -0.47959198092E+00  0.54686669517E+00  0.00000000000E+00 0.  1.
</event>
<event>
 7    1  0.3004200E-011  0.5052886E+02  0.7816164E-02  0.1300439E+00
        -11   -1    0    0    0    0  0.00000000000E+00  0.00000000000E+00  0.45593999997E+02  0.45594000000E+02  0.51100000000E-03 0.  1.
         11   -1    0    0    0    0 -0.00000000000E+00 -0.00000000000E+00 -0.45593999997E+02  0.45594000000E+02  0.51100000000E-03 0. -1.
    9900012    2    1    2    0    0 -0.29808354995E+02  0.13978549784E+02  0.23858499372E+02  0.50528857438E+02  0.29999992669E+02 0.  0.
         12    1    1    2    0    0  0.29808354995E+02 -0.13978549784E+02 -0.23858499372E+02  0.40659142562E+02  0.00000000000E+00 0. -1.
         11    1    3    3    0    0 -0.30334062411E+01  0.84229172025E+01 -0.10876112939E+01  0.90183139339E+01  0.51100000000E-03 0. -1.
        -11    1    3    3    0    0 -0.26322120569E+02 -0.48495246143E-01  0.24348044713E+02  0.35856431287E+02  0.51100000000E-03 0.  1.
        -12    1    3    3    0    0 -0.45282818491E+00  0.56041278280E+01  0.59806595281E+00  0.56541122169E+01  0.00000000000E+00 0.  1.
</event>
<event>
 7    1  0.3004200E-011  0.5052887E+02  0.7816164E-02  0.1300439E+00
        -11   -1    0    0    0    0  0.00000000000E+00  0.00000000000E+00  0.45593999997E+02  0.45594000000E+02  0.51100000000E-03 0. -1.
         11   -1    0    0    0    0 -0.00000000000E+00 -0.00000000000E+00 -0.45593999997E+02  0.45594000000E+02  0.51100000000E-03 0.  1.
    9900012    2    1    2    0    0 -0.38726338916E+02 -0.34204671627E+01 -0.11905294544E+02  0.50528868681E+02  0.30000026842E+02 0.  0.
         12    1    1    2    0    0  0.38726338916E+02  0.34204671627E+01  0.11905294544E+02  0.40659131319E+02  0.00000000000E+00 0. -1.
         11    1    3    3    0    0 -0.85438253068E+01  0.43541037031E+01 -0.12818822111E+02  0.16008665481E+02  0.51100000000E-03 0. -1.
        -11    1    3    3    0    0 -0.30701342848E+02 -0.65854879074E+01 -0.18636363737E+01  0.31454955801E+02  0.51100000000E-03 0.  1.
        -12    1    3    3    0    0  0.51882923820E+00 -0.11890829584E+01  0.27771639406E+01  0.30652473984E+01  0.00000000000E+00 0.  1.
</event>
<event>
 7    1  0.3004200E-011  0.5052886E+02  0.7816164E-02  0.1300439E+00
        -11   -1    0    0    0    0  0.00000000000E+00  0.00000000000E+00  0.45593999997E+02  0.45594000000E+02  0.51100000000E-03 0. -1.
         11   -1    0    0    0    0 -0.00000000000E+00 -0.00000000000E+00 -0.45593999997E+02  0.45594000000E+02  0.51100000000E-03 0.  1.
    9900012    2    1    2    0    0  0.17841300275E+02  0.15099260607E+02 -0.33269601696E+02  0.50528855107E+02  0.29999985584E+02 0.  0.
         12    1    1    2    0    0 -0.17841300275E+02 -0.15099260607E+02  0.33269601696E+02  0.40659144893E+02  0.00000000000E+00 0. -1.
         11    1    3    3    0    0  0.11199549530E+02  0.10056734790E+01 -0.13624664142E+01  0.11326853218E+02  0.51100000000E-03 0. -1.
        -11    1    3    3    0    0  0.53074226832E+01  0.16816063225E+02 -0.18910644822E+02  0.25856550539E+02  0.51100000000E-03 0.  1.
        -12    1    3    3    0    0  0.13343280620E+01 -0.27224760972E+01 -0.12996490460E+02  0.13345451351E+02  0.00000000000E+00 0.  1.
</event>
<event>
 7    1  0.3004200E-011  0.5052885E+02  0.7816164E-02  0.1300439E+00
        -11   -1    0    0    0    0  0.00000000000E+00  0.00000000000E+00  0.45593999997E+02  0.45594000000E+02  0.51100000000E-03 0.  1.
         11   -1    0    0    0    0 -0.00000000000E+00 -0.00000000000E+00 -0.45593999997E+02  0.45594000000E+02  0.51100000000E-03 0. -1.
    9900012    2    1    2    0    0  0.13706158797E+02  0.38275333959E+02 -0.55358812530E+00  0.50528850495E+02  0.29999971565E+02 0.  0.
         12    1    1    2    0    0 -0.13706158797E+02 -0.38275333959E+02  0.55358812530E+00  0.40659149505E+02  0.00000000000E+00 0. -1.
         11    1    3    3    0    0 -0.51072403046E+01  0.15994967681E+01 -0.28693349590E+01  0.60725099266E+01  0.51100000000E-03 0. -1.
        -11    1    3    3    0    0  0.19634375032E+02  0.30492498546E+02 -0.28199484639E+01  0.36376548216E+02  0.51100000000E-03 0.  1.
        -12    1    3    3    0    0 -0.82097593086E+00  0.61833386446E+01  0.51356952976E+01  0.80797923527E+01  0.00000000000E+00 0.  1.
</event>
<event>
 7    1  0.3004200E-011  0.5052885E+02  0.7816164E-02  0.1300439E+00
        -11   -1    0    0    0    0  0.00000000000E+00  0.00000000000E+00  0.45593999997E+02  0.45594000000E+02  0.51100000000E-03 0.  1.
         11   -1    0    0    0    0 -0.00000000000E+00 -0.00000000000E+00 -0.45593999997E+02  0.45594000000E+02  0.51100000000E-03 0. -1.
    9900012    2    1    2    0    0  0.34481460971E+02 -0.14627900780E+02  0.15818326930E+02  0.50528854673E+02  0.29999984263E+02 0.  0.
         12    1    1    2    0    0 -0.34481460971E+02  0.14627900780E+02 -0.15818326930E+02  0.40659145327E+02  0.00000000000E+00 0. -1.
         11    1    3    3    0    0 -0.36432685863E+01 -0.36816872281E+01 -0.28442713955E+01  0.59091544971E+01  0.51100000000E-03 0. -1.
        -11    1    3    3    0    0  0.15046655977E+02 -0.85785497685E+01  0.74930657987E+01  0.18871656195E+02  0.51100000000E-03 0.  1.
         12    1    3    3    0    0  0.23078073580E+02 -0.23676637836E+01  0.11169532526E+02  0.25748043980E+02  0.00000000000E+00 0. -1.
</event>
<event>
 7    1  0.3004200E-011  0.5052886E+02  0.7816164E-02  0.1300439E+00
        -11   -1    0    0    0    0  0.00000000000E+00  0.00000000000E+00  0.45593999997E+02  0.45594000000E+02  0.51100000000E-03 0.  1.
         11   -1    0    0    0    0 -0.00000000000E+00 -0.00000000000E+00 -0.45593999997E+02  0.45594000000E+02  0.51100000000E-03 0. -1.
    9900012    2    1    2    0    0  0.28621083158E+02  0.13513056027E+02  0.25522478496E+02  0.50528855974E+02  0.29999988220E+02 0.  0.
         12    1    1    2    0    0 -0.28621083158E+02 -0.13513056027E+02 -0.25522478496E+02  0.40659144026E+02  0.00000000000E+00 0. -1.
         11    1    3    3    0    0  0.95246669189E+01 -0.57421833398E+01  0.27384398822E+01  0.11453864094E+02  0.51100000000E-03 0. -1.
        -11    1    3    3    0    0  0.76305051898E+01  0.16878346078E+02  0.19540019047E+02  0.26924255243E+02  0.51100000000E-03 0.  1.
        -12    1    3    3    0    0  0.11465911049E+02  0.23768932889E+01  0.32440195670E+01  0.12150736638E+02  0.00000000000E+00 0.  1.
</event>
<event>
 7    1  0.3004200E-011  0.5052886E+02  0.7816164E-02  0.1300439E+00
        -11   -1    0    0    0    0  0.00000000000E+00  0.00000000000E+00  0.45593999997E+02  0.45594000000E+02  0.51100000000E-03 0.  1.
         11   -1    0    0    0    0 -0.00000000000E+00 -0.00000000000E+00 -0.45593999997E+02  0.45594000000E+02  0.51100000000E-03 0. -1.
    9900012    2    1    2    0    0 -0.16121344239E+02  0.18332276136E+02  0.32514539752E+02  0.50528863467E+02  0.30000010993E+02 0.  0.
         12    1    1    2    0    0  0.16121344239E+02 -0.18332276136E+02 -0.32514539752E+02  0.40659136533E+02  0.00000000000E+00 0. -1.
         11    1    3    3    0    0 -0.98751750373E+01  0.48181438197E+01  0.92319666087E+01  0.14351404099E+02  0.51100000000E-03 0. -1.
        -11    1    3    3    0    0 -0.10573745261E+01 -0.25291930639E+00  0.21305004941E+02  0.21332727085E+02  0.51100000000E-03 0.  1.
        -12    1    3    3    0    0 -0.51887946756E+01  0.13767051622E+02  0.19775682016E+01  0.14844732283E+02  0.00000000000E+00 0.  1.
</event>
<event>
 7    1  0.3004200E-011  0.5052886E+02  0.7816164E-02  0.1300439E+00
        -11   -1    0    0    0    0  0.00000000000E+00  0.00000000000E+00  0.45593999997E+02  0.45594000000E+02  0.51100000000E-03 0.  1.
         11   -1    0    0    0    0 -0.00000000000E+00 -0.00000000000E+00 -0.45593999997E+02  0.45594000000E+02  0.51100000000E-03 0. -1.
    9900012    2    1    2    0    0 -0.40444124244E+02 -0.39083456111E+01 -0.14707800558E+01  0.50528861479E+02  0.30000004951E+02 0.  0.
         12    1    1    2    0    0  0.40444124244E+02  0.39083456111E+01  0.14707800558E+01  0.40659138521E+02  0.00000000000E+00 0. -1.
         11    1    3    3    0    0 -0.69452062537E+01  0.58973307534E+01  0.51543978061E+01  0.10468152508E+02  0.51100000000E-03 0. -1.
        -11    1    3    3    0    0 -0.14101793257E+02 -0.99732751526E+01  0.42979185823E+01  0.17798845320E+02  0.51100000000E-03 0.  1.
        -12    1    3    3    0    0 -0.19397124734E+02  0.16759878810E+00 -0.10923096444E+02  0.22261863651E+02  0.00000000000E+00 0.  1.
</event>
<event>
 7    1  0.3004200E-011  0.5052886E+02  0.7816164E-02  0.1300439E+00
        -11   -1    0    0    0    0  0.00000000000E+00  0.00000000000E+00  0.45593999997E+02  0.45594000000E+02  0.51100000000E-03 0.  1.
         11   -1    0    0    0    0 -0.00000000000E+00 -0.00000000000E+00 -0.45593999997E+02  0.45594000000E+02  0.51100000000E-03 0. -1.
    9900012    2    1    2    0    0  0.36344576704E+02 -0.15269526307E+02  0.99538534175E+01  0.50528857273E+02  0.29999992167E+02 0.  0.
         12    1    1    2    0    0 -0.36344576704E+02  0.15269526307E+02 -0.99538534175E+01  0.40659142727E+02  0.00000000000E+00 0. -1.
         11    1    3    3    0    0  0.10138812317E+02  0.57511002501E+01 -0.46274566480E+01  0.12541292779E+02  0.51100000000E-03 0. -1.
        -11    1    3    3    0    0  0.12406041179E+02 -0.37305654813E+01  0.55186668730E+01  0.14081287614E+02  0.51100000000E-03 0.  1.
         12    1    3    3    0    0  0.13799723208E+02 -0.17290061076E+02  0.90626431924E+01  0.23906276880E+02  0.00000000000E+00 0. -1.
</event>
<event>
 7    1  0.3004200E-011  0.5052882E+02  0.7816164E-02  0.1300439E+00
        -11   -1    0    0    0    0  0.00000000000E+00  0.00000000000E+00  0.45593999997E+02  0.45594000000E+02  0.51100000000E-03 0. -1.
         11   -1    0    0    0    0 -0.00000000000E+00 -0.00000000000E+00 -0.45593999997E+02  0.45594000000E+02  0.51100000000E-03 0.  1.
    9900012    2    1    2    0    0 -0.16507701986E+01 -0.12826668964E+01 -0.40605397491E+02  0.50528824135E+02  0.29999891440E+02 0.  0.
         12    1    1    2    0    0  0.16507701986E+01  0.12826668964E+01  0.40605397491E+02  0.40659175865E+02  0.00000000000E+00 0. -1.
         11    1    3    3    0    0  0.36478679244E+01  0.47887980929E+01 -0.80094538128E+01  0.10019524849E+02  0.51100000000E-03 0. -1.
        -11    1    3    3    0    0 -0.95395710040E+01 -0.65123968782E+01 -0.34088176419E+02  0.35991922703E+02  0.51100000000E-03 0.  1.
        -12    1    3    3    0    0  0.42409328810E+01  0.44093188888E+00  0.14922327406E+01  0.45173765820E+01  0.00000000000E+00 0.  1.
</event>
<event>
 7    1  0.3004200E-011  0.5052887E+02  0.7816164E-02  0.1300439E+00
        -11   -1    0    0    0    0  0.00000000000E+00  0.00000000000E+00  0.45593999997E+02  0.45594000000E+02  0.51100000000E-03 0. -1.
         11   -1    0    0    0    0 -0.00000000000E+00 -0.00000000000E+00 -0.45593999997E+02  0.45594000000E+02  0.51100000000E-03 0.  1.
    9900012    2    1    2    0    0  0.63199316414E+01 -0.37561559139E+02 -0.14225067453E+02  0.50528870584E+02  0.30000032626E+02 0.  0.
         12    1    1    2    0    0 -0.63199316414E+01  0.37561559139E+02  0.14225067453E+02  0.40659129416E+02  0.00000000000E+00 0. -1.
         11    1    3    3    0    0 -0.13407534816E+01 -0.12972899267E+02 -0.11332249093E+02  0.17277546268E+02  0.51100000000E-03 0. -1.
        -11    1    3    3    0    0  0.15369604555E+01  0.36678630444E+01  0.93849812572E+00  0.40861039815E+01  0.51100000000E-03 0.  1.
         12    1    3    3    0    0  0.61237246675E+01 -0.28256522916E+02 -0.38313164855E+01  0.29165220334E+02  0.00000000000E+00 0. -1.
</event>
<event>
 7    1  0.3004200E-011  0.5052885E+02  0.7816164E-02  0.1300439E+00
        -11   -1    0    0    0    0  0.00000000000E+00  0.00000000000E+00  0.45593999997E+02  0.45594000000E+02  0.51100000000E-03 0.  1.
         11   -1    0    0    0    0 -0.00000000000E+00 -0.00000000000E+00 -0.45593999997E+02  0.45594000000E+02  0.51100000000E-03 0. -1.
    9900012    2    1    2    0    0 -0.34682930970E+02 -0.17906534478E+02  0.11384930498E+02  0.50528851950E+02  0.29999975989E+02 0.  0.
         12    1    1    2    0    0  0.34682930970E+02  0.17906534478E+02 -0.11384930498E+02  0.40659148050E+02  0.00000000000E+00 0. -1.
         11    1    3    3    0    0 -0.13302429316E+02 -0.14927973494E+02  0.89062003318E+01  0.21888796745E+02  0.51100000000E-03 0.  1.
        -11    1    3    3    0    0 -0.22160157386E+02 -0.48353145412E+01 -0.29286632564E+01  0.22869847197E+02  0.51100000000E-03 0. -1.
        -12    1    3    3    0    0  0.77965573172E+00  0.18567535574E+01  0.54073934223E+01  0.57702080081E+01  0.00000000000E+00 0.  1.
</event>
<event>
 7    1  0.3004200E-011  0.5052887E+02  0.7816164E-02  0.1300439E+00
        -11   -1    0    0    0    0  0.00000000000E+00  0.00000000000E+00  0.45593999997E+02  0.45594000000E+02  0.51100000000E-03 0.  1.
         11   -1    0    0    0    0 -0.00000000000E+00 -0.00000000000E+00 -0.45593999997E+02  0.45594000000E+02  0.51100000000E-03 0. -1.
    9900012    2    1    2    0    0  0.34641457057E+02 -0.38536743724E+01  0.20935224913E+02  0.50528868241E+02  0.30000025506E+02 0.  0.
         12    1    1    2    0    0 -0.34641457057E+02  0.38536743724E+01 -0.20935224913E+02  0.40659131759E+02  0.00000000000E+00 0. -1.
         11    1    3    3    0    0  0.12462667696E+02  0.63993134176E+01  0.14405799615E+02  0.20094684898E+02  0.51100000000E-03 0. -1.
        -11    1    3    3    0    0  0.23288530058E+02 -0.48907327595E+01  0.73304815026E+01  0.24900017239E+02  0.51100000000E-03 0.  1.
         12    1    3    3    0    0 -0.11097406972E+01 -0.53622550305E+01 -0.80105620466E+00  0.55341661043E+01  0.00000000000E+00 0. -1.
</event>
<event>
 7    1  0.3004200E-011  0.5052886E+02  0.7816164E-02  0.1300439E+00
        -11   -1    0    0    0    0  0.00000000000E+00  0.00000000000E+00  0.45593999997E+02  0.45594000000E+02  0.51100000000E-03 0.  1.
         11   -1    0    0    0    0 -0.00000000000E+00 -0.00000000000E+00 -0.45593999997E+02  0.45594000000E+02  0.51100000000E-03 0. -1.
    9900012    2    1    2    0    0 -0.39832662406E+02 -0.81232962843E+01 -0.73272207979E+00  0.50528858119E+02  0.29999994739E+02 0.  0.
         12    1    1    2    0    0  0.39832662406E+02  0.81232962843E+01  0.73272207979E+00  0.40659141881E+02  0.00000000000E+00 0. -1.
         11    1    3    3    0    0  0.18398901432E+00  0.57196226798E+00  0.64574930967E+01  0.64853843485E+01  0.51100000000E-03 0. -1.
        -11    1    3    3    0    0 -0.33519762018E+02 -0.12123326002E+01 -0.56841455939E+01  0.34019901638E+02  0.51100000000E-03 0.  1.
         12    1    3    3    0    0 -0.64968894025E+01 -0.74829259521E+01 -0.15060695826E+01  0.10023572133E+02  0.00000000000E+00 0. -1.
</event>
<event>
 7    1  0.3004200E-011  0.5052886E+02  0.7816164E-02  0.1300439E+00
        -11   -1    0    0    0    0  0.00000000000E+00  0.00000000000E+00  0.45593999997E+02  0.45594000000E+02  0.51100000000E-03 0. -1.
         11   -1    0    0    0    0 -0.00000000000E+00 -0.00000000000E+00 -0.45593999997E+02  0.45594000000E+02  0.51100000000E-03 0.  1.
    9900012    2    1    2    0    0  0.26639133856E+02  0.16987041474E+02 -0.25592243137E+02  0.50528856632E+02  0.29999990219E+02 0.  0.
         12    1    1    2    0    0 -0.26639133856E+02 -0.16987041474E+02  0.25592243137E+02  0.40659143368E+02  0.00000000000E+00 0. -1.
         11    1    3    3    0    0  0.29890546837E+02  0.19692490114E+02 -0.19763610731E+02  0.40888131120E+02  0.51100000000E-03 0. -1.
        -11    1    3    3    0    0 -0.22453188166E+01  0.16066085394E+01 -0.39767363394E+01  0.48411857805E+01  0.51100000000E-03 0.  1.
         12    1    3    3    0    0 -0.10060941646E+01 -0.43120571798E+01 -0.18518960670E+01  0.47995397314E+01  0.00000000000E+00 0. -1.
</event>
<event>
 7    1  0.3004200E-011  0.5052886E+02  0.7816164E-02  0.1300439E+00
        -11   -1    0    0    0    0  0.00000000000E+00  0.00000000000E+00  0.45593999997E+02  0.45594000000E+02  0.51100000000E-03 0.  1.
         11   -1    0    0    0    0 -0.00000000000E+00 -0.00000000000E+00 -0.45593999997E+02  0.45594000000E+02  0.51100000000E-03 0. -1.
    9900012    2    1    2    0    0  0.12653188549E+02 -0.28060603116E+02  0.26564352424E+02  0.50528862683E+02  0.30000008610E+02 0.  0.
         12    1    1    2    0    0 -0.12653188549E+02  0.28060603116E+02 -0.26564352424E+02  0.40659137317E+02  0.00000000000E+00 0. -1.
         11    1    3    3    0    0  0.36082128102E+01 -0.18273362001E+02  0.30800123961E+00  0.18628736499E+02  0.51100000000E-03 0. -1.
        -11    1    3    3    0    0  0.11430969888E+02 -0.70687849960E+01  0.15313278280E+02  0.20374770817E+02  0.51100000000E-03 0.  1.
         12    1    3    3    0    0 -0.23859941490E+01 -0.27184561186E+01  0.10943072904E+02  0.11525355367E+02  0.00000000000E+00 0. -1.
</event>
<event>
 7    1  0.3004200E-011  0.5052888E+02  0.7816164E-02  0.1300439E+00
        -11   -1    0    0    0    0  0.00000000000E+00  0.00000000000E+00  0.45593999997E+02  0.45594000000E+02  0.51100000000E-03 0.  1.
         11   -1    0    0    0    0 -0.00000000000E+00 -0.00000000000E+00 -0.45593999997E+02  0.45594000000E+02  0.51100000000E-03 0. -1.
    9900012    2    1    2    0    0 -0.11014067253E+02 -0.28805775580E+02  0.26496821711E+02  0.50528881157E+02  0.30000064766E+02 0.  0.
         12    1    1    2    0    0  0.11014067253E+02  0.28805775580E+02 -0.26496821711E+02  0.40659118843E+02  0.00000000000E+00 0. -1.
         11    1    3    3    0    0 -0.88105826963E+00  0.40339920729E+01  0.26859252086E+00  0.41378131812E+01  0.51100000000E-03 0. -1.
        -11    1    3    3    0    0 -0.44296002773E+01 -0.31249997183E+02  0.18259827881E+02  0.36463749081E+02  0.51100000000E-03 0.  1.
        -12    1    3    3    0    0 -0.57034087060E+01 -0.15897704705E+01  0.79684013092E+01  0.99273188949E+01  0.00000000000E+00 0.  1.
</event>
<event>
 7    1  0.3004200E-011  0.5052887E+02  0.7816164E-02  0.1300439E+00
        -11   -1    0    0    0    0  0.00000000000E+00  0.00000000000E+00  0.45593999997E+02  0.45594000000E+02  0.51100000000E-03 0.  1.
         11   -1    0    0    0    0 -0.00000000000E+00 -0.00000000000E+00 -0.45593999997E+02  0.45594000000E+02  0.51100000000E-03 0. -1.
    9900012    2    1    2    0    0 -0.10537091912E+02 -0.15329331378E+02  0.36154481759E+02  0.50528865015E+02  0.30000015701E+02 0.  0.
         12    1    1    2    0    0  0.10537091912E+02  0.15329331378E+02 -0.36154481759E+02  0.40659134985E+02  0.00000000000E+00 0. -1.
         11    1    3    3    0    0 -0.67466974543E+01  0.33973487673E+01  0.68631963553E+00  0.75849152987E+01  0.51100000000E-03 0. -1.
        -11    1    3    3    0    0  0.26083795528E+01 -0.17427074867E+02  0.27189767469E+02  0.32400463540E+02  0.51100000000E-03 0.  1.
        -12    1    3    3    0    0 -0.63987740102E+01 -0.12996052785E+01  0.82783946539E+01  0.10543486177E+02  0.00000000000E+00 0.  1.
</event>
<event>
 7    1  0.3004200E-011  0.5052889E+02  0.7816164E-02  0.1300439E+00
        -11   -1    0    0    0    0  0.00000000000E+00  0.00000000000E+00  0.45593999997E+02  0.45594000000E+02  0.51100000000E-03 0. -1.
         11   -1    0    0    0    0 -0.00000000000E+00 -0.00000000000E+00 -0.45593999997E+02  0.45594000000E+02  0.51100000000E-03 0.  1.
    9900012    2    1    2    0    0  0.23186431069E+02 -0.16085423681E+02 -0.29271341877E+02  0.50528894058E+02  0.30000103978E+02 0.  0.
         12    1    1    2    0    0 -0.23186431069E+02  0.16085423681E+02  0.29271341877E+02  0.40659105942E+02  0.00000000000E+00 0. -1.
         11    1    3    3    0    0  0.19784855938E+01 -0.79014177900E+01 -0.24409877517E+01  0.85032481913E+01  0.51100000000E-03 0. -1.
        -11    1    3    3    0    0  0.29180034070E+01  0.46005781437E+01 -0.16611334234E+02  0.17481890299E+02  0.51100000000E-03 0.  1.
        -12    1    3    3    0    0  0.18289942069E+02 -0.12784584035E+02 -0.10219019891E+02  0.24543755568E+02  0.00000000000E+00 0.  1.
</event>
<event>
 7    1  0.3004200E-011  0.5052886E+02  0.7816164E-02  0.1300439E+00
        -11   -1    0    0    0    0  0.00000000000E+00  0.00000000000E+00  0.45593999997E+02  0.45594000000E+02  0.51100000000E-03 0.  1.
         11   -1    0    0    0    0 -0.00000000000E+00 -0.00000000000E+00 -0.45593999997E+02  0.45594000000E+02  0.51100000000E-03 0. -1.
    9900012    2    1    2    0    0  0.93691986337E+01  0.27746798113E+02  0.28204586996E+02  0.50528863066E+02  0.30000009776E+02 0.  0.
         12    1    1    2    0    0 -0.93691986337E+01 -0.27746798113E+02 -0.28204586996E+02  0.40659136934E+02  0.00000000000E+00 0. -1.
         11    1    3    3    0    0  0.41814339682E+01  0.63088875952E+00 -0.25227710880E+01  0.49241024442E+01  0.51100000000E-03 0. -1.
        -11    1    3    3    0    0  0.40786707261E+01  0.30017819173E+02  0.25858553637E+02  0.39829258332E+02  0.51100000000E-03 0.  1.
        -12    1    3    3    0    0  0.11090939394E+01 -0.29019098192E+01  0.48688044467E+01  0.57755022903E+01  0.00000000000E+00 0.  1.
</event>
<event>
 7    1  0.3004200E-011  0.5052886E+02  0.7816164E-02  0.1300439E+00
        -11   -1    0    0    0    0  0.00000000000E+00  0.00000000000E+00  0.45593999997E+02  0.45594000000E+02  0.51100000000E-03 0.  1.
         11   -1    0    0    0    0 -0.00000000000E+00 -0.00000000000E+00 -0.45593999997E+02  0.45594000000E+02  0.51100000000E-03 0. -1.
    9900012    2    1    2    0    0 -0.19008761018E+02 -0.22629115243E+02  0.27924106546E+02  0.50528861070E+02  0.30000003709E+02 0.  0.
         12    1    1    2    0    0  0.19008761018E+02  0.22629115243E+02 -0.27924106546E+02  0.40659138930E+02  0.00000000000E+00 0. -1.
         11    1    3    3    0    0 -0.11480759248E+02 -0.12938079114E+02  0.30877345003E+01  0.17570880134E+02  0.51100000000E-03 0.  1.
        -11    1    3    3    0    0  0.57541342349E+01 -0.26951293467E+01  0.10026384324E+02  0.11870221812E+02  0.51100000000E-03 0. -1.
        -12    1    3    3    0    0 -0.13282136005E+02 -0.69959067817E+01  0.14809987722E+02  0.21087759124E+02  0.00000000000E+00 0.  1.
</event>
<event>
 7    1  0.3004200E-011  0.5052886E+02  0.7816164E-02  0.1300439E+00
        -11   -1    0    0    0    0  0.00000000000E+00  0.00000000000E+00  0.45593999997E+02  0.45594000000E+02  0.51100000000E-03 0.  1.
         11   -1    0    0    0    0 -0.00000000000E+00 -0.00000000000E+00 -0.45593999997E+02  0.45594000000E+02  0.51100000000E-03 0. -1.
    9900012    2    1    2    0    0  0.88274390432E+01  0.76913677037E+01  0.38936937899E+02  0.50528856500E+02  0.29999989817E+02 0.  0.
         12    1    1    2    0    0 -0.88274390432E+01 -0.76913677037E+01 -0.38936937899E+02  0.40659143500E+02  0.00000000000E+00 0. -1.
         11    1    3    3    0    0  0.13178266827E+02  0.14965771739E+02  0.22573019807E+02  0.30119466526E+02  0.51100000000E-03 0. -1.
        -11    1    3    3    0    0 -0.26988144073E+01 -0.85554764932E+01  0.88179249143E+01  0.12579172361E+02  0.51100000000E-03 0.  1.
        -12    1    3    3    0    0 -0.16520133761E+01  0.12810724579E+01  0.75459931775E+01  0.78302176133E+01  0.00000000000E+00 0.  1.
</event>
<event>
 7    1  0.3004200E-011  0.5052886E+02  0.7816164E-02  0.1300439E+00
        -11   -1    0    0    0    0  0.00000000000E+00  0.00000000000E+00  0.45593999997E+02  0.45594000000E+02  0.51100000000E-03 0.  1.
         11   -1    0    0    0    0 -0.00000000000E+00 -0.00000000000E+00 -0.45593999997E+02  0.45594000000E+02  0.51100000000E-03 0. -1.
    9900012    2    1    2    0    0  0.14531242534E+02  0.78646759051E+01  0.37150444071E+02  0.50528860420E+02  0.30000001734E+02 0.  0.
         12    1    1    2    0    0 -0.14531242534E+02 -0.78646759051E+01 -0.37150444071E+02  0.40659139580E+02  0.00000000000E+00 0. -1.
         11    1    3    3    0    0 -0.41626425955E+01  0.46973202740E+01  0.17183849736E+02  0.18294182221E+02  0.51100000000E-03 0. -1.
        -11    1    3    3    0    0  0.19257254326E+02 -0.26652327176E+01  0.15630100992E+02  0.24944846499E+02  0.51100000000E-03 0.  1.
        -12    1    3    3    0    0 -0.56336919621E+00  0.58325883487E+01  0.43364933438E+01  0.72898317002E+01  0.00000000000E+00 0.  1.
</event>
<event>
 7    1  0.3004200E-011  0.5052886E+02  0.7816164E-02  0.1300439E+00
        -11   -1    0    0    0    0  0.00000000000E+00  0.00000000000E+00  0.45593999997E+02  0.45594000000E+02  0.51100000000E-03 0.  1.
         11   -1    0    0    0    0 -0.00000000000E+00 -0.00000000000E+00 -0.45593999997E+02  0.45594000000E+02  0.51100000000E-03 0. -1.
    9900012    2    1    2    0    0 -0.26439037146E+02  0.17172849553E+02  0.25675593088E+02  0.50528861699E+02  0.30000005621E+02 0.  0.
         12    1    1    2    0    0  0.26439037146E+02 -0.17172849553E+02 -0.25675593088E+02  0.40659138301E+02  0.00000000000E+00 0. -1.
         11    1    3    3    0    0  0.38336710547E+01  0.10152679563E+02  0.63553753235E+01  0.12576356063E+02  0.51100000000E-03 0. -1.
        -11    1    3    3    0    0 -0.11751736418E+02 -0.77836124320E+00  0.11280030932E+02  0.16307919952E+02  0.51100000000E-03 0.  1.
        -12    1    3    3    0    0 -0.18520971782E+02  0.77985312338E+01  0.80401868325E+01  0.21644585685E+02  0.00000000000E+00 0.  1.
</event>
<event>
 7    1  0.3004200E-011  0.5052886E+02  0.7816164E-02  0.1300439E+00
        -11   -1    0    0    0    0  0.00000000000E+00  0.00000000000E+00  0.45593999997E+02  0.45594000000E+02  0.51100000000E-03 0.  1.
         11   -1    0    0    0    0 -0.00000000000E+00 -0.00000000000E+00 -0.45593999997E+02  0.45594000000E+02  0.51100000000E-03 0. -1.
    9900012    2    1    2    0    0 -0.73533306857E+01  0.71895324893E+01  0.39337068413E+02  0.50528858336E+02  0.29999995397E+02 0.  0.
         12    1    1    2    0    0  0.73533306857E+01 -0.71895324893E+01 -0.39337068413E+02  0.40659141664E+02  0.00000000000E+00 0. -1.
         11    1    3    3    0    0 -0.40573788128E+01 -0.77109759405E+01  0.41866689090E+01  0.96669369296E+01  0.51100000000E-03 0. -1.
        -11    1    3    3    0    0  0.83385967651E+00  0.13497132779E+02  0.14792912981E+02  0.20042409784E+02  0.51100000000E-03 0.  1.
        -12    1    3    3    0    0 -0.41298115494E+01  0.14033756503E+01  0.20357486523E+02  0.20819511622E+02  0.00000000000E+00 0.  1.
</event>
<event>
 7    1  0.3004200E-011  0.5052887E+02  0.7816164E-02  0.1300439E+00
        -11   -1    0    0    0    0  0.00000000000E+00  0.00000000000E+00  0.45593999997E+02  0.45594000000E+02  0.51100000000E-03 0.  1.
         11   -1    0    0    0    0 -0.00000000000E+00 -0.00000000000E+00 -0.45593999997E+02  0.45594000000E+02  0.51100000000E-03 0. -1.
    9900012    2    1    2    0    0 -0.18373686804E+02 -0.31149424451E+02  0.18581866264E+02  0.50528871083E+02  0.30000034144E+02 0.  0.
         12    1    1    2    0    0  0.18373686804E+02  0.31149424451E+02 -0.18581866264E+02  0.40659128917E+02  0.00000000000E+00 0. -1.
         11    1    3    3    0    0 -0.20894487924E+02 -0.32306614732E+02  0.11076397621E+02  0.40037277199E+02  0.51100000000E-03 0. -1.
        -11    1    3    3    0    0  0.14861341661E+01  0.33191681974E+01  0.13384115256E+01  0.38751539266E+01  0.51100000000E-03 0.  1.
        -12    1    3    3    0    0  0.10346669533E+01 -0.21619779170E+01  0.61670571174E+01  0.66164399572E+01  0.00000000000E+00 0.  1.
</event>
<event>
 7    1  0.3004200E-011  0.5052883E+02  0.7816164E-02  0.1300439E+00
        -11   -1    0    0    0    0  0.00000000000E+00  0.00000000000E+00  0.45593999997E+02  0.45594000000E+02  0.51100000000E-03 0.  1.
         11   -1    0    0    0    0 -0.00000000000E+00 -0.00000000000E+00 -0.45593999997E+02  0.45594000000E+02  0.51100000000E-03 0. -1.
    9900012    2    1    2    0    0  0.17740341783E+02  0.96221405528E+01  0.35296780002E+02  0.50528831368E+02  0.29999913425E+02 0.  0.
         12    1    1    2    0    0 -0.17740341783E+02 -0.96221405528E+01 -0.35296780002E+02  0.40659168632E+02  0.00000000000E+00 0. -1.
         11    1    3    3    0    0  0.66079947325E-01 -0.23585074690E+01  0.19631801870E+02  0.19773076872E+02  0.51100000000E-03 0. -1.
        -11    1    3    3    0    0  0.13784390327E+02  0.15820997594E+02  0.11967510099E+02  0.24156462485E+02  0.51100000000E-03 0.  1.
         12    1    3    3    0    0  0.38898715085E+01 -0.38403495724E+01  0.36974680324E+01  0.65992920106E+01  0.00000000000E+00 0. -1.
</event>
<event>
 7    1  0.3004200E-011  0.5052886E+02  0.7816164E-02  0.1300439E+00
        -11   -1    0    0    0    0  0.00000000000E+00  0.00000000000E+00  0.45593999997E+02  0.45594000000E+02  0.51100000000E-03 0.  1.
         11   -1    0    0    0    0 -0.00000000000E+00 -0.00000000000E+00 -0.45593999997E+02  0.45594000000E+02  0.51100000000E-03 0. -1.
    9900012    2    1    2    0    0 -0.24477726193E+02  0.14008655084E+02  0.29287610774E+02  0.50528860293E+02  0.30000001348E+02 0.  0.
         12    1    1    2    0    0  0.24477726193E+02 -0.14008655084E+02 -0.29287610774E+02  0.40659139707E+02  0.00000000000E+00 0. -1.
         11    1    3    3    0    0 -0.94321127422E+01 -0.82572780259E+01  0.15747856581E+02  0.20128148905E+02  0.51100000000E-03 0. -1.
        -11    1    3    3    0    0 -0.80018278822E+01  0.11383114041E+02  0.46047108339E+01  0.14656326172E+02  0.51100000000E-03 0.  1.
         12    1    3    3    0    0 -0.70437855688E+01  0.10882819069E+02  0.89350433586E+01  0.15744385217E+02  0.00000000000E+00 0. -1.
</event>
<event>
 7    1  0.3004200E-011  0.5052889E+02  0.7816164E-02  0.1300439E+00
        -11   -1    0    0    0    0  0.00000000000E+00  0.00000000000E+00  0.45593999997E+02  0.45594000000E+02  0.51100000000E-03 0.  1.
         11   -1    0    0    0    0 -0.00000000000E+00 -0.00000000000E+00 -0.45593999997E+02  0.45594000000E+02  0.51100000000E-03 0. -1.
    9900012    2    1    2    0    0  0.17335467019E+02 -0.26774640364E+02  0.25214352586E+02  0.50528888356E+02  0.30000086646E+02 0.  0.
         12    1    1    2    0    0 -0.17335467019E+02  0.26774640364E+02 -0.25214352586E+02  0.40659111644E+02  0.00000000000E+00 0. -1.
         11    1    3    3    0    0  0.18887582345E+02 -0.84910681855E+01  0.90947486693E+01  0.22617547599E+02  0.51100000000E-03 0. -1.
        -11    1    3    3    0    0 -0.20233527432E+01 -0.11100944333E+02  0.17262341996E+02  0.20623127135E+02  0.51100000000E-03 0.  1.
         12    1    3    3    0    0  0.47123741664E+00 -0.71826278455E+01 -0.11427380788E+01  0.72882136211E+01  0.00000000000E+00 0. -1.
</event>
<event>
 7    1  0.3004200E-011  0.5052881E+02  0.7816164E-02  0.1300439E+00
        -11   -1    0    0    0    0  0.00000000000E+00  0.00000000000E+00  0.45593999997E+02  0.45594000000E+02  0.51100000000E-03 0. -1.
         11   -1    0    0    0    0 -0.00000000000E+00 -0.00000000000E+00 -0.45593999997E+02  0.45594000000E+02  0.51100000000E-03 0.  1.
    9900012    2    1    2    0    0  0.27165982921E+02 -0.15612088357E+02 -0.25912189191E+02  0.50528813098E+02  0.29999857891E+02 0.  0.
         12    1    1    2    0    0 -0.27165982921E+02  0.15612088357E+02  0.25912189191E+02  0.40659186902E+02  0.00000000000E+00 0. -1.
         11    1    3    3    0    0  0.71986850418E+01  0.63007885410E+01 -0.23884982755E+01  0.98603208286E+01  0.51100000000E-03 0. -1.
        -11    1    3    3    0    0  0.11460080001E+02 -0.80788714453E+01 -0.19357472405E+02  0.23902161736E+02  0.51100000000E-03 0.  1.
         12    1    3    3    0    0  0.85072178778E+01 -0.13834005452E+02 -0.41662185101E+01  0.16766330533E+02  0.00000000000E+00 0. -1.
</event>
<event>
 7    1  0.3004200E-011  0.5052885E+02  0.7816164E-02  0.1300439E+00
        -11   -1    0    0    0    0  0.00000000000E+00  0.00000000000E+00  0.45593999997E+02  0.45594000000E+02  0.51100000000E-03 0. -1.
         11   -1    0    0    0    0 -0.00000000000E+00 -0.00000000000E+00 -0.45593999997E+02  0.45594000000E+02  0.51100000000E-03 0.  1.
    9900012    2    1    2    0    0 -0.19258235268E+02  0.33035362364E+02 -0.13818514203E+02  0.50528854326E+02  0.29999983208E+02 0.  0.
         12    1    1    2    0    0  0.19258235268E+02 -0.33035362364E+02  0.13818514203E+02  0.40659145674E+02  0.00000000000E+00 0. -1.
         11    1    3    3    0    0 -0.38020251815E+01  0.22047521104E+02 -0.17380234829E+02  0.28330569096E+02  0.51100000000E-03 0.  1.
        -11    1    3    3    0    0 -0.89061960060E+01  0.53788512338E+00 -0.11491945219E+01  0.89961267229E+01  0.51100000000E-03 0. -1.
        -12    1    3    3    0    0 -0.65500140806E+01  0.10449956137E+02  0.47109151475E+01  0.13202158507E+02  0.00000000000E+00 0.  1.
</event>
<event>
 7    1  0.3004200E-011  0.5052886E+02  0.7816164E-02  0.1300439E+00
        -11   -1    0    0    0    0  0.00000000000E+00  0.00000000000E+00  0.45593999997E+02  0.45594000000E+02  0.51100000000E-03 0. -1.
         11   -1    0    0    0    0 -0.00000000000E+00 -0.00000000000E+00 -0.45593999997E+02  0.45594000000E+02  0.51100000000E-03 0.  1.
    9900012    2    1    2    0    0  0.27378449589E+02 -0.21155542358E+02 -0.21354844595E+02  0.50528857584E+02  0.29999993112E+02 0.  0.
         12    1    1    2    0    0 -0.27378449589E+02  0.21155542358E+02  0.21354844595E+02  0.40659142416E+02  0.00000000000E+00 0. -1.
         11    1    3    3    0    0  0.56857374631E+01  0.59467245092E+01 -0.17478775110E+01  0.84110771571E+01  0.51100000000E-03 0. -1.
        -11    1    3    3    0    0  0.13332477229E+02 -0.21740201681E+02 -0.77578132872E+01  0.26656612415E+02  0.51100000000E-03 0.  1.
        -12    1    3    3    0    0  0.83602348969E+01 -0.53620651866E+01 -0.11849153797E+02  0.15461168012E+02  0.00000000000E+00 0.  1.
</event>
<event>
 7    1  0.3004200E-011  0.5052886E+02  0.7816164E-02  0.1300439E+00
        -11   -1    0    0    0    0  0.00000000000E+00  0.00000000000E+00  0.45593999997E+02  0.45594000000E+02  0.51100000000E-03 0. -1.
         11   -1    0    0    0    0 -0.00000000000E+00 -0.00000000000E+00 -0.45593999997E+02  0.45594000000E+02  0.51100000000E-03 0.  1.
    9900012    2    1    2    0    0 -0.25068142617E+02  0.13530945447E+02 -0.29011508867E+02  0.50528857047E+02  0.29999991479E+02 0.  0.
         12    1    1    2    0    0  0.25068142617E+02 -0.13530945447E+02  0.29011508867E+02  0.40659142953E+02  0.00000000000E+00 0. -1.
         11    1    3    3    0    0  0.39851213879E+01  0.70782550893E+01 -0.52828945089E+01  0.96897813308E+01  0.51100000000E-03 0. -1.
        -11    1    3    3    0    0 -0.12223770378E+02  0.84082249784E+01 -0.17117168194E+02  0.22652069591E+02  0.51100000000E-03 0.  1.
         12    1    3    3    0    0 -0.16829493626E+02 -0.19555346212E+01 -0.66114461650E+01  0.18187006124E+02  0.00000000000E+00 0. -1.
</event>
<event>
 7    1  0.3004200E-011  0.5052886E+02  0.7816164E-02  0.1300439E+00
        -11   -1    0    0    0    0  0.00000000000E+00  0.00000000000E+00  0.45593999997E+02  0.45594000000E+02  0.51100000000E-03 0.  1.
         11   -1    0    0    0    0 -0.00000000000E+00 -0.00000000000E+00 -0.45593999997E+02  0.45594000000E+02  0.51100000000E-03 0. -1.
    9900012    2    1    2    0    0  0.20523388667E+02 -0.32115897720E+02  0.14160699280E+02  0.50528858681E+02  0.29999996446E+02 0.  0.
         12    1    1    2    0    0 -0.20523388667E+02  0.32115897720E+02 -0.14160699280E+02  0.40659141319E+02  0.00000000000E+00 0. -1.
         11    1    3    3    0    0  0.10061990578E+01  0.38985124941E+01 -0.11373119509E+01  0.41838158355E+01  0.51100000000E-03 0. -1.
        -11    1    3    3    0    0  0.97219632419E+01 -0.31429415316E+02  0.12289667154E+02  0.35119234551E+02  0.51100000000E-03 0.  1.
        -12    1    3    3    0    0  0.97952263667E+01 -0.45849948980E+01  0.30083440763E+01  0.11225808295E+02  0.00000000000E+00 0.  1.
</event>
<event>
 7    1  0.3004200E-011  0.5052886E+02  0.7816164E-02  0.1300439E+00
        -11   -1    0    0    0    0  0.00000000000E+00  0.00000000000E+00  0.45593999997E+02  0.45594000000E+02  0.51100000000E-03 0.  1.
         11   -1    0    0    0    0 -0.00000000000E+00 -0.00000000000E+00 -0.45593999997E+02  0.45594000000E+02  0.51100000000E-03 0. -1.
    9900012    2    1    2    0    0 -0.14078768782E+02  0.16722671086E+01  0.38107181960E+02  0.50528861733E+02  0.30000005724E+02 0.  0.
         12    1    1    2    0    0  0.14078768782E+02 -0.16722671086E+01 -0.38107181960E+02  0.40659138267E+02  0.00000000000E+00 0. -1.
         11    1    3    3    0    0 -0.63276611821E+01  0.40119632146E+01  0.38924154826E+02  0.39638680276E+02  0.51100000000E-03 0.  1.
        -11    1    3    3    0    0 -0.76376528419E+01  0.83464432390E+00 -0.58228142991E+00  0.77051556769E+01  0.51100000000E-03 0. -1.
        -12    1    3    3    0    0 -0.11345475806E+00 -0.31743404300E+01 -0.23469143631E+00  0.31850257798E+01  0.00000000000E+00 0.  1.
</event>
<event>
 7    1  0.3004200E-011  0.5052885E+02  0.7816164E-02  0.1300439E+00
        -11   -1    0    0    0    0  0.00000000000E+00  0.00000000000E+00  0.45593999997E+02  0.45594000000E+02  0.51100000000E-03 0. -1.
         11   -1    0    0    0    0 -0.00000000000E+00 -0.00000000000E+00 -0.45593999997E+02  0.45594000000E+02  0.51100000000E-03 0.  1.
    9900012    2    1    2    0    0  0.25829051367E+02  0.63287889836E+01 -0.30756671042E+02  0.50528852467E+02  0.29999977559E+02 0.  0.
         12    1    1    2    0    0 -0.25829051367E+02 -0.63287889836E+01  0.30756671042E+02  0.40659147533E+02  0.00000000000E+00 0. -1.
         11    1    3    3    0    0  0.29044343895E+01 -0.26606918739E+01  0.19648448386E+01  0.44017764450E+01  0.51100000000E-03 0. -1.
        -11    1    3    3    0    0  0.26336543913E+02  0.62256973696E+01 -0.23214635343E+02  0.35655184019E+02  0.51100000000E-03 0.  1.
        -12    1    3    3    0    0 -0.34119269353E+01  0.27637834879E+01 -0.95068805371E+01  0.10471892003E+02  0.00000000000E+00 0.  1.
</event>
<event>
 7    1  0.3004200E-011  0.5052886E+02  0.7816164E-02  0.1300439E+00
        -11   -1    0    0    0    0  0.00000000000E+00  0.00000000000E+00  0.45593999997E+02  0.45594000000E+02  0.51100000000E-03 0. -1.
         11   -1    0    0    0    0 -0.00000000000E+00 -0.00000000000E+00 -0.45593999997E+02  0.45594000000E+02  0.51100000000E-03 0.  1.
    9900012    2    1    2    0    0 -0.43076363458E+00 -0.13447080090E+01 -0.40634617080E+02  0.50528857090E+02  0.29999991611E+02 0.  0.
         12    1    1    2    0    0  0.43076363458E+00  0.13447080090E+01  0.40634617080E+02  0.40659142910E+02  0.00000000000E+00 0. -1.
         11    1    3    3    0    0  0.11036888675E+02  0.62534854664E+01 -0.10489559017E+02  0.16460554083E+02  0.51100000000E-03 0. -1.
        -11    1    3    3    0    0 -0.95518635882E+01 -0.62257291571E+01 -0.15538507819E+02  0.19272857262E+02  0.51100000000E-03 0.  1.
         12    1    3    3    0    0 -0.19157887218E+01 -0.13724643183E+01 -0.14606550245E+02  0.14795445745E+02  0.00000000000E+00 0. -1.
</event>
<event>
 7    1  0.3004200E-011  0.5052886E+02  0.7816164E-02  0.1300439E+00
        -11   -1    0    0    0    0  0.00000000000E+00  0.00000000000E+00  0.45593999997E+02  0.45594000000E+02  0.51100000000E-03 0.  1.
         11   -1    0    0    0    0 -0.00000000000E+00 -0.00000000000E+00 -0.45593999997E+02  0.45594000000E+02  0.51100000000E-03 0. -1.
    9900012    2    1    2    0    0  0.62497742329E+01  0.30636227443E+02  0.25990915224E+02  0.50528858542E+02  0.29999996025E+02 0.  0.
         12    1    1    2    0    0 -0.62497742329E+01 -0.30636227443E+02 -0.25990915224E+02  0.40659141458E+02  0.00000000000E+00 0. -1.
         11    1    3    3    0    0  0.84014407581E+01  0.84174357639E+01  0.68679045843E+01  0.13733373413E+02  0.51100000000E-03 0. -1.
        -11    1    3    3    0    0 -0.10002003848E+02  0.21190496644E+02  0.15451338948E+02  0.28068151071E+02  0.51100000000E-03 0.  1.
        -12    1    3    3    0    0  0.78503373228E+01  0.10282950350E+01  0.36716716921E+01  0.87273340588E+01  0.00000000000E+00 0.  1.
</event>
<event>
 7    1  0.3004200E-011  0.5052886E+02  0.7816164E-02  0.1300439E+00
        -11   -1    0    0    0    0  0.00000000000E+00  0.00000000000E+00  0.45593999997E+02  0.45594000000E+02  0.51100000000E-03 0.  1.
         11   -1    0    0    0    0 -0.00000000000E+00 -0.00000000000E+00 -0.45593999997E+02  0.45594000000E+02  0.51100000000E-03 0. -1.
    9900012    2    1    2    0    0  0.22627711459E+02 -0.12614691324E+02  0.31337232281E+02  0.50528857239E+02  0.29999992062E+02 0.  0.
         12    1    1    2    0    0 -0.22627711459E+02  0.12614691324E+02 -0.31337232281E+02  0.40659142761E+02  0.00000000000E+00 0. -1.
         11    1    3    3    0    0  0.25344627468E+02 -0.11448323640E+01  0.18128464132E+02  0.31181757402E+02  0.51100000000E-03 0. -1.
        -11    1    3    3    0    0  0.55179485007E+00 -0.84362961489E+01  0.12084219941E+02  0.14748014854E+02  0.51100000000E-03 0.  1.
         12    1    3    3    0    0 -0.32687108590E+01 -0.30335628116E+01  0.11245482074E+01  0.45990849831E+01  0.00000000000E+00 0. -1.
</event>
<event>
 7    1  0.3004200E-011  0.5052885E+02  0.7816164E-02  0.1300439E+00
        -11   -1    0    0    0    0  0.00000000000E+00  0.00000000000E+00  0.45593999997E+02  0.45594000000E+02  0.51100000000E-03 0.  1.
         11   -1    0    0    0    0 -0.00000000000E+00 -0.00000000000E+00 -0.45593999997E+02  0.45594000000E+02  0.51100000000E-03 0. -1.
    9900012    2    1    2    0    0 -0.18426292874E+02  0.20024448348E+01  0.36188784870E+02  0.50528853369E+02  0.29999980300E+02 0.  0.
         12    1    1    2    0    0  0.18426292874E+02 -0.20024448348E+01 -0.36188784870E+02  0.40659146631E+02  0.00000000000E+00 0. -1.
         11    1    3    3    0    0 -0.27904390620E+01  0.96726557362E+01  0.10659931355E+02  0.14662228886E+02  0.51100000000E-03 0. -1.
        -11    1    3    3    0    0 -0.18299421826E+01 -0.77928515637E+01  0.18953088937E+02  0.20574178098E+02  0.51100000000E-03 0.  1.
        -12    1    3    3    0    0 -0.13805911630E+02  0.12264066233E+00  0.65757645781E+01  0.15292446385E+02  0.00000000000E+00 0.  1.
</event>
<event>
 7    1  0.3004200E-011  0.5052886E+02  0.7816164E-02  0.1300439E+00
        -11   -1    0    0    0    0  0.00000000000E+00  0.00000000000E+00  0.45593999997E+02  0.45594000000E+02  0.51100000000E-03 0.  1.
         11   -1    0    0    0    0 -0.00000000000E+00 -0.00000000000E+00 -0.45593999997E+02  0.45594000000E+02  0.51100000000E-03 0. -1.
    9900012    2    1    2    0    0 -0.30935204036E+02  0.26383423509E+02  0.30608557044E+00  0.50528861135E+02  0.30000003907E+02 0.  0.
         12    1    1    2    0    0  0.30935204036E+02 -0.26383423509E+02 -0.30608557044E+00  0.40659138865E+02  0.00000000000E+00 0. -1.
         11    1    3    3    0    0 -0.13362492995E+02 -0.33080342404E+01 -0.32082386170E+01  0.14134783510E+02  0.51100000000E-03 0.  1.
        -11    1    3    3    0    0 -0.16980438319E+02  0.21757194280E+02  0.56163092452E+01  0.28164760220E+02  0.51100000000E-03 0. -1.
         12    1    3    3    0    0 -0.59227272231E+00  0.79342634695E+01 -0.21019850578E+01  0.82293174057E+01  0.00000000000E+00 0. -1.
</event>
<event>
 7    1  0.3004200E-011  0.5052887E+02  0.7816164E-02  0.1300439E+00
        -11   -1    0    0    0    0  0.00000000000E+00  0.00000000000E+00  0.45593999997E+02  0.45594000000E+02  0.51100000000E-03 0.  1.
         11   -1    0    0    0    0 -0.00000000000E+00 -0.00000000000E+00 -0.45593999997E+02  0.45594000000E+02  0.51100000000E-03 0. -1.
    9900012    2    1    2    0    0  0.26082917691E+01  0.40004953825E+02  0.67797939124E+01  0.50528866684E+02  0.30000020774E+02 0.  0.
         12    1    1    2    0    0 -0.26082917691E+01 -0.40004953825E+02 -0.67797939124E+01  0.40659133316E+02  0.00000000000E+00 0. -1.
         11    1    3    3    0    0  0.23996953661E+01  0.75222803303E+01  0.10113657551E+02  0.12830795320E+02  0.51100000000E-03 0. -1.
        -11    1    3    3    0    0 -0.22869446498E+01  0.32819809992E+02  0.74116827977E+00  0.32907740343E+02  0.51100000000E-03 0.  1.
         12    1    3    3    0    0  0.24955410529E+01 -0.33713649795E+00 -0.40750319184E+01  0.47903310221E+01  0.00000000000E+00 0. -1.
</event>
<event>
 7    1  0.3004200E-011  0.5052886E+02  0.7816164E-02  0.1300439E+00
        -11   -1    0    0    0    0  0.00000000000E+00  0.00000000000E+00  0.45593999997E+02  0.45594000000E+02  0.51100000000E-03 0.  1.
         11   -1    0    0    0    0 -0.00000000000E+00 -0.00000000000E+00 -0.45593999997E+02  0.45594000000E+02  0.51100000000E-03 0. -1.
    9900012    2    1    2    0    0  0.77993402186E+01  0.36068018298E+02  0.17071449092E+02  0.50528855569E+02  0.29999986987E+02 0.  0.
         12    1    1    2    0    0 -0.77993402186E+01 -0.36068018298E+02 -0.17071449092E+02  0.40659144431E+02  0.00000000000E+00 0. -1.
         11    1    3    3    0    0  0.12899127542E+01 -0.16044658544E+01  0.21775985399E+00  0.20701703327E+01  0.51100000000E-03 0. -1.
        -11    1    3    3    0    0  0.13304754519E+02  0.35233795392E+02  0.11210443109E+02  0.39295176109E+02  0.51100000000E-03 0.  1.
        -12    1    3    3    0    0 -0.67953270541E+01  0.24386887607E+01  0.56432461287E+01  0.91635091266E+01  0.00000000000E+00 0.  1.
</event>
<event>
 7    1  0.3004200E-011  0.5052888E+02  0.7816164E-02  0.1300439E+00
        -11   -1    0    0    0    0  0.00000000000E+00  0.00000000000E+00  0.45593999997E+02  0.45594000000E+02  0.51100000000E-03 0. -1.
         11   -1    0    0    0    0 -0.00000000000E+00 -0.00000000000E+00 -0.45593999997E+02  0.45594000000E+02  0.51100000000E-03 0.  1.
    9900012    2    1    2    0    0 -0.94433839093E+01  0.37583016943E+02 -0.12308679371E+02  0.50528877407E+02  0.30000053366E+02 0.  0.
         12    1    1    2    0    0  0.94433839093E+01 -0.37583016943E+02  0.12308679371E+02  0.40659122593E+02  0.00000000000E+00 0. -1.
         11    1    3    3    0    0  0.19960588776E+01  0.58853196747E+01 -0.58991585080E+00  0.62425347166E+01  0.51100000000E-03 0. -1.
        -11    1    3    3    0    0 -0.15281660389E+02  0.18883575781E+02 -0.17266860167E+02  0.29803742027E+02  0.51100000000E-03 0.  1.
        -12    1    3    3    0    0  0.38422176021E+01  0.12814121487E+02  0.55480966463E+01  0.14482600664E+02  0.00000000000E+00 0.  1.
</event>
<event>
 7    1  0.3004200E-011  0.5052886E+02  0.7816164E-02  0.1300439E+00
        -11   -1    0    0    0    0  0.00000000000E+00  0.00000000000E+00  0.45593999997E+02  0.45594000000E+02  0.51100000000E-03 0.  1.
         11   -1    0    0    0    0 -0.00000000000E+00 -0.00000000000E+00 -0.45593999997E+02  0.45594000000E+02  0.51100000000E-03 0. -1.
    9900012    2    1    2    0    0  0.16785005399E+02 -0.16419862798E+02  0.33193636927E+02  0.50528857940E+02  0.29999994196E+02 0.  0.
         12    1    1    2    0    0 -0.16785005399E+02  0.16419862798E+02 -0.33193636927E+02  0.40659142060E+02  0.00000000000E+00 0. -1.
         11    1    3    3    0    0  0.30880909092E+01  0.30673783451E+01  0.59374902271E+00  0.43929094617E+01  0.51100000000E-03 0. -1.
        -11    1    3    3    0    0 -0.95741888515E+00 -0.12694404141E+02  0.25481914231E+02  0.28484952178E+02  0.51100000000E-03 0.  1.
        -12    1    3    3    0    0  0.14654333375E+02 -0.67928370026E+01  0.71179736735E+01  0.17650996301E+02  0.00000000000E+00 0.  1.
</event>
<event>
 7    1  0.3004200E-011  0.5052886E+02  0.7816164E-02  0.1300439E+00
        -11   -1    0    0    0    0  0.00000000000E+00  0.00000000000E+00  0.45593999997E+02  0.45594000000E+02  0.51100000000E-03 0. -1.
         11   -1    0    0    0    0 -0.00000000000E+00 -0.00000000000E+00 -0.45593999997E+02  0.45594000000E+02  0.51100000000E-03 0.  1.
    9900012    2    1    2    0    0  0.15693709058E+02  0.20805923044E+02 -0.31208757939E+02  0.50528861915E+02  0.30000006277E+02 0.  0.
         12    1    1    2    0    0 -0.15693709058E+02 -0.20805923044E+02  0.31208757939E+02  0.40659138085E+02  0.00000000000E+00 0. -1.
         11    1    3    3    0    0  0.64868709117E+01 -0.34438264049E+01 -0.34674873820E+01  0.81217549543E+01  0.51100000000E-03 0. -1.
        -11    1    3    3    0    0  0.97763838502E+01  0.25414187834E+02 -0.29549351807E+02  0.40182369478E+02  0.51100000000E-03 0.  1.
        -12    1    3    3    0    0 -0.56954570412E+00 -0.11644383847E+01  0.18080812498E+01  0.22247374827E+01  0.00000000000E+00 0.  1.
</event>
<event>
 7    1  0.3004200E-011  0.5052886E+02  0.7816164E-02  0.1300439E+00
        -11   -1    0    0    0    0  0.00000000000E+00  0.00000000000E+00  0.45593999997E+02  0.45594000000E+02  0.51100000000E-03 0.  1.
         11   -1    0    0    0    0 -0.00000000000E+00 -0.00000000000E+00 -0.45593999997E+02  0.45594000000E+02  0.51100000000E-03 0. -1.
    9900012    2    1    2    0    0 -0.16724236246E+02  0.20346856728E+02  0.30975329843E+02  0.50528859384E+02  0.29999998584E+02 0.  0.
         12    1    1    2    0    0  0.16724236246E+02 -0.20346856728E+02 -0.30975329843E+02  0.40659140616E+02  0.00000000000E+00 0. -1.
         11    1    3    3    0    0 -0.97863342798E+00  0.16273176405E+02  0.24242001441E+01  0.16481830612E+02  0.51100000000E-03 0. -1.
        -11    1    3    3    0    0 -0.44563207504E+01  0.13419479182E+01  0.19982006725E+01  0.50648223103E+01  0.51100000000E-03 0.  1.
         12    1    3    3    0    0 -0.11289282068E+02  0.27317324047E+01  0.26552929026E+02  0.28982206462E+02  0.00000000000E+00 0. -1.
</event>
<event>
 7    1  0.3004200E-011  0.5052886E+02  0.7816164E-02  0.1300439E+00
        -11   -1    0    0    0    0  0.00000000000E+00  0.00000000000E+00  0.45593999997E+02  0.45594000000E+02  0.51100000000E-03 0.  1.
         11   -1    0    0    0    0 -0.00000000000E+00 -0.00000000000E+00 -0.45593999997E+02  0.45594000000E+02  0.51100000000E-03 0. -1.
    9900012    2    1    2    0    0  0.62783536889E+01  0.32352085496E+02  0.23813661053E+02  0.50528860637E+02  0.30000002393E+02 0.  0.
         12    1    1    2    0    0 -0.62783536889E+01 -0.32352085496E+02 -0.23813661053E+02  0.40659139363E+02  0.00000000000E+00 0. -1.
         11    1    3    3    0    0 -0.48817145135E-01  0.21911841889E+02  0.20927286432E+01  0.22011604020E+02  0.51100000000E-03 0. -1.
        -11    1    3    3    0    0  0.52042228670E+01  0.13694646398E+02  0.15008008762E+02  0.20973020834E+02  0.51100000000E-03 0.  1.
         12    1    3    3    0    0  0.11229479670E+01 -0.32544027913E+01  0.67129236471E+01  0.75442357835E+01  0.00000000000E+00 0. -1.
</event>
<event>
 7    1  0.3004200E-011  0.5052885E+02  0.7816164E-02  0.1300439E+00
        -11   -1    0    0    0    0  0.00000000000E+00  0.00000000000E+00  0.45593999997E+02  0.45594000000E+02  0.51100000000E-03 0.  1.
         11   -1    0    0    0    0 -0.00000000000E+00 -0.00000000000E+00 -0.45593999997E+02  0.45594000000E+02  0.51100000000E-03 0. -1.
    9900012    2    1    2    0    0  0.38051882892E+02  0.14322053779E+02  0.31504764505E+00  0.50528852553E+02  0.29999977821E+02 0.  0.
         12    1    1    2    0    0 -0.38051882892E+02 -0.14322053779E+02 -0.31504764505E+00  0.40659147447E+02  0.00000000000E+00 0. -1.
         11    1    3    3    0    0  0.16352410302E+02  0.24994671628E+01 -0.52211609828E+01  0.17346734017E+02  0.51100000000E-03 0. -1.
        -11    1    3    3    0    0  0.39085927156E+01  0.11280665013E+01  0.10990840966E+02  0.11719565540E+02  0.51100000000E-03 0.  1.
        -12    1    3    3    0    0  0.17790879875E+02  0.10694520115E+02 -0.54546323377E+01  0.21462552997E+02  0.00000000000E+00 0.  1.
</event>
<event>
 7    1  0.3004200E-011  0.5052886E+02  0.7816164E-02  0.1300439E+00
        -11   -1    0    0    0    0  0.00000000000E+00  0.00000000000E+00  0.45593999997E+02  0.45594000000E+02  0.51100000000E-03 0. -1.
         11   -1    0    0    0    0 -0.00000000000E+00 -0.00000000000E+00 -0.45593999997E+02  0.45594000000E+02  0.51100000000E-03 0.  1.
    9900012    2    1    2    0    0 -0.29748282007E+02 -0.54745798217E+01 -0.27170466859E+02  0.50528861102E+02  0.30000003805E+02 0.  0.
         12    1    1    2    0    0  0.29748282007E+02  0.54745798217E+01  0.27170466859E+02  0.40659138898E+02  0.00000000000E+00 0. -1.
         11    1    3    3    0    0 -0.19977582024E+02  0.64407129729E+01 -0.16542289917E+02  0.26725155249E+02  0.51100000000E-03 0.  1.
        -11    1    3    3    0    0  0.34277134934E+01 -0.44841501751E+01 -0.68635407248E+00  0.56857633401E+01  0.51100000000E-03 0. -1.
         12    1    3    3    0    0 -0.13198413476E+02 -0.74311426195E+01 -0.99418228701E+01  0.18117942513E+02  0.00000000000E+00 0. -1.
</event>
<event>
 7    1  0.3004200E-011  0.5052885E+02  0.7816164E-02  0.1300439E+00
        -11   -1    0    0    0    0  0.00000000000E+00  0.00000000000E+00  0.45593999997E+02  0.45594000000E+02  0.51100000000E-03 0.  1.
         11   -1    0    0    0    0 -0.00000000000E+00 -0.00000000000E+00 -0.45593999997E+02  0.45594000000E+02  0.51100000000E-03 0. -1.
    9900012    2    1    2    0    0 -0.38697522642E+02  0.10572042474E+02  0.66257103773E+01  0.50528851230E+02  0.29999973800E+02 0.  0.
         12    1    1    2    0    0  0.38697522642E+02 -0.10572042474E+02 -0.66257103773E+01  0.40659148770E+02  0.00000000000E+00 0. -1.
         11    1    3    3    0    0 -0.22808007122E+01  0.27165051278E+00  0.10327428296E+02  0.10579774164E+02  0.51100000000E-03 0. -1.
        -11    1    3    3    0    0 -0.16565498104E+02  0.92407490066E+01 -0.61003736012E+01  0.19925404085E+02  0.51100000000E-03 0.  1.
         12    1    3    3    0    0 -0.19851223826E+02  0.10596429541E+01  0.23986556825E+01  0.20023672981E+02  0.00000000000E+00 0. -1.
</event>
<event>
 7    1  0.3004200E-011  0.5052887E+02  0.7816164E-02  0.1300439E+00
        -11   -1    0    0    0    0  0.00000000000E+00  0.00000000000E+00  0.45593999997E+02  0.45594000000E+02  0.51100000000E-03 0. -1.
         11   -1    0    0    0    0 -0.00000000000E+00 -0.00000000000E+00 -0.45593999997E+02  0.45594000000E+02  0.51100000000E-03 0.  1.
    9900012    2    1    2    0    0  0.25754348526E+02  0.18258366073E+02 -0.25622459684E+02  0.50528870153E+02  0.30000031317E+02 0.  0.
         12    1    1    2    0    0 -0.25754348526E+02 -0.18258366073E+02  0.25622459684E+02  0.40659129847E+02  0.00000000000E+00 0. -1.
         11    1    3    3    0    0  0.65336582526E+00  0.62445500026E+01 -0.65506023822E-01  0.62789794503E+01  0.51100000000E-03 0. -1.
        -11    1    3    3    0    0  0.99190222150E+01 -0.37669773519E+00 -0.22267050999E+02  0.24379303996E+02  0.51100000000E-03 0.  1.
        -12    1    3    3    0    0  0.15181960486E+02  0.12390513805E+02 -0.32899026612E+01  0.19870586707E+02  0.00000000000E+00 0.  1.
</event>
<event>
 7    1  0.3004200E-011  0.5052887E+02  0.7816164E-02  0.1300439E+00
        -11   -1    0    0    0    0  0.00000000000E+00  0.00000000000E+00  0.45593999997E+02  0.45594000000E+02  0.51100000000E-03 0. -1.
         11   -1    0    0    0    0 -0.00000000000E+00 -0.00000000000E+00 -0.45593999997E+02  0.45594000000E+02  0.51100000000E-03 0.  1.
    9900012    2    1    2    0    0  0.34950768723E+02 -0.15461536263E+02  0.13876217666E+02  0.50528871202E+02  0.30000034505E+02 0.  0.
         12    1    1    2    0    0 -0.34950768723E+02  0.15461536263E+02 -0.13876217666E+02  0.40659128798E+02  0.00000000000E+00 0. -1.
         11    1    3    3    0    0  0.34750591674E+02 -0.61856919225E+01  0.54877918485E+01  0.35720893968E+02  0.51100000000E-03 0. -1.
        -11    1    3    3    0    0  0.37783345704E+01 -0.70152459018E+01  0.53374283800E+01  0.95904968152E+01  0.51100000000E-03 0.  1.
         12    1    3    3    0    0 -0.35781575217E+01 -0.22605984385E+01  0.30509974378E+01  0.52174804184E+01  0.00000000000E+00 0. -1.
</event>
<event>
 7    1  0.3004200E-011  0.5052886E+02  0.7816164E-02  0.1300439E+00
        -11   -1    0    0    0    0  0.00000000000E+00  0.00000000000E+00  0.45593999997E+02  0.45594000000E+02  0.51100000000E-03 0.  1.
         11   -1    0    0    0    0 -0.00000000000E+00 -0.00000000000E+00 -0.45593999997E+02  0.45594000000E+02  0.51100000000E-03 0. -1.
    9900012    2    1    2    0    0 -0.68202084370E+01  0.38618884655E+02 -0.10734633173E+02  0.50528857800E+02  0.29999993768E+02 0.  0.
         12    1    1    2    0    0  0.68202084370E+01 -0.38618884655E+02  0.10734633173E+02  0.40659142200E+02  0.00000000000E+00 0. -1.
         11    1    3    3    0    0 -0.68615506706E+01  0.33575084531E+01  0.36398603742E+01  0.84618156694E+01  0.51100000000E-03 0. -1.
        -11    1    3    3    0    0  0.17478763130E+01  0.23204944662E+02 -0.17935537428E+02  0.29380402166E+02  0.51100000000E-03 0.  1.
        -12    1    3    3    0    0 -0.17065340794E+01  0.12056431540E+02  0.35610438812E+01  0.12686639964E+02  0.00000000000E+00 0.  1.
</event>
<event>
 7    1  0.3004200E-011  0.5052886E+02  0.7816164E-02  0.1300439E+00
        -11   -1    0    0    0    0  0.00000000000E+00  0.00000000000E+00  0.45593999997E+02  0.45594000000E+02  0.51100000000E-03 0. -1.
         11   -1    0    0    0    0 -0.00000000000E+00 -0.00000000000E+00 -0.45593999997E+02  0.45594000000E+02  0.51100000000E-03 0.  1.
    9900012    2    1    2    0    0 -0.64139703830E+01  0.38051927225E+02 -0.12809262675E+02  0.50528863365E+02  0.30000010684E+02 0.  0.
         12    1    1    2    0    0  0.64139703830E+01 -0.38051927225E+02  0.12809262675E+02  0.40659136635E+02  0.00000000000E+00 0. -1.
         11    1    3    3    0    0  0.49628917840E+00  0.24353884270E+01  0.49783451932E+01  0.55642915868E+01  0.51100000000E-03 0. -1.
        -11    1    3    3    0    0 -0.40864306472E+01  0.11911175574E+02 -0.16899239591E+02  0.21075087616E+02  0.51100000000E-03 0.  1.
        -12    1    3    3    0    0 -0.28238289142E+01  0.23705363224E+02 -0.88836827646E+00  0.23889484162E+02  0.00000000000E+00 0.  1.
</event>
<event>
 7    1  0.3004200E-011  0.5052886E+02  0.7816164E-02  0.1300439E+00
        -11   -1    0    0    0    0  0.00000000000E+00  0.00000000000E+00  0.45593999997E+02  0.45594000000E+02  0.51100000000E-03 0. -1.
         11   -1    0    0    0    0 -0.00000000000E+00 -0.00000000000E+00 -0.45593999997E+02  0.45594000000E+02  0.51100000000E-03 0.  1.
    9900012    2    1    2    0    0 -0.18067030978E+02  0.35573284637E+02 -0.78287440189E+01  0.50528863005E+02  0.30000009591E+02 0.  0.
         12    1    1    2    0    0  0.18067030978E+02 -0.35573284637E+02  0.78287440189E+01  0.40659136995E+02  0.00000000000E+00 0. -1.
         11    1    3    3    0    0  0.75364824976E+01  0.75194508069E+01 -0.47620908695E+01  0.11662684879E+02  0.51100000000E-03 0. -1.
        -11    1    3    3    0    0 -0.24859498095E+02  0.25505966496E+02 -0.44146009513E+01  0.35889241762E+02  0.51100000000E-03 0.  1.
        -12    1    3    3    0    0 -0.74401538061E+00  0.25478673349E+01  0.13479478019E+01  0.29769363647E+01  0.00000000000E+00 0.  1.
</event>
<event>
 7    1  0.3004200E-011  0.5052888E+02  0.7816164E-02  0.1300439E+00
        -11   -1    0    0    0    0  0.00000000000E+00  0.00000000000E+00  0.45593999997E+02  0.45594000000E+02  0.51100000000E-03 0. -1.
         11   -1    0    0    0    0 -0.00000000000E+00 -0.00000000000E+00 -0.45593999997E+02  0.45594000000E+02  0.51100000000E-03 0.  1.
    9900012    2    1    2    0    0 -0.33137833029E+02 -0.74191726924E+01 -0.22360763865E+02  0.50528882180E+02  0.30000067873E+02 0.  0.
         12    1    1    2    0    0  0.33137833029E+02  0.74191726924E+01  0.22360763865E+02  0.40659117820E+02  0.00000000000E+00 0. -1.
         11    1    3    3    0    0 -0.18216564689E+02  0.16184022242E+01  0.17348006684E+01  0.18370410678E+02  0.51100000000E-03 0. -1.
        -11    1    3    3    0    0 -0.93376299468E+01 -0.11368447919E+02 -0.20095894429E+02  0.24905379223E+02  0.51100000000E-03 0.  1.
        -12    1    3    3    0    0 -0.55836383926E+01  0.23308730025E+01 -0.39996701052E+01  0.72530922787E+01  0.00000000000E+00 0.  1.
</event>
<event>
 7    1  0.3004200E-011  0.5052887E+02  0.7816164E-02  0.1300439E+00
        -11   -1    0    0    0    0  0.00000000000E+00  0.00000000000E+00  0.45593999997E+02  0.45594000000E+02  0.51100000000E-03 0. -1.
         11   -1    0    0    0    0 -0.00000000000E+00 -0.00000000000E+00 -0.45593999997E+02  0.45594000000E+02  0.51100000000E-03 0.  1.
    9900012    2    1    2    0    0 -0.71869447124E+01 -0.35382922852E+02 -0.18696568337E+02  0.50528867306E+02  0.30000022662E+02 0.  0.
         12    1    1    2    0    0  0.71869447124E+01  0.35382922852E+02  0.18696568337E+02  0.40659132694E+02  0.00000000000E+00 0. -1.
         11    1    3    3    0    0 -0.16810004406E+01 -0.13075910102E+02  0.29297992714E+01  0.13505143890E+02  0.51100000000E-03 0. -1.
        -11    1    3    3    0    0 -0.66244072980E+01  0.68467711048E+00 -0.74364265564E+01  0.99825845844E+01  0.51100000000E-03 0.  1.
        -12    1    3    3    0    0  0.11184630263E+01 -0.22991689861E+02 -0.14189941052E+02  0.27041138831E+02  0.00000000000E+00 0.  1.
</event>
<event>
 7    1  0.3004200E-011  0.5052885E+02  0.7816164E-02  0.1300439E+00
        -11   -1    0    0    0    0  0.00000000000E+00  0.00000000000E+00  0.45593999997E+02  0.45594000000E+02  0.51100000000E-03 0.  1.
         11   -1    0    0    0    0 -0.00000000000E+00 -0.00000000000E+00 -0.45593999997E+02  0.45594000000E+02  0.51100000000E-03 0. -1.
    9900012    2    1    2    0    0 -0.25725130154E+02 -0.39346405097E+01  0.31239440640E+02  0.50528851351E+02  0.29999974166E+02 0.  0.
         12    1    1    2    0    0  0.25725130154E+02  0.39346405097E+01 -0.31239440640E+02  0.40659148649E+02  0.00000000000E+00 0. -1.
         11    1    3    3    0    0 -0.18433048395E+02  0.23940536104E+01  0.28104492753E+02  0.33695270870E+02  0.51100000000E-03 0. -1.
        -11    1    3    3    0    0 -0.91063695196E+01 -0.25409966422E+01 -0.25250347207E+01  0.97856236575E+01  0.51100000000E-03 0.  1.
         12    1    3    3    0    0  0.18142877609E+01 -0.37876974779E+01  0.56599826076E+01  0.70479568232E+01  0.00000000000E+00 0. -1.
</event>
<event>
 7    1  0.3004200E-011  0.5052886E+02  0.7816164E-02  0.1300439E+00
        -11   -1    0    0    0    0  0.00000000000E+00  0.00000000000E+00  0.45593999997E+02  0.45594000000E+02  0.51100000000E-03 0. -1.
         11   -1    0    0    0    0 -0.00000000000E+00 -0.00000000000E+00 -0.45593999997E+02  0.45594000000E+02  0.51100000000E-03 0.  1.
    9900012    2    1    2    0    0 -0.35093244720E+02  0.82063929442E+01  0.18822449161E+02  0.50528864464E+02  0.30000014023E+02 0.  0.
         12    1    1    2    0    0  0.35093244720E+02 -0.82063929442E+01 -0.18822449161E+02  0.40659135536E+02  0.00000000000E+00 0. -1.
         11    1    3    3    0    0 -0.19724518685E+02 -0.85956943945E+01  0.14771756629E+02  0.26098800617E+02  0.51100000000E-03 0. -1.
        -11    1    3    3    0    0 -0.10257630457E+02  0.14622674394E+02  0.54971677491E+01  0.18688510978E+02  0.51100000000E-03 0.  1.
         12    1    3    3    0    0 -0.51110955784E+01  0.21794129444E+01 -0.14464752172E+01  0.57415528690E+01  0.00000000000E+00 0. -1.
</event>
<event>
 7    1  0.3004200E-011  0.5052886E+02  0.7816164E-02  0.1300439E+00
        -11   -1    0    0    0    0  0.00000000000E+00  0.00000000000E+00  0.45593999997E+02  0.45594000000E+02  0.51100000000E-03 0. -1.
         11   -1    0    0    0    0 -0.00000000000E+00 -0.00000000000E+00 -0.45593999997E+02  0.45594000000E+02  0.51100000000E-03 0.  1.
    9900012    2    1    2    0    0  0.24802087256E+02  0.31820845971E+02 -0.50454017477E+01  0.50528857740E+02  0.29999993586E+02 0.  0.
         12    1    1    2    0    0 -0.24802087256E+02 -0.31820845971E+02  0.50454017477E+01  0.40659142260E+02  0.00000000000E+00 0. -1.
         11    1    3    3    0    0  0.17419553576E+02  0.12574734187E+02  0.57898044711E+01  0.22250542078E+02  0.51100000000E-03 0. -1.
        -11    1    3    3    0    0  0.11892886764E+02  0.15844363188E+02 -0.10933732826E+02  0.22628104520E+02  0.51100000000E-03 0.  1.
        -12    1    3    3    0    0 -0.45103530845E+01  0.34017485953E+01  0.98526607011E-01  0.56502111416E+01  0.00000000000E+00 0.  1.
</event>
<event>
 7    1  0.3004200E-011  0.5052886E+02  0.7816164E-02  0.1300439E+00
        -11   -1    0    0    0    0  0.00000000000E+00  0.00000000000E+00  0.45593999997E+02  0.45594000000E+02  0.51100000000E-03 0.  1.
         11   -1    0    0    0    0 -0.00000000000E+00 -0.00000000000E+00 -0.45593999997E+02  0.45594000000E+02  0.51100000000E-03 0. -1.
    9900012    2    1    2    0    0 -0.34322728881E+01 -0.98331167181E+01  0.39302607145E+02  0.50528860683E+02  0.30000002533E+02 0.  0.
         12    1    1    2    0    0  0.34322728881E+01  0.98331167181E+01 -0.39302607145E+02  0.40659139317E+02  0.00000000000E+00 0. -1.
         11    1    3    3    0    0 -0.11817439043E+02 -0.95862208097E+01  0.10875236555E+02  0.18703429240E+02  0.51100000000E-03 0.  1.
        -11    1    3    3    0    0  0.38018371424E+01  0.20387344965E+00  0.26599367614E+02  0.26870464971E+02  0.51100000000E-03 0. -1.
        -12    1    3    3    0    0  0.45833290128E+01 -0.45076935801E+00  0.18280029757E+01  0.49549664714E+01  0.00000000000E+00 0.  1.
</event>
<event>
 7    1  0.3004200E-011  0.5052887E+02  0.7816164E-02  0.1300439E+00
        -11   -1    0    0    0    0  0.00000000000E+00  0.00000000000E+00  0.45593999997E+02  0.45594000000E+02  0.51100000000E-03 0. -1.
         11   -1    0    0    0    0 -0.00000000000E+00 -0.00000000000E+00 -0.45593999997E+02  0.45594000000E+02  0.51100000000E-03 0.  1.
    9900012    2    1    2    0    0 -0.32521632851E+02  0.16099818200E+02 -0.18338599693E+02  0.50528868331E+02  0.30000025778E+02 0.  0.
         12    1    1    2    0    0  0.32521632851E+02 -0.16099818200E+02  0.18338599693E+02  0.40659131669E+02  0.00000000000E+00 0. -1.
         11    1    3    3    0    0 -0.41177931226E+01  0.43659657573E+00  0.62059534474E+01  0.74606095745E+01  0.51100000000E-03 0. -1.
        -11    1    3    3    0    0 -0.18587535321E+02  0.22042965887E+01 -0.12389388133E+02  0.22446655238E+02  0.51100000000E-03 0.  1.
         12    1    3    3    0    0 -0.98163044072E+01  0.13458925036E+02 -0.12155165007E+02  0.20621603519E+02  0.00000000000E+00 0. -1.
</event>
<event>
 7    1  0.3004200E-011  0.5052886E+02  0.7816164E-02  0.1300439E+00
        -11   -1    0    0    0    0  0.00000000000E+00  0.00000000000E+00  0.45593999997E+02  0.45594000000E+02  0.51100000000E-03 0. -1.
         11   -1    0    0    0    0 -0.00000000000E+00 -0.00000000000E+00 -0.45593999997E+02  0.45594000000E+02  0.51100000000E-03 0.  1.
    9900012    2    1    2    0    0 -0.30077783677E+02  0.26115754848E+02 -0.81522756421E+01  0.50528864245E+02  0.30000013359E+02 0.  0.
         12    1    1    2    0    0  0.30077783677E+02 -0.26115754848E+02  0.81522756421E+01  0.40659135755E+02  0.00000000000E+00 0. -1.
         11    1    3    3    0    0 -0.28757372390E+02  0.20606303711E+02 -0.50382974216E-01  0.35378083019E+02  0.51100000000E-03 0. -1.
        -11    1    3    3    0    0 -0.51794101070E+01  0.53274957327E+01 -0.16197945741E+01  0.76047507889E+01  0.51100000000E-03 0.  1.
         12    1    3    3    0    0  0.38589988198E+01  0.18195540477E+00 -0.64820980938E+01  0.75460304372E+01  0.00000000000E+00 0. -1.
</event>
<event>
 7    1  0.3004200E-011  0.5052886E+02  0.7816164E-02  0.1300439E+00
        -11   -1    0    0    0    0  0.00000000000E+00  0.00000000000E+00  0.45593999997E+02  0.45594000000E+02  0.51100000000E-03 0.  1.
         11   -1    0    0    0    0 -0.00000000000E+00 -0.00000000000E+00 -0.45593999997E+02  0.45594000000E+02  0.51100000000E-03 0. -1.
    9900012    2    1    2    0    0 -0.16024578019E+02 -0.30751499801E+02  0.21230262741E+02  0.50528857157E+02  0.29999991814E+02 0.  0.
         12    1    1    2    0    0  0.16024578019E+02  0.30751499801E+02 -0.21230262741E+02  0.40659142843E+02  0.00000000000E+00 0. -1.
         11    1    3    3    0    0  0.46056599990E+01 -0.27031379778E+01  0.30893547971E+00  0.53492523165E+01  0.51100000000E-03 0. -1.
        -11    1    3    3    0    0 -0.21665566268E+02 -0.30461965523E+02  0.19052259936E+02  0.41956128446E+02  0.51100000000E-03 0.  1.
        -12    1    3    3    0    0  0.10353282503E+01  0.24136036993E+01  0.18690673250E+01  0.32234763948E+01  0.00000000000E+00 0.  1.
</event>
<event>
 7    1  0.3004200E-011  0.5052887E+02  0.7816164E-02  0.1300439E+00
        -11   -1    0    0    0    0  0.00000000000E+00  0.00000000000E+00  0.45593999997E+02  0.45594000000E+02  0.51100000000E-03 0.  1.
         11   -1    0    0    0    0 -0.00000000000E+00 -0.00000000000E+00 -0.45593999997E+02  0.45594000000E+02  0.51100000000E-03 0. -1.
    9900012    2    1    2    0    0  0.19799025732E+01  0.39264656181E+02  0.10369757993E+02  0.50528866708E+02  0.30000020845E+02 0.  0.
         12    1    1    2    0    0 -0.19799025732E+01 -0.39264656181E+02 -0.10369757993E+02  0.40659133292E+02  0.00000000000E+00 0. -1.
         11    1    3    3    0    0  0.34003465490E+01  0.26175251722E+02  0.10874395435E+02  0.28547480374E+02  0.51100000000E-03 0.  1.
        -11    1    3    3    0    0  0.52829649568E+01 -0.10109680344E+00  0.38729101939E+01  0.65512878833E+01  0.51100000000E-03 0. -1.
         12    1    3    3    0    0 -0.67034089326E+01  0.13190501263E+02 -0.43775476357E+01  0.15430098450E+02  0.00000000000E+00 0. -1.
</event>
<event>
 7    1  0.3004200E-011  0.5052886E+02  0.7816164E-02  0.1300439E+00
        -11   -1    0    0    0    0  0.00000000000E+00  0.00000000000E+00  0.45593999997E+02  0.45594000000E+02  0.51100000000E-03 0.  1.
         11   -1    0    0    0    0 -0.00000000000E+00 -0.00000000000E+00 -0.45593999997E+02  0.45594000000E+02  0.51100000000E-03 0. -1.
    9900012    2    1    2    0    0 -0.24412205498E+02  0.12075837351E+02  0.30189137275E+02  0.50528860382E+02  0.30000001619E+02 0.  0.
         12    1    1    2    0    0  0.24412205498E+02 -0.12075837351E+02 -0.30189137275E+02  0.40659139618E+02  0.00000000000E+00 0. -1.
         11    1    3    3    0    0 -0.75035041303E+00  0.14940826131E+02  0.53294021184E+01  0.15880612029E+02  0.51100000000E-03 0. -1.
        -11    1    3    3    0    0 -0.67774850540E+01  0.74801775918E+00  0.60585860610E+01  0.91214198207E+01  0.51100000000E-03 0.  1.
         12    1    3    3    0    0 -0.16884370031E+02 -0.36130065394E+01  0.18801149096E+02  0.25526828532E+02  0.00000000000E+00 0. -1.
</event>
<event>
 7    1  0.3004200E-011  0.5052883E+02  0.7816164E-02  0.1300439E+00
        -11   -1    0    0    0    0  0.00000000000E+00  0.00000000000E+00  0.45593999997E+02  0.45594000000E+02  0.51100000000E-03 0.  1.
         11   -1    0    0    0    0 -0.00000000000E+00 -0.00000000000E+00 -0.45593999997E+02  0.45594000000E+02  0.51100000000E-03 0. -1.
    9900012    2    1    2    0    0  0.35049426635E+02 -0.99954939504E+01  0.18022084348E+02  0.50528834601E+02  0.29999923252E+02 0.  0.
         12    1    1    2    0    0 -0.35049426635E+02  0.99954939504E+01 -0.18022084348E+02  0.40659165399E+02  0.00000000000E+00 0. -1.
         11    1    3    3    0    0  0.14655839011E+02 -0.56585863500E+01 -0.72330887167E+00  0.15726932078E+02  0.51100000000E-03 0. -1.
        -11    1    3    3    0    0  0.16262621869E+02 -0.35129230798E+01  0.23279022464E+02  0.28613395216E+02  0.51100000000E-03 0.  1.
        -12    1    3    3    0    0  0.41309657548E+01 -0.82398452062E+00 -0.45336292447E+01  0.61885073068E+01  0.00000000000E+00 0.  1.
</event>
<event>
 7    1  0.3004200E-011  0.5052887E+02  0.7816164E-02  0.1300439E+00
        -11   -1    0    0    0    0  0.00000000000E+00  0.00000000000E+00  0.45593999997E+02  0.45594000000E+02  0.51100000000E-03 0.  1.
         11   -1    0    0    0    0 -0.00000000000E+00 -0.00000000000E+00 -0.45593999997E+02  0.45594000000E+02  0.51100000000E-03 0. -1.
    9900012    2    1    2    0    0  0.33357377712E+02  0.20332681953E+02  0.11270850331E+02  0.50528872238E+02  0.30000037654E+02 0.  0.
         12    1    1    2    0    0 -0.33357377712E+02 -0.20332681953E+02 -0.11270850331E+02  0.40659127762E+02  0.00000000000E+00 0. -1.
         11    1    3    3    0    0  0.30972392585E+02  0.83954954993E+01  0.29648255760E+01  0.32226753453E+02  0.51100000000E-03 0. -1.
        -11    1    3    3    0    0  0.38645868194E+01  0.17386074696E+01  0.66194016326E+01  0.78596606449E+01  0.51100000000E-03 0.  1.
         12    1    3    3    0    0 -0.14796016929E+01  0.10198578984E+02  0.16866231229E+01  0.10442458140E+02  0.00000000000E+00 0. -1.
</event>
<event>
 7    1  0.3004200E-011  0.5052885E+02  0.7816164E-02  0.1300439E+00
        -11   -1    0    0    0    0  0.00000000000E+00  0.00000000000E+00  0.45593999997E+02  0.45594000000E+02  0.51100000000E-03 0. -1.
         11   -1    0    0    0    0 -0.00000000000E+00 -0.00000000000E+00 -0.45593999997E+02  0.45594000000E+02  0.51100000000E-03 0.  1.
    9900012    2    1    2    0    0  0.19027128743E+02  0.46166055455E+00 -0.35929394631E+02  0.50528853954E+02  0.29999982077E+02 0.  0.
         12    1    1    2    0    0 -0.19027128743E+02 -0.46166055455E+00  0.35929394631E+02  0.40659146046E+02  0.00000000000E+00 0. -1.
         11    1    3    3    0    0  0.15077826170E+02 -0.96660355167E+01 -0.19489397412E+02  0.26469032781E+02  0.51100000000E-03 0. -1.
        -11    1    3    3    0    0  0.28281130694E+01  0.27821606417E+01 -0.16142945216E+02  0.16623276508E+02  0.51100000000E-03 0.  1.
         12    1    3    3    0    0  0.11211895032E+01  0.73455354295E+01 -0.29705200364E+00  0.74365446641E+01  0.00000000000E+00 0. -1.
</event>
<event>
 7    1  0.3004200E-011  0.5052887E+02  0.7816164E-02  0.1300439E+00
        -11   -1    0    0    0    0  0.00000000000E+00  0.00000000000E+00  0.45593999997E+02  0.45594000000E+02  0.51100000000E-03 0.  1.
         11   -1    0    0    0    0 -0.00000000000E+00 -0.00000000000E+00 -0.45593999997E+02  0.45594000000E+02  0.51100000000E-03 0. -1.
    9900012    2    1    2    0    0  0.27145222582E+02 -0.26184879961E+02  0.15187303502E+02  0.50528865292E+02  0.30000016541E+02 0.  0.
         12    1    1    2    0    0 -0.27145222582E+02  0.26184879961E+02 -0.15187303502E+02  0.40659134708E+02  0.00000000000E+00 0. -1.
         11    1    3    3    0    0  0.24363053795E+02 -0.91588990841E+01  0.39673548579E+01  0.26328382545E+02  0.51100000000E-03 0. -1.
        -11    1    3    3    0    0  0.67829014984E+01 -0.13224224090E+02  0.11317174358E+02  0.18680639476E+02  0.51100000000E-03 0.  1.
         12    1    3    3    0    0 -0.40007327113E+01 -0.38017567863E+01 -0.97225713945E-01  0.55198432703E+01  0.00000000000E+00 0. -1.
</event>
<event>
 7    1  0.3004200E-011  0.5052884E+02  0.7816164E-02  0.1300439E+00
        -11   -1    0    0    0    0  0.00000000000E+00  0.00000000000E+00  0.45593999997E+02  0.45594000000E+02  0.51100000000E-03 0. -1.
         11   -1    0    0    0    0 -0.00000000000E+00 -0.00000000000E+00 -0.45593999997E+02  0.45594000000E+02  0.51100000000E-03 0.  1.
    9900012    2    1    2    0    0  0.19878320298E+02 -0.19264570790E+02 -0.29780800030E+02  0.50528839211E+02  0.29999937267E+02 0.  0.
         12    1    1    2    0    0 -0.19878320298E+02  0.19264570790E+02  0.29780800030E+02  0.40659160789E+02  0.00000000000E+00 0. -1.
         11    1    3    3    0    0  0.38710872720E+01 -0.10008166622E+00 -0.23292457801E+02  0.23612156269E+02  0.51100000000E-03 0. -1.
        -11    1    3    3    0    0  0.13121316077E+02 -0.18964696848E+02 -0.67032847880E+01  0.24015884105E+02  0.51100000000E-03 0.  1.
        -12    1    3    3    0    0  0.28859169487E+01 -0.19979227590E+00  0.21494255931E+00  0.29007988369E+01  0.00000000000E+00 0.  1.
</event>
<event>
 7    1  0.3004200E-011  0.5052887E+02  0.7816164E-02  0.1300439E+00
        -11   -1    0    0    0    0  0.00000000000E+00  0.00000000000E+00  0.45593999997E+02  0.45594000000E+02  0.51100000000E-03 0. -1.
         11   -1    0    0    0    0 -0.00000000000E+00 -0.00000000000E+00 -0.45593999997E+02  0.45594000000E+02  0.51100000000E-03 0.  1.
    9900012    2    1    2    0    0  0.35310056009E+02  0.19546135901E+02  0.49308623462E+01  0.50528869568E+02  0.30000029538E+02 0.  0.
         12    1    1    2    0    0 -0.35310056009E+02 -0.19546135901E+02 -0.49308623462E+01  0.40659130432E+02  0.00000000000E+00 0. -1.
         11    1    3    3    0    0  0.26456497561E+02  0.12238243793E+02 -0.89907250332E+01  0.30504983384E+02  0.51100000000E-03 0. -1.
        -11    1    3    3    0    0  0.87043092731E+01  0.63003735313E+01  0.65541191234E+01  0.12586349125E+02  0.51100000000E-03 0.  1.
         12    1    3    3    0    0  0.14924917432E+00  0.10075185773E+01  0.73674682560E+01  0.74375370590E+01  0.00000000000E+00 0. -1.
</event>
<event>
 7    1  0.3004200E-011  0.5052886E+02  0.7816164E-02  0.1300439E+00
        -11   -1    0    0    0    0  0.00000000000E+00  0.00000000000E+00  0.45593999997E+02  0.45594000000E+02  0.51100000000E-03 0.  1.
         11   -1    0    0    0    0 -0.00000000000E+00 -0.00000000000E+00 -0.45593999997E+02  0.45594000000E+02  0.51100000000E-03 0. -1.
    9900012    2    1    2    0    0  0.27106840018E+02  0.15503417320E+02  0.26038993890E+02  0.50528856782E+02  0.29999990675E+02 0.  0.
         12    1    1    2    0    0 -0.27106840018E+02 -0.15503417320E+02 -0.26038993890E+02  0.40659143218E+02  0.00000000000E+00 0. -1.
         11    1    3    3    0    0  0.14148303440E+02  0.10999003795E+02 -0.11607150019E+01  0.17958280382E+02  0.51100000000E-03 0. -1.
        -11    1    3    3    0    0  0.12198550521E+02  0.78178579273E+01  0.22728093932E+02  0.26953474571E+02  0.51100000000E-03 0.  1.
        -12    1    3    3    0    0  0.75998605786E+00 -0.33134444019E+01  0.44716149602E+01  0.56171018297E+01  0.00000000000E+00 0.  1.
</event>
<event>
 7    1  0.3004200E-011  0.5052876E+02  0.7816164E-02  0.1300439E+00
        -11   -1    0    0    0    0  0.00000000000E+00  0.00000000000E+00  0.45593999997E+02  0.45594000000E+02  0.51100000000E-03 0.  1.
         11   -1    0    0    0    0 -0.00000000000E+00 -0.00000000000E+00 -0.45593999997E+02  0.45594000000E+02  0.51100000000E-03 0. -1.
    9900012    2    1    2    0    0 -0.13583336009E+01 -0.78865052078E+01  0.39863918118E+02  0.50528757480E+02  0.29999688835E+02 0.  0.
         12    1    1    2    0    0  0.13583336009E+01  0.78865052078E+01 -0.39863918118E+02  0.40659242520E+02  0.00000000000E+00 0. -1.
         11    1    3    3    0    0  0.17884714156E+01  0.16007950225E+01 -0.28112451403E+01  0.36965219070E+01  0.51100000000E-03 0. -1.
        -11    1    3    3    0    0 -0.96409892649E+01 -0.71254834452E+01  0.22316206143E+02  0.25332474124E+02  0.51100000000E-03 0.  1.
        -12    1    3    3    0    0  0.64941842483E+01 -0.23618167851E+01  0.20358957115E+02  0.21499761450E+02  0.00000000000E+00 0.  1.
</event>
<event>
 7    1  0.3004200E-011  0.5052886E+02  0.7816164E-02  0.1300439E+00
        -11   -1    0    0    0    0  0.00000000000E+00  0.00000000000E+00  0.45593999997E+02  0.45594000000E+02  0.51100000000E-03 0.  1.
         11   -1    0    0    0    0 -0.00000000000E+00 -0.00000000000E+00 -0.45593999997E+02  0.45594000000E+02  0.51100000000E-03 0. -1.
    9900012    2    1    2    0    0  0.29850588072E+02  0.66283538418E+01  0.26798752104E+02  0.50528858380E+02  0.29999995533E+02 0.  0.
         12    1    1    2    0    0 -0.29850588072E+02 -0.66283538418E+01 -0.26798752104E+02  0.40659141620E+02  0.00000000000E+00 0. -1.
         11    1    3    3    0    0  0.20750673084E+01  0.12617954273E+02  0.26351565919E+01  0.13056137441E+02  0.51100000000E-03 0. -1.
        -11    1    3    3    0    0  0.20690974411E+02 -0.60459755834E+01  0.18265306186E+02  0.28254055517E+02  0.51100000000E-03 0.  1.
         12    1    3    3    0    0  0.70845463526E+01  0.56375152495E-01  0.58982893260E+01  0.92186654215E+01  0.00000000000E+00 0. -1.
</event>
<event>
 7    1  0.3004200E-011  0.5052881E+02  0.7816164E-02  0.1300439E+00
        -11   -1    0    0    0    0  0.00000000000E+00  0.00000000000E+00  0.45593999997E+02  0.45594000000E+02  0.51100000000E-03 0. -1.
         11   -1    0    0    0    0 -0.00000000000E+00 -0.00000000000E+00 -0.45593999997E+02  0.45594000000E+02  0.51100000000E-03 0.  1.
    9900012    2    1    2    0    0  0.34415527010E+02  0.16968415845E+02 -0.13446701377E+02  0.50528813909E+02  0.29999860357E+02 0.  0.
         12    1    1    2    0    0 -0.34415527010E+02 -0.16968415845E+02  0.13446701377E+02  0.40659186091E+02  0.00000000000E+00 0. -1.
         11    1    3    3    0    0  0.74679058366E+01  0.17462507848E+01 -0.17285081199E+02  0.18910130664E+02  0.51100000000E-03 0. -1.
        -11    1    3    3    0    0  0.14197061105E+02  0.50470817202E+01  0.15759959645E+01  0.15149697734E+02  0.51100000000E-03 0.  1.
         12    1    3    3    0    0  0.12750560069E+02  0.10175083340E+02  0.22623838577E+01  0.16468985511E+02  0.00000000000E+00 0. -1.
</event>
<event>
 7    1  0.3004200E-011  0.5052886E+02  0.7816164E-02  0.1300439E+00
        -11   -1    0    0    0    0  0.00000000000E+00  0.00000000000E+00  0.45593999997E+02  0.45594000000E+02  0.51100000000E-03 0.  1.
         11   -1    0    0    0    0 -0.00000000000E+00 -0.00000000000E+00 -0.45593999997E+02  0.45594000000E+02  0.51100000000E-03 0. -1.
    9900012    2    1    2    0    0  0.36536443229E+02  0.69719530197E+01 -0.16420892035E+02  0.50528861938E+02  0.30000006348E+02 0.  0.
         12    1    1    2    0    0 -0.36536443229E+02 -0.69719530197E+01  0.16420892035E+02  0.40659138062E+02  0.00000000000E+00 0. -1.
         11    1    3    3    0    0  0.20647976434E+02  0.64579945735E+01 -0.23017997712E+02  0.31589125402E+02  0.51100000000E-03 0. -1.
        -11    1    3    3    0    0  0.24627417850E+01 -0.24948802922E+01 -0.35636298854E+00  0.35237082190E+01  0.51100000000E-03 0.  1.
         12    1    3    3    0    0  0.13425725009E+02  0.30088387384E+01  0.69534686661E+01  0.15416028317E+02  0.00000000000E+00 0. -1.
</event>
<event>
 7    1  0.3004200E-011  0.5052885E+02  0.7816164E-02  0.1300439E+00
        -11   -1    0    0    0    0  0.00000000000E+00  0.00000000000E+00  0.45593999997E+02  0.45594000000E+02  0.51100000000E-03 0.  1.
         11   -1    0    0    0    0 -0.00000000000E+00 -0.00000000000E+00 -0.45593999997E+02  0.45594000000E+02  0.51100000000E-03 0. -1.
    9900012    2    1    2    0    0 -0.19271837087E+02 -0.22530954885E+02  0.27822996030E+02  0.50528846777E+02  0.29999960262E+02 0.  0.
         12    1    1    2    0    0  0.19271837087E+02  0.22530954885E+02 -0.27822996030E+02  0.40659153223E+02  0.00000000000E+00 0. -1.
         11    1    3    3    0    0 -0.26358948487E+01 -0.21235576302E+02  0.84879332750E+01  0.23020483359E+02  0.51100000000E-03 0. -1.
        -11    1    3    3    0    0 -0.17361614197E+02 -0.94352303049E+00  0.19972423613E+02  0.26480437845E+02  0.51100000000E-03 0.  1.
        -12    1    3    3    0    0  0.72567195851E+00 -0.35185555283E+00 -0.63736085742E+00  0.10279255732E+01  0.00000000000E+00 0.  1.
</event>
<event>
 7    1  0.3004200E-011  0.5052886E+02  0.7816164E-02  0.1300439E+00
        -11   -1    0    0    0    0  0.00000000000E+00  0.00000000000E+00  0.45593999997E+02  0.45594000000E+02  0.51100000000E-03 0.  1.
         11   -1    0    0    0    0 -0.00000000000E+00 -0.00000000000E+00 -0.45593999997E+02  0.45594000000E+02  0.51100000000E-03 0. -1.
    9900012    2    1    2    0    0  0.82547821752E+01  0.70743447406E+01  0.39178795355E+02  0.50528858498E+02  0.29999995889E+02 0.  0.
         12    1    1    2    0    0 -0.82547821752E+01 -0.70743447406E+01 -0.39178795355E+02  0.40659141502E+02  0.00000000000E+00 0. -1.
         11    1    3    3    0    0 -0.74913372550E+01  0.46122607838E+00  0.26059390374E+01  0.79450476330E+01  0.51100000000E-03 0. -1.
        -11    1    3    3    0    0  0.99310479257E+01  0.89144828608E+01  0.14789151181E+02  0.19920158395E+02  0.51100000000E-03 0.  1.
         12    1    3    3    0    0  0.58150715045E+01 -0.23013641986E+01  0.21783705137E+02  0.22663652470E+02  0.00000000000E+00 0. -1.
</event>
<event>
 7    1  0.3004200E-011  0.5052886E+02  0.7816164E-02  0.1300439E+00
        -11   -1    0    0    0    0  0.00000000000E+00  0.00000000000E+00  0.45593999997E+02  0.45594000000E+02  0.51100000000E-03 0.  1.
         11   -1    0    0    0    0 -0.00000000000E+00 -0.00000000000E+00 -0.45593999997E+02  0.45594000000E+02  0.51100000000E-03 0. -1.
    9900012    2    1    2    0    0 -0.22725287674E+01 -0.39732306743E+02  0.83273754094E+01  0.50528858749E+02  0.29999996652E+02 0.  0.
         12    1    1    2    0    0  0.22725287674E+01  0.39732306743E+02 -0.83273754094E+01  0.40659141251E+02  0.00000000000E+00 0. -1.
         11    1    3    3    0    0 -0.11108986481E+01 -0.89995373536E+00 -0.47043878173E+01  0.49168361300E+01  0.51100000000E-03 0. -1.
        -11    1    3    3    0    0 -0.22098815860E+01 -0.41127144127E+02  0.12193967098E+02  0.42953677311E+02  0.51100000000E-03 0.  1.
         12    1    3    3    0    0  0.10482514666E+01  0.22947911199E+01  0.83779612837E+00  0.26583453075E+01  0.00000000000E+00 0. -1.
</event>
<event>
 7    1  0.3004200E-011  0.5052886E+02  0.7816164E-02  0.1300439E+00
        -11   -1    0    0    0    0  0.00000000000E+00  0.00000000000E+00  0.45593999997E+02  0.45594000000E+02  0.51100000000E-03 0.  1.
         11   -1    0    0    0    0 -0.00000000000E+00 -0.00000000000E+00 -0.45593999997E+02  0.45594000000E+02  0.51100000000E-03 0. -1.
    9900012    2    1    2    0    0  0.30862056141E+02 -0.26356918339E+02 -0.24519902166E+01  0.50528856999E+02  0.29999991334E+02 0.  0.
         12    1    1    2    0    0 -0.30862056141E+02  0.26356918339E+02  0.24519902166E+01  0.40659143001E+02  0.00000000000E+00 0. -1.
         11    1    3    3    0    0  0.23543889114E+01  0.52743297926E+01 -0.52918023638E+01  0.78335735412E+01  0.51100000000E-03 0. -1.
        -11    1    3    3    0    0  0.12868933163E+02 -0.15062266979E+02  0.96934730469E+00  0.19834842116E+02  0.51100000000E-03 0.  1.
         12    1    3    3    0    0  0.15638734066E+02 -0.16568981153E+02  0.18704648425E+01  0.22860441342E+02  0.00000000000E+00 0. -1.
</event>
<event>
 7    1  0.3004200E-011  0.5052886E+02  0.7816164E-02  0.1300439E+00
        -11   -1    0    0    0    0  0.00000000000E+00  0.00000000000E+00  0.45593999997E+02  0.45594000000E+02  0.51100000000E-03 0. -1.
         11   -1    0    0    0    0 -0.00000000000E+00 -0.00000000000E+00 -0.45593999997E+02  0.45594000000E+02  0.51100000000E-03 0.  1.
    9900012    2    1    2    0    0  0.55847405777E+01 -0.27276494304E+02 -0.29630548929E+02  0.50528857133E+02  0.29999991740E+02 0.  0.
         12    1    1    2    0    0 -0.55847405777E+01  0.27276494304E+02  0.29630548929E+02  0.40659142867E+02  0.00000000000E+00 0. -1.
         11    1    3    3    0    0 -0.87752133728E+01 -0.66989121666E+01 -0.78510189147E+01  0.13546892345E+02  0.51100000000E-03 0. -1.
        -11    1    3    3    0    0  0.96671592359E+01 -0.22722491916E+02 -0.18677896645E+02  0.30961741390E+02  0.51100000000E-03 0.  1.
         12    1    3    3    0    0  0.46927947146E+01  0.21449097785E+01 -0.31016333695E+01  0.60202233970E+01  0.00000000000E+00 0. -1.
</event>
<event>
 7    1  0.3004200E-011  0.5052886E+02  0.7816164E-02  0.1300439E+00
        -11   -1    0    0    0    0  0.00000000000E+00  0.00000000000E+00  0.45593999997E+02  0.45594000000E+02  0.51100000000E-03 0.  1.
         11   -1    0    0    0    0 -0.00000000000E+00 -0.00000000000E+00 -0.45593999997E+02  0.45594000000E+02  0.51100000000E-03 0. -1.
    9900012    2    1    2    0    0  0.49583547515E+01  0.33444757858E+02  0.22583804195E+02  0.50528864225E+02  0.30000013299E+02 0.  0.
         12    1    1    2    0    0 -0.49583547515E+01 -0.33444757858E+02 -0.22583804195E+02  0.40659135775E+02  0.00000000000E+00 0. -1.
         11    1    3    3    0    0  0.62138561439E+01  0.21849824181E+02  0.24765002096E+02  0.33605537550E+02  0.51100000000E-03 0. -1.
        -11    1    3    3    0    0  0.32289844703E+01  0.11814183803E+02 -0.21414672709E+01  0.12433308570E+02  0.51100000000E-03 0.  1.
         12    1    3    3    0    0 -0.44844858627E+01 -0.21925012611E+00 -0.39730630228E-01  0.44900181061E+01  0.00000000000E+00 0. -1.
</event>
<event>
 7    1  0.3004200E-011  0.5052883E+02  0.7816164E-02  0.1300439E+00
        -11   -1    0    0    0    0  0.00000000000E+00  0.00000000000E+00  0.45593999997E+02  0.45594000000E+02  0.51100000000E-03 0. -1.
         11   -1    0    0    0    0 -0.00000000000E+00 -0.00000000000E+00 -0.45593999997E+02  0.45594000000E+02  0.51100000000E-03 0.  1.
    9900012    2    1    2    0    0 -0.21899000232E+02  0.33543678317E+02 -0.69586857982E+01  0.50528832839E+02  0.29999917898E+02 0.  0.
         12    1    1    2    0    0  0.21899000232E+02 -0.33543678317E+02  0.69586857982E+01  0.40659167161E+02  0.00000000000E+00 0. -1.
         11    1    3    3    0    0  0.15043221764E+01  0.18849932692E+02  0.14547132043E+01  0.18965735906E+02  0.51100000000E-03 0. -1.
        -11    1    3    3    0    0 -0.15446391203E+02  0.16088022312E+02 -0.68874120555E+01  0.23342063066E+02  0.51100000000E-03 0.  1.
         12    1    3    3    0    0 -0.79569312054E+01 -0.13942766863E+01 -0.15259869471E+01  0.82210338674E+01  0.00000000000E+00 0. -1.
</event>
<event>
 7    1  0.3004200E-011  0.5052885E+02  0.7816164E-02  0.1300439E+00
        -11   -1    0    0    0    0  0.00000000000E+00  0.00000000000E+00  0.45593999997E+02  0.45594000000E+02  0.51100000000E-03 0. -1.
         11   -1    0    0    0    0 -0.00000000000E+00 -0.00000000000E+00 -0.45593999997E+02  0.45594000000E+02  0.51100000000E-03 0.  1.
    9900012    2    1    2    0    0  0.22501306624E+02  0.32006603685E+02  0.11065038533E+02  0.50528849038E+02  0.29999967136E+02 0.  0.
         12    1    1    2    0    0 -0.22501306624E+02 -0.32006603685E+02 -0.11065038533E+02  0.40659150962E+02  0.00000000000E+00 0. -1.
         11    1    3    3    0    0  0.27536196100E+01  0.27559860818E+02  0.34539965813E+01  0.27911618403E+02  0.51100000000E-03 0. -1.
        -11    1    3    3    0    0  0.80653394575E+01  0.38220001707E+01  0.52717333236E+00  0.89406542184E+01  0.51100000000E-03 0.  1.
         12    1    3    3    0    0  0.11682347556E+02  0.62474269693E+00  0.70838686189E+01  0.13676576416E+02  0.00000000000E+00 0. -1.
</event>
<event>
 7    1  0.3004200E-011  0.5052887E+02  0.7816164E-02  0.1300439E+00
        -11   -1    0    0    0    0  0.00000000000E+00  0.00000000000E+00  0.45593999997E+02  0.45594000000E+02  0.51100000000E-03 0. -1.
         11   -1    0    0    0    0 -0.00000000000E+00 -0.00000000000E+00 -0.45593999997E+02  0.45594000000E+02  0.51100000000E-03 0.  1.
    9900012    2    1    2    0    0 -0.24110757504E+02 -0.32644885026E+02 -0.24794856394E+01  0.50528868248E+02  0.30000025526E+02 0.  0.
         12    1    1    2    0    0  0.24110757504E+02  0.32644885026E+02  0.24794856394E+01  0.40659131752E+02  0.00000000000E+00 0. -1.
         11    1    3    3    0    0 -0.19652872615E+02 -0.86241891822E+01  0.57173696174E+01  0.22210365973E+02  0.51100000000E-03 0. -1.
        -11    1    3    3    0    0 -0.33026373172E+01 -0.16299385279E+02  0.49129294964E+00  0.16637870740E+02  0.51100000000E-03 0.  1.
         12    1    3    3    0    0 -0.11552475725E+01 -0.77213105648E+01 -0.86881482064E+01  0.11680631535E+02  0.00000000000E+00 0. -1.
</event>
<event>
 7    1  0.3004200E-011  0.5052888E+02  0.7816164E-02  0.1300439E+00
        -11   -1    0    0    0    0  0.00000000000E+00  0.00000000000E+00  0.45593999997E+02  0.45594000000E+02  0.51100000000E-03 0. -1.
         11   -1    0    0    0    0 -0.00000000000E+00 -0.00000000000E+00 -0.45593999997E+02  0.45594000000E+02  0.51100000000E-03 0.  1.
    9900012    2    1    2    0    0 -0.33976004127E+02  0.31129030118E+01 -0.22115725663E+02  0.50528876261E+02  0.30000049884E+02 0.  0.
         12    1    1    2    0    0  0.33976004127E+02 -0.31129030118E+01  0.22115725663E+02  0.40659123739E+02  0.00000000000E+00 0. -1.
         11    1    3    3    0    0 -0.63364253241E+01 -0.78166550118E+01 -0.12174425620E+02  0.15794525029E+02  0.51100000000E-03 0. -1.
        -11    1    3    3    0    0 -0.14466738735E+02  0.11245064487E+02 -0.11236687342E+02  0.21494211957E+02  0.51100000000E-03 0.  1.
        -12    1    3    3    0    0 -0.13172840068E+02 -0.31550646350E+00  0.12953872996E+01  0.13240139276E+02  0.00000000000E+00 0.  1.
</event>
<event>
 7    1  0.3004200E-011  0.5052886E+02  0.7816164E-02  0.1300439E+00
        -11   -1    0    0    0    0  0.00000000000E+00  0.00000000000E+00  0.45593999997E+02  0.45594000000E+02  0.51100000000E-03 0. -1.
         11   -1    0    0    0    0 -0.00000000000E+00 -0.00000000000E+00 -0.45593999997E+02  0.45594000000E+02  0.51100000000E-03 0.  1.
    9900012    2    1    2    0    0 -0.19587941440E+02 -0.34995135646E+02  0.66946738232E+01  0.50528860482E+02  0.30000001921E+02 0.  0.
         12    1    1    2    0    0  0.19587941440E+02  0.34995135646E+02 -0.66946738232E+01  0.40659139518E+02  0.00000000000E+00 0. -1.
         11    1    3    3    0    0 -0.44571138711E+01 -0.14225420819E+02 -0.11314365783E+02  0.18714789202E+02  0.51100000000E-03 0. -1.
        -11    1    3    3    0    0 -0.10678915146E+02 -0.17046051746E+02  0.11825578479E+02  0.23333482712E+02  0.51100000000E-03 0.  1.
         12    1    3    3    0    0 -0.44519124228E+01 -0.37236630810E+01  0.61834611271E+01  0.84805885687E+01  0.00000000000E+00 0. -1.
</event>
<event>
 7    1  0.3004200E-011  0.5052887E+02  0.7816164E-02  0.1300439E+00
        -11   -1    0    0    0    0  0.00000000000E+00  0.00000000000E+00  0.45593999997E+02  0.45594000000E+02  0.51100000000E-03 0. -1.
         11   -1    0    0    0    0 -0.00000000000E+00 -0.00000000000E+00 -0.45593999997E+02  0.45594000000E+02  0.51100000000E-03 0.  1.
    9900012    2    1    2    0    0 -0.78879014571E+01 -0.39097527207E+02 -0.78949067457E+01  0.50528866025E+02  0.30000018769E+02 0.  0.
         12    1    1    2    0    0  0.78879014571E+01  0.39097527207E+02  0.78949067457E+01  0.40659133975E+02  0.00000000000E+00 0. -1.
         11    1    3    3    0    0 -0.69425760730E+01 -0.78282514099E+01  0.59765128547E+01  0.12049879204E+02  0.51100000000E-03 0. -1.
        -11    1    3    3    0    0 -0.91593857761E+01 -0.19414680769E+02 -0.85252961856E+01  0.23097723967E+02  0.51100000000E-03 0.  1.
         12    1    3    3    0    0  0.82140603920E+01 -0.11854595028E+02 -0.53461234149E+01  0.15381262853E+02  0.00000000000E+00 0. -1.
</event>
<event>
 7    1  0.3004200E-011  0.5052885E+02  0.7816164E-02  0.1300439E+00
        -11   -1    0    0    0    0  0.00000000000E+00  0.00000000000E+00  0.45593999997E+02  0.45594000000E+02  0.51100000000E-03 0.  1.
         11   -1    0    0    0    0 -0.00000000000E+00 -0.00000000000E+00 -0.45593999997E+02  0.45594000000E+02  0.51100000000E-03 0. -1.
    9900012    2    1    2    0    0 -0.14257263124E+02  0.32201827302E+02  0.20320910113E+02  0.50528848248E+02  0.29999964735E+02 0.  0.
         12    1    1    2    0    0  0.14257263124E+02 -0.32201827302E+02 -0.20320910113E+02  0.40659151752E+02  0.00000000000E+00 0. -1.
         11    1    3    3    0    0 -0.13874940389E+02  0.21493065131E+02  0.13231628135E+01  0.25616724607E+02  0.51100000000E-03 0. -1.
        -11    1    3    3    0    0 -0.29008837676E+01  0.34429621356E+01  0.16061718743E+02  0.16680765095E+02  0.51100000000E-03 0.  1.
        -12    1    3    3    0    0  0.25185610326E+01  0.72658000351E+01  0.29360285566E+01  0.82313585459E+01  0.00000000000E+00 0.  1.
</event>
<event>
 7    1  0.3004200E-011  0.5052886E+02  0.7816164E-02  0.1300439E+00
        -11   -1    0    0    0    0  0.00000000000E+00  0.00000000000E+00  0.45593999997E+02  0.45594000000E+02  0.51100000000E-03 0. -1.
         11   -1    0    0    0    0 -0.00000000000E+00 -0.00000000000E+00 -0.45593999997E+02  0.45594000000E+02  0.51100000000E-03 0.  1.
    9900012    2    1    2    0    0 -0.29067627450E+02 -0.28209256387E+02 -0.35321788720E+01  0.50528863277E+02  0.30000010417E+02 0.  0.
         12    1    1    2    0    0  0.29067627450E+02  0.28209256387E+02  0.35321788720E+01  0.40659136723E+02  0.00000000000E+00 0. -1.
         11    1    3    3    0    0 -0.12162885649E+02 -0.16501762406E+02  0.37018390448E+01  0.20831408075E+02  0.51100000000E-03 0. -1.
        -11    1    3    3    0    0 -0.13269349240E+02 -0.98161540497E+01 -0.14095624022E+02  0.21705278768E+02  0.51100000000E-03 0.  1.
        -12    1    3    3    0    0 -0.36353925615E+01 -0.18913399319E+01  0.68616061052E+01  0.79921764343E+01  0.00000000000E+00 0.  1.
</event>
<event>
 7    1  0.3004200E-011  0.5052885E+02  0.7816164E-02  0.1300439E+00
        -11   -1    0    0    0    0  0.00000000000E+00  0.00000000000E+00  0.45593999997E+02  0.45594000000E+02  0.51100000000E-03 0.  1.
         11   -1    0    0    0    0 -0.00000000000E+00 -0.00000000000E+00 -0.45593999997E+02  0.45594000000E+02  0.51100000000E-03 0. -1.
    9900012    2    1    2    0    0  0.30714645883E+01  0.34625516155E+02  0.21090430277E+02  0.50528849578E+02  0.29999968778E+02 0.  0.
         12    1    1    2    0    0 -0.30714645883E+01 -0.34625516155E+02 -0.21090430277E+02  0.40659150422E+02  0.00000000000E+00 0. -1.
         11    1    3    3    0    0 -0.15156997613E+01  0.57784441127E+01 -0.58012193201E+01  0.83271788735E+01  0.51100000000E-03 0. -1.
        -11    1    3    3    0    0  0.77550351907E+01  0.26833367779E+02  0.26368226960E+02  0.38411633530E+02  0.51100000000E-03 0.  1.
        -12    1    3    3    0    0 -0.31678708411E+01  0.20137042637E+01  0.52342263719E+00  0.37900371746E+01  0.00000000000E+00 0.  1.
</event>
<event>
 7    1  0.3004200E-011  0.5052887E+02  0.7816164E-02  0.1300439E+00
        -11   -1    0    0    0    0  0.00000000000E+00  0.00000000000E+00  0.45593999997E+02  0.45594000000E+02  0.51100000000E-03 0.  1.
         11   -1    0    0    0    0 -0.00000000000E+00 -0.00000000000E+00 -0.45593999997E+02  0.45594000000E+02  0.51100000000E-03 0. -1.
    9900012    2    1    2    0    0  0.28891588683E+02  0.21547165002E+01 -0.28527145215E+02  0.50528871702E+02  0.30000036025E+02 0.  0.
         12    1    1    2    0    0 -0.28891588683E+02 -0.21547165002E+01  0.28527145215E+02  0.40659128298E+02  0.00000000000E+00 0. -1.
         11    1    3    3    0    0  0.11432322081E+02 -0.69132503199E+01 -0.20766637176E+02  0.24692999777E+02  0.51100000000E-03 0. -1.
        -11    1    3    3    0    0  0.10189255432E+02  0.73640036715E+01  0.28215964793E+01  0.12884521073E+02  0.51100000000E-03 0.  1.
         12    1    3    3    0    0  0.72700111707E+01  0.17039631486E+01 -0.10582104518E+02  0.12951350851E+02  0.00000000000E+00 0. -1.
</event>
<event>
 7    1  0.3004200E-011  0.5052886E+02  0.7816164E-02  0.1300439E+00
        -11   -1    0    0    0    0  0.00000000000E+00  0.00000000000E+00  0.45593999997E+02  0.45594000000E+02  0.51100000000E-03 0. -1.
         11   -1    0    0    0    0 -0.00000000000E+00 -0.00000000000E+00 -0.45593999997E+02  0.45594000000E+02  0.51100000000E-03 0.  1.
    9900012    2    1    2    0    0 -0.11664622744E+02  0.21875980286E+02 -0.32226440446E+02  0.50528863252E+02  0.30000010342E+02 0.  0.
         12    1    1    2    0    0  0.11664622744E+02 -0.21875980286E+02  0.32226440446E+02  0.40659136748E+02  0.00000000000E+00 0. -1.
         11    1    3    3    0    0  0.48188865708E+01  0.32353808727E+01 -0.10744336277E+02  0.12211884353E+02  0.51100000000E-03 0. -1.
        -11    1    3    3    0    0 -0.20092224117E+02  0.19357271832E+02 -0.20102340472E+02  0.34387578215E+02  0.51100000000E-03 0.  1.
        -12    1    3    3    0    0  0.36087148019E+01 -0.71667241908E+00 -0.13797636970E+01  0.39294006843E+01  0.00000000000E+00 0.  1.
</event>
<event>
 7    1  0.3004200E-011  0.5052885E+02  0.7816164E-02  0.1300439E+00
        -11   -1    0    0    0    0  0.00000000000E+00  0.00000000000E+00  0.45593999997E+02  0.45594000000E+02  0.51100000000E-03 0. -1.
         11   -1    0    0    0    0 -0.00000000000E+00 -0.00000000000E+00 -0.45593999997E+02  0.45594000000E+02  0.51100000000E-03 0.  1.
    9900012    2    1    2    0    0  0.31691587065E+02  0.25254730813E+02 -0.33178511140E+01  0.50528852750E+02  0.29999978418E+02 0.  0.
         12    1    1    2    0    0 -0.31691587065E+02 -0.25254730813E+02  0.33178511140E+01  0.40659147250E+02  0.00000000000E+00 0. -1.
         11    1    3    3    0    0  0.12390241363E+02  0.79820677631E+01 -0.14841065601E+02  0.20916230904E+02  0.51100000000E-03 0. -1.
        -11    1    3    3    0    0  0.61642195206E+01  0.36162579142E+01 -0.51083938313E+00  0.71649061918E+01  0.51100000000E-03 0.  1.
         12    1    3    3    0    0  0.13137126181E+02  0.13656405135E+02  0.12034053870E+02  0.22447715654E+02  0.00000000000E+00 0. -1.
</event>
<event>
 7    1  0.3004200E-011  0.5052886E+02  0.7816164E-02  0.1300439E+00
        -11   -1    0    0    0    0  0.00000000000E+00  0.00000000000E+00  0.45593999997E+02  0.45594000000E+02  0.51100000000E-03 0.  1.
         11   -1    0    0    0    0 -0.00000000000E+00 -0.00000000000E+00 -0.45593999997E+02  0.45594000000E+02  0.51100000000E-03 0. -1.
    9900012    2    1    2    0    0  0.40211005235E+01  0.29143151593E+02  0.28065516086E+02  0.50528859240E+02  0.29999998145E+02 0.  0.
         12    1    1    2    0    0 -0.40211005235E+01 -0.29143151593E+02 -0.28065516086E+02  0.40659140760E+02  0.00000000000E+00 0. -1.
         11    1    3    3    0    0  0.62414792907E+01  0.14304934783E+02  0.24963620004E+02  0.29440950169E+02  0.51100000000E-03 0. -1.
        -11    1    3    3    0    0 -0.11391836563E+01  0.47410943385E+00 -0.45935957301E+01  0.47564315564E+01  0.51100000000E-03 0.  1.
        -12    1    3    3    0    0 -0.10811951109E+01  0.14364107376E+02  0.76954918119E+01  0.16331477514E+02  0.00000000000E+00 0.  1.
</event>
<event>
 7    1  0.3004200E-011  0.5052887E+02  0.7816164E-02  0.1300439E+00
        -11   -1    0    0    0    0  0.00000000000E+00  0.00000000000E+00  0.45593999997E+02  0.45594000000E+02  0.51100000000E-03 0.  1.
         11   -1    0    0    0    0 -0.00000000000E+00 -0.00000000000E+00 -0.45593999997E+02  0.45594000000E+02  0.51100000000E-03 0. -1.
    9900012    2    1    2    0    0 -0.34563103485E+02 -0.19441729701E+02  0.89764262247E+01  0.50528865675E+02  0.30000017705E+02 0.  0.
         12    1    1    2    0    0  0.34563103485E+02  0.19441729701E+02 -0.89764262247E+01  0.40659134325E+02  0.00000000000E+00 0. -1.
         11    1    3    3    0    0 -0.27801925346E+00 -0.13366562614E+02 -0.29438603071E+00  0.13372694352E+02  0.51100000000E-03 0. -1.
        -11    1    3    3    0    0 -0.44063775268E+01  0.22294238711E+01  0.74461202559E+00  0.49940906115E+01  0.51100000000E-03 0.  1.
         12    1    3    3    0    0 -0.29878706705E+02 -0.83045909579E+01  0.85262002298E+01  0.32162080712E+02  0.00000000000E+00 0. -1.
</event>
<event>
 7    1  0.3004200E-011  0.5052885E+02  0.7816164E-02  0.1300439E+00
        -11   -1    0    0    0    0  0.00000000000E+00  0.00000000000E+00  0.45593999997E+02  0.45594000000E+02  0.51100000000E-03 0.  1.
         11   -1    0    0    0    0 -0.00000000000E+00 -0.00000000000E+00 -0.45593999997E+02  0.45594000000E+02  0.51100000000E-03 0. -1.
    9900012    2    1    2    0    0  0.77783066088E+01  0.14429339973E+02  0.37208315262E+02  0.50528848135E+02  0.29999964390E+02 0.  0.
         12    1    1    2    0    0 -0.77783066088E+01 -0.14429339973E+02 -0.37208315262E+02  0.40659151865E+02  0.00000000000E+00 0. -1.
         11    1    3    3    0    0  0.67869010697E+01  0.16110739794E+01  0.19380123113E+01  0.72397152897E+01  0.51100000000E-03 0. -1.
        -11    1    3    3    0    0 -0.34397162459E+01 -0.45889866461E+01  0.15751644115E+02  0.16763195963E+02  0.51100000000E-03 0.  1.
        -12    1    3    3    0    0  0.44311217850E+01  0.17407252640E+02  0.19518658835E+02  0.26525936882E+02  0.00000000000E+00 0.  1.
</event>
<event>
 7    1  0.3004200E-011  0.5052887E+02  0.7816164E-02  0.1300439E+00
        -11   -1    0    0    0    0  0.00000000000E+00  0.00000000000E+00  0.45593999997E+02  0.45594000000E+02  0.51100000000E-03 0. -1.
         11   -1    0    0    0    0 -0.00000000000E+00 -0.00000000000E+00 -0.45593999997E+02  0.45594000000E+02  0.51100000000E-03 0.  1.
    9900012    2    1    2    0    0 -0.42490568196E+01  0.40427585001E+02 -0.84904779073E+00  0.50528868246E+02  0.30000025520E+02 0.  0.
         12    1    1    2    0    0  0.42490568196E+01 -0.40427585001E+02  0.84904779073E+00  0.40659131754E+02  0.00000000000E+00 0. -1.
         11    1    3    3    0    0 -0.36925901689E+01  0.32456964300E+02  0.77795338025E+01  0.33579918109E+02  0.51100000000E-03 0. -1.
        -11    1    3    3    0    0  0.42177486933E+01 -0.71712334668E+00 -0.45038105636E+01  0.62119223907E+01  0.51100000000E-03 0.  1.
        -12    1    3    3    0    0 -0.47742153440E+01  0.86877440472E+01 -0.41247710296E+01  0.10737027746E+02  0.00000000000E+00 0.  1.
</event>
<event>
 7    1  0.3004200E-011  0.5052886E+02  0.7816164E-02  0.1300439E+00
        -11   -1    0    0    0    0  0.00000000000E+00  0.00000000000E+00  0.45593999997E+02  0.45594000000E+02  0.51100000000E-03 0.  1.
         11   -1    0    0    0    0 -0.00000000000E+00 -0.00000000000E+00 -0.45593999997E+02  0.45594000000E+02  0.51100000000E-03 0. -1.
    9900012    2    1    2    0    0  0.51970574390E+01 -0.14501652187E+02  0.37627898489E+02  0.50528855065E+02  0.29999985455E+02 0.  0.
         12    1    1    2    0    0 -0.51970574390E+01  0.14501652187E+02 -0.37627898489E+02  0.40659144935E+02  0.00000000000E+00 0. -1.
         11    1    3    3    0    0  0.53360782380E+01 -0.94831354338E+01  0.63845066512E+01  0.12616081565E+02  0.51100000000E-03 0. -1.
        -11    1    3    3    0    0  0.60318944876E+01  0.48693400148E+01  0.21038199890E+02  0.22420974068E+02  0.51100000000E-03 0.  1.
        -12    1    3    3    0    0 -0.61709152865E+01 -0.98878567681E+01  0.10205191948E+02  0.15491799432E+02  0.00000000000E+00 0.  1.
</event>
<event>
 7    1  0.3004200E-011  0.5052883E+02  0.7816164E-02  0.1300439E+00
        -11   -1    0    0    0    0  0.00000000000E+00  0.00000000000E+00  0.45593999997E+02  0.45594000000E+02  0.51100000000E-03 0.  1.
         11   -1    0    0    0    0 -0.00000000000E+00 -0.00000000000E+00 -0.45593999997E+02  0.45594000000E+02  0.51100000000E-03 0. -1.
    9900012    2    1    2    0    0 -0.11207230444E+02 -0.70229727588E+01  0.38447933190E+02  0.50528834647E+02  0.29999923392E+02 0.  0.
         12    1    1    2    0    0  0.11207230444E+02  0.70229727588E+01 -0.38447933190E+02  0.40659165353E+02  0.00000000000E+00 0. -1.
         11    1    3    3    0    0 -0.14136734400E+01 -0.13547780984E+02  0.65593060916E+01  0.15118377521E+02  0.51100000000E-03 0. -1.
        -11    1    3    3    0    0 -0.97335946738E+01  0.93347739617E+00  0.19294434641E+02  0.21630752499E+02  0.51100000000E-03 0.  1.
         12    1    3    3    0    0 -0.59962330597E-01  0.55913308293E+01  0.12594192458E+02  0.13779704627E+02  0.00000000000E+00 0. -1.
</event>
<event>
 7    1  0.3004200E-011  0.5052884E+02  0.7816164E-02  0.1300439E+00
        -11   -1    0    0    0    0  0.00000000000E+00  0.00000000000E+00  0.45593999997E+02  0.45594000000E+02  0.51100000000E-03 0.  1.
         11   -1    0    0    0    0 -0.00000000000E+00 -0.00000000000E+00 -0.45593999997E+02  0.45594000000E+02  0.51100000000E-03 0. -1.
    9900012    2    1    2    0    0  0.22524140912E+00  0.71027399835E+01  0.40033330067E+02  0.50528841558E+02  0.29999944399E+02 0.  0.
         12    1    1    2    0    0 -0.22524140912E+00 -0.71027399835E+01 -0.40033330067E+02  0.40659158442E+02  0.00000000000E+00 0. -1.
         11    1    3    3    0    0 -0.43414797685E+01 -0.25009066043E+01  0.32526164039E+01  0.59734825818E+01  0.51100000000E-03 0. -1.
        -11    1    3    3    0    0  0.11637266898E+02  0.11567330305E+02  0.17816982643E+02  0.24221353843E+02  0.51100000000E-03 0.  1.
        -12    1    3    3    0    0 -0.70705457203E+01 -0.19636837176E+01  0.18963731020E+02  0.20334005133E+02  0.00000000000E+00 0.  1.
</event>
<event>
 7    1  0.3004200E-011  0.5052890E+02  0.7816164E-02  0.1300439E+00
        -11   -1    0    0    0    0  0.00000000000E+00  0.00000000000E+00  0.45593999997E+02  0.45594000000E+02  0.51100000000E-03 0. -1.
         11   -1    0    0    0    0 -0.00000000000E+00 -0.00000000000E+00 -0.45593999997E+02  0.45594000000E+02  0.51100000000E-03 0.  1.
    9900012    2    1    2    0    0 -0.23191498074E+02 -0.27992279414E+02 -0.18213986827E+02  0.50528897627E+02  0.30000114826E+02 0.  0.
         12    1    1    2    0    0  0.23191498074E+02  0.27992279414E+02  0.18213986827E+02  0.40659102373E+02  0.00000000000E+00 0. -1.
         11    1    3    3    0    0  0.29464470901E+01 -0.15298900629E+02 -0.11321695863E+02  0.19259249944E+02  0.51100000000E-03 0. -1.
        -11    1    3    3    0    0 -0.20468272339E+02 -0.11764598934E+02 -0.88311707869E+01  0.25206061540E+02  0.51100000000E-03 0.  1.
         12    1    3    3    0    0 -0.56696728245E+01 -0.92877985101E+00  0.19388798230E+01  0.60635861433E+01  0.00000000000E+00 0. -1.
</event>
<event>
 7    1  0.3004200E-011  0.5052885E+02  0.7816164E-02  0.1300439E+00
        -11   -1    0    0    0    0  0.00000000000E+00  0.00000000000E+00  0.45593999997E+02  0.45594000000E+02  0.51100000000E-03 0.  1.
         11   -1    0    0    0    0 -0.00000000000E+00 -0.00000000000E+00 -0.45593999997E+02  0.45594000000E+02  0.51100000000E-03 0. -1.
    9900012    2    1    2    0    0  0.26414365137E+02 -0.29743613624E+02  0.84121845643E+01  0.50528854828E+02  0.29999984734E+02 0.  0.
         12    1    1    2    0    0 -0.26414365137E+02  0.29743613624E+02 -0.84121845643E+01  0.40659145172E+02  0.00000000000E+00 0. -1.
         11    1    3    3    0    0 -0.14834167530E+01 -0.82854090207E+01  0.30791542653E+01  0.89626848184E+01  0.51100000000E-03 0. -1.
        -11    1    3    3    0    0  0.17140205155E+02 -0.67701889745E+01 -0.68489526147E+01  0.19660372420E+02  0.51100000000E-03 0.  1.
        -12    1    3    3    0    0  0.10757576735E+02 -0.14688015628E+02  0.12181982914E+02  0.21905797589E+02  0.00000000000E+00 0.  1.
</event>
<event>
 7    1  0.3004200E-011  0.5052883E+02  0.7816164E-02  0.1300439E+00
        -11   -1    0    0    0    0  0.00000000000E+00  0.00000000000E+00  0.45593999997E+02  0.45594000000E+02  0.51100000000E-03 0.  1.
         11   -1    0    0    0    0 -0.00000000000E+00 -0.00000000000E+00 -0.45593999997E+02  0.45594000000E+02  0.51100000000E-03 0. -1.
    9900012    2    1    2    0    0  0.18779624230E+02 -0.20403271360E+02  0.29735500974E+02  0.50528833917E+02  0.29999921175E+02 0.  0.
         12    1    1    2    0    0 -0.18779624230E+02  0.20403271360E+02 -0.29735500974E+02  0.40659166083E+02  0.00000000000E+00 0. -1.
         11    1    3    3    0    0  0.13127086604E+02  0.17083486705E+01  0.10245568813E+02  0.16739490388E+02  0.51100000000E-03 0. -1.
        -11    1    3    3    0    0  0.32669194460E+01 -0.17563692828E+02  0.21777186570E+02  0.28167391140E+02  0.51100000000E-03 0.  1.
         12    1    3    3    0    0  0.23856181795E+01 -0.45479272017E+01 -0.22872544097E+01  0.56219523891E+01  0.00000000000E+00 0. -1.
</event>
<event>
 7    1  0.3004200E-011  0.5052887E+02  0.7816164E-02  0.1300439E+00
        -11   -1    0    0    0    0  0.00000000000E+00  0.00000000000E+00  0.45593999997E+02  0.45594000000E+02  0.51100000000E-03 0. -1.
         11   -1    0    0    0    0 -0.00000000000E+00 -0.00000000000E+00 -0.45593999997E+02  0.45594000000E+02  0.51100000000E-03 0.  1.
    9900012    2    1    2    0    0  0.30151066124E+02  0.24770129331E+02  0.11424485095E+02  0.50528868736E+02  0.30000027009E+02 0.  0.
         12    1    1    2    0    0 -0.30151066124E+02 -0.24770129331E+02 -0.11424485095E+02  0.40659131264E+02  0.00000000000E+00 0. -1.
         11    1    3    3    0    0  0.13660602436E+02  0.35888490990E+00 -0.49227258978E+01  0.14524947085E+02  0.51100000000E-03 0. -1.
        -11    1    3    3    0    0  0.18355035327E+02  0.20733510322E+02  0.15694229966E+02  0.31829147438E+02  0.51100000000E-03 0.  1.
        -12    1    3    3    0    0 -0.18645716396E+01  0.36777340995E+01  0.65298102653E+00  0.41747742127E+01  0.00000000000E+00 0.  1.
</event>
<event>
 7    1  0.3004200E-011  0.5052886E+02  0.7816164E-02  0.1300439E+00
        -11   -1    0    0    0    0  0.00000000000E+00  0.00000000000E+00  0.45593999997E+02  0.45594000000E+02  0.51100000000E-03 0.  1.
         11   -1    0    0    0    0 -0.00000000000E+00 -0.00000000000E+00 -0.45593999997E+02  0.45594000000E+02  0.51100000000E-03 0. -1.
    9900012    2    1    2    0    0  0.86290037541E+01 -0.13462960939E+02  0.37382544484E+02  0.50528860128E+02  0.30000000845E+02 0.  0.
         12    1    1    2    0    0 -0.86290037541E+01  0.13462960939E+02 -0.37382544484E+02  0.40659139872E+02  0.00000000000E+00 0. -1.
         11    1    3    3    0    0 -0.72034046452E+01 -0.63998038164E+00  0.11604250094E+01  0.73242883501E+01  0.51100000000E-03 0. -1.
        -11    1    3    3    0    0  0.75719249183E+01 -0.10540637298E+01  0.20599230287E+02  0.21972104724E+02  0.51100000000E-03 0.  1.
         12    1    3    3    0    0  0.82604834810E+01 -0.11768916827E+02  0.15622889188E+02  0.21232467054E+02  0.00000000000E+00 0. -1.
</event>
<event>
 7    1  0.3004200E-011  0.5052884E+02  0.7816164E-02  0.1300439E+00
        -11   -1    0    0    0    0  0.00000000000E+00  0.00000000000E+00  0.45593999997E+02  0.45594000000E+02  0.51100000000E-03 0.  1.
         11   -1    0    0    0    0 -0.00000000000E+00 -0.00000000000E+00 -0.45593999997E+02  0.45594000000E+02  0.51100000000E-03 0. -1.
    9900012    2    1    2    0    0 -0.24739680681E+02 -0.16266035801E+02  0.27866315481E+02  0.50528840400E+02  0.29999940880E+02 0.  0.
         12    1    1    2    0    0  0.24739680681E+02  0.16266035801E+02 -0.27866315481E+02  0.40659159600E+02  0.00000000000E+00 0. -1.
         11    1    3    3    0    0 -0.12066878253E+02 -0.17974466470E+02  0.26552440547E+02  0.34259642364E+02  0.51100000000E-03 0. -1.
        -11    1    3    3    0    0 -0.32576699749E+01 -0.15727298122E+00  0.50148905891E+01  0.59821631822E+01  0.51100000000E-03 0.  1.
         12    1    3    3    0    0 -0.94151324529E+01  0.18657036502E+01 -0.37010156544E+01  0.10287034854E+02  0.00000000000E+00 0. -1.
</event>
<event>
 7    1  0.3004200E-011  0.5052885E+02  0.7816164E-02  0.1300439E+00
        -11   -1    0    0    0    0  0.00000000000E+00  0.00000000000E+00  0.45593999997E+02  0.45594000000E+02  0.51100000000E-03 0. -1.
         11   -1    0    0    0    0 -0.00000000000E+00 -0.00000000000E+00 -0.45593999997E+02  0.45594000000E+02  0.51100000000E-03 0.  1.
    9900012    2    1    2    0    0  0.28106610778E+02 -0.17049553935E+02 -0.23926916919E+02  0.50528853280E+02  0.29999980029E+02 0.  0.
         12    1    1    2    0    0 -0.28106610778E+02  0.17049553935E+02  0.23926916919E+02  0.40659146720E+02  0.00000000000E+00 0. -1.
         11    1    3    3    0    0  0.21556972145E+02  0.92076613539E+00 -0.19770735037E+02  0.29264873526E+02  0.51100000000E-03 0. -1.
        -11    1    3    3    0    0  0.29691850324E+01 -0.11254429563E+02 -0.64602654314E+01  0.13312147620E+02  0.51100000000E-03 0.  1.
        -12    1    3    3    0    0  0.35804536004E+01 -0.67158905073E+01  0.23040835492E+01  0.79518321343E+01  0.00000000000E+00 0.  1.
</event>
<event>
 7    1  0.3004200E-011  0.5052886E+02  0.7816164E-02  0.1300439E+00
        -11   -1    0    0    0    0  0.00000000000E+00  0.00000000000E+00  0.45593999997E+02  0.45594000000E+02  0.51100000000E-03 0. -1.
         11   -1    0    0    0    0 -0.00000000000E+00 -0.00000000000E+00 -0.45593999997E+02  0.45594000000E+02  0.51100000000E-03 0.  1.
    9900012    2    1    2    0    0  0.39528386371E+02 -0.53081133573E-01  0.95220533883E+01  0.50528860223E+02  0.30000001133E+02 0.  0.
         12    1    1    2    0    0 -0.39528386371E+02  0.53081133573E-01 -0.95220533883E+01  0.40659139777E+02  0.00000000000E+00 0. -1.
         11    1    3    3    0    0  0.12145040058E+02  0.91730380265E+01 -0.67704906636E+01  0.16657916098E+02  0.51100000000E-03 0. -1.
        -11    1    3    3    0    0  0.96805704365E+01 -0.66380740050E+01  0.53564166970E+01  0.12902273852E+02  0.51100000000E-03 0.  1.
         12    1    3    3    0    0  0.17702775877E+02 -0.25880451550E+01  0.10936127355E+02  0.20968670272E+02  0.00000000000E+00 0. -1.
</event>
<event>
 7    1  0.3004200E-011  0.5052886E+02  0.7816164E-02  0.1300439E+00
        -11   -1    0    0    0    0  0.00000000000E+00  0.00000000000E+00  0.45593999997E+02  0.45594000000E+02  0.51100000000E-03 0. -1.
         11   -1    0    0    0    0 -0.00000000000E+00 -0.00000000000E+00 -0.45593999997E+02  0.45594000000E+02  0.51100000000E-03 0.  1.
    9900012    2    1    2    0    0 -0.12019358571E+02  0.68111056469E+01 -0.38240153141E+02  0.50528862615E+02  0.30000008406E+02 0.  0.
         12    1    1    2    0    0  0.12019358571E+02 -0.68111056469E+01  0.38240153141E+02  0.40659137385E+02  0.00000000000E+00 0. -1.
         11    1    3    3    0    0  0.45855117241E+01 -0.26548208074E+01 -0.64878578310E+01  0.83765918361E+01  0.51100000000E-03 0. -1.
        -11    1    3    3    0    0 -0.15331958686E+02 -0.18010456730E+01 -0.12739574265E+02  0.20015231085E+02  0.51100000000E-03 0.  1.
        -12    1    3    3    0    0 -0.12729116094E+01  0.11266972127E+02 -0.19012721046E+02  0.22137039695E+02  0.00000000000E+00 0.  1.
</event>
<event>
 7    1  0.3004200E-011  0.5052885E+02  0.7816164E-02  0.1300439E+00
        -11   -1    0    0    0    0  0.00000000000E+00  0.00000000000E+00  0.45593999997E+02  0.45594000000E+02  0.51100000000E-03 0. -1.
         11   -1    0    0    0    0 -0.00000000000E+00 -0.00000000000E+00 -0.45593999997E+02  0.45594000000E+02  0.51100000000E-03 0.  1.
    9900012    2    1    2    0    0  0.30636622793E+02  0.51421440780E+01 -0.26232081453E+02  0.50528850977E+02  0.29999973031E+02 0.  0.
         12    1    1    2    0    0 -0.30636622793E+02 -0.51421440780E+01  0.26232081453E+02  0.40659149023E+02  0.00000000000E+00 0. -1.
         11    1    3    3    0    0  0.22339453983E+01  0.48822065616E+01  0.37539214663E+01  0.65512120702E+01  0.51100000000E-03 0. -1.
        -11    1    3    3    0    0  0.12540366019E+02 -0.73902857373E+01 -0.13287183205E+02  0.19708534724E+02  0.51100000000E-03 0.  1.
         12    1    3    3    0    0  0.15862311376E+02  0.76502232537E+01 -0.16698819715E+02  0.24269104183E+02  0.00000000000E+00 0. -1.
</event>
<event>
 7    1  0.3004200E-011  0.5052886E+02  0.7816164E-02  0.1300439E+00
        -11   -1    0    0    0    0  0.00000000000E+00  0.00000000000E+00  0.45593999997E+02  0.45594000000E+02  0.51100000000E-03 0.  1.
         11   -1    0    0    0    0 -0.00000000000E+00 -0.00000000000E+00 -0.45593999997E+02  0.45594000000E+02  0.51100000000E-03 0. -1.
    9900012    2    1    2    0    0 -0.27828126417E+02 -0.26400253831E+02 -0.13482860774E+02  0.50528861336E+02  0.30000004518E+02 0.  0.
         12    1    1    2    0    0  0.27828126417E+02  0.26400253831E+02  0.13482860774E+02  0.40659138664E+02  0.00000000000E+00 0. -1.
         11    1    3    3    0    0  0.33124962030E-01  0.34237588004E+01 -0.75252914583E+01  0.82676014285E+01  0.51100000000E-03 0. -1.
        -11    1    3    3    0    0 -0.10868593489E+02 -0.18065450323E+02 -0.44093911504E+01  0.21539023896E+02  0.51100000000E-03 0.  1.
         12    1    3    3    0    0 -0.16992657890E+02 -0.11758562309E+02 -0.15481781651E+01  0.20722236012E+02  0.00000000000E+00 0. -1.
</event>
<event>
 7    1  0.3004200E-011  0.5052887E+02  0.7816164E-02  0.1300439E+00
        -11   -1    0    0    0    0  0.00000000000E+00  0.00000000000E+00  0.45593999997E+02  0.45594000000E+02  0.51100000000E-03 0. -1.
         11   -1    0    0    0    0 -0.00000000000E+00 -0.00000000000E+00 -0.45593999997E+02  0.45594000000E+02  0.51100000000E-03 0.  1.
    9900012    2    1    2    0    0 -0.47242513481E+01  0.27515678682E+02 -0.29558990806E+02  0.50528867427E+02  0.30000023030E+02 0.  0.
         12    1    1    2    0    0  0.47242513481E+01 -0.27515678682E+02  0.29558990806E+02  0.40659132573E+02  0.00000000000E+00 0. -1.
         11    1    3    3    0    0  0.65713240457E+01 -0.32831789679E+01 -0.36581699318E+01  0.82063250825E+01  0.51100000000E-03 0. -1.
        -11    1    3    3    0    0 -0.42486221002E+01  0.20825140183E+02 -0.16083090817E+02  0.26653387475E+02  0.51100000000E-03 0.  1.
         12    1    3    3    0    0 -0.70469532935E+01  0.99737174672E+01 -0.98177300574E+01  0.15669154869E+02  0.00000000000E+00 0. -1.
</event>
<event>
 7    1  0.3004200E-011  0.5052880E+02  0.7816164E-02  0.1300439E+00
        -11   -1    0    0    0    0  0.00000000000E+00  0.00000000000E+00  0.45593999997E+02  0.45594000000E+02  0.51100000000E-03 0.  1.
         11   -1    0    0    0    0 -0.00000000000E+00 -0.00000000000E+00 -0.45593999997E+02  0.45594000000E+02  0.51100000000E-03 0. -1.
    9900012    2    1    2    0    0  0.13622723332E+02  0.12379382905E+02  0.36253871214E+02  0.50528795751E+02  0.29999805165E+02 0.  0.
         12    1    1    2    0    0 -0.13622723332E+02 -0.12379382905E+02 -0.36253871214E+02  0.40659204249E+02  0.00000000000E+00 0. -1.
         11    1    3    3    0    0  0.15036533326E+02  0.60107045951E+01  0.10167735041E+02  0.19120898000E+02  0.51100000000E-03 0. -1.
        -11    1    3    3    0    0 -0.55688500450E+01  0.60913368832E+01  0.25961437031E+02  0.27241745333E+02  0.51100000000E-03 0.  1.
        -12    1    3    3    0    0  0.41550400510E+01  0.27734142682E+00  0.12469914287E+00  0.41661524179E+01  0.00000000000E+00 0.  1.
</event>
<event>
 7    1  0.3004200E-011  0.5052886E+02  0.7816164E-02  0.1300439E+00
        -11   -1    0    0    0    0  0.00000000000E+00  0.00000000000E+00  0.45593999997E+02  0.45594000000E+02  0.51100000000E-03 0. -1.
         11   -1    0    0    0    0 -0.00000000000E+00 -0.00000000000E+00 -0.45593999997E+02  0.45594000000E+02  0.51100000000E-03 0.  1.
    9900012    2    1    2    0    0  0.23490431096E+02 -0.83725240663E+01 -0.32113330588E+02  0.50528861866E+02  0.30000006128E+02 0.  0.
         12    1    1    2    0    0 -0.23490431096E+02  0.83725240663E+01  0.32113330588E+02  0.40659138134E+02  0.00000000000E+00 0. -1.
         11    1    3    3    0    0 -0.29025700289E+00 -0.10454112985E+02 -0.22780070251E+01  0.10703365999E+02  0.51100000000E-03 0. -1.
        -11    1    3    3    0    0  0.22084253219E+02  0.52951423602E+01 -0.24968586396E+02  0.33751786319E+02  0.51100000000E-03 0.  1.
        -12    1    3    3    0    0  0.16964348800E+01 -0.32135534413E+01 -0.48667371672E+01  0.60737095483E+01  0.00000000000E+00 0.  1.
</event>
<event>
 7    1  0.3004200E-011  0.5052886E+02  0.7816164E-02  0.1300439E+00
        -11   -1    0    0    0    0  0.00000000000E+00  0.00000000000E+00  0.45593999997E+02  0.45594000000E+02  0.51100000000E-03 0.  1.
         11   -1    0    0    0    0 -0.00000000000E+00 -0.00000000000E+00 -0.45593999997E+02  0.45594000000E+02  0.51100000000E-03 0. -1.
    9900012    2    1    2    0    0  0.15470057177E+02 -0.85945482476E+01  0.36605697430E+02  0.50528855727E+02  0.29999987469E+02 0.  0.
         12    1    1    2    0    0 -0.15470057177E+02  0.85945482476E+01 -0.36605697430E+02  0.40659144273E+02  0.00000000000E+00 0. -1.
         11    1    3    3    0    0 -0.44134225318E+01 -0.61081440192E+01  0.26834098706E+02  0.27872146947E+02  0.51100000000E-03 0. -1.
        -11    1    3    3    0    0  0.16946750573E+02 -0.67307612993E+00  0.76523469570E+01  0.18606552627E+02  0.51100000000E-03 0.  1.
        -12    1    3    3    0    0  0.29367291363E+01 -0.18133280985E+01  0.21192517668E+01  0.40501561530E+01  0.00000000000E+00 0.  1.
</event>
<event>
 7    1  0.3004200E-011  0.5052885E+02  0.7816164E-02  0.1300439E+00
        -11   -1    0    0    0    0  0.00000000000E+00  0.00000000000E+00  0.45593999997E+02  0.45594000000E+02  0.51100000000E-03 0. -1.
         11   -1    0    0    0    0 -0.00000000000E+00 -0.00000000000E+00 -0.45593999997E+02  0.45594000000E+02  0.51100000000E-03 0.  1.
    9900012    2    1    2    0    0  0.17914343206E+02 -0.36391099031E+02  0.28161653813E+01  0.50528848894E+02  0.29999966700E+02 0.  0.
         12    1    1    2    0    0 -0.17914343206E+02  0.36391099031E+02 -0.28161653813E+01  0.40659151106E+02  0.00000000000E+00 0. -1.
         11    1    3    3    0    0  0.32544138359E+01 -0.29631621520E+02  0.11618731218E+02  0.31994048176E+02  0.51100000000E-03 0. -1.
        -11    1    3    3    0    0  0.93534720874E+01 -0.55169637900E+01 -0.59931284437E+01  0.12403302720E+02  0.51100000000E-03 0.  1.
         12    1    3    3    0    0  0.53064572827E+01 -0.12425137205E+01 -0.28094373932E+01  0.61314979985E+01  0.00000000000E+00 0. -1.
</event>
<event>
 7    1  0.3004200E-011  0.5052885E+02  0.7816164E-02  0.1300439E+00
        -11   -1    0    0    0    0  0.00000000000E+00  0.00000000000E+00  0.45593999997E+02  0.45594000000E+02  0.51100000000E-03 0.  1.
         11   -1    0    0    0    0 -0.00000000000E+00 -0.00000000000E+00 -0.45593999997E+02  0.45594000000E+02  0.51100000000E-03 0. -1.
    9900012    2    1    2    0    0 -0.54203529152E+01  0.79709713194E+01  0.39500000712E+02  0.50528847700E+02  0.29999963068E+02 0.  0.
         12    1    1    2    0    0  0.54203529152E+01 -0.79709713194E+01 -0.39500000712E+02  0.40659152300E+02  0.00000000000E+00 0. -1.
         11    1    3    3    0    0 -0.30885643995E+00  0.59487502633E+00 -0.46148897510E+01  0.46633117280E+01  0.51100000000E-03 0. -1.
        -11    1    3    3    0    0  0.19901882917E+01  0.23351970792E+00  0.13199683028E+02  0.13350918065E+02  0.51100000000E-03 0.  1.
         12    1    3    3    0    0 -0.71016847670E+01  0.71425765851E+01  0.30915207436E+02  0.32514617906E+02  0.00000000000E+00 0. -1.
</event>
<event>
 7    1  0.3004200E-011  0.5052884E+02  0.7816164E-02  0.1300439E+00
        -11   -1    0    0    0    0  0.00000000000E+00  0.00000000000E+00  0.45593999997E+02  0.45594000000E+02  0.51100000000E-03 0.  1.
         11   -1    0    0    0    0 -0.00000000000E+00 -0.00000000000E+00 -0.45593999997E+02  0.45594000000E+02  0.51100000000E-03 0. -1.
    9900012    2    1    2    0    0 -0.22210953605E+02 -0.14717933938E+02  0.30711938099E+02  0.50528841361E+02  0.29999943800E+02 0.  0.
         12    1    1    2    0    0  0.22210953605E+02  0.14717933938E+02 -0.30711938099E+02  0.40659158639E+02  0.00000000000E+00 0. -1.
         11    1    3    3    0    0 -0.77436560902E+00  0.66450440058E+01  0.12866112237E+02  0.14501486003E+02  0.51100000000E-03 0. -1.
        -11    1    3    3    0    0 -0.98579247948E+01 -0.14564968207E+02  0.77040269780E+01  0.19200755507E+02  0.51100000000E-03 0.  1.
        -12    1    3    3    0    0 -0.11578663201E+02 -0.67980097369E+01  0.10141798885E+02  0.16826599850E+02  0.00000000000E+00 0.  1.
</event>
<event>
 7    1  0.3004200E-011  0.5052886E+02  0.7816164E-02  0.1300439E+00
        -11   -1    0    0    0    0  0.00000000000E+00  0.00000000000E+00  0.45593999997E+02  0.45594000000E+02  0.51100000000E-03 0.  1.
         11   -1    0    0    0    0 -0.00000000000E+00 -0.00000000000E+00 -0.45593999997E+02  0.45594000000E+02  0.51100000000E-03 0. -1.
    9900012    2    1    2    0    0  0.23709014262E+02  0.61704300841E+01  0.32449562178E+02  0.50528860188E+02  0.30000001026E+02 0.  0.
         12    1    1    2    0    0 -0.23709014262E+02 -0.61704300841E+01 -0.32449562178E+02  0.40659139812E+02  0.00000000000E+00 0. -1.
         11    1    3    3    0    0  0.25342556980E+02  0.62214850018E+01  0.17967515787E+02  0.31682545569E+02  0.51100000000E-03 0.  1.
        -11    1    3    3    0    0  0.28746615848E+01 -0.46468612345E+01  0.51465663552E+01  0.75062736474E+01  0.51100000000E-03 0. -1.
         12    1    3    3    0    0 -0.45082043022E+01  0.45958063167E+01  0.93354800360E+01  0.11340040971E+02  0.00000000000E+00 0. -1.
</event>
<event>
 7    1  0.3004200E-011  0.5052887E+02  0.7816164E-02  0.1300439E+00
        -11   -1    0    0    0    0  0.00000000000E+00  0.00000000000E+00  0.45593999997E+02  0.45594000000E+02  0.51100000000E-03 0.  1.
         11   -1    0    0    0    0 -0.00000000000E+00 -0.00000000000E+00 -0.45593999997E+02  0.45594000000E+02  0.51100000000E-03 0. -1.
    9900012    2    1    2    0    0 -0.32075037697E+02 -0.59648120785E+01  0.24264750648E+02  0.50528866335E+02  0.30000019711E+02 0.  0.
         12    1    1    2    0    0  0.32075037697E+02  0.59648120785E+01 -0.24264750648E+02  0.40659133665E+02  0.00000000000E+00 0. -1.
         11    1    3    3    0    0 -0.13473747127E+02  0.56931583334E+01  0.16950169751E+02  0.22388884927E+02  0.51100000000E-03 0.  1.
        -11    1    3    3    0    0 -0.14840430936E+02 -0.15541876229E+02  0.74152777858E+01  0.22732678064E+02  0.51100000000E-03 0. -1.
         12    1    3    3    0    0 -0.37608596343E+01  0.38839058169E+01 -0.10069688816E+00  0.54073033433E+01  0.00000000000E+00 0. -1.
</event>
<event>
 7    1  0.3004200E-011  0.5052886E+02  0.7816164E-02  0.1300439E+00
        -11   -1    0    0    0    0  0.00000000000E+00  0.00000000000E+00  0.45593999997E+02  0.45594000000E+02  0.51100000000E-03 0.  1.
         11   -1    0    0    0    0 -0.00000000000E+00 -0.00000000000E+00 -0.45593999997E+02  0.45594000000E+02  0.51100000000E-03 0. -1.
    9900012    2    1    2    0    0 -0.44336531765E+01 -0.88485847686E+01  0.39436159693E+02  0.50528862967E+02  0.30000009475E+02 0.  0.
         12    1    1    2    0    0  0.44336531765E+01  0.88485847686E+01 -0.39436159693E+02  0.40659137033E+02  0.00000000000E+00 0. -1.
         11    1    3    3    0    0 -0.11472506593E+02 -0.32541517870E+01  0.25148235682E+02  0.27832385265E+02  0.51100000000E-03 0. -1.
        -11    1    3    3    0    0  0.45640000299E+01 -0.73156306880E+01  0.16727096863E+02  0.18818722548E+02  0.51100000000E-03 0.  1.
         12    1    3    3    0    0  0.24748533865E+01  0.17211977065E+01 -0.24391728514E+01  0.38777551532E+01  0.00000000000E+00 0. -1.
</event>
<event>
 7    1  0.3004200E-011  0.5052886E+02  0.7816164E-02  0.1300439E+00
        -11   -1    0    0    0    0  0.00000000000E+00  0.00000000000E+00  0.45593999997E+02  0.45594000000E+02  0.51100000000E-03 0. -1.
         11   -1    0    0    0    0 -0.00000000000E+00 -0.00000000000E+00 -0.45593999997E+02  0.45594000000E+02  0.51100000000E-03 0.  1.
    9900012    2    1    2    0    0 -0.34319824854E+02 -0.10440623438E+02 -0.19139192785E+02  0.50528859622E+02  0.29999999307E+02 0.  0.
         12    1    1    2    0    0  0.34319824854E+02  0.10440623438E+02  0.19139192785E+02  0.40659140378E+02  0.00000000000E+00 0. -1.
         11    1    3    3    0    0 -0.42706292808E+01 -0.87519479238E+01  0.31408012128E+01  0.10232277334E+02  0.51100000000E-03 0. -1.
        -11    1    3    3    0    0 -0.29317146036E+02 -0.53366193504E+01 -0.20519390871E+02  0.36180380869E+02  0.51100000000E-03 0.  1.
         12    1    3    3    0    0 -0.73204953721E+00  0.36479438361E+01 -0.17606031266E+01  0.41162014195E+01  0.00000000000E+00 0. -1.
</event>
<event>
 7    1  0.3004200E-011  0.5052887E+02  0.7816164E-02  0.1300439E+00
        -11   -1    0    0    0    0  0.00000000000E+00  0.00000000000E+00  0.45593999997E+02  0.45594000000E+02  0.51100000000E-03 0. -1.
         11   -1    0    0    0    0 -0.00000000000E+00 -0.00000000000E+00 -0.45593999997E+02  0.45594000000E+02  0.51100000000E-03 0.  1.
    9900012    2    1    2    0    0 -0.19228334958E+02 -0.17396937003E+02 -0.31317453459E+02  0.50528866050E+02  0.30000018847E+02 0.  0.
         12    1    1    2    0    0  0.19228334958E+02  0.17396937003E+02  0.31317453459E+02  0.40659133950E+02  0.00000000000E+00 0. -1.
         11    1    3    3    0    0  0.75273656579E+01 -0.66612467166E+01 -0.67328246401E+01  0.12098114294E+02  0.51100000000E-03 0. -1.
        -11    1    3    3    0    0 -0.22592918154E+02 -0.97797269737E+01 -0.17671177365E+02  0.30304348205E+02  0.51100000000E-03 0.  1.
         12    1    3    3    0    0 -0.41627824618E+01 -0.95596331313E+00 -0.69134514542E+01  0.81264035520E+01  0.00000000000E+00 0. -1.
</event>
<event>
 7    1  0.3004200E-011  0.5052885E+02  0.7816164E-02  0.1300439E+00
        -11   -1    0    0    0    0  0.00000000000E+00  0.00000000000E+00  0.45593999997E+02  0.45594000000E+02  0.51100000000E-03 0. -1.
         11   -1    0    0    0    0 -0.00000000000E+00 -0.00000000000E+00 -0.45593999997E+02  0.45594000000E+02  0.51100000000E-03 0.  1.
    9900012    2    1    2    0    0  0.23716344358E+02 -0.24082542839E+02 -0.22599394480E+02  0.50528849860E+02  0.29999969634E+02 0.  0.
         12    1    1    2    0    0 -0.23716344358E+02  0.24082542839E+02  0.22599394480E+02  0.40659150140E+02  0.00000000000E+00 0. -1.
         11    1    3    3    0    0  0.32916541709E+01  0.51794296772E+01 -0.24644711687E+01  0.66132516484E+01  0.51100000000E-03 0. -1.
        -11    1    3    3    0    0  0.22856786847E+02 -0.24724726789E+02 -0.15838252889E+02  0.37210147468E+02  0.51100000000E-03 0.  1.
        -12    1    3    3    0    0 -0.24320966603E+01 -0.45372457269E+01 -0.42966704228E+01  0.67054507435E+01  0.00000000000E+00 0.  1.
</event>
<event>
 7    1  0.3004200E-011  0.5052886E+02  0.7816164E-02  0.1300439E+00
        -11   -1    0    0    0    0  0.00000000000E+00  0.00000000000E+00  0.45593999997E+02  0.45594000000E+02  0.51100000000E-03 0. -1.
         11   -1    0    0    0    0 -0.00000000000E+00 -0.00000000000E+00 -0.45593999997E+02  0.45594000000E+02  0.51100000000E-03 0.  1.
    9900012    2    1    2    0    0 -0.15234723168E+02 -0.37657408055E+02  0.17286632547E+01  0.50528862674E+02  0.30000008583E+02 0.  0.
         12    1    1    2    0    0  0.15234723168E+02  0.37657408055E+02 -0.17286632547E+01  0.40659137326E+02  0.00000000000E+00 0. -1.
         11    1    3    3    0    0  0.94832248049E+00  0.12898017538E+01 -0.30044509801E+01  0.34043545709E+01  0.51100000000E-03 0. -1.
        -11    1    3    3    0    0 -0.19989136899E+02 -0.28787438695E+02  0.76876464539E+01  0.35880107704E+02  0.51100000000E-03 0.  1.
        -12    1    3    3    0    0  0.38060912502E+01 -0.10159771114E+02 -0.29545322190E+01  0.11244400399E+02  0.00000000000E+00 0.  1.
</event>
<event>
 7    1  0.3004200E-011  0.5052885E+02  0.7816164E-02  0.1300439E+00
        -11   -1    0    0    0    0  0.00000000000E+00  0.00000000000E+00  0.45593999997E+02  0.45594000000E+02  0.51100000000E-03 0. -1.
         11   -1    0    0    0    0 -0.00000000000E+00 -0.00000000000E+00 -0.45593999997E+02  0.45594000000E+02  0.51100000000E-03 0.  1.
    9900012    2    1    2    0    0  0.28942629686E+01  0.14458809624E+01 -0.40530222222E+02  0.50528852895E+02  0.29999978861E+02 0.  0.
         12    1    1    2    0    0 -0.28942629686E+01 -0.14458809624E+01  0.40530222222E+02  0.40659147105E+02  0.00000000000E+00 0. -1.
         11    1    3    3    0    0  0.43813905965E+01 -0.77974753514E+01 -0.78383160182E+01  0.11892703800E+02  0.51100000000E-03 0. -1.
        -11    1    3    3    0    0 -0.17497215350E+01  0.14419966846E+02 -0.28429300541E+02  0.31925258007E+02  0.51100000000E-03 0.  1.
        -12    1    3    3    0    0  0.26259390715E+00 -0.51766105322E+01 -0.42626056628E+01  0.67108910882E+01  0.00000000000E+00 0.  1.
</event>
<event>
 7    1  0.3004200E-011  0.5052886E+02  0.7816164E-02  0.1300439E+00
        -11   -1    0    0    0    0  0.00000000000E+00  0.00000000000E+00  0.45593999997E+02  0.45594000000E+02  0.51100000000E-03 0.  1.
         11   -1    0    0    0    0 -0.00000000000E+00 -0.00000000000E+00 -0.45593999997E+02  0.45594000000E+02  0.51100000000E-03 0. -1.
    9900012    2    1    2    0    0 -0.36879330760E+02 -0.13619265617E+01  0.17065338604E+02  0.50528860032E+02  0.30000000554E+02 0.  0.
         12    1    1    2    0    0  0.36879330760E+02  0.13619265617E+01 -0.17065338604E+02  0.40659139968E+02  0.00000000000E+00 0. -1.
         11    1    3    3    0    0 -0.26551821983E+02  0.42068931297E+01 -0.25837939036E+01  0.27006910072E+02  0.51100000000E-03 0. -1.
        -11    1    3    3    0    0 -0.75383393094E+01 -0.10397472436E+01  0.11381863554E+02  0.13691400662E+02  0.51100000000E-03 0.  1.
         12    1    3    3    0    0 -0.27891694671E+01 -0.45290724478E+01  0.82672689531E+01  0.98305492978E+01  0.00000000000E+00 0. -1.
</event>
<event>
 7    1  0.3004200E-011  0.5052884E+02  0.7816164E-02  0.1300439E+00
        -11   -1    0    0    0    0  0.00000000000E+00  0.00000000000E+00  0.45593999997E+02  0.45594000000E+02  0.51100000000E-03 0.  1.
         11   -1    0    0    0    0 -0.00000000000E+00 -0.00000000000E+00 -0.45593999997E+02  0.45594000000E+02  0.51100000000E-03 0. -1.
    9900012    2    1    2    0    0 -0.22793486752E+02  0.18752709588E+02  0.27963545252E+02  0.50528843365E+02  0.29999949892E+02 0.  0.
         12    1    1    2    0    0  0.22793486752E+02 -0.18752709588E+02 -0.27963545252E+02  0.40659156635E+02  0.00000000000E+00 0. -1.
         11    1    3    3    0    0  0.13855576378E+01  0.65753236957E+01  0.15302103721E+02  0.16712541106E+02  0.51100000000E-03 0. -1.
        -11    1    3    3    0    0 -0.14647849989E+02  0.40018705766E+00  0.11488804990E+02  0.18620212118E+02  0.51100000000E-03 0.  1.
         12    1    3    3    0    0 -0.95311944011E+01  0.11777198835E+02  0.11726365417E+01  0.15196090141E+02  0.00000000000E+00 0. -1.
</event>
<event>
 7    1  0.3004200E-011  0.5052882E+02  0.7816164E-02  0.1300439E+00
        -11   -1    0    0    0    0  0.00000000000E+00  0.00000000000E+00  0.45593999997E+02  0.45594000000E+02  0.51100000000E-03 0. -1.
         11   -1    0    0    0    0 -0.00000000000E+00 -0.00000000000E+00 -0.45593999997E+02  0.45594000000E+02  0.51100000000E-03 0.  1.
    9900012    2    1    2    0    0 -0.23500637553E+02  0.24049793967E+02 -0.22858180990E+02  0.50528819076E+02  0.29999876063E+02 0.  0.
         12    1    1    2    0    0  0.23500637553E+02 -0.24049793967E+02  0.22858180990E+02  0.40659180924E+02  0.00000000000E+00 0. -1.
         11    1    3    3    0    0 -0.27267336148E+01 -0.59138231860E+00 -0.38963918496E+01  0.47923563055E+01  0.51100000000E-03 0. -1.
        -11    1    3    3    0    0 -0.14824787159E+02  0.18543599727E+02  0.12794931430E+01  0.23775544328E+02  0.51100000000E-03 0.  1.
        -12    1    3    3    0    0 -0.59491167797E+01  0.60975765579E+01 -0.20241282283E+02  0.21960918442E+02  0.00000000000E+00 0.  1.
</event>
<event>
 7    1  0.3004200E-011  0.5052888E+02  0.7816164E-02  0.1300439E+00
        -11   -1    0    0    0    0  0.00000000000E+00  0.00000000000E+00  0.45593999997E+02  0.45594000000E+02  0.51100000000E-03 0. -1.
         11   -1    0    0    0    0 -0.00000000000E+00 -0.00000000000E+00 -0.45593999997E+02  0.45594000000E+02  0.51100000000E-03 0.  1.
    9900012    2    1    2    0    0 -0.28487336426E+02 -0.23146699144E+02 -0.17489033052E+02  0.50528876854E+02  0.30000051684E+02 0.  0.
         12    1    1    2    0    0  0.28487336426E+02  0.23146699144E+02  0.17489033052E+02  0.40659123146E+02  0.00000000000E+00 0. -1.
         11    1    3    3    0    0 -0.31034271733E+01  0.41260376073E+01 -0.31484294638E+01  0.60471526281E+01  0.51100000000E-03 0. -1.
        -11    1    3    3    0    0 -0.25357502191E+02 -0.29316934247E+02 -0.15914434121E+02  0.41901727466E+02  0.51100000000E-03 0.  1.
        -12    1    3    3    0    0 -0.26407061748E-01  0.20441974948E+01  0.15738305332E+01  0.25799967593E+01  0.00000000000E+00 0.  1.
</event>
<event>
 7    1  0.3004200E-011  0.5052886E+02  0.7816164E-02  0.1300439E+00
        -11   -1    0    0    0    0  0.00000000000E+00  0.00000000000E+00  0.45593999997E+02  0.45594000000E+02  0.51100000000E-03 0.  1.
         11   -1    0    0    0    0 -0.00000000000E+00 -0.00000000000E+00 -0.45593999997E+02  0.45594000000E+02  0.51100000000E-03 0. -1.
    9900012    2    1    2    0    0 -0.21094572721E+02 -0.19589563660E+02  0.28712953872E+02  0.50528859297E+02  0.29999998319E+02 0.  0.
         12    1    1    2    0    0  0.21094572721E+02  0.19589563660E+02 -0.28712953872E+02  0.40659140703E+02  0.00000000000E+00 0. -1.
         11    1    3    3    0    0 -0.33152366881E+01 -0.94828862634E+01  0.14789606539E+02  0.17878713265E+02  0.51100000000E-03 0. -1.
        -11    1    3    3    0    0 -0.19982121122E+02 -0.22204631465E+01  0.13934730571E+02  0.24462059142E+02  0.51100000000E-03 0.  1.
         12    1    3    3    0    0  0.22027850887E+01 -0.78862142496E+01 -0.11383237600E-01  0.81880868898E+01  0.00000000000E+00 0. -1.
</event>
<event>
 7    1  0.3004200E-011  0.5052884E+02  0.7816164E-02  0.1300439E+00
        -11   -1    0    0    0    0  0.00000000000E+00  0.00000000000E+00  0.45593999997E+02  0.45594000000E+02  0.51100000000E-03 0.  1.
         11   -1    0    0    0    0 -0.00000000000E+00 -0.00000000000E+00 -0.45593999997E+02  0.45594000000E+02  0.51100000000E-03 0. -1.
    9900012    2    1    2    0    0  0.19425082509E+02  0.17532723479E+02  0.31119716121E+02  0.50528844149E+02  0.29999952275E+02 0.  0.
         12    1    1    2    0    0 -0.19425082509E+02 -0.17532723479E+02 -0.31119716121E+02  0.40659155851E+02  0.00000000000E+00 0. -1.
         11    1    3    3    0    0  0.19088842980E+02 -0.10692908862E+01  0.15622771429E+02  0.24690044486E+02  0.51100000000E-03 0. -1.
        -11    1    3    3    0    0 -0.31072117229E+01  0.20234838370E+01  0.22198889662E+01  0.43217078583E+01  0.51100000000E-03 0.  1.
         12    1    3    3    0    0  0.34434512513E+01  0.16578530528E+02  0.13277055726E+02  0.21517091805E+02  0.00000000000E+00 0. -1.
</event>
<event>
 7    1  0.3004200E-011  0.5052880E+02  0.7816164E-02  0.1300439E+00
        -11   -1    0    0    0    0  0.00000000000E+00  0.00000000000E+00  0.45593999997E+02  0.45594000000E+02  0.51100000000E-03 0.  1.
         11   -1    0    0    0    0 -0.00000000000E+00 -0.00000000000E+00 -0.45593999997E+02  0.45594000000E+02  0.51100000000E-03 0. -1.
    9900012    2    1    2    0    0  0.35881163753E+02  0.51575551049E+01  0.18414999846E+02  0.50528800472E+02  0.29999819514E+02 0.  0.
         12    1    1    2    0    0 -0.35881163753E+02 -0.51575551049E+01 -0.18414999846E+02  0.40659199528E+02  0.00000000000E+00 0. -1.
         11    1    3    3    0    0  0.10554144060E+02 -0.28099896083E+01 -0.24878445249E+01  0.11201578866E+02  0.51100000000E-03 0. -1.
        -11    1    3    3    0    0  0.26452093596E+02  0.15971810732E+01  0.18920072209E+02  0.32561225032E+02  0.51100000000E-03 0.  1.
        -12    1    3    3    0    0 -0.11250739028E+01  0.63703636399E+01  0.19827721620E+01  0.67659965738E+01  0.00000000000E+00 0.  1.
</event>
<event>
 7    1  0.3004200E-011  0.5052886E+02  0.7816164E-02  0.1300439E+00
        -11   -1    0    0    0    0  0.00000000000E+00  0.00000000000E+00  0.45593999997E+02  0.45594000000E+02  0.51100000000E-03 0.  1.
         11   -1    0    0    0    0 -0.00000000000E+00 -0.00000000000E+00 -0.45593999997E+02  0.45594000000E+02  0.51100000000E-03 0. -1.
    9900012    2    1    2    0    0 -0.25381026596E+02 -0.74001459339E+00  0.31755648242E+02  0.50528864152E+02  0.30000013076E+02 0.  0.
         12    1    1    2    0    0  0.25381026596E+02  0.74001459339E+00 -0.31755648242E+02  0.40659135848E+02  0.00000000000E+00 0. -1.
         11    1    3    3    0    0 -0.19243499877E+02  0.12339282637E+02  0.12411520618E+02  0.26011843991E+02  0.51100000000E-03 0. -1.
        -11    1    3    3    0    0 -0.37367856416E+01 -0.78656166988E+01  0.14898861309E+02  0.17257101771E+02  0.51100000000E-03 0.  1.
         12    1    3    3    0    0 -0.24007410774E+01 -0.52136805316E+01  0.44452663156E+01  0.72599183895E+01  0.00000000000E+00 0. -1.
</event>
<event>
 7    1  0.3004200E-011  0.5052884E+02  0.7816164E-02  0.1300439E+00
        -11   -1    0    0    0    0  0.00000000000E+00  0.00000000000E+00  0.45593999997E+02  0.45594000000E+02  0.51100000000E-03 0.  1.
         11   -1    0    0    0    0 -0.00000000000E+00 -0.00000000000E+00 -0.45593999997E+02  0.45594000000E+02  0.51100000000E-03 0. -1.
    9900012    2    1    2    0    0 -0.63732648506E+01 -0.40002829973E+02  0.35103624031E+01  0.50528836766E+02  0.29999929834E+02 0.  0.
         12    1    1    2    0    0  0.63732648506E+01  0.40002829973E+02 -0.35103624031E+01  0.40659163234E+02  0.00000000000E+00 0. -1.
         11    1    3    3    0    0 -0.33044600364E+01  0.17689669300E+01  0.54051285364E-01  0.37485493106E+01  0.51100000000E-03 0. -1.
        -11    1    3    3    0    0 -0.46659400255E+01 -0.37723843948E+02 -0.39232324680E+01  0.38213232679E+02  0.51100000000E-03 0.  1.
        -12    1    3    3    0    0  0.15971352113E+01 -0.40479529545E+01  0.73795435857E+01  0.85670547762E+01  0.00000000000E+00 0.  1.
</event>
<event>
 7    1  0.3004200E-011  0.5052886E+02  0.7816164E-02  0.1300439E+00
        -11   -1    0    0    0    0  0.00000000000E+00  0.00000000000E+00  0.45593999997E+02  0.45594000000E+02  0.51100000000E-03 0. -1.
         11   -1    0    0    0    0 -0.00000000000E+00 -0.00000000000E+00 -0.45593999997E+02  0.45594000000E+02  0.51100000000E-03 0.  1.
    9900012    2    1    2    0    0  0.30304509618E+02  0.27176384442E+01 -0.26970671151E+02  0.50528856327E+02  0.29999989292E+02 0.  0.
         12    1    1    2    0    0 -0.30304509618E+02 -0.27176384442E+01  0.26970671151E+02  0.40659143673E+02  0.00000000000E+00 0. -1.
         11    1    3    3    0    0 -0.57288009200E+00  0.72590110000E+01 -0.52116816963E+01  0.89544993530E+01  0.51100000000E-03 0. -1.
        -11    1    3    3    0    0  0.16670155657E+02 -0.10780669943E+02 -0.13371738874E+02  0.23935754319E+02  0.51100000000E-03 0.  1.
        -12    1    3    3    0    0  0.14207234052E+02  0.62392973875E+01 -0.83872505806E+01  0.17638602655E+02  0.00000000000E+00 0.  1.
</event>
<event>
 7    1  0.3004200E-011  0.5052886E+02  0.7816164E-02  0.1300439E+00
        -11   -1    0    0    0    0  0.00000000000E+00  0.00000000000E+00  0.45593999997E+02  0.45594000000E+02  0.51100000000E-03 0. -1.
         11   -1    0    0    0    0 -0.00000000000E+00 -0.00000000000E+00 -0.45593999997E+02  0.45594000000E+02  0.51100000000E-03 0.  1.
    9900012    2    1    2    0    0 -0.38495239765E+02  0.10248518251E+02  0.81394096342E+01  0.50528860804E+02  0.30000002901E+02 0.  0.
         12    1    1    2    0    0  0.38495239765E+02 -0.10248518251E+02 -0.81394096342E+01  0.40659139196E+02  0.00000000000E+00 0. -1.
         11    1    3    3    0    0 -0.15280644576E+02 -0.60015657177E+01  0.45499020026E+01  0.17035800487E+02  0.51100000000E-03 0. -1.
        -11    1    3    3    0    0 -0.26065053791E+02  0.13562414862E+02  0.31742482167E+01  0.29553375070E+02  0.51100000000E-03 0.  1.
         12    1    3    3    0    0  0.28504586020E+01  0.26876691072E+01  0.41525941487E+00  0.39396852480E+01  0.00000000000E+00 0. -1.
</event>
<event>
 7    1  0.3004200E-011  0.5052886E+02  0.7816164E-02  0.1300439E+00
        -11   -1    0    0    0    0  0.00000000000E+00  0.00000000000E+00  0.45593999997E+02  0.45594000000E+02  0.51100000000E-03 0. -1.
         11   -1    0    0    0    0 -0.00000000000E+00 -0.00000000000E+00 -0.45593999997E+02  0.45594000000E+02  0.51100000000E-03 0.  1.
    9900012    2    1    2    0    0  0.25867020612E+02 -0.58172638007E+01 -0.30825682807E+02  0.50528855470E+02  0.29999986686E+02 0.  0.
         12    1    1    2    0    0 -0.25867020612E+02  0.58172638007E+01  0.30825682807E+02  0.40659144530E+02  0.00000000000E+00 0. -1.
         11    1    3    3    0    0 -0.28175580561E+01 -0.10315483982E+02 -0.10049338861E+02  0.14674367277E+02  0.51100000000E-03 0. -1.
        -11    1    3    3    0    0  0.24347711989E+02  0.28286234400E+01 -0.16573621871E+02  0.29588800784E+02  0.51100000000E-03 0.  1.
         12    1    3    3    0    0  0.43368666786E+01  0.16695967408E+01 -0.42027220742E+01  0.62656874082E+01  0.00000000000E+00 0. -1.
</event>
<event>
 7    1  0.3004200E-011  0.5052887E+02  0.7816164E-02  0.1300439E+00
        -11   -1    0    0    0    0  0.00000000000E+00  0.00000000000E+00  0.45593999997E+02  0.45594000000E+02  0.51100000000E-03 0.  1.
         11   -1    0    0    0    0 -0.00000000000E+00 -0.00000000000E+00 -0.45593999997E+02  0.45594000000E+02  0.51100000000E-03 0. -1.
    9900012    2    1    2    0    0  0.23482675364E+02  0.30556933357E+02 -0.12961597334E+02  0.50528865431E+02  0.30000016964E+02 0.  0.
         12    1    1    2    0    0 -0.23482675364E+02 -0.30556933357E+02  0.12961597334E+02  0.40659134569E+02  0.00000000000E+00 0. -1.
         11    1    3    3    0    0  0.19288343561E+02  0.66742733871E+01 -0.31724454405E+01  0.20655520640E+02  0.51100000000E-03 0. -1.
        -11    1    3    3    0    0  0.38051536305E+01  0.18545116139E+02 -0.24721879968E+00  0.18933083324E+02  0.51100000000E-03 0.  1.
         12    1    3    3    0    0  0.38917817264E+00  0.53375438309E+01 -0.95419330941E+01  0.10940261467E+02  0.00000000000E+00 0. -1.
</event>
<event>
 7    1  0.3004200E-011  0.5052886E+02  0.7816164E-02  0.1300439E+00
        -11   -1    0    0    0    0  0.00000000000E+00  0.00000000000E+00  0.45593999997E+02  0.45594000000E+02  0.51100000000E-03 0. -1.
         11   -1    0    0    0    0 -0.00000000000E+00 -0.00000000000E+00 -0.45593999997E+02  0.45594000000E+02  0.51100000000E-03 0.  1.
    9900012    2    1    2    0    0  0.16966562458E+02  0.33656678502E+02 -0.15248916976E+02  0.50528859350E+02  0.29999998480E+02 0.  0.
         12    1    1    2    0    0 -0.16966562458E+02 -0.33656678502E+02  0.15248916976E+02  0.40659140650E+02  0.00000000000E+00 0. -1.
         11    1    3    3    0    0  0.17642884178E+02  0.36730306561E+02 -0.13878865174E+02  0.43046598947E+02  0.51100000000E-03 0. -1.
        -11    1    3    3    0    0 -0.29848988008E+01 -0.19607530095E+01 -0.28085247014E+01  0.45433450755E+01  0.51100000000E-03 0.  1.
         12    1    3    3    0    0  0.23085770817E+01 -0.11128750489E+01  0.14384729002E+01  0.29389153273E+01  0.00000000000E+00 0. -1.
</event>
<event>
 7    1  0.3004200E-011  0.5052886E+02  0.7816164E-02  0.1300439E+00
        -11   -1    0    0    0    0  0.00000000000E+00  0.00000000000E+00  0.45593999997E+02  0.45594000000E+02  0.51100000000E-03 0.  1.
         11   -1    0    0    0    0 -0.00000000000E+00 -0.00000000000E+00 -0.45593999997E+02  0.45594000000E+02  0.51100000000E-03 0. -1.
    9900012    2    1    2    0    0  0.15851694727E+01 -0.21371545400E+01  0.40571979174E+02  0.50528859750E+02  0.29999999695E+02 0.  0.
         12    1    1    2    0    0 -0.15851694727E+01  0.21371545400E+01 -0.40571979174E+02  0.40659140250E+02  0.00000000000E+00 0. -1.
         11    1    3    3    0    0 -0.12292227199E+01 -0.80235271308E+01  0.19275788509E+02  0.20915161941E+02  0.51100000000E-03 0. -1.
        -11    1    3    3    0    0 -0.94926660484E+00  0.95724142559E+01  0.22862507498E+01  0.98873234258E+01  0.51100000000E-03 0.  1.
        -12    1    3    3    0    0  0.37636587975E+01 -0.36860416651E+01  0.19009939916E+02  0.19726374383E+02  0.00000000000E+00 0.  1.
</event>
<event>
 7    1  0.3004200E-011  0.5052879E+02  0.7816164E-02  0.1300439E+00
        -11   -1    0    0    0    0  0.00000000000E+00  0.00000000000E+00  0.45593999997E+02  0.45594000000E+02  0.51100000000E-03 0. -1.
         11   -1    0    0    0    0 -0.00000000000E+00 -0.00000000000E+00 -0.45593999997E+02  0.45594000000E+02  0.51100000000E-03 0.  1.
    9900012    2    1    2    0    0  0.22471376076E+02  0.33381501090E+02  0.58209933974E+01  0.50528790441E+02  0.29999789025E+02 0.  0.
         12    1    1    2    0    0 -0.22471376076E+02 -0.33381501090E+02 -0.58209933974E+01  0.40659209559E+02  0.00000000000E+00 0. -1.
         11    1    3    3    0    0  0.79733565369E+01  0.27515507514E+02 -0.10827983206E+01  0.28667926690E+02  0.51100000000E-03 0. -1.
        -11    1    3    3    0    0  0.12330994104E+02  0.25973572943E+01 -0.13984849744E+01  0.12678936903E+02  0.51100000000E-03 0.  1.
        -12    1    3    3    0    0  0.21670254357E+01  0.32686362817E+01  0.83022766924E+01  0.91819268489E+01  0.00000000000E+00 0.  1.
</event>
<event>
 7    1  0.3004200E-011  0.5052886E+02  0.7816164E-02  0.1300439E+00
        -11   -1    0    0    0    0  0.00000000000E+00  0.00000000000E+00  0.45593999997E+02  0.45594000000E+02  0.51100000000E-03 0. -1.
         11   -1    0    0    0    0 -0.00000000000E+00 -0.00000000000E+00 -0.45593999997E+02  0.45594000000E+02  0.51100000000E-03 0.  1.
    9900012    2    1    2    0    0 -0.32831200489E+02 -0.11840976560E+02  0.20858313549E+02  0.50528859631E+02  0.29999999335E+02 0.  0.
         12    1    1    2    0    0  0.32831200489E+02  0.11840976560E+02 -0.20858313549E+02  0.40659140369E+02  0.00000000000E+00 0. -1.
         11    1    3    3    0    0 -0.32211033613E+01  0.17823005327E+01  0.47661130674E+01  0.60222866160E+01  0.51100000000E-03 0. -1.
        -11    1    3    3    0    0 -0.21605614178E+02 -0.20740894815E+02  0.15635703035E+02  0.33785536719E+02  0.51100000000E-03 0.  1.
        -12    1    3    3    0    0 -0.80044829499E+01  0.71176177229E+01  0.45649744635E+00  0.10721036296E+02  0.00000000000E+00 0.  1.
</event>
<event>
 7    1  0.3004200E-011  0.5052883E+02  0.7816164E-02  0.1300439E+00
        -11   -1    0    0    0    0  0.00000000000E+00  0.00000000000E+00  0.45593999997E+02  0.45594000000E+02  0.51100000000E-03 0. -1.
         11   -1    0    0    0    0 -0.00000000000E+00 -0.00000000000E+00 -0.45593999997E+02  0.45594000000E+02  0.51100000000E-03 0.  1.
    9900012    2    1    2    0    0  0.14439151984E+02 -0.29246343144E+02 -0.24276125647E+02  0.50528831615E+02  0.29999914177E+02 0.  0.
         12    1    1    2    0    0 -0.14439151984E+02  0.29246343144E+02  0.24276125647E+02  0.40659168385E+02  0.00000000000E+00 0. -1.
         11    1    3    3    0    0  0.11976258721E+02 -0.23050245817E+02 -0.62478119638E+01  0.26716656972E+02  0.51100000000E-03 0.  1.
        -11    1    3    3    0    0 -0.23669380664E+01  0.13545128424E+01  0.89764981895E+00  0.28710409800E+01  0.51100000000E-03 0. -1.
         12    1    3    3    0    0  0.48298313293E+01 -0.75506101697E+01 -0.18925963502E+02  0.20941133663E+02  0.00000000000E+00 0. -1.
</event>
<event>
 7    1  0.3004200E-011  0.5052882E+02  0.7816164E-02  0.1300439E+00
        -11   -1    0    0    0    0  0.00000000000E+00  0.00000000000E+00  0.45593999997E+02  0.45594000000E+02  0.51100000000E-03 0.  1.
         11   -1    0    0    0    0 -0.00000000000E+00 -0.00000000000E+00 -0.45593999997E+02  0.45594000000E+02  0.51100000000E-03 0. -1.
    9900012    2    1    2    0    0  0.20233350912E+02 -0.19593293677E+02  0.29323771714E+02  0.50528816120E+02  0.29999867078E+02 0.  0.
         12    1    1    2    0    0 -0.20233350912E+02  0.19593293677E+02 -0.29323771714E+02  0.40659183880E+02  0.00000000000E+00 0. -1.
         11    1    3    3    0    0 -0.79032281130E+00 -0.13441083193E+02  0.31620833895E+01  0.13830621793E+02  0.51100000000E-03 0. -1.
        -11    1    3    3    0    0  0.10249611286E+02 -0.40480438037E+01  0.22623056651E+02  0.25164337517E+02  0.51100000000E-03 0.  1.
        -12    1    3    3    0    0  0.10774062437E+02 -0.21041666804E+01  0.35386316737E+01  0.11533856811E+02  0.00000000000E+00 0.  1.
</event>
<event>
 7    1  0.3004200E-011  0.5052886E+02  0.7816164E-02  0.1300439E+00
        -11   -1    0    0    0    0  0.00000000000E+00  0.00000000000E+00  0.45593999997E+02  0.45594000000E+02  0.51100000000E-03 0. -1.
         11   -1    0    0    0    0 -0.00000000000E+00 -0.00000000000E+00 -0.45593999997E+02  0.45594000000E+02  0.51100000000E-03 0.  1.
    9900012    2    1    2    0    0  0.13230733724E+02 -0.19338311375E+02 -0.33228645824E+02  0.50528861974E+02  0.30000006455E+02 0.  0.
         12    1    1    2    0    0 -0.13230733724E+02  0.19338311375E+02  0.33228645824E+02  0.40659138026E+02  0.00000000000E+00 0. -1.
         11    1    3    3    0    0 -0.75977716245E+01 -0.30340653496E+01 -0.15844485844E+02  0.17831977404E+02  0.51100000000E-03 0. -1.
        -11    1    3    3    0    0  0.13291856574E+02 -0.12771573965E+02 -0.78350202087E+01  0.20029330859E+02  0.51100000000E-03 0.  1.
         12    1    3    3    0    0  0.75366487747E+01 -0.35326720601E+01 -0.95491397715E+01  0.12667553711E+02  0.00000000000E+00 0. -1.
</event>
<event>
 7    1  0.3004200E-011  0.5052886E+02  0.7816164E-02  0.1300439E+00
        -11   -1    0    0    0    0  0.00000000000E+00  0.00000000000E+00  0.45593999997E+02  0.45594000000E+02  0.51100000000E-03 0.  1.
         11   -1    0    0    0    0 -0.00000000000E+00 -0.00000000000E+00 -0.45593999997E+02  0.45594000000E+02  0.51100000000E-03 0. -1.
    9900012    2    1    2    0    0 -0.24234021130E+02 -0.16364380792E+02  0.28250390919E+02  0.50528864177E+02  0.30000013152E+02 0.  0.
         12    1    1    2    0    0  0.24234021130E+02  0.16364380792E+02 -0.28250390919E+02  0.40659135823E+02  0.00000000000E+00 0. -1.
         11    1    3    3    0    0 -0.13793080806E+02 -0.56007572602E+01  0.21172231046E+01  0.15036628411E+02  0.51100000000E-03 0. -1.
        -11    1    3    3    0    0  0.16865775031E+01 -0.10701996346E+02  0.17585726545E+02  0.20655145796E+02  0.51100000000E-03 0.  1.
        -12    1    3    3    0    0 -0.12127517826E+02 -0.61627185214E-01  0.85474412690E+01  0.14837089970E+02  0.00000000000E+00 0.  1.
</event>
<event>
 7    1  0.3004200E-011  0.5052886E+02  0.7816164E-02  0.1300439E+00
        -11   -1    0    0    0    0  0.00000000000E+00  0.00000000000E+00  0.45593999997E+02  0.45594000000E+02  0.51100000000E-03 0.  1.
         11   -1    0    0    0    0 -0.00000000000E+00 -0.00000000000E+00 -0.45593999997E+02  0.45594000000E+02  0.51100000000E-03 0. -1.
    9900012    2    1    2    0    0 -0.19334374234E+01  0.26312405229E+02  0.30936793573E+02  0.50528855323E+02  0.29999986241E+02 0.  0.
         12    1    1    2    0    0  0.19334374234E+01 -0.26312405229E+02 -0.30936793573E+02  0.40659144677E+02  0.00000000000E+00 0. -1.
         11    1    3    3    0    0  0.63512171348E+01  0.29741608484E+02  0.21234804330E+02  0.37092022721E+02  0.51100000000E-03 0. -1.
        -11    1    3    3    0    0 -0.48217054451E+01 -0.67563272938E+00  0.49082732236E+01  0.69134990622E+01  0.51100000000E-03 0.  1.
         12    1    3    3    0    0 -0.34629491131E+01 -0.27535705255E+01  0.47937160199E+01  0.65233335404E+01  0.00000000000E+00 0. -1.
</event>
<event>
 7    1  0.3004200E-011  0.5052891E+02  0.7816164E-02  0.1300439E+00
        -11   -1    0    0    0    0  0.00000000000E+00  0.00000000000E+00  0.45593999997E+02  0.45594000000E+02  0.51100000000E-03 0.  1.
         11   -1    0    0    0    0 -0.00000000000E+00 -0.00000000000E+00 -0.45593999997E+02  0.45594000000E+02  0.51100000000E-03 0. -1.
    9900012    2    1    2    0    0  0.19843606443E+02  0.10577376423E+02  0.33874950603E+02  0.50528906466E+02  0.30000141694E+02 0.  0.
         12    1    1    2    0    0 -0.19843606443E+02 -0.10577376423E+02 -0.33874950603E+02  0.40659093534E+02  0.00000000000E+00 0. -1.
         11    1    3    3    0    0  0.14439707328E+01 -0.49613302231E+01 -0.16411264145E+01  0.54215445427E+01  0.51100000000E-03 0. -1.
        -11    1    3    3    0    0  0.87181275224E+01  0.18722114616E+01  0.21472650028E+02  0.23250497258E+02  0.51100000000E-03 0.  1.
         12    1    3    3    0    0  0.96815081882E+01  0.13666495184E+02  0.14043426989E+02  0.21856864666E+02  0.00000000000E+00 0. -1.
</event>
<event>
 7    1  0.3004200E-011  0.5052886E+02  0.7816164E-02  0.1300439E+00
        -11   -1    0    0    0    0  0.00000000000E+00  0.00000000000E+00  0.45593999997E+02  0.45594000000E+02  0.51100000000E-03 0. -1.
         11   -1    0    0    0    0 -0.00000000000E+00 -0.00000000000E+00 -0.45593999997E+02  0.45594000000E+02  0.51100000000E-03 0.  1.
    9900012    2    1    2    0    0  0.52527714797E+01  0.13190790846E+02 -0.38099572333E+02  0.50528856093E+02  0.29999988579E+02 0.  0.
         12    1    1    2    0    0 -0.52527714797E+01 -0.13190790846E+02  0.38099572333E+02  0.40659143907E+02  0.00000000000E+00 0. -1.
         11    1    3    3    0    0  0.11264719806E+02  0.16552885739E+02 -0.29240772738E+02  0.35438887245E+02  0.51100000000E-03 0. -1.
        -11    1    3    3    0    0 -0.85889052252E+01 -0.10922176190E+01 -0.72727204047E+01  0.11307285025E+02  0.51100000000E-03 0.  1.
         12    1    3    3    0    0  0.25769568992E+01 -0.22698772746E+01 -0.15860791900E+01  0.37826838223E+01  0.00000000000E+00 0. -1.
</event>
<event>
 7    1  0.3004200E-011  0.5052885E+02  0.7816164E-02  0.1300439E+00
        -11   -1    0    0    0    0  0.00000000000E+00  0.00000000000E+00  0.45593999997E+02  0.45594000000E+02  0.51100000000E-03 0.  1.
         11   -1    0    0    0    0 -0.00000000000E+00 -0.00000000000E+00 -0.45593999997E+02  0.45594000000E+02  0.51100000000E-03 0. -1.
    9900012    2    1    2    0    0  0.29867494077E+02 -0.27587945759E+02 -0.64610549271E-01  0.50528854311E+02  0.29999983163E+02 0.  0.
         12    1    1    2    0    0 -0.29867494077E+02  0.27587945759E+02  0.64610549271E-01  0.40659145689E+02  0.00000000000E+00 0. -1.
         11    1    3    3    0    0 -0.15967798864E+01 -0.11257139567E+02 -0.58204413161E+01  0.12773035451E+02  0.51100000000E-03 0. -1.
        -11    1    3    3    0    0  0.18207536219E+02 -0.70456709003E+01  0.85814959623E+01  0.21325991813E+02  0.51100000000E-03 0.  1.
        -12    1    3    3    0    0  0.13256737744E+02 -0.92851352914E+01 -0.28256651955E+01  0.16429827047E+02  0.00000000000E+00 0.  1.
</event>
<event>
 7    1  0.3004200E-011  0.5052883E+02  0.7816164E-02  0.1300439E+00
        -11   -1    0    0    0    0  0.00000000000E+00  0.00000000000E+00  0.45593999997E+02  0.45594000000E+02  0.51100000000E-03 0. -1.
         11   -1    0    0    0    0 -0.00000000000E+00 -0.00000000000E+00 -0.45593999997E+02  0.45594000000E+02  0.51100000000E-03 0.  1.
    9900012    2    1    2    0    0 -0.21701033122E+02  0.34238014159E+02 -0.31610103825E+01  0.50528825897E+02  0.29999896796E+02 0.  0.
         12    1    1    2    0    0  0.21701033122E+02 -0.34238014159E+02  0.31610103825E+01  0.40659174103E+02  0.00000000000E+00 0. -1.
         11    1    3    3    0    0 -0.14866655967E+02  0.56369781063E+01  0.76854765795E+01  0.17659545077E+02  0.51100000000E-03 0. -1.
        -11    1    3    3    0    0 -0.72059340577E+00  0.17759854437E+02 -0.26609349106E+01  0.17972541816E+02  0.51100000000E-03 0.  1.
         12    1    3    3    0    0 -0.61137837490E+01  0.10841181616E+02 -0.81855520515E+01  0.14896739004E+02  0.00000000000E+00 0. -1.
</event>
<event>
 7    1  0.3004200E-011  0.5052886E+02  0.7816164E-02  0.1300439E+00
        -11   -1    0    0    0    0  0.00000000000E+00  0.00000000000E+00  0.45593999997E+02  0.45594000000E+02  0.51100000000E-03 0.  1.
         11   -1    0    0    0    0 -0.00000000000E+00 -0.00000000000E+00 -0.45593999997E+02  0.45594000000E+02  0.51100000000E-03 0. -1.
    9900012    2    1    2    0    0 -0.20381585518E+02  0.34331217111E+02  0.76892216711E+01  0.50528860481E+02  0.30000001918E+02 0.  0.
         12    1    1    2    0    0  0.20381585518E+02 -0.34331217111E+02 -0.76892216711E+01  0.40659139519E+02  0.00000000000E+00 0. -1.
         11    1    3    3    0    0 -0.22007533180E+02  0.15685756590E+02 -0.19559329490E+01  0.27096127961E+02  0.51100000000E-03 0. -1.
        -11    1    3    3    0    0  0.51275365961E+01  0.94707404280E+01  0.19230842053E+01  0.10940055252E+02  0.51100000000E-03 0.  1.
         12    1    3    3    0    0 -0.35015889335E+01  0.91747200926E+01  0.77220704147E+01  0.12492677268E+02  0.00000000000E+00 0. -1.
</event>
<event>
 7    1  0.3004200E-011  0.5052887E+02  0.7816164E-02  0.1300439E+00
        -11   -1    0    0    0    0  0.00000000000E+00  0.00000000000E+00  0.45593999997E+02  0.45594000000E+02  0.51100000000E-03 0.  1.
         11   -1    0    0    0    0 -0.00000000000E+00 -0.00000000000E+00 -0.45593999997E+02  0.45594000000E+02  0.51100000000E-03 0. -1.
    9900012    2    1    2    0    0 -0.20421084482E+02  0.27651822883E+02  0.21714527256E+02  0.50528871946E+02  0.30000036766E+02 0.  0.
         12    1    1    2    0    0  0.20421084482E+02 -0.27651822883E+02 -0.21714527256E+02  0.40659128054E+02  0.00000000000E+00 0. -1.
         11    1    3    3    0    0  0.23218915376E+01  0.26965021849E+01  0.90182815213E+01  0.96949319856E+01  0.51100000000E-03 0. -1.
        -11    1    3    3    0    0 -0.12378036965E+02  0.16013421437E+02 -0.24857403533E+01  0.20391772130E+02  0.51100000000E-03 0.  1.
        -12    1    3    3    0    0 -0.10364939054E+02  0.89418992607E+01  0.15181986088E+02  0.20442167830E+02  0.00000000000E+00 0.  1.
</event>
<event>
 7    1  0.3004200E-011  0.5052885E+02  0.7816164E-02  0.1300439E+00
        -11   -1    0    0    0    0  0.00000000000E+00  0.00000000000E+00  0.45593999997E+02  0.45594000000E+02  0.51100000000E-03 0. -1.
         11   -1    0    0    0    0 -0.00000000000E+00 -0.00000000000E+00 -0.45593999997E+02  0.45594000000E+02  0.51100000000E-03 0.  1.
    9900012    2    1    2    0    0  0.94038388443E+01 -0.33990557920E+02 -0.20233050647E+02  0.50528849109E+02  0.29999967351E+02 0.  0.
         12    1    1    2    0    0 -0.94038388443E+01  0.33990557920E+02  0.20233050647E+02  0.40659150891E+02  0.00000000000E+00 0. -1.
         11    1    3    3    0    0  0.38465587015E+01  0.21873445899E+01  0.75659808475E+00  0.44892016130E+01  0.51100000000E-03 0. -1.
        -11    1    3    3    0    0  0.58391437504E+01 -0.35233175323E+02 -0.13025858606E+02  0.38015065905E+02  0.51100000000E-03 0.  1.
        -12    1    3    3    0    0 -0.28186360754E+00 -0.94472718710E+00 -0.79637901251E+01  0.80245815908E+01  0.00000000000E+00 0.  1.
</event>
<event>
 7    1  0.3004200E-011  0.5052887E+02  0.7816164E-02  0.1300439E+00
        -11   -1    0    0    0    0  0.00000000000E+00  0.00000000000E+00  0.45593999997E+02  0.45594000000E+02  0.51100000000E-03 0. -1.
         11   -1    0    0    0    0 -0.00000000000E+00 -0.00000000000E+00 -0.45593999997E+02  0.45594000000E+02  0.51100000000E-03 0.  1.
    9900012    2    1    2    0    0 -0.35102917815E+02  0.15543487005E+02  0.13392177745E+02  0.50528865084E+02  0.30000015909E+02 0.  0.
         12    1    1    2    0    0  0.35102917815E+02 -0.15543487005E+02 -0.13392177745E+02  0.40659134916E+02  0.00000000000E+00 0. -1.
         11    1    3    3    0    0 -0.13922034566E+02  0.25586875915E+01  0.15130325862E+02  0.20719476094E+02  0.51100000000E-03 0. -1.
        -11    1    3    3    0    0 -0.88798371302E+01  0.39788140027E+01 -0.86971423640E+01  0.13050775988E+02  0.51100000000E-03 0.  1.
        -12    1    3    3    0    0 -0.12301046118E+02  0.90059854107E+01  0.69589942471E+01  0.16758613002E+02  0.00000000000E+00 0.  1.
</event>
<event>
 7    1  0.3004200E-011  0.5052888E+02  0.7816164E-02  0.1300439E+00
        -11   -1    0    0    0    0  0.00000000000E+00  0.00000000000E+00  0.45593999997E+02  0.45594000000E+02  0.51100000000E-03 0. -1.
         11   -1    0    0    0    0 -0.00000000000E+00 -0.00000000000E+00 -0.45593999997E+02  0.45594000000E+02  0.51100000000E-03 0.  1.
    9900012    2    1    2    0    0  0.17497322531E+02 -0.98811463066E+01 -0.35346434603E+02  0.50528883098E+02  0.30000070665E+02 0.  0.
         12    1    1    2    0    0 -0.17497322531E+02  0.98811463066E+01  0.35346434603E+02  0.40659116902E+02  0.00000000000E+00 0. -1.
         11    1    3    3    0    0  0.23036579079E+00  0.33343509554E+01 -0.14008584289E+02  0.14401784567E+02  0.51100000000E-03 0. -1.
        -11    1    3    3    0    0  0.20088733685E+02 -0.14712270221E+02 -0.15104729675E+02  0.29123203377E+02  0.51100000000E-03 0.  1.
        -12    1    3    3    0    0 -0.28217769445E+01  0.14967729594E+01 -0.62331206395E+01  0.70038951536E+01  0.00000000000E+00 0.  1.
</event>
<event>
 7    1  0.3004200E-011  0.5052886E+02  0.7816164E-02  0.1300439E+00
        -11   -1    0    0    0    0  0.00000000000E+00  0.00000000000E+00  0.45593999997E+02  0.45594000000E+02  0.51100000000E-03 0.  1.
         11   -1    0    0    0    0 -0.00000000000E+00 -0.00000000000E+00 -0.45593999997E+02  0.45594000000E+02  0.51100000000E-03 0. -1.
    9900012    2    1    2    0    0  0.30781922174E+01  0.17585480699E+02  0.36530006632E+02  0.50528858552E+02  0.29999996054E+02 0.  0.
         12    1    1    2    0    0 -0.30781922174E+01 -0.17585480699E+02 -0.36530006632E+02  0.40659141448E+02  0.00000000000E+00 0. -1.
         11    1    3    3    0    0  0.61198704333E+01 -0.13971010888E+01  0.93688163759E+01  0.11277385607E+02  0.51100000000E-03 0. -1.
        -11    1    3    3    0    0 -0.10901298923E+02  0.90151674392E+01  0.20525989765E+02  0.24928453988E+02  0.51100000000E-03 0.  1.
        -12    1    3    3    0    0  0.78596207076E+01  0.99674143488E+01  0.66352004919E+01  0.14323018957E+02  0.00000000000E+00 0.  1.
</event>
<event>
 7    1  0.3004200E-011  0.5052887E+02  0.7816164E-02  0.1300439E+00
        -11   -1    0    0    0    0  0.00000000000E+00  0.00000000000E+00  0.45593999997E+02  0.45594000000E+02  0.51100000000E-03 0.  1.
         11   -1    0    0    0    0 -0.00000000000E+00 -0.00000000000E+00 -0.45593999997E+02  0.45594000000E+02  0.51100000000E-03 0. -1.
    9900012    2    1    2    0    0  0.36343828062E+02 -0.18217151672E+02  0.65314682994E+00  0.50528867521E+02  0.30000023315E+02 0.  0.
         12    1    1    2    0    0 -0.36343828062E+02  0.18217151672E+02 -0.65314682994E+00  0.40659132479E+02  0.00000000000E+00 0. -1.
         11    1    3    3    0    0  0.40329582685E+01  0.38574350865E+01  0.73216932026E+01  0.92060713367E+01  0.51100000000E-03 0. -1.
        -11    1    3    3    0    0  0.14537927731E+02 -0.10672812418E+02 -0.88596046231E+01  0.20093602513E+02  0.51100000000E-03 0.  1.
         12    1    3    3    0    0  0.17772942062E+02 -0.11401774340E+02  0.21910582504E+01  0.21229193670E+02  0.00000000000E+00 0. -1.
</event>
<event>
 7    1  0.3004200E-011  0.5052888E+02  0.7816164E-02  0.1300439E+00
        -11   -1    0    0    0    0  0.00000000000E+00  0.00000000000E+00  0.45593999997E+02  0.45594000000E+02  0.51100000000E-03 0.  1.
         11   -1    0    0    0    0 -0.00000000000E+00 -0.00000000000E+00 -0.45593999997E+02  0.45594000000E+02  0.51100000000E-03 0. -1.
    9900012    2    1    2    0    0 -0.30116386514E+02 -0.15896316435E+02  0.22214284341E+02  0.50528879970E+02  0.30000061155E+02 0.  0.
         12    1    1    2    0    0  0.30116386514E+02  0.15896316435E+02 -0.22214284341E+02  0.40659120030E+02  0.00000000000E+00 0. -1.
         11    1    3    3    0    0 -0.90458434851E+01  0.60850363091E+01  0.86789457104E+00  0.10936553044E+02  0.51100000000E-03 0. -1.
        -11    1    3    3    0    0 -0.15838306599E+02 -0.11330162745E+02  0.19543245604E+02  0.27589182531E+02  0.51100000000E-03 0.  1.
        -12    1    3    3    0    0 -0.52322364304E+01 -0.10651189999E+02  0.18031441657E+01  0.12003144394E+02  0.00000000000E+00 0.  1.
</event>
<event>
 7    1  0.3004200E-011  0.5052886E+02  0.7816164E-02  0.1300439E+00
        -11   -1    0    0    0    0  0.00000000000E+00  0.00000000000E+00  0.45593999997E+02  0.45594000000E+02  0.51100000000E-03 0.  1.
         11   -1    0    0    0    0 -0.00000000000E+00 -0.00000000000E+00 -0.45593999997E+02  0.45594000000E+02  0.51100000000E-03 0. -1.
    9900012    2    1    2    0    0  0.23643247033E+02  0.86361548449E+01  0.31930858693E+02  0.50528855424E+02  0.29999986546E+02 0.  0.
         12    1    1    2    0    0 -0.23643247033E+02 -0.86361548449E+01 -0.31930858693E+02  0.40659144576E+02  0.00000000000E+00 0. -1.
         11    1    3    3    0    0  0.38400877832E+01  0.13730060810E+02  0.22170713342E+02  0.26359085235E+02  0.51100000000E-03 0. -1.
        -11    1    3    3    0    0  0.19028198364E+02 -0.37802594425E+01  0.63148297840E+01  0.20401955051E+02  0.51100000000E-03 0.  1.
         12    1    3    3    0    0  0.77496088581E+00 -0.13136465228E+01  0.34453155667E+01  0.37678151382E+01  0.00000000000E+00 0. -1.
</event>
<event>
 7    1  0.3004200E-011  0.5052886E+02  0.7816164E-02  0.1300439E+00
        -11   -1    0    0    0    0  0.00000000000E+00  0.00000000000E+00  0.45593999997E+02  0.45594000000E+02  0.51100000000E-03 0.  1.
         11   -1    0    0    0    0 -0.00000000000E+00 -0.00000000000E+00 -0.45593999997E+02  0.45594000000E+02  0.51100000000E-03 0. -1.
    9900012    2    1    2    0    0 -0.12949404230E+02  0.18040569006E+02  0.34059016209E+02  0.50528858530E+02  0.29999995989E+02 0.  0.
         12    1    1    2    0    0  0.12949404230E+02 -0.18040569006E+02 -0.34059016209E+02  0.40659141470E+02  0.00000000000E+00 0. -1.
         11    1    3    3    0    0 -0.54508811521E+01 -0.27424472657E+01  0.97829600934E+01  0.11529936287E+02  0.51100000000E-03 0. -1.
        -11    1    3    3    0    0  0.63200086929E+01  0.75351776574E+01  0.27915438911E+01  0.10223215236E+02  0.51100000000E-03 0.  1.
        -12    1    3    3    0    0 -0.13818531771E+02  0.13247838614E+02  0.21484512224E+02  0.28775707007E+02  0.00000000000E+00 0.  1.
</event>
<event>
 7    1  0.3004200E-011  0.5052885E+02  0.7816164E-02  0.1300439E+00
        -11   -1    0    0    0    0  0.00000000000E+00  0.00000000000E+00  0.45593999997E+02  0.45594000000E+02  0.51100000000E-03 0. -1.
         11   -1    0    0    0    0 -0.00000000000E+00 -0.00000000000E+00 -0.45593999997E+02  0.45594000000E+02  0.51100000000E-03 0.  1.
    9900012    2    1    2    0    0  0.16716047704E+02  0.36704381694E+02 -0.51506022612E+01  0.50528848631E+02  0.29999965897E+02 0.  0.
         12    1    1    2    0    0 -0.16716047704E+02 -0.36704381694E+02  0.51506022612E+01  0.40659151369E+02  0.00000000000E+00 0. -1.
         11    1    3    3    0    0  0.61618834183E+01  0.22800873451E+02  0.43730641067E+01  0.24020248278E+02  0.51100000000E-03 0. -1.
        -11    1    3    3    0    0  0.96892947635E+01  0.10911632079E+02 -0.14542681779E+02  0.20601838298E+02  0.51100000000E-03 0.  1.
         12    1    3    3    0    0  0.86486952265E+00  0.29918761638E+01  0.50190154114E+01  0.59067620547E+01  0.00000000000E+00 0. -1.
</event>
<event>
 7    1  0.3004200E-011  0.5052886E+02  0.7816164E-02  0.1300439E+00
        -11   -1    0    0    0    0  0.00000000000E+00  0.00000000000E+00  0.45593999997E+02  0.45594000000E+02  0.51100000000E-03 0. -1.
         11   -1    0    0    0    0 -0.00000000000E+00 -0.00000000000E+00 -0.45593999997E+02  0.45594000000E+02  0.51100000000E-03 0.  1.
    9900012    2    1    2    0    0  0.14314586911E+02 -0.34893250371E+02 -0.15189443315E+02  0.50528861936E+02  0.30000006340E+02 0.  0.
         12    1    1    2    0    0 -0.14314586911E+02  0.34893250371E+02  0.15189443315E+02  0.40659138064E+02  0.00000000000E+00 0. -1.
         11    1    3    3    0    0 -0.19460506518E+01 -0.12296774230E+02 -0.37871183069E+01  0.13013071695E+02  0.51100000000E-03 0. -1.
        -11    1    3    3    0    0  0.14653258458E+02 -0.58406873384E+01 -0.13224905627E+02  0.20584696770E+02  0.51100000000E-03 0.  1.
        -12    1    3    3    0    0  0.16073791051E+01 -0.16755788803E+02  0.18225806188E+01  0.16931093470E+02  0.00000000000E+00 0.  1.
</event>
<event>
 7    1  0.3004200E-011  0.5052886E+02  0.7816164E-02  0.1300439E+00
        -11   -1    0    0    0    0  0.00000000000E+00  0.00000000000E+00  0.45593999997E+02  0.45594000000E+02  0.51100000000E-03 0.  1.
         11   -1    0    0    0    0 -0.00000000000E+00 -0.00000000000E+00 -0.45593999997E+02  0.45594000000E+02  0.51100000000E-03 0. -1.
    9900012    2    1    2    0    0 -0.27775955324E+02  0.12058367282E+02  0.27134075227E+02  0.50528856451E+02  0.29999989669E+02 0.  0.
         12    1    1    2    0    0  0.27775955324E+02 -0.12058367282E+02 -0.27134075227E+02  0.40659143549E+02  0.00000000000E+00 0. -1.
         11    1    3    3    0    0 -0.91520551517E+01  0.12302922347E+01 -0.50578401733E+01  0.10528792901E+02  0.51100000000E-03 0. -1.
        -11    1    3    3    0    0 -0.13720138352E+02  0.42923533246E+01  0.14042626036E+02  0.20096314083E+02  0.51100000000E-03 0.  1.
         12    1    3    3    0    0 -0.49037618209E+01  0.65357217225E+01  0.18149289364E+02  0.19903749467E+02  0.00000000000E+00 0. -1.
</event>
<event>
 7    1  0.3004200E-011  0.5052886E+02  0.7816164E-02  0.1300439E+00
        -11   -1    0    0    0    0  0.00000000000E+00  0.00000000000E+00  0.45593999997E+02  0.45594000000E+02  0.51100000000E-03 0.  1.
         11   -1    0    0    0    0 -0.00000000000E+00 -0.00000000000E+00 -0.45593999997E+02  0.45594000000E+02  0.51100000000E-03 0. -1.
    9900012    2    1    2    0    0  0.10377176029E+02  0.39305547928E+02  0.74425492717E+00  0.50528858400E+02  0.29999995591E+02 0.  0.
         12    1    1    2    0    0 -0.10377176029E+02 -0.39305547928E+02 -0.74425492717E+00  0.40659141600E+02  0.00000000000E+00 0. -1.
         11    1    3    3    0    0  0.12159792557E+02  0.11636847431E+02 -0.65102831753E+01  0.18046067728E+02  0.51100000000E-03 0. -1.
        -11    1    3    3    0    0  0.16965522915E+01  0.13597848131E+02  0.10931207592E+02  0.17529148957E+02  0.51100000000E-03 0.  1.
        -12    1    3    3    0    0 -0.34791688194E+01  0.14070852367E+02 -0.36766694896E+01  0.14953641715E+02  0.00000000000E+00 0.  1.
</event>
<event>
 7    1  0.3004200E-011  0.5052884E+02  0.7816164E-02  0.1300439E+00
        -11   -1    0    0    0    0  0.00000000000E+00  0.00000000000E+00  0.45593999997E+02  0.45594000000E+02  0.51100000000E-03 0.  1.
         11   -1    0    0    0    0 -0.00000000000E+00 -0.00000000000E+00 -0.45593999997E+02  0.45594000000E+02  0.51100000000E-03 0. -1.
    9900012    2    1    2    0    0  0.83278948969E+00  0.41995254638E+01  0.40433124186E+02  0.50528842558E+02  0.29999947438E+02 0.  0.
         12    1    1    2    0    0 -0.83278948969E+00 -0.41995254638E+01 -0.40433124186E+02  0.40659157442E+02  0.00000000000E+00 0. -1.
         11    1    3    3    0    0  0.26391925110E+01 -0.11041598893E+01  0.20888927135E+02  0.21083922388E+02  0.51100000000E-03 0. -1.
        -11    1    3    3    0    0 -0.28733031794E+01  0.96584259069E+01  0.72921333531E+00  0.10103109151E+02  0.51100000000E-03 0.  1.
         12    1    3    3    0    0  0.10669001581E+01 -0.43547405539E+01  0.18814983716E+02  0.19341811019E+02  0.00000000000E+00 0. -1.
</event>
<event>
 7    1  0.3004200E-011  0.5052886E+02  0.7816164E-02  0.1300439E+00
        -11   -1    0    0    0    0  0.00000000000E+00  0.00000000000E+00  0.45593999997E+02  0.45594000000E+02  0.51100000000E-03 0. -1.
         11   -1    0    0    0    0 -0.00000000000E+00 -0.00000000000E+00 -0.45593999997E+02  0.45594000000E+02  0.51100000000E-03 0.  1.
    9900012    2    1    2    0    0  0.23997921567E+02  0.99644167739E+01 -0.31272610115E+02  0.50528856077E+02  0.29999988531E+02 0.  0.
         12    1    1    2    0    0 -0.23997921567E+02 -0.99644167739E+01  0.31272610115E+02  0.40659143923E+02  0.00000000000E+00 0. -1.
         11    1    3    3    0    0 -0.18887070806E+01  0.27903556931E+01  0.22903049874E+01  0.40741620644E+01  0.51100000000E-03 0. -1.
        -11    1    3    3    0    0  0.28473617877E+02  0.76510280071E+01 -0.30613799136E+02  0.42502821582E+02  0.51100000000E-03 0.  1.
        -12    1    3    3    0    0 -0.25869892301E+01 -0.47696692630E+00 -0.29491159665E+01  0.39518724308E+01  0.00000000000E+00 0.  1.
</event>
<event>
 7    1  0.3004200E-011  0.5052886E+02  0.7816164E-02  0.1300439E+00
        -11   -1    0    0    0    0  0.00000000000E+00  0.00000000000E+00  0.45593999997E+02  0.45594000000E+02  0.51100000000E-03 0.  1.
         11   -1    0    0    0    0 -0.00000000000E+00 -0.00000000000E+00 -0.45593999997E+02  0.45594000000E+02  0.51100000000E-03 0. -1.
    9900012    2    1    2    0    0  0.22880707920E+02  0.24557711385E+02  0.22946845242E+02  0.50528859700E+02  0.29999999543E+02 0.  0.
         12    1    1    2    0    0 -0.22880707920E+02 -0.24557711385E+02 -0.22946845242E+02  0.40659140300E+02  0.00000000000E+00 0. -1.
         11    1    3    3    0    0  0.10156723876E+02  0.16793746972E+02 -0.83589682464E+00  0.19644024563E+02  0.51100000000E-03 0. -1.
        -11    1    3    3    0    0  0.88393971731E+01  0.85067526910E+01  0.23968387286E+02  0.26925515280E+02  0.51100000000E-03 0.  1.
         12    1    3    3    0    0  0.38845868708E+01 -0.74278827768E+00 -0.18564521976E+00  0.39593198570E+01  0.00000000000E+00 0. -1.
</event>
<event>
 7    1  0.3004200E-011  0.5052886E+02  0.7816164E-02  0.1300439E+00
        -11   -1    0    0    0    0  0.00000000000E+00  0.00000000000E+00  0.45593999997E+02  0.45594000000E+02  0.51100000000E-03 0.  1.
         11   -1    0    0    0    0 -0.00000000000E+00 -0.00000000000E+00 -0.45593999997E+02  0.45594000000E+02  0.51100000000E-03 0. -1.
    9900012    2    1    2    0    0  0.56448359570E+01 -0.83301696723E+01  0.39394286432E+02  0.50528859537E+02  0.29999999047E+02 0.  0.
         12    1    1    2    0    0 -0.56448359570E+01  0.83301696723E+01 -0.39394286432E+02  0.40659140463E+02  0.00000000000E+00 0. -1.
         11    1    3    3    0    0  0.60036853850E+01 -0.29666975188E+01  0.31176421438E+01  0.73868278149E+01  0.51100000000E-03 0. -1.
        -11    1    3    3    0    0 -0.11256021457E+02 -0.52906138109E+01  0.18547839697E+02  0.22331837614E+02  0.51100000000E-03 0.  1.
        -12    1    3    3    0    0  0.10897172029E+02 -0.72858342560E-01  0.17728804591E+02  0.20810194108E+02  0.00000000000E+00 0.  1.
</event>
<event>
 7    1  0.3004200E-011  0.5052886E+02  0.7816164E-02  0.1300439E+00
        -11   -1    0    0    0    0  0.00000000000E+00  0.00000000000E+00  0.45593999997E+02  0.45594000000E+02  0.51100000000E-03 0.  1.
         11   -1    0    0    0    0 -0.00000000000E+00 -0.00000000000E+00 -0.45593999997E+02  0.45594000000E+02  0.51100000000E-03 0. -1.
    9900012    2    1    2    0    0 -0.88592116195E+01  0.14377310330E+02  0.36986113931E+02  0.50528864414E+02  0.30000013874E+02 0.  0.
         12    1    1    2    0    0  0.88592116195E+01 -0.14377310330E+02 -0.36986113931E+02  0.40659135586E+02  0.00000000000E+00 0. -1.
         11    1    3    3    0    0  0.41311549235E+01  0.12578538198E+02  0.53719372227E+01  0.14287889067E+02  0.51100000000E-03 0. -1.
        -11    1    3    3    0    0 -0.97867091647E+01 -0.43835844702E+01  0.20219317846E+02  0.22887033524E+02  0.51100000000E-03 0.  1.
        -12    1    3    3    0    0 -0.32036573782E+01  0.61823566020E+01  0.11394858862E+02  0.13353941824E+02  0.00000000000E+00 0.  1.
</event>
<event>
 7    1  0.3004200E-011  0.5052888E+02  0.7816164E-02  0.1300439E+00
        -11   -1    0    0    0    0  0.00000000000E+00  0.00000000000E+00  0.45593999997E+02  0.45594000000E+02  0.51100000000E-03 0.  1.
         11   -1    0    0    0    0 -0.00000000000E+00 -0.00000000000E+00 -0.45593999997E+02  0.45594000000E+02  0.51100000000E-03 0. -1.
    9900012    2    1    2    0    0 -0.22974849854E+02  0.18735980476E+02  0.27825952674E+02  0.50528876394E+02  0.30000050286E+02 0.  0.
         12    1    1    2    0    0  0.22974849854E+02 -0.18735980476E+02 -0.27825952674E+02  0.40659123606E+02  0.00000000000E+00 0. -1.
         11    1    3    3    0    0  0.18084413848E+00 -0.18739341895E+00  0.14988630602E+02  0.14990892852E+02  0.51100000000E-03 0. -1.
        -11    1    3    3    0    0 -0.81403815858E+01  0.15629977563E+02  0.52055285562E+01  0.18375514654E+02  0.51100000000E-03 0.  1.
        -12    1    3    3    0    0 -0.15015312406E+02  0.32933963314E+01  0.76317935158E+01  0.17162468888E+02  0.00000000000E+00 0.  1.
</event>
<event>
 7    1  0.3004200E-011  0.5052886E+02  0.7816164E-02  0.1300439E+00
        -11   -1    0    0    0    0  0.00000000000E+00  0.00000000000E+00  0.45593999997E+02  0.45594000000E+02  0.51100000000E-03 0.  1.
         11   -1    0    0    0    0 -0.00000000000E+00 -0.00000000000E+00 -0.45593999997E+02  0.45594000000E+02  0.51100000000E-03 0. -1.
    9900012    2    1    2    0    0  0.11204046777E+02  0.22852366674E+02  0.31708113271E+02  0.50528858667E+02  0.29999996404E+02 0.  0.
         12    1    1    2    0    0 -0.11204046777E+02 -0.22852366674E+02 -0.31708113271E+02  0.40659141333E+02  0.00000000000E+00 0. -1.
         11    1    3    3    0    0 -0.54512515645E+00 -0.44692935130E+01 -0.80548736851E+00  0.45738994418E+01  0.51100000000E-03 0. -1.
        -11    1    3    3    0    0  0.13064103070E+02  0.26421485932E+02  0.26176221138E+02  0.39420302653E+02  0.51100000000E-03 0.  1.
         12    1    3    3    0    0 -0.13149311366E+01  0.90017425418E+00  0.63373795008E+01  0.65346565724E+01  0.00000000000E+00 0. -1.
</event>
<event>
 7    1  0.3004200E-011  0.5052887E+02  0.7816164E-02  0.1300439E+00
        -11   -1    0    0    0    0  0.00000000000E+00  0.00000000000E+00  0.45593999997E+02  0.45594000000E+02  0.51100000000E-03 0.  1.
         11   -1    0    0    0    0 -0.00000000000E+00 -0.00000000000E+00 -0.45593999997E+02  0.45594000000E+02  0.51100000000E-03 0. -1.
    9900012    2    1    2    0    0  0.23734074893E+02  0.48061401332E+01  0.32661291124E+02  0.50528865332E+02  0.30000016663E+02 0.  0.
         12    1    1    2    0    0 -0.23734074893E+02 -0.48061401332E+01 -0.32661291124E+02  0.40659134668E+02  0.00000000000E+00 0. -1.
         11    1    3    3    0    0 -0.85783236859E+00  0.93625626800E+01  0.14562273356E+01  0.95138874612E+01  0.51100000000E-03 0. -1.
        -11    1    3    3    0    0  0.23410477852E+02 -0.22025343890E+01  0.25247831400E+02  0.34501516222E+02  0.51100000000E-03 0.  1.
        -12    1    3    3    0    0  0.11814294106E+01 -0.23538881579E+01  0.59572323891E+01  0.65134616488E+01  0.00000000000E+00 0.  1.
</event>
<event>
 7    1  0.3004200E-011  0.5052886E+02  0.7816164E-02  0.1300439E+00
        -11   -1    0    0    0    0  0.00000000000E+00  0.00000000000E+00  0.45593999997E+02  0.45594000000E+02  0.51100000000E-03 0.  1.
         11   -1    0    0    0    0 -0.00000000000E+00 -0.00000000000E+00 -0.45593999997E+02  0.45594000000E+02  0.51100000000E-03 0. -1.
    9900012    2    1    2    0    0 -0.14776499795E+02  0.12755117718E+02  0.35666901548E+02  0.50528857851E+02  0.29999993925E+02 0.  0.
         12    1    1    2    0    0  0.14776499795E+02 -0.12755117718E+02 -0.35666901548E+02  0.40659142149E+02  0.00000000000E+00 0. -1.
         11    1    3    3    0    0 -0.81394311881E+01 -0.68615744314E+01  0.89641778267E+01  0.13917184633E+02  0.51100000000E-03 0. -1.
        -11    1    3    3    0    0 -0.30860583586E+01  0.21007868131E+02  0.22711977603E+02  0.31091609905E+02  0.51100000000E-03 0.  1.
        -12    1    3    3    0    0 -0.35510102485E+01 -0.13911759814E+01  0.39907461189E+01  0.55200633132E+01  0.00000000000E+00 0.  1.
</event>
<event>
 7    1  0.3004200E-011  0.5052886E+02  0.7816164E-02  0.1300439E+00
        -11   -1    0    0    0    0  0.00000000000E+00  0.00000000000E+00  0.45593999997E+02  0.45594000000E+02  0.51100000000E-03 0. -1.
         11   -1    0    0    0    0 -0.00000000000E+00 -0.00000000000E+00 -0.45593999997E+02  0.45594000000E+02  0.51100000000E-03 0.  1.
    9900012    2    1    2    0    0 -0.11498996714E+02 -0.31196302518E+02 -0.23403623358E+02  0.50528858316E+02  0.29999995337E+02 0.  0.
         12    1    1    2    0    0  0.11498996714E+02  0.31196302518E+02  0.23403623358E+02  0.40659141684E+02  0.00000000000E+00 0. -1.
         11    1    3    3    0    0 -0.15277958953E+02 -0.12781166408E+02 -0.11766068284E+02  0.23134705696E+02  0.51100000000E-03 0. -1.
        -11    1    3    3    0    0  0.84902053363E+01 -0.36408530777E+01 -0.52261469278E+01  0.10613765108E+02  0.51100000000E-03 0.  1.
        -12    1    3    3    0    0 -0.47112430971E+01 -0.14774283033E+02 -0.64114081452E+01  0.16780387512E+02  0.00000000000E+00 0.  1.
</event>
<event>
 7    1  0.3004200E-011  0.5052887E+02  0.7816164E-02  0.1300439E+00
        -11   -1    0    0    0    0  0.00000000000E+00  0.00000000000E+00  0.45593999997E+02  0.45594000000E+02  0.51100000000E-03 0. -1.
         11   -1    0    0    0    0 -0.00000000000E+00 -0.00000000000E+00 -0.45593999997E+02  0.45594000000E+02  0.51100000000E-03 0.  1.
    9900012    2    1    2    0    0  0.28607967798E+02  0.16561029979E+02 -0.23674480504E+02  0.50528873563E+02  0.30000041682E+02 0.  0.
         12    1    1    2    0    0 -0.28607967798E+02 -0.16561029979E+02  0.23674480504E+02  0.40659126437E+02  0.00000000000E+00 0. -1.
         11    1    3    3    0    0  0.43835888260E+01  0.31116001640E+01 -0.10429922846E+02  0.11733763139E+02  0.51100000000E-03 0. -1.
        -11    1    3    3    0    0  0.60272955327E+01  0.15920461026E+02 -0.17096202893E+01  0.17108833172E+02  0.51100000000E-03 0.  1.
        -12    1    3    3    0    0  0.18197083439E+02 -0.24710312111E+01 -0.11534937369E+02  0.21686277252E+02  0.00000000000E+00 0.  1.
</event>
<event>
 7    1  0.3004200E-011  0.5052884E+02  0.7816164E-02  0.1300439E+00
        -11   -1    0    0    0    0  0.00000000000E+00  0.00000000000E+00  0.45593999997E+02  0.45594000000E+02  0.51100000000E-03 0.  1.
         11   -1    0    0    0    0 -0.00000000000E+00 -0.00000000000E+00 -0.45593999997E+02  0.45594000000E+02  0.51100000000E-03 0. -1.
    9900012    2    1    2    0    0 -0.78224581512E+01 -0.10022814976E+02  0.38620200925E+02  0.50528836321E+02  0.29999928481E+02 0.  0.
         12    1    1    2    0    0  0.78224581512E+01  0.10022814976E+02 -0.38620200925E+02  0.40659163679E+02  0.00000000000E+00 0. -1.
         11    1    3    3    0    0  0.57816373120E+01 -0.99352215747E+01  0.21956163154E+02  0.24783241484E+02  0.51100000000E-03 0. -1.
        -11    1    3    3    0    0 -0.14881149866E+02  0.38809362181E+01  0.14009373181E+02  0.20803192651E+02  0.51100000000E-03 0.  1.
        -12    1    3    3    0    0  0.12770544028E+01 -0.39685296197E+01  0.26546645900E+01  0.49424021867E+01  0.00000000000E+00 0.  1.
</event>
<event>
 7    1  0.3004200E-011  0.5052886E+02  0.7816164E-02  0.1300439E+00
        -11   -1    0    0    0    0  0.00000000000E+00  0.00000000000E+00  0.45593999997E+02  0.45594000000E+02  0.51100000000E-03 0.  1.
         11   -1    0    0    0    0 -0.00000000000E+00 -0.00000000000E+00 -0.45593999997E+02  0.45594000000E+02  0.51100000000E-03 0. -1.
    9900012    2    1    2    0    0 -0.30585337315E+01 -0.95657076540E+01  0.39399342990E+02  0.50528860565E+02  0.30000002175E+02 0.  0.
         12    1    1    2    0    0  0.30585337315E+01  0.95657076540E+01 -0.39399342990E+02  0.40659139435E+02  0.00000000000E+00 0. -1.
         11    1    3    3    0    0 -0.11798150255E+02 -0.94216852556E+01  0.14399922326E+02  0.20864377914E+02  0.51100000000E-03 0.  1.
        -11    1    3    3    0    0  0.63057277035E+01 -0.59352918372E+01  0.90651376074E+01  0.12536610832E+02  0.51100000000E-03 0. -1.
        -12    1    3    3    0    0  0.24338888201E+01  0.57912694388E+01  0.15934283057E+02  0.17127871819E+02  0.00000000000E+00 0.  1.
</event>
<event>
 7    1  0.3004200E-011  0.5052886E+02  0.7816164E-02  0.1300439E+00
        -11   -1    0    0    0    0  0.00000000000E+00  0.00000000000E+00  0.45593999997E+02  0.45594000000E+02  0.51100000000E-03 0.  1.
         11   -1    0    0    0    0 -0.00000000000E+00 -0.00000000000E+00 -0.45593999997E+02  0.45594000000E+02  0.51100000000E-03 0. -1.
    9900012    2    1    2    0    0  0.39662949696E+02  0.85417593381E+01  0.26560406590E+01  0.50528858553E+02  0.29999996059E+02 0.  0.
         12    1    1    2    0    0 -0.39662949696E+02 -0.85417593381E+01 -0.26560406590E+01  0.40659141447E+02  0.00000000000E+00 0. -1.
         11    1    3    3    0    0 -0.35210539818E+00 -0.59015268466E+00  0.51737138158E+01  0.52191544633E+01  0.51100000000E-03 0. -1.
        -11    1    3    3    0    0  0.17599253387E+02  0.33586145742E+01 -0.10569267390E+02  0.20802005313E+02  0.51100000000E-03 0.  1.
        -12    1    3    3    0    0  0.22415801708E+02  0.57732974485E+01  0.80515942333E+01  0.24507698777E+02  0.00000000000E+00 0.  1.
</event>
<event>
 7    1  0.3004200E-011  0.5052887E+02  0.7816164E-02  0.1300439E+00
        -11   -1    0    0    0    0  0.00000000000E+00  0.00000000000E+00  0.45593999997E+02  0.45594000000E+02  0.51100000000E-03 0.  1.
         11   -1    0    0    0    0 -0.00000000000E+00 -0.00000000000E+00 -0.45593999997E+02  0.45594000000E+02  0.51100000000E-03 0. -1.
    9900012    2    1    2    0    0  0.93368682738E+01  0.34289569348E+02  0.19753805872E+02  0.50528874067E+02  0.30000043214E+02 0.  0.
         12    1    1    2    0    0 -0.93368682738E+01 -0.34289569348E+02 -0.19753805872E+02  0.40659125933E+02  0.00000000000E+00 0. -1.
         11    1    3    3    0    0  0.13297534477E+01  0.64072851441E+01 -0.31838382668E+01  0.72772504093E+01  0.51100000000E-03 0. -1.
        -11    1    3    3    0    0  0.10681638865E+02  0.28704267218E+02  0.25193236932E+02  0.39657679618E+02  0.51100000000E-03 0.  1.
        -12    1    3    3    0    0 -0.26745240386E+01 -0.82198301445E+00 -0.22555927928E+01  0.35939440390E+01  0.00000000000E+00 0.  1.
</event>
<event>
 7    1  0.3004200E-011  0.5052886E+02  0.7816164E-02  0.1300439E+00
        -11   -1    0    0    0    0  0.00000000000E+00  0.00000000000E+00  0.45593999997E+02  0.45594000000E+02  0.51100000000E-03 0.  1.
         11   -1    0    0    0    0 -0.00000000000E+00 -0.00000000000E+00 -0.45593999997E+02  0.45594000000E+02  0.51100000000E-03 0. -1.
    9900012    2    1    2    0    0 -0.13705352826E+02 -0.19424851831E+02  0.32984907148E+02  0.50528860015E+02  0.30000000501E+02 0.  0.
         12    1    1    2    0    0  0.13705352826E+02  0.19424851831E+02 -0.32984907148E+02  0.40659139985E+02  0.00000000000E+00 0. -1.
         11    1    3    3    0    0 -0.17445484266E+02 -0.15205597857E+02  0.22166144462E+02  0.32045172617E+02  0.51100000000E-03 0.  1.
        -11    1    3    3    0    0  0.15048288867E+01 -0.31337321203E+01 -0.29089650986E+01  0.45328650086E+01  0.51100000000E-03 0. -1.
         12    1    3    3    0    0  0.22353025530E+01 -0.10855218535E+01  0.13727727785E+02  0.13950822389E+02  0.00000000000E+00 0. -1.
</event>
<event>
 7    1  0.3004200E-011  0.5052886E+02  0.7816164E-02  0.1300439E+00
        -11   -1    0    0    0    0  0.00000000000E+00  0.00000000000E+00  0.45593999997E+02  0.45594000000E+02  0.51100000000E-03 0.  1.
         11   -1    0    0    0    0 -0.00000000000E+00 -0.00000000000E+00 -0.45593999997E+02  0.45594000000E+02  0.51100000000E-03 0. -1.
    9900012    2    1    2    0    0 -0.17547531849E+02 -0.92117058564E+01  0.35502028484E+02  0.50528862955E+02  0.30000009439E+02 0.  0.
         12    1    1    2    0    0  0.17547531849E+02  0.92117058564E+01 -0.35502028484E+02  0.40659137045E+02  0.00000000000E+00 0. -1.
         11    1    3    3    0    0 -0.41789910604E+01  0.90496003635E+01  0.74116179699E+01  0.12421405485E+02  0.51100000000E-03 0. -1.
        -11    1    3    3    0    0 -0.11519396182E+02 -0.20082225357E+02  0.25049163258E+02  0.34109424560E+02  0.51100000000E-03 0.  1.
        -12    1    3    3    0    0 -0.18491446071E+01  0.18209191367E+01  0.30412472560E+01  0.39980329103E+01  0.00000000000E+00 0.  1.
</event>
<event>
 7    1  0.3004200E-011  0.5052886E+02  0.7816164E-02  0.1300439E+00
        -11   -1    0    0    0    0  0.00000000000E+00  0.00000000000E+00  0.45593999997E+02  0.45594000000E+02  0.51100000000E-03 0. -1.
         11   -1    0    0    0    0 -0.00000000000E+00 -0.00000000000E+00 -0.45593999997E+02  0.45594000000E+02  0.51100000000E-03 0.  1.
    9900012    2    1    2    0    0  0.70112561128E+01  0.39978559465E+02  0.23922419377E+01  0.50528858954E+02  0.29999997275E+02 0.  0.
         12    1    1    2    0    0 -0.70112561128E+01 -0.39978559465E+02 -0.23922419377E+01  0.40659141046E+02  0.00000000000E+00 0. -1.
         11    1    3    3    0    0  0.21585001062E+01 -0.29358639382E+01  0.17335544743E+01  0.40352981486E+01  0.51100000000E-03 0. -1.
        -11    1    3    3    0    0  0.26504311499E+01  0.34445335280E+02  0.75410392558E+01  0.35360616244E+02  0.51100000000E-03 0.  1.
         12    1    3    3    0    0  0.22023248567E+01  0.84690881230E+01 -0.68823517924E+01  0.11132944561E+02  0.00000000000E+00 0. -1.
</event>
<event>
 7    1  0.3004200E-011  0.5052895E+02  0.7816164E-02  0.1300438E+00
        -11   -1    0    0    0    0  0.00000000000E+00  0.00000000000E+00  0.45593999997E+02  0.45594000000E+02  0.51100000000E-03 0.  1.
         11   -1    0    0    0    0 -0.00000000000E+00 -0.00000000000E+00 -0.45593999997E+02  0.45594000000E+02  0.51100000000E-03 0. -1.
    9900012    2    1    2    0    0 -0.42407922380E+01  0.28045374743E+01  0.40339908423E+02  0.50528954748E+02  0.30000288450E+02 0.  0.
         12    1    1    2    0    0  0.42407922380E+01 -0.28045374743E+01 -0.40339908423E+02  0.40659045252E+02  0.00000000000E+00 0. -1.
         11    1    3    3    0    0 -0.11096824869E+02 -0.14497045709E+01  0.89167126221E+01  0.14309050624E+02  0.51100000000E-03 0. -1.
        -11    1    3    3    0    0  0.87492077756E+01  0.90811870182E+01  0.24667860857E+02  0.27704150481E+02  0.51100000000E-03 0.  1.
        -12    1    3    3    0    0 -0.18931751445E+01 -0.48269449730E+01  0.67553349438E+01  0.85157536427E+01  0.00000000000E+00 0.  1.
</event>
<event>
 7    1  0.3004200E-011  0.5052886E+02  0.7816164E-02  0.1300439E+00
        -11   -1    0    0    0    0  0.00000000000E+00  0.00000000000E+00  0.45593999997E+02  0.45594000000E+02  0.51100000000E-03 0.  1.
         11   -1    0    0    0    0 -0.00000000000E+00 -0.00000000000E+00 -0.45593999997E+02  0.45594000000E+02  0.51100000000E-03 0. -1.
    9900012    2    1    2    0    0 -0.61468187494E+00  0.46455348096E+01  0.40388202383E+02  0.50528859340E+02  0.29999998449E+02 0.  0.
         12    1    1    2    0    0  0.61468187494E+00 -0.46455348096E+01 -0.40388202383E+02  0.40659140660E+02  0.00000000000E+00 0. -1.
         11    1    3    3    0    0 -0.12896843825E+02  0.62333675345E+01  0.20000935206E+02  0.24601236978E+02  0.51100000000E-03 0. -1.
        -11    1    3    3    0    0  0.53197648631E+01 -0.53659551407E+01  0.13309707844E+02  0.15304956580E+02  0.51100000000E-03 0.  1.
         12    1    3    3    0    0  0.69623970875E+01  0.37781224158E+01  0.70775593341E+01  0.10622665782E+02  0.00000000000E+00 0. -1.
</event>
<event>
 7    1  0.3004200E-011  0.5052886E+02  0.7816164E-02  0.1300439E+00
        -11   -1    0    0    0    0  0.00000000000E+00  0.00000000000E+00  0.45593999997E+02  0.45594000000E+02  0.51100000000E-03 0.  1.
         11   -1    0    0    0    0 -0.00000000000E+00 -0.00000000000E+00 -0.45593999997E+02  0.45594000000E+02  0.51100000000E-03 0. -1.
    9900012    2    1    2    0    0  0.31513169158E+01 -0.32528093644E+02  0.24190031293E+02  0.50528864638E+02  0.30000014554E+02 0.  0.
         12    1    1    2    0    0 -0.31513169158E+01  0.32528093644E+02 -0.24190031293E+02  0.40659135362E+02  0.00000000000E+00 0. -1.
         11    1    3    3    0    0  0.61804912917E+01  0.31385533903E+01  0.20864143868E+01  0.72389305318E+01  0.51100000000E-03 0. -1.
        -11    1    3    3    0    0 -0.65376662906E+01 -0.19785212501E+02  0.10682547733E+02  0.23416074406E+02  0.51100000000E-03 0.  1.
         12    1    3    3    0    0  0.35084919147E+01 -0.15881434533E+02  0.11421069173E+02  0.19873859701E+02  0.00000000000E+00 0. -1.
</event>
<event>
 7    1  0.3004200E-011  0.5052889E+02  0.7816164E-02  0.1300439E+00
        -11   -1    0    0    0    0  0.00000000000E+00  0.00000000000E+00  0.45593999997E+02  0.45594000000E+02  0.51100000000E-03 0.  1.
         11   -1    0    0    0    0 -0.00000000000E+00 -0.00000000000E+00 -0.45593999997E+02  0.45594000000E+02  0.51100000000E-03 0. -1.
    9900012    2    1    2    0    0 -0.80694999093E+01  0.39338628055E+02 -0.63654525117E+01  0.50528886978E+02  0.30000082459E+02 0.  0.
         12    1    1    2    0    0  0.80694999093E+01 -0.39338628055E+02  0.63654525117E+01  0.40659113022E+02  0.00000000000E+00 0. -1.
         11    1    3    3    0    0  0.78950678456E+01  0.13324480496E+02 -0.78320165343E-01  0.15488060275E+02  0.51100000000E-03 0. -1.
        -11    1    3    3    0    0 -0.15877283891E+02  0.12288618447E+02 -0.33520830319E+00  0.20080105875E+02  0.51100000000E-03 0.  1.
         12    1    3    3    0    0 -0.87283863596E-01  0.13725529112E+02 -0.59519240432E+01  0.14960720828E+02  0.00000000000E+00 0. -1.
</event>
<event>
 7    1  0.3004200E-011  0.5052886E+02  0.7816164E-02  0.1300439E+00
        -11   -1    0    0    0    0  0.00000000000E+00  0.00000000000E+00  0.45593999997E+02  0.45594000000E+02  0.51100000000E-03 0.  1.
         11   -1    0    0    0    0 -0.00000000000E+00 -0.00000000000E+00 -0.45593999997E+02  0.45594000000E+02  0.51100000000E-03 0. -1.
    9900012    2    1    2    0    0 -0.12046008961E+02 -0.35644073543E+02  0.15412967307E+02  0.50528857463E+02  0.29999992745E+02 0.  0.
         12    1    1    2    0    0  0.12046008961E+02  0.35644073543E+02 -0.15412967307E+02  0.40659142537E+02  0.00000000000E+00 0. -1.
         11    1    3    3    0    0  0.72309537545E+01 -0.39684096233E+01 -0.16021982921E+01  0.84025000307E+01  0.51100000000E-03 0. -1.
        -11    1    3    3    0    0 -0.11199769018E+02 -0.24343775043E+02  0.15905396139E+02  0.31161447912E+02  0.51100000000E-03 0.  1.
        -12    1    3    3    0    0 -0.80771936974E+01 -0.73318888769E+01  0.11097694604E+01  0.10964909520E+02  0.00000000000E+00 0.  1.
</event>
<event>
 7    1  0.3004200E-011  0.5052886E+02  0.7816164E-02  0.1300439E+00
        -11   -1    0    0    0    0  0.00000000000E+00  0.00000000000E+00  0.45593999997E+02  0.45594000000E+02  0.51100000000E-03 0.  1.
         11   -1    0    0    0    0 -0.00000000000E+00 -0.00000000000E+00 -0.45593999997E+02  0.45594000000E+02  0.51100000000E-03 0. -1.
    9900012    2    1    2    0    0  0.33033881391E+02 -0.21689777442E+02  0.95646195472E+01  0.50528859425E+02  0.29999998708E+02 0.  0.
         12    1    1    2    0    0 -0.33033881391E+02  0.21689777442E+02 -0.95646195472E+01  0.40659140575E+02  0.00000000000E+00 0. -1.
         11    1    3    3    0    0  0.37203097300E+01 -0.34177480720E+01 -0.72605140152E+01  0.88451551935E+01  0.51100000000E-03 0. -1.
        -11    1    3    3    0    0  0.19639900522E+02 -0.19487306173E+02  0.87317333173E+01  0.29012479408E+02  0.51100000000E-03 0.  1.
         12    1    3    3    0    0  0.96736711385E+01  0.12152768030E+01  0.80934002451E+01  0.12671224824E+02  0.00000000000E+00 0. -1.
</event>
<event>
 7    1  0.3004200E-011  0.5052885E+02  0.7816164E-02  0.1300439E+00
        -11   -1    0    0    0    0  0.00000000000E+00  0.00000000000E+00  0.45593999997E+02  0.45594000000E+02  0.51100000000E-03 0.  1.
         11   -1    0    0    0    0 -0.00000000000E+00 -0.00000000000E+00 -0.45593999997E+02  0.45594000000E+02  0.51100000000E-03 0. -1.
    9900012    2    1    2    0    0  0.12550778335E+02 -0.16499522122E+02  0.34977286944E+02  0.50528845201E+02  0.29999955472E+02 0.  0.
         12    1    1    2    0    0 -0.12550778335E+02  0.16499522122E+02 -0.34977286944E+02  0.40659154799E+02  0.00000000000E+00 0. -1.
         11    1    3    3    0    0  0.22096513116E+01  0.75421944088E+01  0.77295118520E+01  0.11023275790E+02  0.51100000000E-03 0. -1.
        -11    1    3    3    0    0  0.95982269459E+01 -0.13499007432E+02  0.22449366780E+02  0.27898444961E+02  0.51100000000E-03 0.  1.
         12    1    3    3    0    0  0.74290007746E+00 -0.10542709098E+02  0.47984083121E+01  0.11607124450E+02  0.00000000000E+00 0. -1.
</event>
<event>
 7    1  0.3004200E-011  0.5052886E+02  0.7816164E-02  0.1300439E+00
        -11   -1    0    0    0    0  0.00000000000E+00  0.00000000000E+00  0.45593999997E+02  0.45594000000E+02  0.51100000000E-03 0. -1.
         11   -1    0    0    0    0 -0.00000000000E+00 -0.00000000000E+00 -0.45593999997E+02  0.45594000000E+02  0.51100000000E-03 0.  1.
    9900012    2    1    2    0    0  0.14390618035E+02 -0.14715293807E+02 -0.35064744118E+02  0.50528855403E+02  0.29999986483E+02 0.  0.
         12    1    1    2    0    0 -0.14390618035E+02  0.14715293807E+02  0.35064744118E+02  0.40659144597E+02  0.00000000000E+00 0. -1.
         11    1    3    3    0    0 -0.46001619669E+01 -0.20826115347E+01 -0.11154570233E+01  0.51713639940E+01  0.51100000000E-03 0. -1.
        -11    1    3    3    0    0  0.11082328556E+02 -0.17239646430E+02 -0.19735919533E+02  0.28452239548E+02  0.51100000000E-03 0.  1.
         12    1    3    3    0    0  0.79084514463E+01  0.46069641572E+01 -0.14213367562E+02  0.16905251861E+02  0.00000000000E+00 0. -1.
</event>
<event>
 7    1  0.3004200E-011  0.5052886E+02  0.7816164E-02  0.1300439E+00
        -11   -1    0    0    0    0  0.00000000000E+00  0.00000000000E+00  0.45593999997E+02  0.45594000000E+02  0.51100000000E-03 0. -1.
         11   -1    0    0    0    0 -0.00000000000E+00 -0.00000000000E+00 -0.45593999997E+02  0.45594000000E+02  0.51100000000E-03 0.  1.
    9900012    2    1    2    0    0 -0.36389283068E+02  0.14337125896E+02 -0.11110024476E+02  0.50528859022E+02  0.29999997484E+02 0.  0.
         12    1    1    2    0    0  0.36389283068E+02 -0.14337125896E+02  0.11110024476E+02  0.40659140978E+02  0.00000000000E+00 0. -1.
         11    1    3    3    0    0 -0.16199342871E+01  0.44570315120E+01 -0.16790322972E+01  0.50307521018E+01  0.51100000000E-03 0. -1.
        -11    1    3    3    0    0 -0.26977082253E+02  0.14008283724E+01 -0.16813908570E+02  0.31818749326E+02  0.51100000000E-03 0.  1.
        -12    1    3    3    0    0 -0.77922665279E+01  0.84792660121E+01  0.73829163914E+01  0.13679357594E+02  0.00000000000E+00 0.  1.
</event>
<event>
 7    1  0.3004200E-011  0.5052884E+02  0.7816164E-02  0.1300439E+00
        -11   -1    0    0    0    0  0.00000000000E+00  0.00000000000E+00  0.45593999997E+02  0.45594000000E+02  0.51100000000E-03 0.  1.
         11   -1    0    0    0    0 -0.00000000000E+00 -0.00000000000E+00 -0.45593999997E+02  0.45594000000E+02  0.51100000000E-03 0. -1.
    9900012    2    1    2    0    0 -0.26160502033E+02  0.36252933796E+01  0.30913628321E+02  0.50528843164E+02  0.29999949280E+02 0.  0.
         12    1    1    2    0    0  0.26160502033E+02 -0.36252933796E+01 -0.30913628321E+02  0.40659156836E+02  0.00000000000E+00 0. -1.
         11    1    3    3    0    0  0.36287177415E+01  0.28418255402E+01  0.10849162708E+02  0.11787616238E+02  0.51100000000E-03 0. -1.
        -11    1    3    3    0    0 -0.14211392451E+02 -0.58647840143E+01  0.52690292681E+01  0.16251831792E+02  0.51100000000E-03 0.  1.
        -12    1    3    3    0    0 -0.15577827324E+02  0.66482518537E+01  0.14795436345E+02  0.22489395133E+02  0.00000000000E+00 0.  1.
</event>
<event>
 7    1  0.3004200E-011  0.5052885E+02  0.7816164E-02  0.1300439E+00
        -11   -1    0    0    0    0  0.00000000000E+00  0.00000000000E+00  0.45593999997E+02  0.45594000000E+02  0.51100000000E-03 0.  1.
         11   -1    0    0    0    0 -0.00000000000E+00 -0.00000000000E+00 -0.45593999997E+02  0.45594000000E+02  0.51100000000E-03 0. -1.
    9900012    2    1    2    0    0 -0.63888521267E+01 -0.24055631704E+02  0.32150824442E+02  0.50528851454E+02  0.29999974480E+02 0.  0.
         12    1    1    2    0    0  0.63888521267E+01  0.24055631704E+02 -0.32150824442E+02  0.40659148546E+02  0.00000000000E+00 0. -1.
         11    1    3    3    0    0  0.84153156075E+00  0.17307541848E+01  0.48212854662E+01  0.51911924665E+01  0.51100000000E-03 0. -1.
        -11    1    3    3    0    0 -0.23553534944E+01 -0.21424357108E+02  0.31061016865E+02  0.37806580598E+02  0.51100000000E-03 0.  1.
        -12    1    3    3    0    0 -0.48750301931E+01 -0.43620287810E+01 -0.37314778897E+01  0.75310783896E+01  0.00000000000E+00 0.  1.
</event>
<event>
 7    1  0.3004200E-011  0.5052886E+02  0.7816164E-02  0.1300439E+00
        -11   -1    0    0    0    0  0.00000000000E+00  0.00000000000E+00  0.45593999997E+02  0.45594000000E+02  0.51100000000E-03 0.  1.
         11   -1    0    0    0    0 -0.00000000000E+00 -0.00000000000E+00 -0.45593999997E+02  0.45594000000E+02  0.51100000000E-03 0. -1.
    9900012    2    1    2    0    0 -0.44107646058E+01 -0.39822691799E+02  0.69183823203E+01  0.50528860309E+02  0.30000001394E+02 0.  0.
         12    1    1    2    0    0  0.44107646058E+01  0.39822691799E+02 -0.69183823203E+01  0.40659139691E+02  0.00000000000E+00 0. -1.
         11    1    3    3    0    0  0.48254295863E+01 -0.12377763309E+01 -0.92788530685E+00  0.50673299026E+01  0.51100000000E-03 0. -1.
        -11    1    3    3    0    0 -0.48326017723E+01 -0.39892158773E+02  0.71706656749E+01  0.40818584223E+02  0.51100000000E-03 0.  1.
        -12    1    3    3    0    0 -0.44035924199E+01  0.13072433054E+01  0.67560195228E+00  0.46429461830E+01  0.00000000000E+00 0.  1.
</event>
<event>
 7    1  0.3004200E-011  0.5052885E+02  0.7816164E-02  0.1300439E+00
        -11   -1    0    0    0    0  0.00000000000E+00  0.00000000000E+00  0.45593999997E+02  0.45594000000E+02  0.51100000000E-03 0.  1.
         11   -1    0    0    0    0 -0.00000000000E+00 -0.00000000000E+00 -0.45593999997E+02  0.45594000000E+02  0.51100000000E-03 0. -1.
    9900012    2    1    2    0    0 -0.13374301807E+02  0.33236019725E+02  0.19226591841E+02  0.50528846174E+02  0.29999958432E+02 0.  0.
         12    1    1    2    0    0  0.13374301807E+02 -0.33236019725E+02 -0.19226591841E+02  0.40659153826E+02  0.00000000000E+00 0. -1.
         11    1    3    3    0    0 -0.50781805823E+01 -0.98715246668E-01  0.15989464416E+01  0.53248749009E+01  0.51100000000E-03 0. -1.
        -11    1    3    3    0    0  0.52740745644E+00  0.14987363684E+02 -0.39802957726E+01  0.15515862320E+02  0.51100000000E-03 0.  1.
        -12    1    3    3    0    0 -0.88235286810E+01  0.18347371288E+02  0.21607941172E+02  0.29688108953E+02  0.00000000000E+00 0.  1.
</event>
<event>
 7    1  0.3004200E-011  0.5052886E+02  0.7816164E-02  0.1300439E+00
        -11   -1    0    0    0    0  0.00000000000E+00  0.00000000000E+00  0.45593999997E+02  0.45594000000E+02  0.51100000000E-03 0. -1.
         11   -1    0    0    0    0 -0.00000000000E+00 -0.00000000000E+00 -0.45593999997E+02  0.45594000000E+02  0.51100000000E-03 0.  1.
    9900012    2    1    2    0    0  0.21016364709E+01 -0.38256620823E+02  0.13608082495E+02  0.50528858078E+02  0.29999994614E+02 0.  0.
         12    1    1    2    0    0 -0.21016364709E+01  0.38256620823E+02 -0.13608082495E+02  0.40659141922E+02  0.00000000000E+00 0. -1.
         11    1    3    3    0    0  0.46501637962E+00 -0.24885007406E+01  0.12069116632E+02  0.12331766001E+02  0.51100000000E-03 0. -1.
        -11    1    3    3    0    0  0.10551934021E+01 -0.29523610603E+02  0.64417405694E+01  0.30236617502E+02  0.51100000000E-03 0.  1.
        -12    1    3    3    0    0  0.58142668923E+00 -0.62445094790E+01 -0.49027747063E+01  0.79604745743E+01  0.00000000000E+00 0.  1.
</event>
<event>
 7    1  0.3004200E-011  0.5052886E+02  0.7816164E-02  0.1300439E+00
        -11   -1    0    0    0    0  0.00000000000E+00  0.00000000000E+00  0.45593999997E+02  0.45594000000E+02  0.51100000000E-03 0.  1.
         11   -1    0    0    0    0 -0.00000000000E+00 -0.00000000000E+00 -0.45593999997E+02  0.45594000000E+02  0.51100000000E-03 0. -1.
    9900012    2    1    2    0    0 -0.34595429651E+02  0.20559647380E+02 -0.57984952717E+01  0.50528863259E+02  0.30000010362E+02 0.  0.
         12    1    1    2    0    0  0.34595429651E+02 -0.20559647380E+02  0.57984952717E+01  0.40659136741E+02  0.00000000000E+00 0. -1.
         11    1    3    3    0    0 -0.34020112400E+01  0.14687865399E+02 -0.46737524296E+01  0.15784518761E+02  0.51100000000E-03 0. -1.
        -11    1    3    3    0    0 -0.13812897583E+02  0.43291551247E+01 -0.73293288440E+01  0.16225189839E+02  0.51100000000E-03 0.  1.
         12    1    3    3    0    0 -0.17380520827E+02  0.15426268559E+01  0.62045860018E+01  0.18519154660E+02  0.00000000000E+00 0. -1.
</event>
<event>
 7    1  0.3004200E-011  0.5052885E+02  0.7816164E-02  0.1300439E+00
        -11   -1    0    0    0    0  0.00000000000E+00  0.00000000000E+00  0.45593999997E+02  0.45594000000E+02  0.51100000000E-03 0.  1.
         11   -1    0    0    0    0 -0.00000000000E+00 -0.00000000000E+00 -0.45593999997E+02  0.45594000000E+02  0.51100000000E-03 0. -1.
    9900012    2    1    2    0    0  0.25738983032E+02  0.31200602201E+02  0.41465053107E+01  0.50528851810E+02  0.29999975561E+02 0.  0.
         12    1    1    2    0    0 -0.25738983032E+02 -0.31200602201E+02 -0.41465053107E+01  0.40659148190E+02  0.00000000000E+00 0. -1.
         11    1    3    3    0    0  0.28792256107E+01  0.11577300963E+01 -0.38890256630E+01  0.49754195765E+01  0.51100000000E-03 0. -1.
        -11    1    3    3    0    0  0.19678536799E+02  0.12720671126E+02  0.13588278859E+02  0.27086926866E+02  0.51100000000E-03 0.  1.
        -12    1    3    3    0    0  0.31812206227E+01  0.17322200979E+02 -0.55527478852E+01  0.18466505368E+02  0.00000000000E+00 0.  1.
</event>
<event>
 7    1  0.3004200E-011  0.5052900E+02  0.7816164E-02  0.1300438E+00
        -11   -1    0    0    0    0  0.00000000000E+00  0.00000000000E+00  0.45593999997E+02  0.45594000000E+02  0.51100000000E-03 0.  1.
         11   -1    0    0    0    0 -0.00000000000E+00 -0.00000000000E+00 -0.45593999997E+02  0.45594000000E+02  0.51100000000E-03 0. -1.
    9900012    2    1    2    0    0  0.21710299361E+02  0.48302322039E+01  0.34036539929E+02  0.50528999867E+02  0.30000425593E+02 0.  0.
         12    1    1    2    0    0 -0.21710299361E+02 -0.48302322039E+01 -0.34036539929E+02  0.40659000133E+02  0.00000000000E+00 0. -1.
         11    1    3    3    0    0  0.19790456750E+02 -0.36107793793E+01  0.97745615597E+01  0.22366089512E+02  0.51100000000E-03 0.  1.
        -11    1    3    3    0    0 -0.21709898573E+00  0.70957402164E+01  0.24610421881E+02  0.25613854193E+02  0.51100000000E-03 0. -1.
         12    1    3    3    0    0  0.21369415969E+01  0.13452713669E+01 -0.34844351203E+00  0.25490561626E+01  0.00000000000E+00 0. -1.
</event>
<event>
 7    1  0.3004200E-011  0.5052887E+02  0.7816164E-02  0.1300439E+00
        -11   -1    0    0    0    0  0.00000000000E+00  0.00000000000E+00  0.45593999997E+02  0.45594000000E+02  0.51100000000E-03 0.  1.
         11   -1    0    0    0    0 -0.00000000000E+00 -0.00000000000E+00 -0.45593999997E+02  0.45594000000E+02  0.51100000000E-03 0. -1.
    9900012    2    1    2    0    0  0.82733215410E+00  0.10189882822E+02  0.39352848953E+02  0.50528869277E+02  0.30000028656E+02 0.  0.
         12    1    1    2    0    0 -0.82733215410E+00 -0.10189882822E+02 -0.39352848953E+02  0.40659130723E+02  0.00000000000E+00 0. -1.
         11    1    3    3    0    0 -0.12273177522E+02  0.91520180643E+01  0.16794635696E+02  0.22725538708E+02  0.51100000000E-03 0. -1.
        -11    1    3    3    0    0  0.13119000134E+02  0.10051821688E+01  0.23461597808E+02  0.26899165929E+02  0.51100000000E-03 0.  1.
         12    1    3    3    0    0 -0.18490457427E-01  0.32682588898E-01 -0.90338455170E+00  0.90416464036E+00  0.00000000000E+00 0. -1.
</event>
<event>
 7    1  0.3004200E-011  0.5052885E+02  0.7816164E-02  0.1300439E+00
        -11   -1    0    0    0    0  0.00000000000E+00  0.00000000000E+00  0.45593999997E+02  0.45594000000E+02  0.51100000000E-03 0. -1.
         11   -1    0    0    0    0 -0.00000000000E+00 -0.00000000000E+00 -0.45593999997E+02  0.45594000000E+02  0.51100000000E-03 0.  1.
    9900012    2    1    2    0    0 -0.29609908607E+02 -0.23219967979E+02 -0.15403003769E+02  0.50528854341E+02  0.29999983254E+02 0.  0.
         12    1    1    2    0    0  0.29609908607E+02  0.23219967979E+02  0.15403003769E+02  0.40659145659E+02  0.00000000000E+00 0. -1.
         11    1    3    3    0    0 -0.11458926714E+02  0.10899707077E+01 -0.10369064990E+02  0.15492338320E+02  0.51100000000E-03 0. -1.
        -11    1    3    3    0    0 -0.59476711338E+01 -0.13083407649E+02  0.55037586371E+01  0.15389662343E+02  0.51100000000E-03 0.  1.
        -12    1    3    3    0    0 -0.12203310759E+02 -0.11226531037E+02 -0.10537697416E+02  0.19646853678E+02  0.00000000000E+00 0.  1.
</event>
<event>
 7    1  0.3004200E-011  0.5052886E+02  0.7816164E-02  0.1300439E+00
        -11   -1    0    0    0    0  0.00000000000E+00  0.00000000000E+00  0.45593999997E+02  0.45594000000E+02  0.51100000000E-03 0.  1.
         11   -1    0    0    0    0 -0.00000000000E+00 -0.00000000000E+00 -0.45593999997E+02  0.45594000000E+02  0.51100000000E-03 0. -1.
    9900012    2    1    2    0    0  0.14790372644E+02 -0.67083857699E+01  0.37274765830E+02  0.50528859204E+02  0.29999998037E+02 0.  0.
         12    1    1    2    0    0 -0.14790372644E+02  0.67083857699E+01 -0.37274765830E+02  0.40659140796E+02  0.00000000000E+00 0. -1.
         11    1    3    3    0    0  0.36575201031E+01  0.11039790939E+01  0.21684917665E+02  0.22018898191E+02  0.51100000000E-03 0.  1.
        -11    1    3    3    0    0  0.57934516852E+01 -0.74522357413E+01 -0.24011660294E+01  0.97398921213E+01  0.51100000000E-03 0. -1.
         12    1    3    3    0    0  0.53394008554E+01 -0.36012912248E+00  0.17991014194E+02  0.18770068892E+02  0.00000000000E+00 0. -1.
</event>
<event>
 7    1  0.3004200E-011  0.5052885E+02  0.7816164E-02  0.1300439E+00
        -11   -1    0    0    0    0  0.00000000000E+00  0.00000000000E+00  0.45593999997E+02  0.45594000000E+02  0.51100000000E-03 0.  1.
         11   -1    0    0    0    0 -0.00000000000E+00 -0.00000000000E+00 -0.45593999997E+02  0.45594000000E+02  0.51100000000E-03 0. -1.
    9900012    2    1    2    0    0 -0.11702915730E+02 -0.28730050650E+02  0.26282928994E+02  0.50528850926E+02  0.29999972875E+02 0.  0.
         12    1    1    2    0    0  0.11702915730E+02  0.28730050650E+02 -0.26282928994E+02  0.40659149074E+02  0.00000000000E+00 0. -1.
         11    1    3    3    0    0 -0.98051770229E+01 -0.16840688282E+02 -0.21550937108E+01  0.19605986520E+02  0.51100000000E-03 0. -1.
        -11    1    3    3    0    0 -0.88162679018E+00 -0.32668647645E+01  0.64703899721E+01  0.73017544357E+01  0.51100000000E-03 0.  1.
         12    1    3    3    0    0 -0.10161119166E+01 -0.86224976036E+01  0.21967632733E+02  0.23621109971E+02  0.00000000000E+00 0. -1.
</event>
<event>
 7    1  0.3004200E-011  0.5052886E+02  0.7816164E-02  0.1300439E+00
        -11   -1    0    0    0    0  0.00000000000E+00  0.00000000000E+00  0.45593999997E+02  0.45594000000E+02  0.51100000000E-03 0.  1.
         11   -1    0    0    0    0 -0.00000000000E+00 -0.00000000000E+00 -0.45593999997E+02  0.45594000000E+02  0.51100000000E-03 0. -1.
    9900012    2    1    2    0    0 -0.10273697762E+02 -0.37602298844E+02  0.11562175049E+02  0.50528860364E+02  0.30000001562E+02 0.  0.
         12    1    1    2    0    0  0.10273697762E+02  0.37602298844E+02 -0.11562175049E+02  0.40659139636E+02  0.00000000000E+00 0. -1.
         11    1    3    3    0    0  0.75179529451E+00 -0.92108076561E+01 -0.25508142027E+00  0.92449575789E+01  0.51100000000E-03 0. -1.
        -11    1    3    3    0    0 -0.17628851763E+02 -0.25787747288E+02  0.13434287058E+02  0.34003887921E+02  0.51100000000E-03 0.  1.
        -12    1    3    3    0    0  0.66033587065E+01 -0.26037438996E+01 -0.16170305886E+01  0.72800148644E+01  0.00000000000E+00 0.  1.
</event>
<event>
 7    1  0.3004200E-011  0.5052892E+02  0.7816164E-02  0.1300439E+00
        -11   -1    0    0    0    0  0.00000000000E+00  0.00000000000E+00  0.45593999997E+02  0.45594000000E+02  0.51100000000E-03 0.  1.
         11   -1    0    0    0    0 -0.00000000000E+00 -0.00000000000E+00 -0.45593999997E+02  0.45594000000E+02  0.51100000000E-03 0. -1.
    9900012    2    1    2    0    0  0.22128290702E+02 -0.32716357815E+02  0.96508685843E+01  0.50528922508E+02  0.30000190453E+02 0.  0.
         12    1    1    2    0    0 -0.22128290702E+02  0.32716357815E+02 -0.96508685843E+01  0.40659077492E+02  0.00000000000E+00 0. -1.
         11    1    3    3    0    0  0.11746172003E+02  0.25802808232E+01  0.59064225100E+01  0.13398366802E+02  0.51100000000E-03 0. -1.
        -11    1    3    3    0    0  0.13880368572E+01 -0.81490559843E+01  0.18386898481E+01  0.84684437987E+01  0.51100000000E-03 0.  1.
         12    1    3    3    0    0  0.89940818425E+01 -0.27147582654E+02  0.19057562262E+01  0.28662111907E+02  0.00000000000E+00 0. -1.
</event>
<event>
 7    1  0.3004200E-011  0.5052887E+02  0.7816164E-02  0.1300439E+00
        -11   -1    0    0    0    0  0.00000000000E+00  0.00000000000E+00  0.45593999997E+02  0.45594000000E+02  0.51100000000E-03 0.  1.
         11   -1    0    0    0    0 -0.00000000000E+00 -0.00000000000E+00 -0.45593999997E+02  0.45594000000E+02  0.51100000000E-03 0. -1.
    9900012    2    1    2    0    0 -0.29148865887E+02  0.15749295069E+02  0.23568369283E+02  0.50528871772E+02  0.30000036237E+02 0.  0.
         12    1    1    2    0    0  0.29148865887E+02 -0.15749295069E+02 -0.23568369283E+02  0.40659128228E+02  0.00000000000E+00 0. -1.
         11    1    3    3    0    0  0.57443110524E+00 -0.29416783530E+01 -0.37158866454E+01  0.47740188992E+01  0.51100000000E-03 0. -1.
        -11    1    3    3    0    0 -0.20675820858E+02  0.12383527122E+02  0.12044156738E+02  0.26942587551E+02  0.51100000000E-03 0.  1.
        -12    1    3    3    0    0 -0.90474761340E+01  0.63074462997E+01  0.15240099190E+02  0.18812265321E+02  0.00000000000E+00 0.  1.
</event>
<event>
 7    1  0.3004200E-011  0.5052887E+02  0.7816164E-02  0.1300439E+00
        -11   -1    0    0    0    0  0.00000000000E+00  0.00000000000E+00  0.45593999997E+02  0.45594000000E+02  0.51100000000E-03 0.  1.
         11   -1    0    0    0    0 -0.00000000000E+00 -0.00000000000E+00 -0.45593999997E+02  0.45594000000E+02  0.51100000000E-03 0. -1.
    9900012    2    1    2    0    0 -0.27513300041E+02  0.65782844895E+01  0.29204615515E+02  0.50528867282E+02  0.30000022592E+02 0.  0.
         12    1    1    2    0    0  0.27513300041E+02 -0.65782844895E+01 -0.29204615515E+02  0.40659132718E+02  0.00000000000E+00 0. -1.
         11    1    3    3    0    0 -0.13292224090E+02 -0.62501586370E+01  0.24128548425E+02  0.28247735372E+02  0.51100000000E-03 0.  1.
        -11    1    3    3    0    0 -0.15312349904E+02  0.91376541969E+01  0.44884288149E+01  0.18387788809E+02  0.51100000000E-03 0. -1.
        -12    1    3    3    0    0  0.10912739536E+01  0.36907889296E+01  0.58763827496E+00  0.38933431016E+01  0.00000000000E+00 0.  1.
</event>
<event>
 7    1  0.3004200E-011  0.5052886E+02  0.7816164E-02  0.1300439E+00
        -11   -1    0    0    0    0  0.00000000000E+00  0.00000000000E+00  0.45593999997E+02  0.45594000000E+02  0.51100000000E-03 0.  1.
         11   -1    0    0    0    0 -0.00000000000E+00 -0.00000000000E+00 -0.45593999997E+02  0.45594000000E+02  0.51100000000E-03 0. -1.
    9900012    2    1    2    0    0 -0.17141362279E+02  0.34827154970E+02  0.12099948778E+02  0.50528858537E+02  0.29999996010E+02 0.  0.
         12    1    1    2    0    0  0.17141362279E+02 -0.34827154970E+02 -0.12099948778E+02  0.40659141463E+02  0.00000000000E+00 0. -1.
         11    1    3    3    0    0 -0.70254949139E+01  0.57794223206E+01 -0.81678902267E+01  0.12225945042E+02  0.51100000000E-03 0. -1.
        -11    1    3    3    0    0 -0.71105926839E+01  0.10630086509E+02  0.36108880517E+01  0.13289009756E+02  0.51100000000E-03 0.  1.
         12    1    3    3    0    0 -0.30052746811E+01  0.18417646140E+02  0.16656950953E+02  0.25013903740E+02  0.00000000000E+00 0. -1.
</event>
<event>
 7    1  0.3004200E-011  0.5052886E+02  0.7816164E-02  0.1300439E+00
        -11   -1    0    0    0    0  0.00000000000E+00  0.00000000000E+00  0.45593999997E+02  0.45594000000E+02  0.51100000000E-03 0.  1.
         11   -1    0    0    0    0 -0.00000000000E+00 -0.00000000000E+00 -0.45593999997E+02  0.45594000000E+02  0.51100000000E-03 0. -1.
    9900012    2    1    2    0    0  0.26755880270E+02 -0.83592341666E+01  0.29451856492E+02  0.50528858645E+02  0.29999996337E+02 0.  0.
         12    1    1    2    0    0 -0.26755880270E+02  0.83592341666E+01 -0.29451856492E+02  0.40659141355E+02  0.00000000000E+00 0. -1.
         11    1    3    3    0    0  0.19245935520E+01  0.61592013265E+01  0.14409326827E+01  0.66118158306E+01  0.51100000000E-03 0. -1.
        -11    1    3    3    0    0  0.21143932367E+02 -0.17924579480E+02  0.27193816010E+02  0.38831173752E+02  0.51100000000E-03 0.  1.
        -12    1    3    3    0    0  0.36873543509E+01  0.34061439865E+01  0.81710779927E+00  0.50858690626E+01  0.00000000000E+00 0.  1.
</event>
<event>
 7    1  0.3004200E-011  0.5052886E+02  0.7816164E-02  0.1300439E+00
        -11   -1    0    0    0    0  0.00000000000E+00  0.00000000000E+00  0.45593999997E+02  0.45594000000E+02  0.51100000000E-03 0.  1.
         11   -1    0    0    0    0 -0.00000000000E+00 -0.00000000000E+00 -0.45593999997E+02  0.45594000000E+02  0.51100000000E-03 0. -1.
    9900012    2    1    2    0    0  0.23079272668E+01 -0.40131467973E+02 -0.61077289105E+01  0.50528860777E+02  0.30000002817E+02 0.  0.
         12    1    1    2    0    0 -0.23079272668E+01  0.40131467973E+02  0.61077289105E+01  0.40659139223E+02  0.00000000000E+00 0. -1.
         11    1    3    3    0    0 -0.61203338165E+01 -0.21326146358E+02 -0.10130402923E+02  0.24390327348E+02  0.51100000000E-03 0. -1.
        -11    1    3    3    0    0 -0.22639607554E+01 -0.56434738252E+01  0.66137283149E+01  0.89841926516E+01  0.51100000000E-03 0.  1.
         12    1    3    3    0    0  0.10692221839E+02 -0.13161847790E+02 -0.25910543025E+01  0.17154340777E+02  0.00000000000E+00 0. -1.
</event>
<event>
 7    1  0.3004200E-011  0.5052886E+02  0.7816164E-02  0.1300439E+00
        -11   -1    0    0    0    0  0.00000000000E+00  0.00000000000E+00  0.45593999997E+02  0.45594000000E+02  0.51100000000E-03 0.  1.
         11   -1    0    0    0    0 -0.00000000000E+00 -0.00000000000E+00 -0.45593999997E+02  0.45594000000E+02  0.51100000000E-03 0. -1.
    9900012    2    1    2    0    0  0.19977262380E+02 -0.14504756948E+02  0.32306142957E+02  0.50528857620E+02  0.29999993221E+02 0.  0.
         12    1    1    2    0    0 -0.19977262380E+02  0.14504756948E+02 -0.32306142957E+02  0.40659142380E+02  0.00000000000E+00 0. -1.
         11    1    3    3    0    0  0.40261509969E+00 -0.14741529153E+02  0.69655909531E+01  0.16309329792E+02  0.51100000000E-03 0. -1.
        -11    1    3    3    0    0  0.16990313130E+02 -0.45025826107E+01  0.19999820206E+02  0.26625867103E+02  0.51100000000E-03 0.  1.
         12    1    3    3    0    0  0.25843341500E+01  0.47393548154E+01  0.53407317979E+01  0.75936607247E+01  0.00000000000E+00 0. -1.
</event>
<event>
 7    1  0.3004200E-011  0.5052882E+02  0.7816164E-02  0.1300439E+00
        -11   -1    0    0    0    0  0.00000000000E+00  0.00000000000E+00  0.45593999997E+02  0.45594000000E+02  0.51100000000E-03 0.  1.
         11   -1    0    0    0    0 -0.00000000000E+00 -0.00000000000E+00 -0.45593999997E+02  0.45594000000E+02  0.51100000000E-03 0. -1.
    9900012    2    1    2    0    0  0.35285190715E+02 -0.18981520273E+02  0.69156294500E+01  0.50528822360E+02  0.29999886045E+02 0.  0.
         12    1    1    2    0    0 -0.35285190715E+02  0.18981520273E+02 -0.69156294500E+01  0.40659177640E+02  0.00000000000E+00 0. -1.
         11    1    3    3    0    0  0.20012578973E+02 -0.21689026304E+02  0.10256840623E+02  0.31242918541E+02  0.51100000000E-03 0. -1.
        -11    1    3    3    0    0  0.16052887580E+02  0.36247493561E+01 -0.80311946382E+00  0.16476620062E+02  0.51100000000E-03 0.  1.
         12    1    3    3    0    0 -0.78027583726E+00 -0.91724332559E+00 -0.25380917093E+01  0.28092837567E+01  0.00000000000E+00 0. -1.
</event>
<event>
 7    1  0.3004200E-011  0.5052887E+02  0.7816164E-02  0.1300439E+00
        -11   -1    0    0    0    0  0.00000000000E+00  0.00000000000E+00  0.45593999997E+02  0.45594000000E+02  0.51100000000E-03 0.  1.
         11   -1    0    0    0    0 -0.00000000000E+00 -0.00000000000E+00 -0.45593999997E+02  0.45594000000E+02  0.51100000000E-03 0. -1.
    9900012    2    1    2    0    0  0.18311814362E+02  0.26239583470E+02  0.25086386430E+02  0.50528867323E+02  0.30000022716E+02 0.  0.
         12    1    1    2    0    0 -0.18311814362E+02 -0.26239583470E+02 -0.25086386430E+02  0.40659132677E+02  0.00000000000E+00 0. -1.
         11    1    3    3    0    0  0.49852600668E+00  0.15747052751E+02  0.76539349498E+00  0.15773522941E+02  0.51100000000E-03 0. -1.
        -11    1    3    3    0    0  0.18240884228E+02  0.12922913815E+02  0.21680157054E+02  0.31140982147E+02  0.51100000000E-03 0.  1.
         12    1    3    3    0    0 -0.42759587312E+00 -0.24303830953E+01  0.26408358808E+01  0.36143622356E+01  0.00000000000E+00 0. -1.
</event>
<event>
 7    1  0.3004200E-011  0.5052886E+02  0.7816164E-02  0.1300439E+00
        -11   -1    0    0    0    0  0.00000000000E+00  0.00000000000E+00  0.45593999997E+02  0.45594000000E+02  0.51100000000E-03 0.  1.
         11   -1    0    0    0    0 -0.00000000000E+00 -0.00000000000E+00 -0.45593999997E+02  0.45594000000E+02  0.51100000000E-03 0. -1.
    9900012    2    1    2    0    0  0.10486862605E+02 -0.26004551222E+02  0.29444101103E+02  0.50528855133E+02  0.29999985662E+02 0.  0.
         12    1    1    2    0    0 -0.10486862605E+02  0.26004551222E+02 -0.29444101103E+02  0.40659144867E+02  0.00000000000E+00 0. -1.
         11    1    3    3    0    0  0.50930338176E+01 -0.20765489849E+01 -0.46339588811E+01  0.71919833375E+01  0.51100000000E-03 0. -1.
        -11    1    3    3    0    0 -0.18258149320E+00 -0.19804981293E+02  0.26144202705E+02  0.32799237115E+02  0.51100000000E-03 0.  1.
         12    1    3    3    0    0  0.55764102804E+01 -0.41230209441E+01  0.79338572794E+01  0.10537634680E+02  0.00000000000E+00 0. -1.
</event>
<event>
 7    1  0.3004200E-011  0.5052893E+02  0.7816164E-02  0.1300439E+00
        -11   -1    0    0    0    0  0.00000000000E+00  0.00000000000E+00  0.45593999997E+02  0.45594000000E+02  0.51100000000E-03 0.  1.
         11   -1    0    0    0    0 -0.00000000000E+00 -0.00000000000E+00 -0.45593999997E+02  0.45594000000E+02  0.51100000000E-03 0. -1.
    9900012    2    1    2    0    0  0.37099613074E+02  0.99965725460E+01  0.13298388001E+02  0.50528931192E+02  0.30000216851E+02 0.  0.
         12    1    1    2    0    0 -0.37099613074E+02 -0.99965725460E+01 -0.13298388001E+02  0.40659068808E+02  0.00000000000E+00 0. -1.
         11    1    3    3    0    0 -0.21754707955E+01  0.11783941463E+01  0.75972264509E+01  0.79899396714E+01  0.51100000000E-03 0. -1.
        -11    1    3    3    0    0  0.20337009395E+02  0.34456937836E+01 -0.33072533663E+01  0.20890301143E+02  0.51100000000E-03 0.  1.
         12    1    3    3    0    0  0.18938074474E+02  0.53724846161E+01  0.90084149166E+01  0.21648690377E+02  0.00000000000E+00 0. -1.
</event>
<event>
 7    1  0.3004200E-011  0.5052885E+02  0.7816164E-02  0.1300439E+00
        -11   -1    0    0    0    0  0.00000000000E+00  0.00000000000E+00  0.45593999997E+02  0.45594000000E+02  0.51100000000E-03 0.  1.
         11   -1    0    0    0    0 -0.00000000000E+00 -0.00000000000E+00 -0.45593999997E+02  0.45594000000E+02  0.51100000000E-03 0. -1.
    9900012    2    1    2    0    0  0.70621082530E+01 -0.39919109011E+02  0.31238099294E+01  0.50528845733E+02  0.29999957090E+02 0.  0.
         12    1    1    2    0    0 -0.70621082530E+01  0.39919109011E+02 -0.31238099294E+01  0.40659154267E+02  0.00000000000E+00 0. -1.
         11    1    3    3    0    0  0.33729906119E+01  0.51526949955E+00  0.60504515695E+01  0.69462603450E+01  0.51100000000E-03 0. -1.
        -11    1    3    3    0    0 -0.33014521007E+01 -0.31608957093E+02  0.59369185872E+00  0.31786447187E+02  0.51100000000E-03 0.  1.
        -12    1    3    3    0    0  0.69905697418E+01 -0.88254214183E+01 -0.35203334988E+01  0.11796138201E+02  0.00000000000E+00 0.  1.
</event>
<event>
 7    1  0.3004200E-011  0.5052886E+02  0.7816164E-02  0.1300439E+00
        -11   -1    0    0    0    0  0.00000000000E+00  0.00000000000E+00  0.45593999997E+02  0.45594000000E+02  0.51100000000E-03 0.  1.
         11   -1    0    0    0    0 -0.00000000000E+00 -0.00000000000E+00 -0.45593999997E+02  0.45594000000E+02  0.51100000000E-03 0. -1.
    9900012    2    1    2    0    0  0.10185477139E+02 -0.28255209521E+02  0.27405562231E+02  0.50528860181E+02  0.30000001005E+02 0.  0.
         12    1    1    2    0    0 -0.10185477139E+02  0.28255209521E+02 -0.27405562231E+02  0.40659139819E+02  0.00000000000E+00 0. -1.
         11    1    3    3    0    0 -0.14779113151E+00 -0.24226480772E+02  0.30261028779E+02  0.38764340261E+02  0.51100000000E-03 0. -1.
        -11    1    3    3    0    0  0.72505725335E+01 -0.40261653181E+01 -0.16586812865E+01  0.84576612076E+01  0.51100000000E-03 0.  1.
        -12    1    3    3    0    0  0.30826957373E+01 -0.25634312130E-02 -0.11967852616E+01  0.33068587122E+01  0.00000000000E+00 0.  1.
</event>
<event>
 7    1  0.3004200E-011  0.5052886E+02  0.7816164E-02  0.1300439E+00
        -11   -1    0    0    0    0  0.00000000000E+00  0.00000000000E+00  0.45593999997E+02  0.45594000000E+02  0.51100000000E-03 0. -1.
         11   -1    0    0    0    0 -0.00000000000E+00 -0.00000000000E+00 -0.45593999997E+02  0.45594000000E+02  0.51100000000E-03 0.  1.
    9900012    2    1    2    0    0 -0.76388709482E+01 -0.26621644542E+02 -0.29767451809E+02  0.50528862101E+02  0.30000006841E+02 0.  0.
         12    1    1    2    0    0  0.76388709482E+01  0.26621644542E+02  0.29767451809E+02  0.40659137899E+02  0.00000000000E+00 0. -1.
         11    1    3    3    0    0 -0.73936734384E+01  0.60647354836E+00  0.34789380159E+00  0.74266578914E+01  0.51100000000E-03 0. -1.
        -11    1    3    3    0    0 -0.29305670382E-01 -0.15254524870E+02 -0.26527406742E+02  0.30600730327E+02  0.51100000000E-03 0.  1.
        -12    1    3    3    0    0 -0.21589183948E+00 -0.11973593221E+02 -0.35879388689E+01  0.12501473882E+02  0.00000000000E+00 0.  1.
</event>
<event>
 7    1  0.3004200E-011  0.5052886E+02  0.7816164E-02  0.1300439E+00
        -11   -1    0    0    0    0  0.00000000000E+00  0.00000000000E+00  0.45593999997E+02  0.45594000000E+02  0.51100000000E-03 0. -1.
         11   -1    0    0    0    0 -0.00000000000E+00 -0.00000000000E+00 -0.45593999997E+02  0.45594000000E+02  0.51100000000E-03 0.  1.
    9900012    2    1    2    0    0 -0.65714988738E+01 -0.17879810983E+02 -0.35920658446E+02  0.50528856608E+02  0.29999990145E+02 0.  0.
         12    1    1    2    0    0  0.65714988738E+01  0.17879810983E+02  0.35920658446E+02  0.40659143392E+02  0.00000000000E+00 0. -1.
         11    1    3    3    0    0 -0.97509712917E+01 -0.18438420543E+02 -0.12424799819E+02  0.24278229837E+02  0.51100000000E-03 0. -1.
        -11    1    3    3    0    0  0.60454778174E+01 -0.29307821855E+01 -0.10244135092E+02  0.12250697543E+02  0.51100000000E-03 0.  1.
         12    1    3    3    0    0 -0.28660053995E+01  0.34893917455E+01 -0.13251723535E+02  0.13999929227E+02  0.00000000000E+00 0. -1.
</event>
<event>
 7    1  0.3004200E-011  0.5052876E+02  0.7816164E-02  0.1300439E+00
        -11   -1    0    0    0    0  0.00000000000E+00  0.00000000000E+00  0.45593999997E+02  0.45594000000E+02  0.51100000000E-03 0.  1.
         11   -1    0    0    0    0 -0.00000000000E+00 -0.00000000000E+00 -0.45593999997E+02  0.45594000000E+02  0.51100000000E-03 0. -1.
    9900012    2    1    2    0    0  0.31094268331E+02  0.24579657492E+02 -0.90642400962E+01  0.50528763239E+02  0.29999706340E+02 0.  0.
         12    1    1    2    0    0 -0.31094268331E+02 -0.24579657492E+02  0.90642400962E+01  0.40659236761E+02  0.00000000000E+00 0. -1.
         11    1    3    3    0    0  0.56198989155E+01  0.19652222599E+02 -0.20185533228E+01  0.20539417584E+02  0.51100000000E-03 0. -1.
        -11    1    3    3    0    0  0.14761739604E+02 -0.38554058329E+01 -0.44794623918E+01  0.15900902297E+02  0.51100000000E-03 0.  1.
        -12    1    3    3    0    0  0.10712629811E+02  0.87828407250E+01 -0.25662243816E+01  0.14088443358E+02  0.00000000000E+00 0.  1.
</event>
<event>
 7    1  0.3004200E-011  0.5052886E+02  0.7816164E-02  0.1300439E+00
        -11   -1    0    0    0    0  0.00000000000E+00  0.00000000000E+00  0.45593999997E+02  0.45594000000E+02  0.51100000000E-03 0.  1.
         11   -1    0    0    0    0 -0.00000000000E+00 -0.00000000000E+00 -0.45593999997E+02  0.45594000000E+02  0.51100000000E-03 0. -1.
    9900012    2    1    2    0    0  0.29910044740E+02 -0.17467948545E+02  0.21293796313E+02  0.50528858787E+02  0.29999996769E+02 0.  0.
         12    1    1    2    0    0 -0.29910044740E+02  0.17467948545E+02 -0.21293796313E+02  0.40659141213E+02  0.00000000000E+00 0. -1.
         11    1    3    3    0    0  0.18806624847E+01  0.27435326813E+01  0.13665124577E+02  0.14064120766E+02  0.51100000000E-03 0. -1.
        -11    1    3    3    0    0  0.84013097215E+01 -0.64339315754E+01 -0.17299954924E+01  0.10722423477E+02  0.51100000000E-03 0.  1.
         12    1    3    3    0    0  0.19628072534E+02 -0.13777549651E+02  0.93586672286E+01  0.25742314544E+02  0.00000000000E+00 0. -1.
</event>
<event>
 7    1  0.3004200E-011  0.5052885E+02  0.7816164E-02  0.1300439E+00
        -11   -1    0    0    0    0  0.00000000000E+00  0.00000000000E+00  0.45593999997E+02  0.45594000000E+02  0.51100000000E-03 0. -1.
         11   -1    0    0    0    0 -0.00000000000E+00 -0.00000000000E+00 -0.45593999997E+02  0.45594000000E+02  0.51100000000E-03 0.  1.
    9900012    2    1    2    0    0  0.95072002176E+01  0.96293697009E+01 -0.38341295754E+02  0.50528848793E+02  0.29999966390E+02 0.  0.
         12    1    1    2    0    0 -0.95072002176E+01 -0.96293697009E+01  0.38341295754E+02  0.40659151207E+02  0.00000000000E+00 0. -1.
         11    1    3    3    0    0  0.11276952548E+02  0.19072554711E+02 -0.30795239988E+02  0.37937828195E+02  0.51100000000E-03 0.  1.
        -11    1    3    3    0    0  0.19755852565E+00 -0.66863884464E+01 -0.51575403959E+01  0.84467178847E+01  0.51100000000E-03 0. -1.
        -12    1    3    3    0    0 -0.19673108564E+01 -0.27567965640E+01 -0.23885153698E+01  0.41443027125E+01  0.00000000000E+00 0.  1.
</event>
<event>
 7    1  0.3004200E-011  0.5052887E+02  0.7816164E-02  0.1300439E+00
        -11   -1    0    0    0    0  0.00000000000E+00  0.00000000000E+00  0.45593999997E+02  0.45594000000E+02  0.51100000000E-03 0. -1.
         11   -1    0    0    0    0 -0.00000000000E+00 -0.00000000000E+00 -0.45593999997E+02  0.45594000000E+02  0.51100000000E-03 0.  1.
    9900012    2    1    2    0    0 -0.14717521944E+02  0.50042318642E+01 -0.37570165333E+02  0.50528866809E+02  0.30000021151E+02 0.  0.
         12    1    1    2    0    0  0.14717521944E+02 -0.50042318642E+01  0.37570165333E+02  0.40659133191E+02  0.00000000000E+00 0. -1.
         11    1    3    3    0    0  0.26268277852E+01  0.36451076918E+01 -0.16364755242E+02  0.16970334372E+02  0.51100000000E-03 0.  1.
        -11    1    3    3    0    0 -0.10257442621E+02  0.44760165659E+01 -0.22339925721E+00  0.11193737576E+02  0.51100000000E-03 0. -1.
        -12    1    3    3    0    0 -0.70869071086E+01 -0.31168923934E+01 -0.20982010834E+02  0.22364794861E+02  0.00000000000E+00 0.  1.
</event>
<event>
 7    1  0.3004200E-011  0.5052885E+02  0.7816164E-02  0.1300439E+00
        -11   -1    0    0    0    0  0.00000000000E+00  0.00000000000E+00  0.45593999997E+02  0.45594000000E+02  0.51100000000E-03 0. -1.
         11   -1    0    0    0    0 -0.00000000000E+00 -0.00000000000E+00 -0.45593999997E+02  0.45594000000E+02  0.51100000000E-03 0.  1.
    9900012    2    1    2    0    0 -0.94093085514E+01 -0.36508843419E+02 -0.15222859172E+02  0.50528853715E+02  0.29999981354E+02 0.  0.
         12    1    1    2    0    0  0.94093085514E+01  0.36508843419E+02  0.15222859172E+02  0.40659146285E+02  0.00000000000E+00 0. -1.
         11    1    3    3    0    0 -0.12221836903E+02 -0.26383801409E+02  0.10916049771E+01  0.29097592268E+02  0.51100000000E-03 0. -1.
        -11    1    3    3    0    0 -0.10863826173E+01 -0.18349669557E+01 -0.10191722408E+02  0.10412422236E+02  0.51100000000E-03 0.  1.
         12    1    3    3    0    0  0.38989109692E+01 -0.82900750545E+01 -0.61227417413E+01  0.11018839212E+02  0.00000000000E+00 0. -1.
</event>
<event>
 7    1  0.3004200E-011  0.5052885E+02  0.7816164E-02  0.1300439E+00
        -11   -1    0    0    0    0  0.00000000000E+00  0.00000000000E+00  0.45593999997E+02  0.45594000000E+02  0.51100000000E-03 0. -1.
         11   -1    0    0    0    0 -0.00000000000E+00 -0.00000000000E+00 -0.45593999997E+02  0.45594000000E+02  0.51100000000E-03 0.  1.
    9900012    2    1    2    0    0  0.25141969577E+02 -0.22746127514E+02  0.22442399205E+02  0.50528853020E+02  0.29999979239E+02 0.  0.
         12    1    1    2    0    0 -0.25141969577E+02  0.22746127514E+02 -0.22442399205E+02  0.40659146980E+02  0.00000000000E+00 0. -1.
         11    1    3    3    0    0 -0.16228157542E+01 -0.64135649520E+01  0.27451256580E-01  0.66157463826E+01  0.51100000000E-03 0. -1.
        -11    1    3    3    0    0  0.29769281256E+02 -0.16824126000E+02  0.22382407574E+02  0.40868490200E+02  0.51100000000E-03 0.  1.
        -12    1    3    3    0    0 -0.30044959248E+01  0.49156343848E+00  0.32540374784E-01  0.30446164376E+01  0.00000000000E+00 0.  1.
</event>
<event>
 7    1  0.3004200E-011  0.5052886E+02  0.7816164E-02  0.1300439E+00
        -11   -1    0    0    0    0  0.00000000000E+00  0.00000000000E+00  0.45593999997E+02  0.45594000000E+02  0.51100000000E-03 0.  1.
         11   -1    0    0    0    0 -0.00000000000E+00 -0.00000000000E+00 -0.45593999997E+02  0.45594000000E+02  0.51100000000E-03 0. -1.
    9900012    2    1    2    0    0 -0.27325676160E+02  0.83329212253E+01  0.28931566277E+02  0.50528859810E+02  0.29999999878E+02 0.  0.
         12    1    1    2    0    0  0.27325676160E+02 -0.83329212253E+01 -0.28931566277E+02  0.40659140190E+02  0.00000000000E+00 0. -1.
         11    1    3    3    0    0 -0.23504544666E+02  0.18877572608E+01  0.63676807197E+01  0.24424876775E+02  0.51100000000E-03 0. -1.
        -11    1    3    3    0    0  0.18253537122E+01 -0.15725925336E+01  0.14200147792E+01  0.27966776156E+01  0.51100000000E-03 0.  1.
         12    1    3    3    0    0 -0.56464852063E+01  0.80177564981E+01  0.21143870778E+02  0.23307305420E+02  0.00000000000E+00 0. -1.
</event>
<event>
 7    1  0.3004200E-011  0.5052883E+02  0.7816164E-02  0.1300439E+00
        -11   -1    0    0    0    0  0.00000000000E+00  0.00000000000E+00  0.45593999997E+02  0.45594000000E+02  0.51100000000E-03 0. -1.
         11   -1    0    0    0    0 -0.00000000000E+00 -0.00000000000E+00 -0.45593999997E+02  0.45594000000E+02  0.51100000000E-03 0.  1.
    9900012    2    1    2    0    0 -0.18987155749E+01 -0.19371085381E+02 -0.35697675675E+02  0.50528829838E+02  0.29999908776E+02 0.  0.
         12    1    1    2    0    0  0.18987155749E+01  0.19371085381E+02  0.35697675675E+02  0.40659170162E+02  0.00000000000E+00 0. -1.
         11    1    3    3    0    0 -0.29928090534E+01 -0.13122040278E+02 -0.16922926206E+01  0.13564980710E+02  0.51100000000E-03 0. -1.
        -11    1    3    3    0    0  0.31821402079E+01 -0.98361082931E+01 -0.24496630476E+02  0.26588718427E+02  0.51100000000E-03 0.  1.
        -12    1    3    3    0    0 -0.20880467294E+01  0.35870631899E+01 -0.95087525779E+01  0.10375130701E+02  0.00000000000E+00 0.  1.
</event>
<event>
 7    1  0.3004200E-011  0.5052884E+02  0.7816164E-02  0.1300439E+00
        -11   -1    0    0    0    0  0.00000000000E+00  0.00000000000E+00  0.45593999997E+02  0.45594000000E+02  0.51100000000E-03 0.  1.
         11   -1    0    0    0    0 -0.00000000000E+00 -0.00000000000E+00 -0.45593999997E+02  0.45594000000E+02  0.51100000000E-03 0. -1.
    9900012    2    1    2    0    0 -0.38997981159E+02  0.74080130881E+01 -0.88003623428E+01  0.50528836583E+02  0.29999929278E+02 0.  0.
         12    1    1    2    0    0  0.38997981159E+02 -0.74080130881E+01  0.88003623428E+01  0.40659163417E+02  0.00000000000E+00 0. -1.
         11    1    3    3    0    0 -0.36367835390E+01  0.24901388846E+01  0.81007599314E+01  0.92222176239E+01  0.51100000000E-03 0. -1.
        -11    1    3    3    0    0 -0.18861800268E+02 -0.31494127698E+01 -0.64857565592E+01  0.20192853898E+02  0.51100000000E-03 0.  1.
         12    1    3    3    0    0 -0.16499397352E+02  0.80672869733E+01 -0.10415365715E+02  0.21113765061E+02  0.00000000000E+00 0. -1.
</event>
<event>
 7    1  0.3004200E-011  0.5052886E+02  0.7816164E-02  0.1300439E+00
        -11   -1    0    0    0    0  0.00000000000E+00  0.00000000000E+00  0.45593999997E+02  0.45594000000E+02  0.51100000000E-03 0. -1.
         11   -1    0    0    0    0 -0.00000000000E+00 -0.00000000000E+00 -0.45593999997E+02  0.45594000000E+02  0.51100000000E-03 0.  1.
    9900012    2    1    2    0    0 -0.23965139008E+02 -0.24096574189E+02 -0.22320226172E+02  0.50528864843E+02  0.30000015177E+02 0.  0.
         12    1    1    2    0    0  0.23965139008E+02  0.24096574189E+02  0.22320226172E+02  0.40659135157E+02  0.00000000000E+00 0. -1.
         11    1    3    3    0    0  0.38204649896E+00 -0.11679195467E+02  0.23125644995E+01  0.11912074593E+02  0.51100000000E-03 0. -1.
        -11    1    3    3    0    0 -0.10853240105E+02 -0.11692779509E+02 -0.15920751307E+02  0.22538505626E+02  0.51100000000E-03 0.  1.
         12    1    3    3    0    0 -0.13493945403E+02 -0.72459921287E+00 -0.87120393644E+01  0.16078284624E+02  0.00000000000E+00 0. -1.
</event>
<event>
 7    1  0.3004200E-011  0.5052885E+02  0.7816164E-02  0.1300439E+00
        -11   -1    0    0    0    0  0.00000000000E+00  0.00000000000E+00  0.45593999997E+02  0.45594000000E+02  0.51100000000E-03 0.  1.
         11   -1    0    0    0    0 -0.00000000000E+00 -0.00000000000E+00 -0.45593999997E+02  0.45594000000E+02  0.51100000000E-03 0. -1.
    9900012    2    1    2    0    0 -0.27856751521E+02 -0.27001506125E+02  0.12169066405E+02  0.50528854467E+02  0.29999983637E+02 0.  0.
         12    1    1    2    0    0  0.27856751521E+02  0.27001506125E+02 -0.12169066405E+02  0.40659145533E+02  0.00000000000E+00 0. -1.
         11    1    3    3    0    0 -0.94192350434E+01 -0.11246096049E+02  0.24034426371E+01  0.14865167403E+02  0.51100000000E-03 0. -1.
        -11    1    3    3    0    0 -0.27982217884E+01  0.12307240769E+00  0.12861196311E+02  0.13162657893E+02  0.51100000000E-03 0.  1.
        -12    1    3    3    0    0 -0.15639294690E+02 -0.15878482484E+02 -0.30955725435E+01  0.22501029171E+02  0.00000000000E+00 0.  1.
</event>
<event>
 7    1  0.3004200E-011  0.5052885E+02  0.7816164E-02  0.1300439E+00
        -11   -1    0    0    0    0  0.00000000000E+00  0.00000000000E+00  0.45593999997E+02  0.45594000000E+02  0.51100000000E-03 0.  1.
         11   -1    0    0    0    0 -0.00000000000E+00 -0.00000000000E+00 -0.45593999997E+02  0.45594000000E+02  0.51100000000E-03 0. -1.
    9900012    2    1    2    0    0 -0.15549473883E+02  0.44439080249E+01  0.37304580390E+02  0.50528853740E+02  0.29999981427E+02 0.  0.
         12    1    1    2    0    0  0.15549473883E+02 -0.44439080249E+01 -0.37304580390E+02  0.40659146260E+02  0.00000000000E+00 0. -1.
         11    1    3    3    0    0  0.54821272011E+01  0.77347296812E+01  0.13151423097E+02  0.16212331468E+02  0.51100000000E-03 0. -1.
        -11    1    3    3    0    0 -0.10300348758E+02 -0.34261119159E+01  0.20101163928E+02  0.22844960471E+02  0.51100000000E-03 0.  1.
         12    1    3    3    0    0 -0.10731252325E+02  0.13529025960E+00  0.40519933652E+01  0.11471561801E+02  0.00000000000E+00 0. -1.
</event>
<event>
 7    1  0.3004200E-011  0.5052886E+02  0.7816164E-02  0.1300439E+00
        -11   -1    0    0    0    0  0.00000000000E+00  0.00000000000E+00  0.45593999997E+02  0.45594000000E+02  0.51100000000E-03 0.  1.
         11   -1    0    0    0    0 -0.00000000000E+00 -0.00000000000E+00 -0.45593999997E+02  0.45594000000E+02  0.51100000000E-03 0. -1.
    9900012    2    1    2    0    0 -0.31577125497E+02  0.17624209772E+02  0.18585962279E+02  0.50528860578E+02  0.30000002212E+02 0.  0.
         12    1    1    2    0    0  0.31577125497E+02 -0.17624209772E+02 -0.18585962279E+02  0.40659139422E+02  0.00000000000E+00 0. -1.
         11    1    3    3    0    0 -0.60778354653E+01  0.14489339823E+02  0.18875658161E+02  0.24559550560E+02  0.51100000000E-03 0. -1.
        -11    1    3    3    0    0 -0.85566215292E+01 -0.71502986579E+00 -0.37290778790E+00  0.85945389744E+01  0.51100000000E-03 0.  1.
         12    1    3    3    0    0 -0.16942668503E+02  0.38498998140E+01  0.83211906161E-01  0.17374771043E+02  0.00000000000E+00 0. -1.
</event>
<event>
 7    1  0.3004200E-011  0.5052886E+02  0.7816164E-02  0.1300439E+00
        -11   -1    0    0    0    0  0.00000000000E+00  0.00000000000E+00  0.45593999997E+02  0.45594000000E+02  0.51100000000E-03 0.  1.
         11   -1    0    0    0    0 -0.00000000000E+00 -0.00000000000E+00 -0.45593999997E+02  0.45594000000E+02  0.51100000000E-03 0. -1.
    9900012    2    1    2    0    0 -0.36669032463E+02 -0.64045789959E+01  0.16356328514E+02  0.50528855194E+02  0.29999985847E+02 0.  0.
         12    1    1    2    0    0  0.36669032463E+02  0.64045789959E+01 -0.16356328514E+02  0.40659144806E+02  0.00000000000E+00 0. -1.
         11    1    3    3    0    0 -0.55484910271E+01  0.41561579085E+01  0.75425850669E+01  0.10244510286E+02  0.51100000000E-03 0. -1.
        -11    1    3    3    0    0 -0.16283698887E+02 -0.14140822756E+02 -0.18796300178E+01  0.21648434745E+02  0.51100000000E-03 0.  1.
        -12    1    3    3    0    0 -0.14836842550E+02  0.35800858514E+01  0.10693373465E+02  0.18635910163E+02  0.00000000000E+00 0.  1.
</event>
<event>
 7    1  0.3004200E-011  0.5052887E+02  0.7816164E-02  0.1300439E+00
        -11   -1    0    0    0    0  0.00000000000E+00  0.00000000000E+00  0.45593999997E+02  0.45594000000E+02  0.51100000000E-03 0. -1.
         11   -1    0    0    0    0 -0.00000000000E+00 -0.00000000000E+00 -0.45593999997E+02  0.45594000000E+02  0.51100000000E-03 0.  1.
    9900012    2    1    2    0    0  0.28205837881E+02  0.56670182879E+01  0.28731169560E+02  0.50528874442E+02  0.30000044354E+02 0.  0.
         12    1    1    2    0    0 -0.28205837881E+02 -0.56670182879E+01 -0.28731169560E+02  0.40659125558E+02  0.00000000000E+00 0. -1.
         11    1    3    3    0    0  0.83652938137E+01  0.11323972030E+02  0.14819227232E+02  0.20440645272E+02  0.51100000000E-03 0. -1.
        -11    1    3    3    0    0  0.80007910750E+01 -0.92811919796E+01  0.12698823788E+02  0.17646906478E+02  0.51100000000E-03 0.  1.
        -12    1    3    3    0    0  0.11839752992E+02  0.36242382371E+01  0.12131185403E+01  0.12441322692E+02  0.00000000000E+00 0.  1.
</event>
<event>
 7    1  0.3004200E-011  0.5052887E+02  0.7816164E-02  0.1300439E+00
        -11   -1    0    0    0    0  0.00000000000E+00  0.00000000000E+00  0.45593999997E+02  0.45594000000E+02  0.51100000000E-03 0. -1.
         11   -1    0    0    0    0 -0.00000000000E+00 -0.00000000000E+00 -0.45593999997E+02  0.45594000000E+02  0.51100000000E-03 0.  1.
    9900012    2    1    2    0    0 -0.50871491642E+01  0.12719699768E+02 -0.38281785983E+02  0.50528868346E+02  0.30000025824E+02 0.  0.
         12    1    1    2    0    0  0.50871491642E+01 -0.12719699768E+02  0.38281785983E+02  0.40659131654E+02  0.00000000000E+00 0. -1.
         11    1    3    3    0    0  0.10979685147E+02  0.83042508451E+01 -0.13694968873E+02  0.19418193549E+02  0.51100000000E-03 0. -1.
        -11    1    3    3    0    0 -0.84765574396E+01 -0.24520568839E+01 -0.11157454464E+02  0.14225097517E+02  0.51100000000E-03 0.  1.
         12    1    3    3    0    0 -0.75902768711E+01  0.68675058065E+01 -0.13429362646E+02  0.16885577279E+02  0.00000000000E+00 0. -1.
</event>
<event>
 7    1  0.3004200E-011  0.5052885E+02  0.7816164E-02  0.1300439E+00
        -11   -1    0    0    0    0  0.00000000000E+00  0.00000000000E+00  0.45593999997E+02  0.45594000000E+02  0.51100000000E-03 0.  1.
         11   -1    0    0    0    0 -0.00000000000E+00 -0.00000000000E+00 -0.45593999997E+02  0.45594000000E+02  0.51100000000E-03 0. -1.
    9900012    2    1    2    0    0 -0.64016652671E+01 -0.15003413153E+02  0.37243556598E+02  0.50528853028E+02  0.29999979263E+02 0.  0.
         12    1    1    2    0    0  0.64016652671E+01  0.15003413153E+02 -0.37243556598E+02  0.40659146972E+02  0.00000000000E+00 0. -1.
         11    1    3    3    0    0  0.14101220781E+01 -0.15728357072E+02  0.60188916261E+01  0.16899607011E+02  0.51100000000E-03 0. -1.
        -11    1    3    3    0    0  0.42925094643E-01  0.23902676086E+01  0.17999042358E+02  0.18157112872E+02  0.51100000000E-03 0.  1.
        -12    1    3    3    0    0 -0.78547124399E+01 -0.16653236899E+01  0.13225622614E+02  0.15472133145E+02  0.00000000000E+00 0.  1.
</event>
<event>
 7    1  0.3004200E-011  0.5052887E+02  0.7816164E-02  0.1300439E+00
        -11   -1    0    0    0    0  0.00000000000E+00  0.00000000000E+00  0.45593999997E+02  0.45594000000E+02  0.51100000000E-03 0. -1.
         11   -1    0    0    0    0 -0.00000000000E+00 -0.00000000000E+00 -0.45593999997E+02  0.45594000000E+02  0.51100000000E-03 0.  1.
    9900012    2    1    2    0    0 -0.15549863633E+02 -0.10927365274E+02 -0.35943840046E+02  0.50528865625E+02  0.30000017554E+02 0.  0.
         12    1    1    2    0    0  0.15549863633E+02  0.10927365274E+02  0.35943840046E+02  0.40659134375E+02  0.00000000000E+00 0. -1.
         11    1    3    3    0    0 -0.53064057243E+01 -0.13141181646E+02 -0.26289264130E+01  0.14413877033E+02  0.51100000000E-03 0. -1.
        -11    1    3    3    0    0 -0.10487896523E+02  0.46966107066E+00 -0.32538557883E+02  0.34190266222E+02  0.51100000000E-03 0.  1.
        -12    1    3    3    0    0  0.24443861453E+00  0.17441553013E+01 -0.77635575058E+00  0.19247223703E+01  0.00000000000E+00 0.  1.
</event>
<event>
 7    1  0.3004200E-011  0.5052884E+02  0.7816164E-02  0.1300439E+00
        -11   -1    0    0    0    0  0.00000000000E+00  0.00000000000E+00  0.45593999997E+02  0.45594000000E+02  0.51100000000E-03 0.  1.
         11   -1    0    0    0    0 -0.00000000000E+00 -0.00000000000E+00 -0.45593999997E+02  0.45594000000E+02  0.51100000000E-03 0. -1.
    9900012    2    1    2    0    0  0.25850135484E+02 -0.23948828024E+02  0.20282778974E+02  0.50528843698E+02  0.29999950905E+02 0.  0.
         12    1    1    2    0    0 -0.25850135484E+02  0.23948828024E+02 -0.20282778974E+02  0.40659156302E+02  0.00000000000E+00 0. -1.
         11    1    3    3    0    0  0.38940463081E+01 -0.18848334662E+02  0.43255718206E+01  0.19726476827E+02  0.51100000000E-03 0. -1.
        -11    1    3    3    0    0  0.12601057796E+02 -0.71512847346E+01  0.15495448411E+02  0.21214062615E+02  0.51100000000E-03 0.  1.
         12    1    3    3    0    0  0.93550313802E+01  0.20507913721E+01  0.46175874260E+00  0.95883042564E+01  0.00000000000E+00 0. -1.
</event>
<event>
 7    1  0.3004200E-011  0.5052886E+02  0.7816164E-02  0.1300439E+00
        -11   -1    0    0    0    0  0.00000000000E+00  0.00000000000E+00  0.45593999997E+02  0.45594000000E+02  0.51100000000E-03 0.  1.
         11   -1    0    0    0    0 -0.00000000000E+00 -0.00000000000E+00 -0.45593999997E+02  0.45594000000E+02  0.51100000000E-03 0. -1.
    9900012    2    1    2    0    0  0.12794635608E+02  0.70891196795E+01  0.37936888708E+02  0.50528857818E+02  0.29999993822E+02 0.  0.
         12    1    1    2    0    0 -0.12794635608E+02 -0.70891196795E+01 -0.37936888708E+02  0.40659142182E+02  0.00000000000E+00 0. -1.
         11    1    3    3    0    0  0.17793678051E+02 -0.18207301179E+01  0.22922927174E+02  0.29075601924E+02  0.51100000000E-03 0. -1.
        -11    1    3    3    0    0 -0.13373416632E+01  0.26440587668E+01  0.13776111488E+02  0.14091159550E+02  0.51100000000E-03 0.  1.
         12    1    3    3    0    0 -0.36617007798E+01  0.62657910306E+01  0.12378500465E+01  0.73620963439E+01  0.00000000000E+00 0. -1.
</event>
<event>
 7    1  0.3004200E-011  0.5052886E+02  0.7816164E-02  0.1300439E+00
        -11   -1    0    0    0    0  0.00000000000E+00  0.00000000000E+00  0.45593999997E+02  0.45594000000E+02  0.51100000000E-03 0.  1.
         11   -1    0    0    0    0 -0.00000000000E+00 -0.00000000000E+00 -0.45593999997E+02  0.45594000000E+02  0.51100000000E-03 0. -1.
    9900012    2    1    2    0    0  0.18484728972E+02  0.16247159160E+02  0.32365265680E+02  0.50528858242E+02  0.29999995114E+02 0.  0.
         12    1    1    2    0    0 -0.18484728972E+02 -0.16247159160E+02 -0.32365265680E+02  0.40659141758E+02  0.00000000000E+00 0. -1.
         11    1    3    3    0    0 -0.67843128702E+01  0.29298614655E+01  0.56227749944E+01  0.92858272775E+01  0.51100000000E-03 0. -1.
        -11    1    3    3    0    0  0.14438035420E+02  0.14544887269E+02  0.17168953417E+02  0.26735436674E+02  0.51100000000E-03 0.  1.
         12    1    3    3    0    0  0.10831006422E+02 -0.12275895748E+01  0.95735372690E+01  0.14507594291E+02  0.00000000000E+00 0. -1.
</event>
<event>
 7    1  0.3004200E-011  0.5052887E+02  0.7816164E-02  0.1300439E+00
        -11   -1    0    0    0    0  0.00000000000E+00  0.00000000000E+00  0.45593999997E+02  0.45594000000E+02  0.51100000000E-03 0. -1.
         11   -1    0    0    0    0 -0.00000000000E+00 -0.00000000000E+00 -0.45593999997E+02  0.45594000000E+02  0.51100000000E-03 0.  1.
    9900012    2    1    2    0    0 -0.11372133313E+02 -0.36840462093E+02 -0.12908121699E+02  0.50528872253E+02  0.30000037700E+02 0.  0.
         12    1    1    2    0    0  0.11372133313E+02  0.36840462093E+02  0.12908121699E+02  0.40659127747E+02  0.00000000000E+00 0. -1.
         11    1    3    3    0    0  0.15173830004E+01 -0.96786386633E+01  0.75275477505E+01  0.12354856249E+02  0.51100000000E-03 0. -1.
        -11    1    3    3    0    0 -0.36977249334E+01 -0.19025364715E+02 -0.88940171411E+01  0.21324662093E+02  0.51100000000E-03 0.  1.
         12    1    3    3    0    0 -0.91917913797E+01 -0.81364587152E+01 -0.11541652309E+02  0.16849353911E+02  0.00000000000E+00 0. -1.
</event>
<event>
 7    1  0.3004200E-011  0.5052886E+02  0.7816164E-02  0.1300439E+00
        -11   -1    0    0    0    0  0.00000000000E+00  0.00000000000E+00  0.45593999997E+02  0.45594000000E+02  0.51100000000E-03 0.  1.
         11   -1    0    0    0    0 -0.00000000000E+00 -0.00000000000E+00 -0.45593999997E+02  0.45594000000E+02  0.51100000000E-03 0. -1.
    9900012    2    1    2    0    0  0.12045007606E+02  0.82747111979E+01  0.37942223263E+02  0.50528863760E+02  0.30000011884E+02 0.  0.
         12    1    1    2    0    0 -0.12045007606E+02 -0.82747111979E+01 -0.37942223263E+02  0.40659136240E+02  0.00000000000E+00 0. -1.
         11    1    3    3    0    0  0.12552495021E+02  0.17201143977E+01  0.23390896577E+01  0.12883914990E+02  0.51100000000E-03 0. -1.
        -11    1    3    3    0    0  0.17864267870E+01 -0.23696014612E+01  0.10170064867E+02  0.10594175353E+02  0.51100000000E-03 0.  1.
         12    1    3    3    0    0 -0.22939142015E+01  0.89241982615E+01  0.25433068739E+02  0.27050773417E+02  0.00000000000E+00 0. -1.
</event>
<event>
 7    1  0.3004200E-011  0.5052886E+02  0.7816164E-02  0.1300439E+00
        -11   -1    0    0    0    0  0.00000000000E+00  0.00000000000E+00  0.45593999997E+02  0.45594000000E+02  0.51100000000E-03 0.  1.
         11   -1    0    0    0    0 -0.00000000000E+00 -0.00000000000E+00 -0.45593999997E+02  0.45594000000E+02  0.51100000000E-03 0. -1.
    9900012    2    1    2    0    0  0.81266239264E+01 -0.64146251399E+01  0.39318904998E+02  0.50528859301E+02  0.29999998332E+02 0.  0.
         12    1    1    2    0    0 -0.81266239264E+01  0.64146251399E+01 -0.39318904998E+02  0.40659140699E+02  0.00000000000E+00 0. -1.
         11    1    3    3    0    0  0.12069230534E+02 -0.39214548731E+01  0.28342667926E+01  0.13002968989E+02  0.51100000000E-03 0. -1.
        -11    1    3    3    0    0 -0.40720812278E+01  0.16875343432E+01  0.22561035385E+02  0.22987603955E+02  0.51100000000E-03 0.  1.
         12    1    3    3    0    0  0.12947462006E+00 -0.41807046100E+01  0.13923602820E+02  0.14538286357E+02  0.00000000000E+00 0. -1.
</event>
<event>
 7    1  0.3004200E-011  0.5052885E+02  0.7816164E-02  0.1300439E+00
        -11   -1    0    0    0    0  0.00000000000E+00  0.00000000000E+00  0.45593999997E+02  0.45594000000E+02  0.51100000000E-03 0. -1.
         11   -1    0    0    0    0 -0.00000000000E+00 -0.00000000000E+00 -0.45593999997E+02  0.45594000000E+02  0.51100000000E-03 0.  1.
    9900012    2    1    2    0    0 -0.10391946928E+02  0.38317240479E+02 -0.87728418097E+01  0.50528853030E+02  0.29999979270E+02 0.  0.
         12    1    1    2    0    0  0.10391946928E+02 -0.38317240479E+02  0.87728418097E+01  0.40659146970E+02  0.00000000000E+00 0. -1.
         11    1    3    3    0    0  0.41827444984E+01  0.17464522472E+02 -0.15528372426E+01  0.18025432047E+02  0.51100000000E-03 0. -1.
        -11    1    3    3    0    0 -0.15040426588E+02  0.24097138073E+02 -0.62497050820E+01  0.29085138974E+02  0.51100000000E-03 0.  1.
        -12    1    3    3    0    0  0.46573516208E+00 -0.32444200657E+01 -0.97029948513E+00  0.34182820092E+01  0.00000000000E+00 0.  1.
</event>
<event>
 7    1  0.3004200E-011  0.5052885E+02  0.7816164E-02  0.1300439E+00
        -11   -1    0    0    0    0  0.00000000000E+00  0.00000000000E+00  0.45593999997E+02  0.45594000000E+02  0.51100000000E-03 0. -1.
         11   -1    0    0    0    0 -0.00000000000E+00 -0.00000000000E+00 -0.45593999997E+02  0.45594000000E+02  0.51100000000E-03 0.  1.
    9900012    2    1    2    0    0  0.40072496108E+02 -0.68407666073E+01  0.75180068412E+00  0.50528852980E+02  0.29999979119E+02 0.  0.
         12    1    1    2    0    0 -0.40072496108E+02  0.68407666073E+01 -0.75180068412E+00  0.40659147020E+02  0.00000000000E+00 0. -1.
         11    1    3    3    0    0  0.10921592284E+02 -0.31724611856E+01  0.10231485276E+02  0.15298005726E+02  0.51100000000E-03 0. -1.
        -11    1    3    3    0    0  0.22354766033E+02 -0.66375157153E+01 -0.13344713851E+02  0.26867704913E+02  0.51100000000E-03 0.  1.
        -12    1    3    3    0    0  0.67961377910E+01  0.29692102935E+01  0.38650292590E+01  0.83631423409E+01  0.00000000000E+00 0.  1.
</event>
<event>
 7    1  0.3868274E-011  0.5052887E+02  0.7816164E-02  0.1300439E+00
        -11   -1    0    0    0    0  0.00000000000E+00  0.00000000000E+00  0.45593999997E+02  0.45594000000E+02  0.51100000000E-03 0.  1.
         11   -1    0    0    0    0 -0.00000000000E+00 -0.00000000000E+00 -0.45593999997E+02  0.45594000000E+02  0.51100000000E-03 0. -1.
    9900012    2    1    2    0    0  0.38987736331E+02  0.63961209976E+00  0.11520079244E+02  0.50528869246E+02  0.30000028562E+02 0.  0.
         12    1    1    2    0    0 -0.38987736331E+02 -0.63961209976E+00 -0.11520079244E+02  0.40659130754E+02  0.00000000000E+00 0. -1.
         11    1    3    3    0    0  0.41254128174E+01  0.36076227913E+01 -0.62330195439E+01  0.82996690304E+01  0.51100000000E-03 0. -1.
        -11    1    3    3    0    0  0.32090865600E+02  0.23394340024E+01  0.13544632424E+02  0.34910652732E+02  0.51100000000E-03 0.  1.
         12    1    3    3    0    0  0.27714579139E+01 -0.53074446939E+01  0.42084663636E+01  0.73185474844E+01  0.00000000000E+00 0. -1.
</event>
<event>
 7    1  0.3004200E-011  0.5052886E+02  0.7816164E-02  0.1300439E+00
        -11   -1    0    0    0    0  0.00000000000E+00  0.00000000000E+00  0.45593999997E+02  0.45594000000E+02  0.51100000000E-03 0. -1.
         11   -1    0    0    0    0 -0.00000000000E+00 -0.00000000000E+00 -0.45593999997E+02  0.45594000000E+02  0.51100000000E-03 0.  1.
    9900012    2    1    2    0    0 -0.16112988860E+02 -0.18168035821E+02 -0.32610727059E+02  0.50528862590E+02  0.30000008329E+02 0.  0.
         12    1    1    2    0    0  0.16112988860E+02  0.18168035821E+02  0.32610727059E+02  0.40659137410E+02  0.00000000000E+00 0. -1.
         11    1    3    3    0    0 -0.75790961261E+01  0.33653686914E+01  0.80376553118E+00  0.83315331007E+01  0.51100000000E-03 0. -1.
        -11    1    3    3    0    0 -0.90867811111E+01 -0.21162220381E+02 -0.34159509283E+02  0.41198073221E+02  0.51100000000E-03 0.  1.
        -12    1    3    3    0    0  0.55288837682E+00 -0.37118413157E+00  0.74501669313E+00  0.99925626833E+00  0.00000000000E+00 0.  1.
</event>
<event>
 7    1  0.3004200E-011  0.5052884E+02  0.7816164E-02  0.1300439E+00
        -11   -1    0    0    0    0  0.00000000000E+00  0.00000000000E+00  0.45593999997E+02  0.45594000000E+02  0.51100000000E-03 0.  1.
         11   -1    0    0    0    0 -0.00000000000E+00 -0.00000000000E+00 -0.45593999997E+02  0.45594000000E+02  0.51100000000E-03 0. -1.
    9900012    2    1    2    0    0 -0.19532609737E+02 -0.31746339886E+02  0.16242372669E+02  0.50528836098E+02  0.29999927805E+02 0.  0.
         12    1    1    2    0    0  0.19532609737E+02  0.31746339886E+02 -0.16242372669E+02  0.40659163902E+02  0.00000000000E+00 0. -1.
         11    1    3    3    0    0  0.52142110853E+01  0.20685127806E+00 -0.25728898055E+00  0.52246514309E+01  0.51100000000E-03 0. -1.
        -11    1    3    3    0    0 -0.20062529555E+02 -0.30119916386E+02  0.17462273999E+02  0.40182651340E+02  0.51100000000E-03 0.  1.
        -12    1    3    3    0    0 -0.46842912675E+01 -0.18332747772E+01 -0.96261234925E+00  0.51215333272E+01  0.00000000000E+00 0.  1.
</event>
<event>
 7    1  0.3004200E-011  0.5052879E+02  0.7816164E-02  0.1300439E+00
        -11   -1    0    0    0    0  0.00000000000E+00  0.00000000000E+00  0.45593999997E+02  0.45594000000E+02  0.51100000000E-03 0.  1.
         11   -1    0    0    0    0 -0.00000000000E+00 -0.00000000000E+00 -0.45593999997E+02  0.45594000000E+02  0.51100000000E-03 0. -1.
    9900012    2    1    2    0    0  0.14183275455E+02  0.22048726995E+02 -0.31078283112E+02  0.50528790146E+02  0.29999788128E+02 0.  0.
         12    1    1    2    0    0 -0.14183275455E+02 -0.22048726995E+02  0.31078283112E+02  0.40659209854E+02  0.00000000000E+00 0. -1.
         11    1    3    3    0    0  0.20269154575E+02  0.11363152447E+02 -0.27779485902E+02  0.36216842739E+02  0.51100000000E-03 0.  1.
        -11    1    3    3    0    0 -0.61059929328E+01  0.51015614720E+01 -0.35709233837E+01  0.87212713077E+01  0.51100000000E-03 0. -1.
        -12    1    3    3    0    0  0.20113812552E-01  0.55840130762E+01  0.27212617365E+00  0.55906761000E+01  0.00000000000E+00 0.  1.
</event>
<event>
 7    1  0.3004200E-011  0.5052889E+02  0.7816164E-02  0.1300439E+00
        -11   -1    0    0    0    0  0.00000000000E+00  0.00000000000E+00  0.45593999997E+02  0.45594000000E+02  0.51100000000E-03 0.  1.
         11   -1    0    0    0    0 -0.00000000000E+00 -0.00000000000E+00 -0.45593999997E+02  0.45594000000E+02  0.51100000000E-03 0. -1.
    9900012    2    1    2    0    0  0.23790754586E+02 -0.22921614910E+02  0.23701530182E+02  0.50528893187E+02  0.30000101331E+02 0.  0.
         12    1    1    2    0    0 -0.23790754586E+02  0.22921614910E+02 -0.23701530182E+02  0.40659106813E+02  0.00000000000E+00 0. -1.
         11    1    3    3    0    0  0.21942181356E+01 -0.31896818273E+01 -0.39554926914E+01  0.55348519473E+01  0.51100000000E-03 0. -1.
        -11    1    3    3    0    0  0.85082141757E+01 -0.21929114332E+01  0.19938360684E+02  0.21788455568E+02  0.51100000000E-03 0.  1.
        -12    1    3    3    0    0  0.13088322275E+02 -0.17539021649E+02  0.77186621894E+01  0.23205585672E+02  0.00000000000E+00 0.  1.
</event>
<event>
 7    1  0.3004200E-011  0.5052888E+02  0.7816164E-02  0.1300439E+00
        -11   -1    0    0    0    0  0.00000000000E+00  0.00000000000E+00  0.45593999997E+02  0.45594000000E+02  0.51100000000E-03 0.  1.
         11   -1    0    0    0    0 -0.00000000000E+00 -0.00000000000E+00 -0.45593999997E+02  0.45594000000E+02  0.51100000000E-03 0. -1.
    9900012    2    1    2    0    0 -0.27197915775E+02 -0.22874442581E+02  0.19753416974E+02  0.50528877677E+02  0.30000054188E+02 0.  0.
         12    1    1    2    0    0  0.27197915775E+02  0.22874442581E+02 -0.19753416974E+02  0.40659122323E+02  0.00000000000E+00 0. -1.
         11    1    3    3    0    0 -0.88777073590E+01 -0.14115424819E+01 -0.15880722601E+01  0.91284234068E+01  0.51100000000E-03 0. -1.
        -11    1    3    3    0    0 -0.98557720712E+01 -0.22711071240E+02  0.21578142691E+02  0.32841212558E+02  0.51100000000E-03 0.  1.
        -12    1    3    3    0    0 -0.84644363450E+01  0.12481711410E+01 -0.23665345730E+00  0.85592417126E+01  0.00000000000E+00 0.  1.
</event>
<event>
 7    1  0.3004200E-011  0.5052885E+02  0.7816164E-02  0.1300439E+00
        -11   -1    0    0    0    0  0.00000000000E+00  0.00000000000E+00  0.45593999997E+02  0.45594000000E+02  0.51100000000E-03 0.  1.
         11   -1    0    0    0    0 -0.00000000000E+00 -0.00000000000E+00 -0.45593999997E+02  0.45594000000E+02  0.51100000000E-03 0. -1.
    9900012    2    1    2    0    0  0.29092664199E+02  0.20570382131E+02  0.19586805190E+02  0.50528847663E+02  0.29999962956E+02 0.  0.
         12    1    1    2    0    0 -0.29092664199E+02 -0.20570382131E+02 -0.19586805190E+02  0.40659152337E+02  0.00000000000E+00 0. -1.
         11    1    3    3    0    0  0.22824672807E+02  0.11758358711E+02  0.90094948787E+01  0.27210212909E+02  0.51100000000E-03 0. -1.
        -11    1    3    3    0    0 -0.28343072149E+01  0.65165368179E+00  0.10705251843E+02  0.11093257736E+02  0.51100000000E-03 0.  1.
         12    1    3    3    0    0  0.91022986066E+01  0.81603697379E+01 -0.12794153223E+00  0.12225377017E+02  0.00000000000E+00 0. -1.
</event>
<event>
 7    1  0.3004200E-011  0.5052886E+02  0.7816164E-02  0.1300439E+00
        -11   -1    0    0    0    0  0.00000000000E+00  0.00000000000E+00  0.45593999997E+02  0.45594000000E+02  0.51100000000E-03 0.  1.
         11   -1    0    0    0    0 -0.00000000000E+00 -0.00000000000E+00 -0.45593999997E+02  0.45594000000E+02  0.51100000000E-03 0. -1.
    9900012    2    1    2    0    0 -0.39893438900E+02  0.56716447148E+01 -0.54324650897E+01  0.50528859601E+02  0.29999999242E+02 0.  0.
         12    1    1    2    0    0  0.39893438900E+02 -0.56716447148E+01  0.54324650897E+01  0.40659140399E+02  0.00000000000E+00 0. -1.
         11    1    3    3    0    0  0.38881438141E+01  0.23734638641E+01  0.42677284501E+00  0.45752735826E+01  0.51100000000E-03 0. -1.
        -11    1    3    3    0    0 -0.15924944071E+02  0.62501658670E+01  0.92020530397E+00  0.17132285169E+02  0.51100000000E-03 0.  1.
         12    1    3    3    0    0 -0.27856638643E+02 -0.29519850163E+01 -0.67794432387E+01  0.28821300849E+02  0.00000000000E+00 0. -1.
</event>
<event>
 7    1  0.3004200E-011  0.5052886E+02  0.7816164E-02  0.1300439E+00
        -11   -1    0    0    0    0  0.00000000000E+00  0.00000000000E+00  0.45593999997E+02  0.45594000000E+02  0.51100000000E-03 0. -1.
         11   -1    0    0    0    0 -0.00000000000E+00 -0.00000000000E+00 -0.45593999997E+02  0.45594000000E+02  0.51100000000E-03 0.  1.
    9900012    2    1    2    0    0  0.32186993252E+02 -0.18280261569E+02 -0.16822453326E+02  0.50528862853E+02  0.30000009127E+02 0.  0.
         12    1    1    2    0    0 -0.32186993252E+02  0.18280261569E+02  0.16822453326E+02  0.40659137147E+02  0.00000000000E+00 0. -1.
         11    1    3    3    0    0 -0.36573334889E+01  0.28667467059E+01 -0.20632795250E+01  0.50844318841E+01  0.51100000000E-03 0. -1.
        -11    1    3    3    0    0  0.28283520612E+02 -0.21039562447E+02 -0.10577381081E+02  0.36803555765E+02  0.51100000000E-03 0.  1.
         12    1    3    3    0    0  0.75608061290E+01 -0.10744582802E+00 -0.41817927206E+01  0.86408752036E+01  0.00000000000E+00 0. -1.
</event>
<event>
 7    1  0.3004200E-011  0.5052886E+02  0.7816164E-02  0.1300439E+00
        -11   -1    0    0    0    0  0.00000000000E+00  0.00000000000E+00  0.45593999997E+02  0.45594000000E+02  0.51100000000E-03 0.  1.
         11   -1    0    0    0    0 -0.00000000000E+00 -0.00000000000E+00 -0.45593999997E+02  0.45594000000E+02  0.51100000000E-03 0. -1.
    9900012    2    1    2    0    0  0.38962160293E+02  0.69739557806E+01  0.92994577737E+01  0.50528857009E+02  0.29999991363E+02 0.  0.
         12    1    1    2    0    0 -0.38962160293E+02 -0.69739557806E+01 -0.92994577737E+01  0.40659142991E+02  0.00000000000E+00 0. -1.
         11    1    3    3    0    0 -0.26479318119E+01  0.19935111970E+01  0.44351340852E+01  0.55367900798E+01  0.51100000000E-03 0. -1.
        -11    1    3    3    0    0  0.27828357142E+02  0.10602993675E+02  0.43747054857E+01  0.30099484787E+02  0.51100000000E-03 0.  1.
        -12    1    3    3    0    0  0.13781734963E+02 -0.56225490913E+01  0.48961820270E+00  0.14892582142E+02  0.00000000000E+00 0.  1.
</event>
<event>
 7    1  0.3004200E-011  0.5052886E+02  0.7816164E-02  0.1300439E+00
        -11   -1    0    0    0    0  0.00000000000E+00  0.00000000000E+00  0.45593999997E+02  0.45594000000E+02  0.51100000000E-03 0. -1.
         11   -1    0    0    0    0 -0.00000000000E+00 -0.00000000000E+00 -0.45593999997E+02  0.45594000000E+02  0.51100000000E-03 0.  1.
    9900012    2    1    2    0    0  0.24004462514E+02  0.30663606738E+02  0.11691666390E+02  0.50528855128E+02  0.29999985647E+02 0.  0.
         12    1    1    2    0    0 -0.24004462514E+02 -0.30663606738E+02 -0.11691666390E+02  0.40659144872E+02  0.00000000000E+00 0. -1.
         11    1    3    3    0    0  0.88343777710E+01  0.21259416068E+02  0.17889343304E+02  0.29155404409E+02  0.51100000000E-03 0. -1.
        -11    1    3    3    0    0  0.12375114301E+02  0.67082564248E+01 -0.19709451216E-01  0.14076382595E+02  0.51100000000E-03 0.  1.
         12    1    3    3    0    0  0.27949704421E+01  0.26959342447E+01 -0.61779674633E+01  0.72970681236E+01  0.00000000000E+00 0. -1.
</event>
<event>
 7    1  0.3004200E-011  0.5052886E+02  0.7816164E-02  0.1300439E+00
        -11   -1    0    0    0    0  0.00000000000E+00  0.00000000000E+00  0.45593999997E+02  0.45594000000E+02  0.51100000000E-03 0. -1.
         11   -1    0    0    0    0 -0.00000000000E+00 -0.00000000000E+00 -0.45593999997E+02  0.45594000000E+02  0.51100000000E-03 0.  1.
    9900012    2    1    2    0    0 -0.28472488220E+02  0.15939234474E+02 -0.24257448540E+02  0.50528860919E+02  0.30000003251E+02 0.  0.
         12    1    1    2    0    0  0.28472488220E+02 -0.15939234474E+02  0.24257448540E+02  0.40659139081E+02  0.00000000000E+00 0. -1.
         11    1    3    3    0    0 -0.13539136623E+02  0.15217561919E+02 -0.57685333497E+01  0.21169751735E+02  0.51100000000E-03 0.  1.
        -11    1    3    3    0    0 -0.82825028873E+01 -0.73714205399E+01 -0.47006856787E+01  0.12043012122E+02  0.51100000000E-03 0. -1.
         12    1    3    3    0    0 -0.66508487100E+01  0.80930930952E+01 -0.13788229512E+02  0.17316097062E+02  0.00000000000E+00 0. -1.
</event>
<event>
 7    1  0.3004200E-011  0.5052887E+02  0.7816164E-02  0.1300439E+00
        -11   -1    0    0    0    0  0.00000000000E+00  0.00000000000E+00  0.45593999997E+02  0.45594000000E+02  0.51100000000E-03 0.  1.
         11   -1    0    0    0    0 -0.00000000000E+00 -0.00000000000E+00 -0.45593999997E+02  0.45594000000E+02  0.51100000000E-03 0. -1.
    9900012    2    1    2    0    0 -0.61227185328E+01  0.13302109482E+02  0.37930610274E+02  0.50528868250E+02  0.30000025532E+02 0.  0.
         12    1    1    2    0    0  0.61227185328E+01 -0.13302109482E+02 -0.37930610274E+02  0.40659131750E+02  0.00000000000E+00 0. -1.
         11    1    3    3    0    0 -0.34646676675E+01  0.84934172743E+01 -0.63428230405E+00  0.91948014304E+01  0.51100000000E-03 0. -1.
        -11    1    3    3    0    0 -0.77114877881E+00  0.91942828491E+01  0.31374083250E+02  0.32702639154E+02  0.51100000000E-03 0.  1.
         12    1    3    3    0    0 -0.18869020865E+01 -0.43855906412E+01  0.71908093279E+01  0.86314276656E+01  0.00000000000E+00 0. -1.
</event>
<event>
 7    1  0.3004200E-011  0.5052888E+02  0.7816164E-02  0.1300439E+00
        -11   -1    0    0    0    0  0.00000000000E+00  0.00000000000E+00  0.45593999997E+02  0.45594000000E+02  0.51100000000E-03 0.  1.
         11   -1    0    0    0    0 -0.00000000000E+00 -0.00000000000E+00 -0.45593999997E+02  0.45594000000E+02  0.51100000000E-03 0. -1.
    9900012    2    1    2    0    0 -0.15090078523E+02 -0.22614678362E+01  0.37687392572E+02  0.50528877217E+02  0.30000052788E+02 0.  0.
         12    1    1    2    0    0  0.15090078523E+02  0.22614678362E+01 -0.37687392572E+02  0.40659122783E+02  0.00000000000E+00 0. -1.
         11    1    3    3    0    0  0.14495621311E+00  0.37911755087E+01 -0.33611945524E+01  0.50686934335E+01  0.51100000000E-03 0. -1.
        -11    1    3    3    0    0 -0.16672757173E+02 -0.56822716908E+01  0.34395927359E+02  0.38643872249E+02  0.51100000000E-03 0.  1.
         12    1    3    3    0    0  0.14377224367E+01 -0.37037165418E+00  0.66526597660E+01  0.68163115341E+01  0.00000000000E+00 0. -1.
</event>
<event>
 7    1  0.3004200E-011  0.5052881E+02  0.7816164E-02  0.1300439E+00
        -11   -1    0    0    0    0  0.00000000000E+00  0.00000000000E+00  0.45593999997E+02  0.45594000000E+02  0.51100000000E-03 0. -1.
         11   -1    0    0    0    0 -0.00000000000E+00 -0.00000000000E+00 -0.45593999997E+02  0.45594000000E+02  0.51100000000E-03 0.  1.
    9900012    2    1    2    0    0 -0.22269776642E+02 -0.82083621321E+01 -0.33012870631E+02  0.50528809306E+02  0.29999846367E+02 0.  0.
         12    1    1    2    0    0  0.22269776642E+02  0.82083621321E+01  0.33012870631E+02  0.40659190694E+02  0.00000000000E+00 0. -1.
         11    1    3    3    0    0 -0.11654684069E+01 -0.96014143891E+01 -0.40200623128E+01  0.10474081160E+02  0.51100000000E-03 0. -1.
        -11    1    3    3    0    0 -0.21370134423E+02  0.49740760351E+01 -0.29120818161E+02  0.36461570569E+02  0.51100000000E-03 0.  1.
        -12    1    3    3    0    0  0.26582618867E+00 -0.35810237781E+01  0.12800984308E+00  0.35931575782E+01  0.00000000000E+00 0.  1.
</event>
<event>
 7    1  0.3004200E-011  0.5052877E+02  0.7816164E-02  0.1300439E+00
        -11   -1    0    0    0    0  0.00000000000E+00  0.00000000000E+00  0.45593999997E+02  0.45594000000E+02  0.51100000000E-03 0.  1.
         11   -1    0    0    0    0 -0.00000000000E+00 -0.00000000000E+00 -0.45593999997E+02  0.45594000000E+02  0.51100000000E-03 0. -1.
    9900012    2    1    2    0    0  0.42039844671E+01 -0.33876408255E+02  0.22088195385E+02  0.50528771072E+02  0.29999730149E+02 0.  0.
         12    1    1    2    0    0 -0.42039844671E+01  0.33876408255E+02 -0.22088195385E+02  0.40659228928E+02  0.00000000000E+00 0. -1.
         11    1    3    3    0    0  0.11941778989E+02 -0.10593548957E+02  0.11640252383E+02  0.19756640421E+02  0.51100000000E-03 0. -1.
        -11    1    3    3    0    0 -0.14791742630E+01 -0.21408845691E+02  0.11181007838E+02  0.24197966172E+02  0.51100000000E-03 0.  1.
         12    1    3    3    0    0 -0.62586202589E+01 -0.18740136066E+01 -0.73306483560E+00  0.65741644789E+01  0.00000000000E+00 0. -1.
</event>
<event>
 7    1  0.3004200E-011  0.5052884E+02  0.7816164E-02  0.1300439E+00
        -11   -1    0    0    0    0  0.00000000000E+00  0.00000000000E+00  0.45593999997E+02  0.45594000000E+02  0.51100000000E-03 0. -1.
         11   -1    0    0    0    0 -0.00000000000E+00 -0.00000000000E+00 -0.45593999997E+02  0.45594000000E+02  0.51100000000E-03 0.  1.
    9900012    2    1    2    0    0  0.24435560596E+01 -0.39942274830E+02  0.71979738869E+01  0.50528842202E+02  0.29999946356E+02 0.  0.
         12    1    1    2    0    0 -0.24435560596E+01  0.39942274830E+02 -0.71979738869E+01  0.40659157798E+02  0.00000000000E+00 0. -1.
         11    1    3    3    0    0  0.29947652821E+01 -0.43998953546E+02  0.38839092638E+01  0.44271449984E+02  0.51100000000E-03 0.  1.
        -11    1    3    3    0    0 -0.55473008902E+00  0.45576156715E+01  0.23197389643E+01  0.51440038107E+01  0.51100000000E-03 0. -1.
        -12    1    3    3    0    0  0.35208665529E-02 -0.50093695531E+00  0.99432565880E+00  0.11133884073E+01  0.00000000000E+00 0.  1.
</event>
<event>
 7    1  0.3004200E-011  0.5052892E+02  0.7816164E-02  0.1300439E+00
        -11   -1    0    0    0    0  0.00000000000E+00  0.00000000000E+00  0.45593999997E+02  0.45594000000E+02  0.51100000000E-03 0.  1.
         11   -1    0    0    0    0 -0.00000000000E+00 -0.00000000000E+00 -0.45593999997E+02  0.45594000000E+02  0.51100000000E-03 0. -1.
    9900012    2    1    2    0    0  0.18661992686E+02  0.21710225212E+02  0.28871384695E+02  0.50528921014E+02  0.30000185914E+02 0.  0.
         12    1    1    2    0    0 -0.18661992686E+02 -0.21710225212E+02 -0.28871384695E+02  0.40659078986E+02  0.00000000000E+00 0. -1.
         11    1    3    3    0    0 -0.29944624834E+01 -0.12148462431E+01 -0.18870279668E+01  0.37421293093E+01  0.51100000000E-03 0. -1.
        -11    1    3    3    0    0  0.11938287442E+02  0.84683887370E+01  0.23981773019E+02  0.28095582433E+02  0.51100000000E-03 0.  1.
        -12    1    3    3    0    0  0.97181677269E+01  0.14456682718E+02  0.67766396431E+01  0.18691209272E+02  0.00000000000E+00 0.  1.
</event>
<event>
 7    1  0.3004200E-011  0.5052885E+02  0.7816164E-02  0.1300439E+00
        -11   -1    0    0    0    0  0.00000000000E+00  0.00000000000E+00  0.45593999997E+02  0.45594000000E+02  0.51100000000E-03 0. -1.
         11   -1    0    0    0    0 -0.00000000000E+00 -0.00000000000E+00 -0.45593999997E+02  0.45594000000E+02  0.51100000000E-03 0.  1.
    9900012    2    1    2    0    0  0.11045598781E+02 -0.35431003951E+02  0.16607381592E+02  0.50528850762E+02  0.29999972377E+02 0.  0.
         12    1    1    2    0    0 -0.11045598781E+02  0.35431003951E+02 -0.16607381592E+02  0.40659149238E+02  0.00000000000E+00 0. -1.
         11    1    3    3    0    0  0.12434955068E+01 -0.12545627654E+01 -0.60870093728E+01  0.63381300218E+01  0.51100000000E-03 0. -1.
        -11    1    3    3    0    0  0.12621744433E+02 -0.24350099108E+02  0.14120839238E+02  0.30848563340E+02  0.51100000000E-03 0.  1.
         12    1    3    3    0    0 -0.28196411588E+01 -0.98263420778E+01  0.85735517268E+01  0.13342157401E+02  0.00000000000E+00 0. -1.
</event>
<event>
 7    1  0.3004200E-011  0.5052885E+02  0.7816164E-02  0.1300439E+00
        -11   -1    0    0    0    0  0.00000000000E+00  0.00000000000E+00  0.45593999997E+02  0.45594000000E+02  0.51100000000E-03 0.  1.
         11   -1    0    0    0    0 -0.00000000000E+00 -0.00000000000E+00 -0.45593999997E+02  0.45594000000E+02  0.51100000000E-03 0. -1.
    9900012    2    1    2    0    0  0.14882528482E+02  0.25151210642E+02  0.28268244555E+02  0.50528847266E+02  0.29999961750E+02 0.  0.
         12    1    1    2    0    0 -0.14882528482E+02 -0.25151210642E+02 -0.28268244555E+02  0.40659152734E+02  0.00000000000E+00 0. -1.
         11    1    3    3    0    0  0.32043453343E+00  0.11668303011E+02  0.26223741937E+02  0.28704296105E+02  0.51100000000E-03 0. -1.
        -11    1    3    3    0    0  0.74469496209E+01  0.12493779289E+02  0.13250150339E+01  0.14605041755E+02  0.51100000000E-03 0.  1.
         12    1    3    3    0    0  0.71151443273E+01  0.98912834256E+00  0.71948758456E+00  0.72195094058E+01  0.00000000000E+00 0. -1.
</event>
<event>
 7    1  0.3004200E-011  0.5052886E+02  0.7816164E-02  0.1300439E+00
        -11   -1    0    0    0    0  0.00000000000E+00  0.00000000000E+00  0.45593999997E+02  0.45594000000E+02  0.51100000000E-03 0.  1.
         11   -1    0    0    0    0 -0.00000000000E+00 -0.00000000000E+00 -0.45593999997E+02  0.45594000000E+02  0.51100000000E-03 0. -1.
    9900012    2    1    2    0    0 -0.34318411612E+02 -0.19086818418E+02  0.10540649977E+02  0.50528864313E+02  0.30000013566E+02 0.  0.
         12    1    1    2    0    0  0.34318411612E+02  0.19086818418E+02 -0.10540649977E+02  0.40659135687E+02  0.00000000000E+00 0. -1.
         11    1    3    3    0    0  0.39808239160E+01 -0.19965876731E+01  0.37823576284E-01  0.44536223763E+01  0.51100000000E-03 0. -1.
        -11    1    3    3    0    0 -0.39840158019E+02 -0.16258817561E+02  0.95319953355E+01  0.44073192246E+02  0.51100000000E-03 0.  1.
        -12    1    3    3    0    0  0.15409224910E+01 -0.83141318447E+00  0.97083106539E+00  0.20020496908E+01  0.00000000000E+00 0.  1.
</event>
<event>
 7    1  0.3004200E-011  0.5052886E+02  0.7816164E-02  0.1300439E+00
        -11   -1    0    0    0    0  0.00000000000E+00  0.00000000000E+00  0.45593999997E+02  0.45594000000E+02  0.51100000000E-03 0.  1.
         11   -1    0    0    0    0 -0.00000000000E+00 -0.00000000000E+00 -0.45593999997E+02  0.45594000000E+02  0.51100000000E-03 0. -1.
    9900012    2    1    2    0    0 -0.53145387427E+01 -0.39033494854E+02  0.10065188630E+02  0.50528855091E+02  0.29999985535E+02 0.  0.
         12    1    1    2    0    0  0.53145387427E+01  0.39033494854E+02 -0.10065188630E+02  0.40659144909E+02  0.00000000000E+00 0. -1.
         11    1    3    3    0    0 -0.31743541389E+01 -0.61382997246E+01  0.73581010131E+01  0.10094399362E+02  0.51100000000E-03 0. -1.
        -11    1    3    3    0    0  0.54289128559E+01 -0.31682778076E+02 -0.44113696310E+00  0.32147567925E+02  0.51100000000E-03 0.  1.
        -12    1    3    3    0    0 -0.75690974597E+01 -0.12124170534E+01  0.31482245800E+01  0.82868878038E+01  0.00000000000E+00 0.  1.
</event>
<event>
 7    1  0.7714291E-011  0.5052886E+02  0.7816164E-02  0.1300439E+00
        -11   -1    0    0    0    0  0.00000000000E+00  0.00000000000E+00  0.45593999997E+02  0.45594000000E+02  0.51100000000E-03 0. -1.
         11   -1    0    0    0    0 -0.00000000000E+00 -0.00000000000E+00 -0.45593999997E+02  0.45594000000E+02  0.51100000000E-03 0.  1.
    9900012    2    1    2    0    0  0.36049579481E+02 -0.12242823544E+01 -0.18764190590E+02  0.50528857160E+02  0.29999991822E+02 0.  0.
         12    1    1    2    0    0 -0.36049579481E+02  0.12242823544E+01  0.18764190590E+02  0.40659142840E+02  0.00000000000E+00 0. -1.
         11    1    3    3    0    0  0.72346685448E+00  0.33891714440E+01  0.27762804347E+01  0.44404527562E+01  0.51100000000E-03 0. -1.
        -11    1    3    3    0    0  0.23329082650E+02 -0.11220192731E+02 -0.86870377200E+01  0.27305740181E+02  0.51100000000E-03 0.  1.
        -12    1    3    3    0    0  0.11997029976E+02  0.66067389329E+01 -0.12853433304E+02  0.18782664222E+02  0.00000000000E+00 0.  1.
</event>
<event>
 7    1  0.3004200E-011  0.5052887E+02  0.7816164E-02  0.1300439E+00
        -11   -1    0    0    0    0  0.00000000000E+00  0.00000000000E+00  0.45593999997E+02  0.45594000000E+02  0.51100000000E-03 0. -1.
         11   -1    0    0    0    0 -0.00000000000E+00 -0.00000000000E+00 -0.45593999997E+02  0.45594000000E+02  0.51100000000E-03 0.  1.
    9900012    2    1    2    0    0  0.10077531592E+02 -0.43648469167E+01 -0.39147881743E+02  0.50528866013E+02  0.30000018732E+02 0.  0.
         12    1    1    2    0    0 -0.10077531592E+02  0.43648469167E+01  0.39147881743E+02  0.40659133987E+02  0.00000000000E+00 0. -1.
         11    1    3    3    0    0  0.12754911680E+02 -0.13271634192E+01 -0.47123278743E+01  0.13662180242E+02  0.51100000000E-03 0. -1.
        -11    1    3    3    0    0 -0.15674055894E+01 -0.59116024950E+01 -0.71546533168E+01  0.94123784818E+01  0.51100000000E-03 0.  1.
         12    1    3    3    0    0 -0.11099744982E+01  0.28739189975E+01 -0.27280900552E+02  0.27454307289E+02  0.00000000000E+00 0. -1.
</event>
<event>
 7    1  0.3004200E-011  0.5052886E+02  0.7816164E-02  0.1300439E+00
        -11   -1    0    0    0    0  0.00000000000E+00  0.00000000000E+00  0.45593999997E+02  0.45594000000E+02  0.51100000000E-03 0.  1.
         11   -1    0    0    0    0 -0.00000000000E+00 -0.00000000000E+00 -0.45593999997E+02  0.45594000000E+02  0.51100000000E-03 0. -1.
    9900012    2    1    2    0    0  0.21167824640E+02  0.31814839919E+02  0.13889014515E+02  0.50528861258E+02  0.30000004280E+02 0.  0.
         12    1    1    2    0    0 -0.21167824640E+02 -0.31814839919E+02 -0.13889014515E+02  0.40659138742E+02  0.00000000000E+00 0. -1.
         11    1    3    3    0    0  0.29454694809E+01  0.10474154944E+01 -0.33754051314E+01  0.46006770962E+01  0.51100000000E-03 0. -1.
        -11    1    3    3    0    0  0.21498661348E+02  0.32032090582E+02  0.13737001271E+02  0.40950610142E+02  0.51100000000E-03 0.  1.
        -12    1    3    3    0    0 -0.32763061890E+01 -0.12646661574E+01  0.35274183754E+01  0.49775740205E+01  0.00000000000E+00 0.  1.
</event>
<event>
 7    1  0.3004200E-011  0.5052884E+02  0.7816164E-02  0.1300439E+00
        -11   -1    0    0    0    0  0.00000000000E+00  0.00000000000E+00  0.45593999997E+02  0.45594000000E+02  0.51100000000E-03 0. -1.
         11   -1    0    0    0    0 -0.00000000000E+00 -0.00000000000E+00 -0.45593999997E+02  0.45594000000E+02  0.51100000000E-03 0.  1.
    9900012    2    1    2    0    0  0.22719582413E+02 -0.19935769633E+02 -0.27194723913E+02  0.50528839352E+02  0.29999937693E+02 0.  0.
         12    1    1    2    0    0 -0.22719582413E+02  0.19935769633E+02  0.27194723913E+02  0.40659160648E+02  0.00000000000E+00 0. -1.
         11    1    3    3    0    0  0.99205148560E+01 -0.12914645117E+01 -0.18299952923E+02  0.20856000883E+02  0.51100000000E-03 0.  1.
        -11    1    3    3    0    0 -0.40125152965E+00 -0.11558515816E+02  0.11694013862E+01  0.11624447967E+02  0.51100000000E-03 0. -1.
         12    1    3    3    0    0  0.13200319087E+02 -0.70857893053E+01 -0.10064172377E+02  0.18048390502E+02  0.00000000000E+00 0. -1.
</event>
<event>
 7    1  0.3004200E-011  0.5052886E+02  0.7816164E-02  0.1300439E+00
        -11   -1    0    0    0    0  0.00000000000E+00  0.00000000000E+00  0.45593999997E+02  0.45594000000E+02  0.51100000000E-03 0.  1.
         11   -1    0    0    0    0 -0.00000000000E+00 -0.00000000000E+00 -0.45593999997E+02  0.45594000000E+02  0.51100000000E-03 0. -1.
    9900012    2    1    2    0    0 -0.34579925913E+02 -0.19093786610E+02  0.96344220274E+01  0.50528855259E+02  0.29999986044E+02 0.  0.
         12    1    1    2    0    0  0.34579925913E+02  0.19093786610E+02 -0.96344220274E+01  0.40659144741E+02  0.00000000000E+00 0. -1.
         11    1    3    3    0    0 -0.29628569028E+02 -0.11142352549E+02 -0.25918983060E+01  0.31760385074E+02  0.51100000000E-03 0. -1.
        -11    1    3    3    0    0 -0.76766990307E+01 -0.23932101835E+01  0.72249761247E+01  0.10810154636E+02  0.51100000000E-03 0.  1.
         12    1    3    3    0    0  0.27253421450E+01 -0.55582238774E+01  0.50013442087E+01  0.79583155487E+01  0.00000000000E+00 0. -1.
</event>
<event>
 7    1  0.3004200E-011  0.5052886E+02  0.7816164E-02  0.1300439E+00
        -11   -1    0    0    0    0  0.00000000000E+00  0.00000000000E+00  0.45593999997E+02  0.45594000000E+02  0.51100000000E-03 0.  1.
         11   -1    0    0    0    0 -0.00000000000E+00 -0.00000000000E+00 -0.45593999997E+02  0.45594000000E+02  0.51100000000E-03 0. -1.
    9900012    2    1    2    0    0  0.10817312188E+02 -0.70465685242E+00  0.39187428181E+02  0.50528864352E+02  0.30000013684E+02 0.  0.
         12    1    1    2    0    0 -0.10817312188E+02  0.70465685242E+00 -0.39187428181E+02  0.40659135648E+02  0.00000000000E+00 0. -1.
         11    1    3    3    0    0  0.15953470782E+02 -0.58121440969E+01  0.33264749243E+02  0.37347527247E+02  0.51100000000E-03 0. -1.
        -11    1    3    3    0    0 -0.50147688040E+01  0.68571100718E+01  0.70979165413E+01  0.11070152853E+02  0.51100000000E-03 0.  1.
         12    1    3    3    0    0 -0.12138979008E+00 -0.17496228274E+01 -0.11752376041E+01  0.21111842519E+01  0.00000000000E+00 0. -1.
</event>
<event>
 7    1  0.3004200E-011  0.5052886E+02  0.7816164E-02  0.1300439E+00
        -11   -1    0    0    0    0  0.00000000000E+00  0.00000000000E+00  0.45593999997E+02  0.45594000000E+02  0.51100000000E-03 0. -1.
         11   -1    0    0    0    0 -0.00000000000E+00 -0.00000000000E+00 -0.45593999997E+02  0.45594000000E+02  0.51100000000E-03 0.  1.
    9900012    2    1    2    0    0  0.10579098556E+02 -0.34182326000E+02 -0.19308459127E+02  0.50528864115E+02  0.30000012965E+02 0.  0.
         12    1    1    2    0    0 -0.10579098556E+02  0.34182326000E+02  0.19308459127E+02  0.40659135885E+02  0.00000000000E+00 0. -1.
         11    1    3    3    0    0  0.10366106697E+02 -0.16979095209E+02  0.41066968810E+01  0.20312823578E+02  0.51100000000E-03 0. -1.
        -11    1    3    3    0    0  0.99303443597E-01 -0.72440287499E+01 -0.16700422235E+02  0.18204118127E+02  0.51100000000E-03 0.  1.
         12    1    3    3    0    0  0.11368841499E+00 -0.99592020409E+01 -0.67147337736E+01  0.12011922411E+02  0.00000000000E+00 0. -1.
</event>
<event>
 7    1  0.3004200E-011  0.5052886E+02  0.7816164E-02  0.1300439E+00
        -11   -1    0    0    0    0  0.00000000000E+00  0.00000000000E+00  0.45593999997E+02  0.45594000000E+02  0.51100000000E-03 0.  1.
         11   -1    0    0    0    0 -0.00000000000E+00 -0.00000000000E+00 -0.45593999997E+02  0.45594000000E+02  0.51100000000E-03 0. -1.
    9900012    2    1    2    0    0 -0.11019792037E+02 -0.25980433271E+01  0.39050988163E+02  0.50528864222E+02  0.30000013289E+02 0.  0.
         12    1    1    2    0    0  0.11019792037E+02  0.25980433271E+01 -0.39050988163E+02  0.40659135778E+02  0.00000000000E+00 0. -1.
         11    1    3    3    0    0 -0.11836852455E+02 -0.72283810710E+01  0.44382403120E+01  0.14562230127E+02  0.51100000000E-03 0. -1.
        -11    1    3    3    0    0 -0.10263329152E+01  0.19842314635E+01  0.31167864165E+02  0.31247820574E+02  0.51100000000E-03 0.  1.
         12    1    3    3    0    0  0.18433933336E+01  0.26461062804E+01  0.34448836866E+01  0.47188135208E+01  0.00000000000E+00 0. -1.
</event>
<event>
 7    1  0.3004200E-011  0.5052886E+02  0.7816164E-02  0.1300439E+00
        -11   -1    0    0    0    0  0.00000000000E+00  0.00000000000E+00  0.45593999997E+02  0.45594000000E+02  0.51100000000E-03 0.  1.
         11   -1    0    0    0    0 -0.00000000000E+00 -0.00000000000E+00 -0.45593999997E+02  0.45594000000E+02  0.51100000000E-03 0. -1.
    9900012    2    1    2    0    0  0.99866901670E+01  0.31835008721E+02  0.23237129183E+02  0.50528856706E+02  0.29999990444E+02 0.  0.
         12    1    1    2    0    0 -0.99866901670E+01 -0.31835008721E+02 -0.23237129183E+02  0.40659143294E+02  0.00000000000E+00 0. -1.
         11    1    3    3    0    0  0.22035216841E+01 -0.30187303663E+01 -0.16201680736E+01  0.40734734177E+01  0.51100000000E-03 0. -1.
        -11    1    3    3    0    0  0.14412130790E+01  0.12996178843E+02  0.18806922951E+02  0.22905853199E+02  0.51100000000E-03 0.  1.
        -12    1    3    3    0    0  0.63419554040E+01  0.21857560244E+02  0.60503743054E+01  0.23549530089E+02  0.00000000000E+00 0.  1.
</event>
<event>
 7    1  0.3004200E-011  0.5052882E+02  0.7816164E-02  0.1300439E+00
        -11   -1    0    0    0    0  0.00000000000E+00  0.00000000000E+00  0.45593999997E+02  0.45594000000E+02  0.51100000000E-03 0.  1.
         11   -1    0    0    0    0 -0.00000000000E+00 -0.00000000000E+00 -0.45593999997E+02  0.45594000000E+02  0.51100000000E-03 0. -1.
    9900012    2    1    2    0    0  0.38446209677E+01  0.39677517913E+02  0.80051476839E+01  0.50528819885E+02  0.29999878523E+02 0.  0.
         12    1    1    2    0    0 -0.38446209677E+01 -0.39677517913E+02 -0.80051476839E+01  0.40659180115E+02  0.00000000000E+00 0. -1.
         11    1    3    3    0    0  0.39675432708E+01  0.65431717229E+01 -0.87687752869E+01  0.11638123392E+02  0.51100000000E-03 0. -1.
        -11    1    3    3    0    0 -0.25677507971E+01  0.64834366551E+01  0.82519221223E+01  0.10803819417E+02  0.51100000000E-03 0.  1.
         12    1    3    3    0    0  0.24448284940E+01  0.26650909536E+02  0.85220008485E+01  0.28086877076E+02  0.00000000000E+00 0. -1.
</event>
<event>
 7    1  0.3004200E-011  0.5052886E+02  0.7816164E-02  0.1300439E+00
        -11   -1    0    0    0    0  0.00000000000E+00  0.00000000000E+00  0.45593999997E+02  0.45594000000E+02  0.51100000000E-03 0.  1.
         11   -1    0    0    0    0 -0.00000000000E+00 -0.00000000000E+00 -0.45593999997E+02  0.45594000000E+02  0.51100000000E-03 0. -1.
    9900012    2    1    2    0    0  0.40463309072E+02  0.18887203595E+01  0.35098414043E+01  0.50528860409E+02  0.30000001698E+02 0.  0.
         12    1    1    2    0    0 -0.40463309072E+02 -0.18887203595E+01 -0.35098414043E+01  0.40659139591E+02  0.00000000000E+00 0. -1.
         11    1    3    3    0    0  0.31243712453E+01  0.59044161126E+01  0.26336545083E+01  0.71805265572E+01  0.51100000000E-03 0.  1.
        -11    1    3    3    0    0  0.35467586382E+02 -0.25624999875E+01 -0.60114411410E+01  0.36064574236E+02  0.51100000000E-03 0. -1.
        -12    1    3    3    0    0  0.18713514442E+01 -0.14531957655E+01  0.68876280370E+01  0.72837596155E+01  0.00000000000E+00 0.  1.
</event>
<event>
 7    1  0.3004200E-011  0.5052887E+02  0.7816164E-02  0.1300439E+00
        -11   -1    0    0    0    0  0.00000000000E+00  0.00000000000E+00  0.45593999997E+02  0.45594000000E+02  0.51100000000E-03 0. -1.
         11   -1    0    0    0    0 -0.00000000000E+00 -0.00000000000E+00 -0.45593999997E+02  0.45594000000E+02  0.51100000000E-03 0.  1.
    9900012    2    1    2    0    0  0.99482042220E+01 -0.31585284131E+02  0.23591688963E+02  0.50528871517E+02  0.30000035462E+02 0.  0.
         12    1    1    2    0    0 -0.99482042220E+01  0.31585284131E+02 -0.23591688963E+02  0.40659128483E+02  0.00000000000E+00 0. -1.
         11    1    3    3    0    0  0.69788851654E+01 -0.59548705550E+01  0.19207007790E+02  0.21285546035E+02  0.51100000000E-03 0. -1.
        -11    1    3    3    0    0  0.15068008481E+01 -0.71634230458E+01 -0.46094271334E+01  0.86505431788E+01  0.51100000000E-03 0.  1.
         12    1    3    3    0    0  0.14625182085E+01 -0.18466990530E+02  0.89941083066E+01  0.20592782303E+02  0.00000000000E+00 0. -1.
</event>
<event>
 7    1  0.3004200E-011  0.5052886E+02  0.7816164E-02  0.1300439E+00
        -11   -1    0    0    0    0  0.00000000000E+00  0.00000000000E+00  0.45593999997E+02  0.45594000000E+02  0.51100000000E-03 0.  1.
         11   -1    0    0    0    0 -0.00000000000E+00 -0.00000000000E+00 -0.45593999997E+02  0.45594000000E+02  0.51100000000E-03 0. -1.
    9900012    2    1    2    0    0 -0.23832366192E+02  0.12765341129E+02  0.30368237556E+02  0.50528862470E+02  0.30000007964E+02 0.  0.
         12    1    1    2    0    0  0.23832366192E+02 -0.12765341129E+02 -0.30368237556E+02  0.40659137530E+02  0.00000000000E+00 0. -1.
         11    1    3    3    0    0 -0.24989415304E+02  0.48300396376E+01  0.27542509765E+02  0.37501866681E+02  0.51100000000E-03 0.  1.
        -11    1    3    3    0    0  0.17052285051E+01 -0.20782048693E+01  0.57908463453E+00  0.27499234550E+01  0.51100000000E-03 0. -1.
         12    1    3    3    0    0 -0.54817939250E+00  0.10013506361E+02  0.22466431558E+01  0.10277072334E+02  0.00000000000E+00 0. -1.
</event>
<event>
 7    1  0.3004200E-011  0.5052886E+02  0.7816164E-02  0.1300439E+00
        -11   -1    0    0    0    0  0.00000000000E+00  0.00000000000E+00  0.45593999997E+02  0.45594000000E+02  0.51100000000E-03 0. -1.
         11   -1    0    0    0    0 -0.00000000000E+00 -0.00000000000E+00 -0.45593999997E+02  0.45594000000E+02  0.51100000000E-03 0.  1.
    9900012    2    1    2    0    0 -0.23552471179E+02 -0.11701665322E+02 -0.31008355113E+02  0.50528856419E+02  0.29999989571E+02 0.  0.
         12    1    1    2    0    0  0.23552471179E+02  0.11701665322E+02  0.31008355113E+02  0.40659143581E+02  0.00000000000E+00 0. -1.
         11    1    3    3    0    0  0.41950307917E+01 -0.80676596317E+01 -0.14776983373E+02  0.17350638407E+02  0.51100000000E-03 0. -1.
        -11    1    3    3    0    0 -0.23993874905E+02 -0.39406289427E+01 -0.16527352196E+02  0.29400475512E+02  0.51100000000E-03 0.  1.
         12    1    3    3    0    0 -0.37536270654E+01  0.30662325274E+00  0.29598045628E+00  0.37777424999E+01  0.00000000000E+00 0. -1.
</event>
<event>
 7    1  0.3004200E-011  0.5052886E+02  0.7816164E-02  0.1300439E+00
        -11   -1    0    0    0    0  0.00000000000E+00  0.00000000000E+00  0.45593999997E+02  0.45594000000E+02  0.51100000000E-03 0. -1.
         11   -1    0    0    0    0 -0.00000000000E+00 -0.00000000000E+00 -0.45593999997E+02  0.45594000000E+02  0.51100000000E-03 0.  1.
    9900012    2    1    2    0    0 -0.24615618145E+02  0.24355077811E+02 -0.21308852822E+02  0.50528859817E+02  0.29999999901E+02 0.  0.
         12    1    1    2    0    0  0.24615618145E+02 -0.24355077811E+02  0.21308852822E+02  0.40659140183E+02  0.00000000000E+00 0. -1.
         11    1    3    3    0    0  0.44893732515E+01  0.37288686739E+01  0.29088048720E+01  0.65207422754E+01  0.51100000000E-03 0. -1.
        -11    1    3    3    0    0 -0.17604790692E+02  0.10619538190E+02 -0.18712134213E+02  0.27800129743E+02  0.51100000000E-03 0.  1.
         12    1    3    3    0    0 -0.11500200704E+02  0.10006670947E+02 -0.55055234802E+01  0.16207987799E+02  0.00000000000E+00 0. -1.
</event>
<event>
 7    1  0.3004200E-011  0.5052886E+02  0.7816164E-02  0.1300439E+00
        -11   -1    0    0    0    0  0.00000000000E+00  0.00000000000E+00  0.45593999997E+02  0.45594000000E+02  0.51100000000E-03 0.  1.
         11   -1    0    0    0    0 -0.00000000000E+00 -0.00000000000E+00 -0.45593999997E+02  0.45594000000E+02  0.51100000000E-03 0. -1.
    9900012    2    1    2    0    0 -0.19366184414E+02  0.30716625793E+00  0.35749437633E+02  0.50528859073E+02  0.29999997637E+02 0.  0.
         12    1    1    2    0    0  0.19366184414E+02 -0.30716625793E+00 -0.35749437633E+02  0.40659140927E+02  0.00000000000E+00 0. -1.
         11    1    3    3    0    0 -0.42772530116E+01 -0.16707060360E+01 -0.23970615460E+01  0.51799668243E+01  0.51100000000E-03 0. -1.
        -11    1    3    3    0    0 -0.83621749530E+01  0.55118320636E+01  0.36122746571E+02  0.37485451614E+02  0.51100000000E-03 0.  1.
        -12    1    3    3    0    0 -0.67267564497E+01 -0.35339597697E+01  0.20237526083E+01  0.78634406341E+01  0.00000000000E+00 0.  1.
</event>
<event>
 7    1  0.3004200E-011  0.5052886E+02  0.7816164E-02  0.1300439E+00
        -11   -1    0    0    0    0  0.00000000000E+00  0.00000000000E+00  0.45593999997E+02  0.45594000000E+02  0.51100000000E-03 0.  1.
         11   -1    0    0    0    0 -0.00000000000E+00 -0.00000000000E+00 -0.45593999997E+02  0.45594000000E+02  0.51100000000E-03 0. -1.
    9900012    2    1    2    0    0 -0.27815777799E+00  0.16166876194E+02  0.37305767667E+02  0.50528861312E+02  0.30000004444E+02 0.  0.
         12    1    1    2    0    0  0.27815777799E+00 -0.16166876194E+02 -0.37305767667E+02  0.40659138688E+02  0.00000000000E+00 0. -1.
         11    1    3    3    0    0 -0.87654767774E+01 -0.53720573084E+00  0.24642839344E+02  0.26160881184E+02  0.51100000000E-03 0. -1.
        -11    1    3    3    0    0  0.56206980225E+01  0.11927861931E+02  0.34962437802E+01  0.13641475629E+02  0.51100000000E-03 0.  1.
        -12    1    3    3    0    0  0.28666209769E+01  0.47762199939E+01  0.91666845423E+01  0.10726504498E+02  0.00000000000E+00 0.  1.
</event>
<event>
 7    1  0.3004200E-011  0.5052887E+02  0.7816164E-02  0.1300439E+00
        -11   -1    0    0    0    0  0.00000000000E+00  0.00000000000E+00  0.45593999997E+02  0.45594000000E+02  0.51100000000E-03 0. -1.
         11   -1    0    0    0    0 -0.00000000000E+00 -0.00000000000E+00 -0.45593999997E+02  0.45594000000E+02  0.51100000000E-03 0.  1.
    9900012    2    1    2    0    0  0.38318908259E+00 -0.36613222789E+02 -0.17677395433E+02  0.50528865403E+02  0.30000016879E+02 0.  0.
         12    1    1    2    0    0 -0.38318908259E+00  0.36613222789E+02  0.17677395433E+02  0.40659134597E+02  0.00000000000E+00 0. -1.
         11    1    3    3    0    0 -0.44934540749E-01  0.24717044284E+01  0.28555893397E+01  0.37770004809E+01  0.51100000000E-03 0. -1.
        -11    1    3    3    0    0  0.77342370954E+01 -0.24438758458E+02 -0.12676711949E+02  0.28596684503E+02  0.51100000000E-03 0.  1.
         12    1    3    3    0    0 -0.73061134721E+01 -0.14646168759E+02 -0.78562728229E+01  0.18155180419E+02  0.00000000000E+00 0. -1.
</event>
<event>
 7    1  0.3004200E-011  0.5052886E+02  0.7816164E-02  0.1300439E+00
        -11   -1    0    0    0    0  0.00000000000E+00  0.00000000000E+00  0.45593999997E+02  0.45594000000E+02  0.51100000000E-03 0.  1.
         11   -1    0    0    0    0 -0.00000000000E+00 -0.00000000000E+00 -0.45593999997E+02  0.45594000000E+02  0.51100000000E-03 0. -1.
    9900012    2    1    2    0    0 -0.70423520137E+01  0.23752791727E+02  0.32239349256E+02  0.50528862317E+02  0.30000007498E+02 0.  0.
         12    1    1    2    0    0  0.70423520137E+01 -0.23752791727E+02 -0.32239349256E+02  0.40659137683E+02  0.00000000000E+00 0. -1.
         11    1    3    3    0    0 -0.78697041330E+01  0.20215267883E+02  0.33145693613E+02  0.39613461147E+02  0.51100000000E-03 0.  1.
        -11    1    3    3    0    0  0.39184555919E+01  0.50185056257E+01 -0.28491840220E+01  0.69754958815E+01  0.51100000000E-03 0. -1.
        -12    1    3    3    0    0 -0.30911034727E+01 -0.14809817816E+01  0.19428396645E+01  0.39399052880E+01  0.00000000000E+00 0.  1.
</event>
<event>
 7    1  0.3004200E-011  0.5052882E+02  0.7816164E-02  0.1300439E+00
        -11   -1    0    0    0    0  0.00000000000E+00  0.00000000000E+00  0.45593999997E+02  0.45594000000E+02  0.51100000000E-03 0.  1.
         11   -1    0    0    0    0 -0.00000000000E+00 -0.00000000000E+00 -0.45593999997E+02  0.45594000000E+02  0.51100000000E-03 0. -1.
    9900012    2    1    2    0    0  0.24296545829E+02  0.48475761655E+01  0.32238911143E+02  0.50528824829E+02  0.29999893550E+02 0.  0.
         12    1    1    2    0    0 -0.24296545829E+02 -0.48475761655E+01 -0.32238911143E+02  0.40659175171E+02  0.00000000000E+00 0. -1.
         11    1    3    3    0    0  0.11924208580E+02  0.65795041270E+01  0.31032410228E+01  0.13968061066E+02  0.51100000000E-03 0. -1.
        -11    1    3    3    0    0  0.13224553144E+01 -0.81898457838E+01  0.17033759642E+02  0.18946541368E+02  0.51100000000E-03 0.  1.
        -12    1    3    3    0    0  0.11049881935E+02  0.64579178223E+01  0.12101910478E+02  0.17614222395E+02  0.00000000000E+00 0.  1.
</event>
<event>
 7    1  0.3004200E-011  0.5052887E+02  0.7816164E-02  0.1300439E+00
        -11   -1    0    0    0    0  0.00000000000E+00  0.00000000000E+00  0.45593999997E+02  0.45594000000E+02  0.51100000000E-03 0. -1.
         11   -1    0    0    0    0 -0.00000000000E+00 -0.00000000000E+00 -0.45593999997E+02  0.45594000000E+02  0.51100000000E-03 0.  1.
    9900012    2    1    2    0    0  0.22781028571E+02  0.23772141806E+02 -0.23855296796E+02  0.50528866044E+02  0.30000018827E+02 0.  0.
         12    1    1    2    0    0 -0.22781028571E+02 -0.23772141806E+02  0.23855296796E+02  0.40659133956E+02  0.00000000000E+00 0. -1.
         11    1    3    3    0    0  0.15975311961E+02  0.21560032560E+02 -0.10984448979E+02  0.28994891203E+02  0.51100000000E-03 0. -1.
        -11    1    3    3    0    0  0.71348071597E+01 -0.47128801552E+00 -0.15924124711E+02  0.17455810886E+02  0.51100000000E-03 0.  1.
         12    1    3    3    0    0 -0.32909054900E+00  0.26833972618E+01  0.30532768943E+01  0.40781639554E+01  0.00000000000E+00 0. -1.
</event>
<event>
 7    1  0.3004200E-011  0.5052886E+02  0.7816164E-02  0.1300439E+00
        -11   -1    0    0    0    0  0.00000000000E+00  0.00000000000E+00  0.45593999997E+02  0.45594000000E+02  0.51100000000E-03 0.  1.
         11   -1    0    0    0    0 -0.00000000000E+00 -0.00000000000E+00 -0.45593999997E+02  0.45594000000E+02  0.51100000000E-03 0. -1.
    9900012    2    1    2    0    0 -0.19155345280E+02  0.95463539719E+01  0.34570300774E+02  0.50528858069E+02  0.29999994587E+02 0.  0.
         12    1    1    2    0    0  0.19155345280E+02 -0.95463539719E+01 -0.34570300774E+02  0.40659141931E+02  0.00000000000E+00 0. -1.
         11    1    3    3    0    0 -0.16734261918E+02 -0.64274494852E+01  0.14502317539E+02  0.23057858597E+02  0.51100000000E-03 0. -1.
        -11    1    3    3    0    0 -0.47304864194E+01  0.12122727001E+02  0.98844243144E+01  0.16341354166E+02  0.51100000000E-03 0.  1.
         12    1    3    3    0    0  0.23094030570E+01  0.38510764564E+01  0.10183558920E+02  0.11129645306E+02  0.00000000000E+00 0. -1.
</event>
<event>
 7    1  0.3004200E-011  0.5052886E+02  0.7816164E-02  0.1300439E+00
        -11   -1    0    0    0    0  0.00000000000E+00  0.00000000000E+00  0.45593999997E+02  0.45594000000E+02  0.51100000000E-03 0.  1.
         11   -1    0    0    0    0 -0.00000000000E+00 -0.00000000000E+00 -0.45593999997E+02  0.45594000000E+02  0.51100000000E-03 0. -1.
    9900012    2    1    2    0    0 -0.32637696723E+02  0.60095255332E+00  0.24240161699E+02  0.50528857971E+02  0.29999994287E+02 0.  0.
         12    1    1    2    0    0  0.32637696723E+02 -0.60095255332E+00 -0.24240161699E+02  0.40659142029E+02  0.00000000000E+00 0. -1.
         11    1    3    3    0    0 -0.58445034561E+01  0.97377667257E+01  0.49697312742E+01  0.12396795983E+02  0.51100000000E-03 0. -1.
        -11    1    3    3    0    0 -0.13617881200E+02 -0.11361511922E+02  0.17022573686E+02  0.24582486788E+02  0.51100000000E-03 0.  1.
        -12    1    3    3    0    0 -0.13175312068E+02  0.22246977498E+01  0.22478567384E+01  0.13549575199E+02  0.00000000000E+00 0.  1.
</event>
<event>
 7    1  0.3004200E-011  0.5052889E+02  0.7816164E-02  0.1300439E+00
        -11   -1    0    0    0    0  0.00000000000E+00  0.00000000000E+00  0.45593999997E+02  0.45594000000E+02  0.51100000000E-03 0.  1.
         11   -1    0    0    0    0 -0.00000000000E+00 -0.00000000000E+00 -0.45593999997E+02  0.45594000000E+02  0.51100000000E-03 0. -1.
    9900012    2    1    2    0    0 -0.24825356232E+02  0.21514623491E+02  0.23957996493E+02  0.50528893616E+02  0.30000102635E+02 0.  0.
         12    1    1    2    0    0  0.24825356232E+02 -0.21514623491E+02 -0.23957996493E+02  0.40659106384E+02  0.00000000000E+00 0. -1.
         11    1    3    3    0    0  0.12428207155E+01  0.79528426919E+01  0.75316502200E+01  0.11023523280E+02  0.51100000000E-03 0. -1.
        -11    1    3    3    0    0 -0.23901619445E+02  0.20123722094E+01  0.90810672508E+01  0.25647667276E+02  0.51100000000E-03 0.  1.
        -12    1    3    3    0    0 -0.21665575020E+01  0.11549408589E+02  0.73452790224E+01  0.13857703060E+02  0.00000000000E+00 0.  1.
</event>
<event>
 7    1  0.3004200E-011  0.5052885E+02  0.7816164E-02  0.1300439E+00
        -11   -1    0    0    0    0  0.00000000000E+00  0.00000000000E+00  0.45593999997E+02  0.45594000000E+02  0.51100000000E-03 0.  1.
         11   -1    0    0    0    0 -0.00000000000E+00 -0.00000000000E+00 -0.45593999997E+02  0.45594000000E+02  0.51100000000E-03 0. -1.
    9900012    2    1    2    0    0 -0.16817335839E+02 -0.30197486668E+02  0.21411565162E+02  0.50528854553E+02  0.29999983901E+02 0.  0.
         12    1    1    2    0    0  0.16817335839E+02  0.30197486668E+02 -0.21411565162E+02  0.40659145447E+02  0.00000000000E+00 0. -1.
         11    1    3    3    0    0 -0.34463319932E+01 -0.25071560433E+02  0.12327536248E+01  0.25337324809E+02  0.51100000000E-03 0. -1.
        -11    1    3    3    0    0 -0.11557940525E+02 -0.51603879950E+01  0.14587393739E+02  0.19313405961E+02  0.51100000000E-03 0.  1.
         12    1    3    3    0    0 -0.18130633202E+01  0.34461760100E-01  0.55914177982E+01  0.58781237831E+01  0.00000000000E+00 0. -1.
</event>
<event>
 7    1  0.3004200E-011  0.5052885E+02  0.7816164E-02  0.1300439E+00
        -11   -1    0    0    0    0  0.00000000000E+00  0.00000000000E+00  0.45593999997E+02  0.45594000000E+02  0.51100000000E-03 0.  1.
         11   -1    0    0    0    0 -0.00000000000E+00 -0.00000000000E+00 -0.45593999997E+02  0.45594000000E+02  0.51100000000E-03 0. -1.
    9900012    2    1    2    0    0 -0.33347246188E+02 -0.22253955042E+02  0.67741266495E+01  0.50528854224E+02  0.29999982901E+02 0.  0.
         12    1    1    2    0    0  0.33347246188E+02  0.22253955042E+02 -0.67741266495E+01  0.40659145776E+02  0.00000000000E+00 0. -1.
         11    1    3    3    0    0 -0.16962667082E+01 -0.40657272291E+01  0.69160947895E+01  0.81999893930E+01  0.51100000000E-03 0. -1.
        -11    1    3    3    0    0 -0.30172023471E+02 -0.71486286000E+01  0.16320814704E+01  0.31050242856E+02  0.51100000000E-03 0.  1.
        -12    1    3    3    0    0 -0.14789560086E+01 -0.11039599213E+02 -0.17740496104E+01  0.11278621976E+02  0.00000000000E+00 0.  1.
</event>
<event>
 7    1  0.3004200E-011  0.5052886E+02  0.7816164E-02  0.1300439E+00
        -11   -1    0    0    0    0  0.00000000000E+00  0.00000000000E+00  0.45593999997E+02  0.45594000000E+02  0.51100000000E-03 0. -1.
         11   -1    0    0    0    0 -0.00000000000E+00 -0.00000000000E+00 -0.45593999997E+02  0.45594000000E+02  0.51100000000E-03 0.  1.
    9900012    2    1    2    0    0  0.36063171760E+02  0.71130844180E+01 -0.17378648382E+02  0.50528858999E+02  0.29999997412E+02 0.  0.
         12    1    1    2    0    0 -0.36063171760E+02 -0.71130844180E+01  0.17378648382E+02  0.40659141001E+02  0.00000000000E+00 0. -1.
         11    1    3    3    0    0 -0.32575511059E+01  0.45075144744E+01 -0.62974371971E+01  0.84016094563E+01  0.51100000000E-03 0. -1.
        -11    1    3    3    0    0  0.34377235827E+02  0.13705514165E+01 -0.12861204089E+02  0.36729869659E+02  0.51100000000E-03 0.  1.
        -12    1    3    3    0    0  0.49434870397E+01  0.12350185271E+01  0.17799929033E+01  0.53973798838E+01  0.00000000000E+00 0.  1.
</event>
<event>
 7    1  0.3004200E-011  0.5052886E+02  0.7816164E-02  0.1300439E+00
        -11   -1    0    0    0    0  0.00000000000E+00  0.00000000000E+00  0.45593999997E+02  0.45594000000E+02  0.51100000000E-03 0. -1.
         11   -1    0    0    0    0 -0.00000000000E+00 -0.00000000000E+00 -0.45593999997E+02  0.45594000000E+02  0.51100000000E-03 0.  1.
    9900012    2    1    2    0    0  0.26330801987E+02 -0.14663726238E+02 -0.27291561187E+02  0.50528864342E+02  0.30000013653E+02 0.  0.
         12    1    1    2    0    0 -0.26330801987E+02  0.14663726238E+02  0.27291561187E+02  0.40659135658E+02  0.00000000000E+00 0. -1.
         11    1    3    3    0    0  0.11161928388E+02 -0.77418662748E+01 -0.26758249890E+00  0.13586638268E+02  0.51100000000E-03 0. -1.
        -11    1    3    3    0    0  0.71309540080E+01 -0.12238011641E+02 -0.21753335228E+02  0.25958178438E+02  0.51100000000E-03 0.  1.
        -12    1    3    3    0    0  0.80379195902E+01  0.53161516772E+01 -0.52706434601E+01  0.10984047636E+02  0.00000000000E+00 0.  1.
</event>
<event>
 7    1  0.3004200E-011  0.5052886E+02  0.7816164E-02  0.1300439E+00
        -11   -1    0    0    0    0  0.00000000000E+00  0.00000000000E+00  0.45593999997E+02  0.45594000000E+02  0.51100000000E-03 0.  1.
         11   -1    0    0    0    0 -0.00000000000E+00 -0.00000000000E+00 -0.45593999997E+02  0.45594000000E+02  0.51100000000E-03 0. -1.
    9900012    2    1    2    0    0  0.39591786109E+02  0.68682625622E+01 -0.62034520260E+01  0.50528863573E+02  0.30000011317E+02 0.  0.
         12    1    1    2    0    0 -0.39591786109E+02 -0.68682625622E+01  0.62034520260E+01  0.40659136427E+02  0.00000000000E+00 0. -1.
         11    1    3    3    0    0  0.55945379987E+01  0.23281001227E+01 -0.10046436827E+02  0.11732425102E+02  0.51100000000E-03 0. -1.
        -11    1    3    3    0    0  0.22249765951E+02  0.10872311111E+02  0.54438650892E+01  0.25355372234E+02  0.51100000000E-03 0.  1.
        -12    1    3    3    0    0  0.11747482160E+02 -0.63321486719E+01 -0.16008802886E+01  0.13441066237E+02  0.00000000000E+00 0.  1.
</event>
<event>
 7    1  0.3004200E-011  0.5052887E+02  0.7816164E-02  0.1300439E+00
        -11   -1    0    0    0    0  0.00000000000E+00  0.00000000000E+00  0.45593999997E+02  0.45594000000E+02  0.51100000000E-03 0.  1.
         11   -1    0    0    0    0 -0.00000000000E+00 -0.00000000000E+00 -0.45593999997E+02  0.45594000000E+02  0.51100000000E-03 0. -1.
    9900012    2    1    2    0    0  0.34060390206E+02  0.96860151932E+01  0.19980891241E+02  0.50528867126E+02  0.30000022116E+02 0.  0.
         12    1    1    2    0    0 -0.34060390206E+02 -0.96860151932E+01 -0.19980891241E+02  0.40659132874E+02  0.00000000000E+00 0. -1.
         11    1    3    3    0    0  0.96013180441E+01 -0.75324034828E+01  0.58153907884E+01  0.13518179637E+02  0.51100000000E-03 0. -1.
        -11    1    3    3    0    0  0.11973878989E+02  0.14599359662E+02  0.15160808816E+02  0.24214978934E+02  0.51100000000E-03 0.  1.
        -12    1    3    3    0    0  0.12485193173E+02  0.26190590144E+01 -0.99530836339E+00  0.12795708555E+02  0.00000000000E+00 0.  1.
</event>
<event>
 7    1  0.3004200E-011  0.5052886E+02  0.7816164E-02  0.1300439E+00
        -11   -1    0    0    0    0  0.00000000000E+00  0.00000000000E+00  0.45593999997E+02  0.45594000000E+02  0.51100000000E-03 0. -1.
         11   -1    0    0    0    0 -0.00000000000E+00 -0.00000000000E+00 -0.45593999997E+02  0.45594000000E+02  0.51100000000E-03 0.  1.
    9900012    2    1    2    0    0 -0.67880795757E+01  0.39913024604E+02 -0.37467093183E+01  0.50528863412E+02  0.30000010828E+02 0.  0.
         12    1    1    2    0    0  0.67880795757E+01 -0.39913024604E+02  0.37467093183E+01  0.40659136588E+02  0.00000000000E+00 0. -1.
         11    1    3    3    0    0 -0.10696884202E+02  0.18929266758E+02  0.93467932742E+01  0.23666495651E+02  0.51100000000E-03 0. -1.
        -11    1    3    3    0    0  0.67826706446E+00  0.40393794558E+01 -0.78148394111E+01  0.88231710785E+01  0.51100000000E-03 0.  1.
         12    1    3    3    0    0  0.32305375622E+01  0.16944378390E+02 -0.52786631814E+01  0.18039196683E+02  0.00000000000E+00 0. -1.
</event>
<event>
 7    1  0.3004200E-011  0.5052891E+02  0.7816164E-02  0.1300439E+00
        -11   -1    0    0    0    0  0.00000000000E+00  0.00000000000E+00  0.45593999997E+02  0.45594000000E+02  0.51100000000E-03 0.  1.
         11   -1    0    0    0    0 -0.00000000000E+00 -0.00000000000E+00 -0.45593999997E+02  0.45594000000E+02  0.51100000000E-03 0. -1.
    9900012    2    1    2    0    0  0.29086915885E+02 -0.26914140581E+02  0.90962678621E+01  0.50528908422E+02  0.30000147638E+02 0.  0.
         12    1    1    2    0    0 -0.29086915885E+02  0.26914140581E+02 -0.90962678621E+01  0.40659091578E+02  0.00000000000E+00 0. -1.
         11    1    3    3    0    0  0.49223325336E+01  0.26250075711E+01  0.77143782699E+01  0.95200658964E+01  0.51100000000E-03 0. -1.
        -11    1    3    3    0    0  0.21438159409E+02 -0.14965547942E+02  0.36494927498E+00  0.26147571441E+02  0.51100000000E-03 0.  1.
         12    1    3    3    0    0  0.27264239426E+01 -0.14573600211E+02  0.10169403173E+01  0.14861271084E+02  0.00000000000E+00 0. -1.
</event>
<event>
 7    1  0.3004200E-011  0.5052885E+02  0.7816164E-02  0.1300439E+00
        -11   -1    0    0    0    0  0.00000000000E+00  0.00000000000E+00  0.45593999997E+02  0.45594000000E+02  0.51100000000E-03 0. -1.
         11   -1    0    0    0    0 -0.00000000000E+00 -0.00000000000E+00 -0.45593999997E+02  0.45594000000E+02  0.51100000000E-03 0.  1.
    9900012    2    1    2    0    0 -0.27122357922E+02 -0.30108021825E+02 -0.33242828391E+01  0.50528854241E+02  0.29999982951E+02 0.  0.
         12    1    1    2    0    0  0.27122357922E+02  0.30108021825E+02  0.33242828391E+01  0.40659145759E+02  0.00000000000E+00 0. -1.
         11    1    3    3    0    0  0.29852741783E+01 -0.66417951090E+01 -0.29293289958E+01  0.78489663534E+01  0.51100000000E-03 0. -1.
        -11    1    3    3    0    0 -0.17376675260E+02 -0.18354521962E+02 -0.85956074714E+01  0.26696849770E+02  0.51100000000E-03 0.  1.
        -12    1    3    3    0    0 -0.12730956840E+02 -0.51117047533E+01  0.82006536282E+01  0.15983038118E+02  0.00000000000E+00 0.  1.
</event>
<event>
 7    1  0.3004200E-011  0.5052890E+02  0.7816164E-02  0.1300439E+00
        -11   -1    0    0    0    0  0.00000000000E+00  0.00000000000E+00  0.45593999997E+02  0.45594000000E+02  0.51100000000E-03 0. -1.
         11   -1    0    0    0    0 -0.00000000000E+00 -0.00000000000E+00 -0.45593999997E+02  0.45594000000E+02  0.51100000000E-03 0.  1.
    9900012    2    1    2    0    0  0.19622761723E+02 -0.30631948304E+02 -0.18160205325E+02  0.50528903945E+02  0.30000134032E+02 0.  0.
         12    1    1    2    0    0 -0.19622761723E+02  0.30631948304E+02  0.18160205325E+02  0.40659096055E+02  0.00000000000E+00 0. -1.
         11    1    3    3    0    0  0.14594501835E+02 -0.12030814639E+01 -0.11320752438E+02  0.18509627895E+02  0.51100000000E-03 0. -1.
        -11    1    3    3    0    0  0.51431770587E+01 -0.29992954197E+02 -0.60242527960E+01  0.31021302257E+02  0.51100000000E-03 0.  1.
        -12    1    3    3    0    0 -0.11491717081E+00  0.56408735672E+00 -0.81520009136E+00  0.99797379280E+00  0.00000000000E+00 0.  1.
</event>
<event>
 7    1  0.3004200E-011  0.5052887E+02  0.7816164E-02  0.1300439E+00
        -11   -1    0    0    0    0  0.00000000000E+00  0.00000000000E+00  0.45593999997E+02  0.45594000000E+02  0.51100000000E-03 0.  1.
         11   -1    0    0    0    0 -0.00000000000E+00 -0.00000000000E+00 -0.45593999997E+02  0.45594000000E+02  0.51100000000E-03 0. -1.
    9900012    2    1    2    0    0  0.23750901526E+02 -0.32696358453E+02  0.44729781117E+01  0.50528871719E+02  0.30000036077E+02 0.  0.
         12    1    1    2    0    0 -0.23750901526E+02  0.32696358453E+02 -0.44729781117E+01  0.40659128281E+02  0.00000000000E+00 0. -1.
         11    1    3    3    0    0  0.15817560307E+02 -0.66793760601E+01 -0.34294768722E+00  0.17173435649E+02  0.51100000000E-03 0. -1.
        -11    1    3    3    0    0  0.67609653308E+01 -0.23362779625E+02  0.10871515571E+02  0.26640570097E+02  0.51100000000E-03 0.  1.
        -12    1    3    3    0    0  0.11723758880E+01 -0.26542027677E+01 -0.60555897716E+01  0.67148659731E+01  0.00000000000E+00 0.  1.
</event>
<event>
 7    1  0.3004200E-011  0.5052886E+02  0.7816164E-02  0.1300439E+00
        -11   -1    0    0    0    0  0.00000000000E+00  0.00000000000E+00  0.45593999997E+02  0.45594000000E+02  0.51100000000E-03 0.  1.
         11   -1    0    0    0    0 -0.00000000000E+00 -0.00000000000E+00 -0.45593999997E+02  0.45594000000E+02  0.51100000000E-03 0. -1.
    9900012    2    1    2    0    0  0.25645321878E+02 -0.21479023385E+02  0.23111357648E+02  0.50528857952E+02  0.29999994230E+02 0.  0.
         12    1    1    2    0    0 -0.25645321878E+02  0.21479023385E+02 -0.23111357648E+02  0.40659142048E+02  0.00000000000E+00 0. -1.
         11    1    3    3    0    0  0.18859134374E+02 -0.28773353911E+01  0.43560217535E+01  0.19568365646E+02  0.51100000000E-03 0. -1.
        -11    1    3    3    0    0 -0.36930788604E+01 -0.22921140577E+01  0.71462385919E+01  0.83642898441E+01  0.51100000000E-03 0.  1.
         12    1    3    3    0    0  0.10479266365E+02 -0.16309573936E+02  0.11609097302E+02  0.22596202461E+02  0.00000000000E+00 0. -1.
</event>
<event>
 7    1  0.3004200E-011  0.5052886E+02  0.7816164E-02  0.1300439E+00
        -11   -1    0    0    0    0  0.00000000000E+00  0.00000000000E+00  0.45593999997E+02  0.45594000000E+02  0.51100000000E-03 0.  1.
         11   -1    0    0    0    0 -0.00000000000E+00 -0.00000000000E+00 -0.45593999997E+02  0.45594000000E+02  0.51100000000E-03 0. -1.
    9900012    2    1    2    0    0 -0.18904882395E+01 -0.40554670492E+02  0.22159230417E+01  0.50528861305E+02  0.30000004422E+02 0.  0.
         12    1    1    2    0    0  0.18904882395E+01  0.40554670492E+02 -0.22159230417E+01  0.40659138695E+02  0.00000000000E+00 0. -1.
         11    1    3    3    0    0 -0.63670899188E+00  0.29871278446E+01  0.36197489361E+01  0.47361285585E+01  0.51100000000E-03 0. -1.
        -11    1    3    3    0    0 -0.70031039581E+01 -0.27973163810E+02 -0.35662752323E+01  0.29056146990E+02  0.51100000000E-03 0.  1.
         12    1    3    3    0    0  0.57493247105E+01 -0.15568634527E+02  0.21624493378E+01  0.16736585757E+02  0.00000000000E+00 0. -1.
</event>
<event>
 7    1  0.3004200E-011  0.5052884E+02  0.7816164E-02  0.1300439E+00
        -11   -1    0    0    0    0  0.00000000000E+00  0.00000000000E+00  0.45593999997E+02  0.45594000000E+02  0.51100000000E-03 0.  1.
         11   -1    0    0    0    0 -0.00000000000E+00 -0.00000000000E+00 -0.45593999997E+02  0.45594000000E+02  0.51100000000E-03 0. -1.
    9900012    2    1    2    0    0 -0.30684869970E+02 -0.12609544731E+02  0.23507562324E+02  0.50528839288E+02  0.29999937499E+02 0.  0.
         12    1    1    2    0    0  0.30684869970E+02  0.12609544731E+02 -0.23507562324E+02  0.40659160712E+02  0.00000000000E+00 0. -1.
         11    1    3    3    0    0 -0.16600823960E+02  0.49982535886E+01  0.68542130134E+01  0.18642696462E+02  0.51100000000E-03 0. -1.
        -11    1    3    3    0    0 -0.10023492722E+02 -0.14287468032E+02  0.19291602054E+02  0.26014766176E+02  0.51100000000E-03 0.  1.
         12    1    3    3    0    0 -0.40605532880E+01 -0.33203302877E+01 -0.26382527436E+01  0.58713766497E+01  0.00000000000E+00 0. -1.
</event>
<event>
 7    1  0.3004200E-011  0.5052887E+02  0.7816164E-02  0.1300439E+00
        -11   -1    0    0    0    0  0.00000000000E+00  0.00000000000E+00  0.45593999997E+02  0.45594000000E+02  0.51100000000E-03 0.  1.
         11   -1    0    0    0    0 -0.00000000000E+00 -0.00000000000E+00 -0.45593999997E+02  0.45594000000E+02  0.51100000000E-03 0. -1.
    9900012    2    1    2    0    0 -0.14426443534E+01 -0.40611192561E+02  0.13472389514E+01  0.50528865273E+02  0.30000016483E+02 0.  0.
         12    1    1    2    0    0  0.14426443534E+01  0.40611192561E+02 -0.13472389514E+01  0.40659134727E+02  0.00000000000E+00 0. -1.
         11    1    3    3    0    0 -0.31389897568E+01 -0.10823204079E+02 -0.52848630119E+01  0.12446878345E+02  0.51100000000E-03 0. -1.
        -11    1    3    3    0    0 -0.57893531582E+01 -0.20281906771E+02  0.12622678902E+02  0.24580569057E+02  0.51100000000E-03 0.  1.
        -12    1    3    3    0    0  0.74856985615E+01 -0.95060817118E+01 -0.59905769383E+01  0.13501417871E+02  0.00000000000E+00 0.  1.
</event>
<event>
 7    1  0.3004200E-011  0.5052886E+02  0.7816164E-02  0.1300439E+00
        -11   -1    0    0    0    0  0.00000000000E+00  0.00000000000E+00  0.45593999997E+02  0.45594000000E+02  0.51100000000E-03 0. -1.
         11   -1    0    0    0    0 -0.00000000000E+00 -0.00000000000E+00 -0.45593999997E+02  0.45594000000E+02  0.51100000000E-03 0.  1.
    9900012    2    1    2    0    0 -0.56832352681E+01 -0.59816633071E+01 -0.39813137036E+02  0.50528864008E+02  0.30000012638E+02 0.  0.
         12    1    1    2    0    0  0.56832352681E+01  0.59816633071E+01  0.39813137036E+02  0.40659135992E+02  0.00000000000E+00 0. -1.
         11    1    3    3    0    0  0.74669781381E+01 -0.12717101847E+02 -0.16811134160E+02  0.22362796647E+02  0.51100000000E-03 0. -1.
        -11    1    3    3    0    0 -0.71267324897E+01  0.34014453876E+01 -0.18000465223E+02  0.19656472095E+02  0.51100000000E-03 0.  1.
         12    1    3    3    0    0 -0.60234809165E+01  0.33339931520E+01 -0.50015376525E+01  0.85095952652E+01  0.00000000000E+00 0. -1.
</event>
<event>
 7    1  0.3004200E-011  0.5052886E+02  0.7816164E-02  0.1300439E+00
        -11   -1    0    0    0    0  0.00000000000E+00  0.00000000000E+00  0.45593999997E+02  0.45594000000E+02  0.51100000000E-03 0.  1.
         11   -1    0    0    0    0 -0.00000000000E+00 -0.00000000000E+00 -0.45593999997E+02  0.45594000000E+02  0.51100000000E-03 0. -1.
    9900012    2    1    2    0    0 -0.34222802655E+02  0.19402710160E+02  0.10271333291E+02  0.50528859937E+02  0.30000000263E+02 0.  0.
         12    1    1    2    0    0  0.34222802655E+02 -0.19402710160E+02 -0.10271333291E+02  0.40659140063E+02  0.00000000000E+00 0. -1.
         11    1    3    3    0    0 -0.33775775519E+02  0.22757282806E+02  0.33606487029E+01  0.40865522052E+02  0.51100000000E-03 0. -1.
        -11    1    3    3    0    0  0.46363098256E+00  0.42961710029E+00  0.54802611751E+01  0.55165920049E+01  0.51100000000E-03 0.  1.
         12    1    3    3    0    0 -0.91065811822E+00 -0.37841897464E+01  0.14304234132E+01  0.41467458791E+01  0.00000000000E+00 0. -1.
</event>
<event>
 7    1  0.3004200E-011  0.5052886E+02  0.7816164E-02  0.1300439E+00
        -11   -1    0    0    0    0  0.00000000000E+00  0.00000000000E+00  0.45593999997E+02  0.45594000000E+02  0.51100000000E-03 0.  1.
         11   -1    0    0    0    0 -0.00000000000E+00 -0.00000000000E+00 -0.45593999997E+02  0.45594000000E+02  0.51100000000E-03 0. -1.
    9900012    2    1    2    0    0  0.76558319397E+01 -0.39231147198E+02  0.74478921772E+01  0.50528858702E+02  0.29999996511E+02 0.  0.
         12    1    1    2    0    0 -0.76558319397E+01  0.39231147198E+02 -0.74478921772E+01  0.40659141298E+02  0.00000000000E+00 0. -1.
         11    1    3    3    0    0  0.97511722439E+01 -0.16382495987E+02  0.16959204760E+02  0.25516390051E+02  0.51100000000E-03 0. -1.
        -11    1    3    3    0    0  0.61227275722E-01 -0.12658223253E+02 -0.61038518491E+01  0.14053162361E+02  0.51100000000E-03 0.  1.
         12    1    3    3    0    0 -0.21565675798E+01 -0.10190427959E+02 -0.34074607333E+01  0.10959306291E+02  0.00000000000E+00 0. -1.
</event>
<event>
 7    1  0.3004200E-011  0.5052886E+02  0.7816164E-02  0.1300439E+00
        -11   -1    0    0    0    0  0.00000000000E+00  0.00000000000E+00  0.45593999997E+02  0.45594000000E+02  0.51100000000E-03 0.  1.
         11   -1    0    0    0    0 -0.00000000000E+00 -0.00000000000E+00 -0.45593999997E+02  0.45594000000E+02  0.51100000000E-03 0. -1.
    9900012    2    1    2    0    0  0.70361951266E+01  0.31148859095E+02  0.25167560614E+02  0.50528861150E+02  0.30000003951E+02 0.  0.
         12    1    1    2    0    0 -0.70361951266E+01 -0.31148859095E+02 -0.25167560614E+02  0.40659138850E+02  0.00000000000E+00 0. -1.
         11    1    3    3    0    0  0.10893564387E+02  0.50421669528E+01 -0.12196734409E+01  0.12065686728E+02  0.51100000000E-03 0. -1.
        -11    1    3    3    0    0 -0.43727976861E+01  0.15426397845E+02  0.10003238383E+02  0.18898674252E+02  0.51100000000E-03 0.  1.
        -12    1    3    3    0    0  0.51542842529E+00  0.10680294297E+02  0.16383995672E+02  0.19564500170E+02  0.00000000000E+00 0.  1.
</event>
<event>
 7    1  0.3004200E-011  0.5052886E+02  0.7816164E-02  0.1300439E+00
        -11   -1    0    0    0    0  0.00000000000E+00  0.00000000000E+00  0.45593999997E+02  0.45594000000E+02  0.51100000000E-03 0.  1.
         11   -1    0    0    0    0 -0.00000000000E+00 -0.00000000000E+00 -0.45593999997E+02  0.45594000000E+02  0.51100000000E-03 0. -1.
    9900012    2    1    2    0    0  0.11102995357E+01 -0.29969001895E+02  0.27455268397E+02  0.50528860777E+02  0.30000002816E+02 0.  0.
         12    1    1    2    0    0 -0.11102995357E+01  0.29969001895E+02 -0.27455268397E+02  0.40659139223E+02  0.00000000000E+00 0. -1.
         11    1    3    3    0    0  0.66503549260E+01 -0.15457548645E+02 -0.27077669871E+00  0.16829627181E+02  0.51100000000E-03 0. -1.
        -11    1    3    3    0    0 -0.27983122639E+01 -0.15826029661E+02  0.22449477130E+02  0.27609288112E+02  0.51100000000E-03 0.  1.
         12    1    3    3    0    0 -0.27417431264E+01  0.13145764104E+01  0.52765679653E+01  0.60899454844E+01  0.00000000000E+00 0. -1.
</event>
<event>
 7    1  0.3004200E-011  0.5052886E+02  0.7816164E-02  0.1300439E+00
        -11   -1    0    0    0    0  0.00000000000E+00  0.00000000000E+00  0.45593999997E+02  0.45594000000E+02  0.51100000000E-03 0.  1.
         11   -1    0    0    0    0 -0.00000000000E+00 -0.00000000000E+00 -0.45593999997E+02  0.45594000000E+02  0.51100000000E-03 0. -1.
    9900012    2    1    2    0    0  0.23556152945E+02 -0.32942315704E+02 -0.36162457522E+01  0.50528859099E+02  0.29999997716E+02 0.  0.
         12    1    1    2    0    0 -0.23556152945E+02  0.32942315704E+02  0.36162457522E+01  0.40659140901E+02  0.00000000000E+00 0. -1.
         11    1    3    3    0    0  0.67256898447E+01 -0.59318681140E+01 -0.46730947223E+01  0.10112357675E+02  0.51100000000E-03 0. -1.
        -11    1    3    3    0    0  0.71520092911E+01 -0.29491951731E+02  0.17794229489E+01  0.30398894718E+02  0.51100000000E-03 0.  1.
        -12    1    3    3    0    0  0.96784538095E+01  0.24815041413E+01 -0.72257397884E+00  0.10017606705E+02  0.00000000000E+00 0.  1.
</event>
<event>
 7    1  0.3004200E-011  0.5052886E+02  0.7816164E-02  0.1300439E+00
        -11   -1    0    0    0    0  0.00000000000E+00  0.00000000000E+00  0.45593999997E+02  0.45594000000E+02  0.51100000000E-03 0.  1.
         11   -1    0    0    0    0 -0.00000000000E+00 -0.00000000000E+00 -0.45593999997E+02  0.45594000000E+02  0.51100000000E-03 0. -1.
    9900012    2    1    2    0    0 -0.18663300682E+02  0.20586121550E+02  0.29682624176E+02  0.50528863625E+02  0.30000011474E+02 0.  0.
         12    1    1    2    0    0  0.18663300682E+02 -0.20586121550E+02 -0.29682624176E+02  0.40659136375E+02  0.00000000000E+00 0. -1.
         11    1    3    3    0    0 -0.12723477548E+02  0.50501311627E+01  0.87712717770E+00  0.13717144674E+02  0.51100000000E-03 0. -1.
        -11    1    3    3    0    0  0.27205299645E+01  0.88385588119E+01  0.22141322675E+02  0.23994990627E+02  0.51100000000E-03 0.  1.
        -12    1    3    3    0    0 -0.86603530988E+01  0.66974315754E+01  0.66641743232E+01  0.12816728323E+02  0.00000000000E+00 0.  1.
</event>
<event>
 7    1  0.3004200E-011  0.5052886E+02  0.7816164E-02  0.1300439E+00
        -11   -1    0    0    0    0  0.00000000000E+00  0.00000000000E+00  0.45593999997E+02  0.45594000000E+02  0.51100000000E-03 0. -1.
         11   -1    0    0    0    0 -0.00000000000E+00 -0.00000000000E+00 -0.45593999997E+02  0.45594000000E+02  0.51100000000E-03 0.  1.
    9900012    2    1    2    0    0 -0.17098933155E+02  0.14367991049E+02 -0.33975765838E+02  0.50528863928E+02  0.30000012395E+02 0.  0.
         12    1    1    2    0    0  0.17098933155E+02 -0.14367991049E+02  0.33975765838E+02  0.40659136072E+02  0.00000000000E+00 0. -1.
         11    1    3    3    0    0 -0.11072355044E+02  0.17649423531E+02 -0.11055741994E+02  0.23586619692E+02  0.51100000000E-03 0.  1.
        -11    1    3    3    0    0 -0.12881358475E+01 -0.48635180772E+00 -0.21103993210E+02  0.21148861948E+02  0.51100000000E-03 0. -1.
        -12    1    3    3    0    0 -0.47384422635E+01 -0.27950806745E+01 -0.18160306344E+01  0.57933822873E+01  0.00000000000E+00 0.  1.
</event>
<event>
 7    1  0.3004200E-011  0.5052886E+02  0.7816164E-02  0.1300439E+00
        -11   -1    0    0    0    0  0.00000000000E+00  0.00000000000E+00  0.45593999997E+02  0.45594000000E+02  0.51100000000E-03 0. -1.
         11   -1    0    0    0    0 -0.00000000000E+00 -0.00000000000E+00 -0.45593999997E+02  0.45594000000E+02  0.51100000000E-03 0.  1.
    9900012    2    1    2    0    0 -0.25830794415E+02 -0.29868789541E+02  0.96845990634E+01  0.50528856037E+02  0.29999988411E+02 0.  0.
         12    1    1    2    0    0  0.25830794415E+02  0.29868789541E+02 -0.96845990634E+01  0.40659143963E+02  0.00000000000E+00 0. -1.
         11    1    3    3    0    0 -0.18520540067E+01 -0.20334859955E+02  0.20206710012E+00  0.20420026072E+02  0.51100000000E-03 0. -1.
        -11    1    3    3    0    0 -0.76076096452E+01  0.17589468133E+01 -0.56102757051E+00  0.78284334705E+01  0.51100000000E-03 0.  1.
         12    1    3    3    0    0 -0.16371130764E+02 -0.11292876399E+02  0.10043559534E+02  0.22280396495E+02  0.00000000000E+00 0. -1.
</event>
<event>
 7    1  0.3004200E-011  0.5052886E+02  0.7816164E-02  0.1300439E+00
        -11   -1    0    0    0    0  0.00000000000E+00  0.00000000000E+00  0.45593999997E+02  0.45594000000E+02  0.51100000000E-03 0. -1.
         11   -1    0    0    0    0 -0.00000000000E+00 -0.00000000000E+00 -0.45593999997E+02  0.45594000000E+02  0.51100000000E-03 0.  1.
    9900012    2    1    2    0    0  0.99111917379E+01 -0.39361938400E+02  0.23604232531E+01  0.50528861861E+02  0.30000006113E+02 0.  0.
         12    1    1    2    0    0 -0.99111917379E+01  0.39361938400E+02 -0.23604232531E+01  0.40659138139E+02  0.00000000000E+00 0. -1.
         11    1    3    3    0    0  0.29694168324E+01  0.33417315989E+01  0.39279406327E+01  0.59509095337E+01  0.51100000000E-03 0. -1.
        -11    1    3    3    0    0  0.12676460218E+01 -0.25154287772E+02 -0.53550290962E+01  0.25749203029E+02  0.51100000000E-03 0.  1.
         12    1    3    3    0    0  0.56741288838E+01 -0.17549382227E+02  0.37875117166E+01  0.18828749298E+02  0.00000000000E+00 0. -1.
</event>
<event>
 7    1  0.3004200E-011  0.5052880E+02  0.7816164E-02  0.1300439E+00
        -11   -1    0    0    0    0  0.00000000000E+00  0.00000000000E+00  0.45593999997E+02  0.45594000000E+02  0.51100000000E-03 0.  1.
         11   -1    0    0    0    0 -0.00000000000E+00 -0.00000000000E+00 -0.45593999997E+02  0.45594000000E+02  0.51100000000E-03 0. -1.
    9900012    2    1    2    0    0  0.21454639287E+02  0.34455431441E+02  0.23858229092E+01  0.50528801119E+02  0.29999821481E+02 0.  0.
         12    1    1    2    0    0 -0.21454639287E+02 -0.34455431441E+02 -0.23858229092E+01  0.40659198881E+02  0.00000000000E+00 0. -1.
         11    1    3    3    0    0  0.69204570749E+01  0.29381742703E+02 -0.76340975123E+01  0.31136136168E+02  0.51100000000E-03 0. -1.
        -11    1    3    3    0    0  0.12067755554E+02  0.19335081685E+01  0.92467145840E+01  0.15325498648E+02  0.51100000000E-03 0.  1.
        -12    1    3    3    0    0  0.24664266578E+01  0.31401805690E+01  0.77320583754E+00  0.40671663024E+01  0.00000000000E+00 0.  1.
</event>
<event>
 7    1  0.3004200E-011  0.5052886E+02  0.7816164E-02  0.1300439E+00
        -11   -1    0    0    0    0  0.00000000000E+00  0.00000000000E+00  0.45593999997E+02  0.45594000000E+02  0.51100000000E-03 0.  1.
         11   -1    0    0    0    0 -0.00000000000E+00 -0.00000000000E+00 -0.45593999997E+02  0.45594000000E+02  0.51100000000E-03 0. -1.
    9900012    2    1    2    0    0 -0.39031284747E+02 -0.11262763384E+02 -0.16954507150E+01  0.50528861037E+02  0.30000003610E+02 0.  0.
         12    1    1    2    0    0  0.39031284747E+02  0.11262763384E+02  0.16954507150E+01  0.40659138963E+02  0.00000000000E+00 0. -1.
         11    1    3    3    0    0 -0.15426898547E+02 -0.63000378214E+01 -0.60221420799E+01  0.17718517738E+02  0.51100000000E-03 0. -1.
        -11    1    3    3    0    0 -0.12935606560E+01  0.59124520511E+01  0.51933129494E+01  0.79750164939E+01  0.51100000000E-03 0.  1.
        -12    1    3    3    0    0 -0.22310825544E+02 -0.10875177614E+02 -0.86662158452E+00  0.24835326806E+02  0.00000000000E+00 0.  1.
</event>
<event>
 7    1  0.3004200E-011  0.5052886E+02  0.7816164E-02  0.1300439E+00
        -11   -1    0    0    0    0  0.00000000000E+00  0.00000000000E+00  0.45593999997E+02  0.45594000000E+02  0.51100000000E-03 0.  1.
         11   -1    0    0    0    0 -0.00000000000E+00 -0.00000000000E+00 -0.45593999997E+02  0.45594000000E+02  0.51100000000E-03 0. -1.
    9900012    2    1    2    0    0  0.68661616089E+01 -0.56181065824E+01  0.39679446076E+02  0.50528859112E+02  0.29999997758E+02 0.  0.
         12    1    1    2    0    0 -0.68661616089E+01  0.56181065824E+01 -0.39679446076E+02  0.40659140888E+02  0.00000000000E+00 0. -1.
         11    1    3    3    0    0 -0.64389430259E+00  0.21362563203E+01  0.38183503998E+01  0.44224417436E+01  0.51100000000E-03 0. -1.
        -11    1    3    3    0    0  0.39623688699E+01 -0.16802966723E+02  0.30394827179E+02  0.34955479932E+02  0.51100000000E-03 0.  1.
        -12    1    3    3    0    0  0.35476870415E+01  0.90486038202E+01  0.54662684969E+01  0.11150937437E+02  0.00000000000E+00 0.  1.
</event>
<event>
 7    1  0.3004200E-011  0.5052886E+02  0.7816164E-02  0.1300439E+00
        -11   -1    0    0    0    0  0.00000000000E+00  0.00000000000E+00  0.45593999997E+02  0.45594000000E+02  0.51100000000E-03 0.  1.
         11   -1    0    0    0    0 -0.00000000000E+00 -0.00000000000E+00 -0.45593999997E+02  0.45594000000E+02  0.51100000000E-03 0. -1.
    9900012    2    1    2    0    0 -0.73347804700E+01 -0.23154748353E+02  0.32607121507E+02  0.50528858976E+02  0.29999997342E+02 0.  0.
         12    1    1    2    0    0  0.73347804700E+01  0.23154748353E+02 -0.32607121507E+02  0.40659141024E+02  0.00000000000E+00 0. -1.
         11    1    3    3    0    0 -0.34192450533E+01 -0.20212233282E+02  0.25257529937E+02  0.32529500914E+02  0.51100000000E-03 0.  1.
        -11    1    3    3    0    0 -0.67825730739E+00 -0.40109556001E+01 -0.42655377445E+01  0.58942862428E+01  0.51100000000E-03 0. -1.
        -12    1    3    3    0    0 -0.32372781093E+01  0.10684405288E+01  0.11615129315E+02  0.12105071818E+02  0.00000000000E+00 0.  1.
</event>
<event>
 7    1  0.3004200E-011  0.5052885E+02  0.7816164E-02  0.1300439E+00
        -11   -1    0    0    0    0  0.00000000000E+00  0.00000000000E+00  0.45593999997E+02  0.45594000000E+02  0.51100000000E-03 0. -1.
         11   -1    0    0    0    0 -0.00000000000E+00 -0.00000000000E+00 -0.45593999997E+02  0.45594000000E+02  0.51100000000E-03 0.  1.
    9900012    2    1    2    0    0 -0.24958326425E+01 -0.35049991380E+02 -0.20455684773E+02  0.50528854462E+02  0.29999983624E+02 0.  0.
         12    1    1    2    0    0  0.24958326425E+01  0.35049991380E+02  0.20455684773E+02  0.40659145538E+02  0.00000000000E+00 0. -1.
         11    1    3    3    0    0 -0.91065907588E+01  0.47129628994E+00 -0.54897692360E+01  0.10643762585E+02  0.51100000000E-03 0. -1.
        -11    1    3    3    0    0  0.66306768533E+01 -0.29559641802E+02 -0.15251132698E+02  0.33916593989E+02  0.51100000000E-03 0.  1.
         12    1    3    3    0    0 -0.19918737053E-01 -0.59616458678E+01  0.28521716123E+00  0.59684978879E+01  0.00000000000E+00 0. -1.
</event>
<event>
 7    1  0.3004200E-011  0.5052886E+02  0.7816164E-02  0.1300439E+00
        -11   -1    0    0    0    0  0.00000000000E+00  0.00000000000E+00  0.45593999997E+02  0.45594000000E+02  0.51100000000E-03 0.  1.
         11   -1    0    0    0    0 -0.00000000000E+00 -0.00000000000E+00 -0.45593999997E+02  0.45594000000E+02  0.51100000000E-03 0. -1.
    9900012    2    1    2    0    0  0.52401808458E+00  0.76464649612E+01  0.39930226947E+02  0.50528855329E+02  0.29999986258E+02 0.  0.
         12    1    1    2    0    0 -0.52401808458E+00 -0.76464649612E+01 -0.39930226947E+02  0.40659144671E+02  0.00000000000E+00 0. -1.
         11    1    3    3    0    0  0.92649691515E+01  0.55521337577E+01  0.29100667782E+02  0.31040533312E+02  0.51100000000E-03 0.  1.
        -11    1    3    3    0    0 -0.10464504015E+02  0.58282462586E+01  0.90240622895E+01  0.14996932993E+02  0.51100000000E-03 0. -1.
         12    1    3    3    0    0  0.17235529476E+01 -0.37339150551E+01  0.18054968751E+01  0.44913890243E+01  0.00000000000E+00 0. -1.
</event>
<event>
 7    1  0.3004200E-011  0.5052885E+02  0.7816164E-02  0.1300439E+00
        -11   -1    0    0    0    0  0.00000000000E+00  0.00000000000E+00  0.45593999997E+02  0.45594000000E+02  0.51100000000E-03 0.  1.
         11   -1    0    0    0    0 -0.00000000000E+00 -0.00000000000E+00 -0.45593999997E+02  0.45594000000E+02  0.51100000000E-03 0. -1.
    9900012    2    1    2    0    0  0.30380390806E+02 -0.18903344661E+02  0.19309633811E+02  0.50528849212E+02  0.29999967664E+02 0.  0.
         12    1    1    2    0    0 -0.30380390806E+02  0.18903344661E+02 -0.19309633811E+02  0.40659150788E+02  0.00000000000E+00 0. -1.
         11    1    3    3    0    0  0.18015474855E+02 -0.97613785350E+01  0.24150190375E+02  0.31671336261E+02  0.51100000000E-03 0.  1.
        -11    1    3    3    0    0  0.13231060748E+02 -0.53464085152E+01 -0.31542837374E+01  0.14614874570E+02  0.51100000000E-03 0. -1.
         12    1    3    3    0    0 -0.86614479697E+00 -0.37955576105E+01 -0.16862728267E+01  0.42426383808E+01  0.00000000000E+00 0. -1.
</event>
<event>
 7    1  0.3004200E-011  0.5052886E+02  0.7816164E-02  0.1300439E+00
        -11   -1    0    0    0    0  0.00000000000E+00  0.00000000000E+00  0.45593999997E+02  0.45594000000E+02  0.51100000000E-03 0.  1.
         11   -1    0    0    0    0 -0.00000000000E+00 -0.00000000000E+00 -0.45593999997E+02  0.45594000000E+02  0.51100000000E-03 0. -1.
    9900012    2    1    2    0    0 -0.19861812957E+02  0.27496659334E+02  0.22418913058E+02  0.50528861406E+02  0.30000004731E+02 0.  0.
         12    1    1    2    0    0  0.19861812957E+02 -0.27496659334E+02 -0.22418913058E+02  0.40659138594E+02  0.00000000000E+00 0. -1.
         11    1    3    3    0    0 -0.10682678133E+02  0.14347306947E+02  0.58287196850E+01  0.18813261337E+02  0.51100000000E-03 0. -1.
        -11    1    3    3    0    0  0.27069310776E+01  0.47077294309E+01  0.16249476096E+02  0.17132882592E+02  0.51100000000E-03 0.  1.
        -12    1    3    3    0    0 -0.11886065901E+02  0.84416229564E+01  0.34071727667E+00  0.14582717477E+02  0.00000000000E+00 0.  1.
</event>
<event>
 7    1  0.3004200E-011  0.5052887E+02  0.7816164E-02  0.1300439E+00
        -11   -1    0    0    0    0  0.00000000000E+00  0.00000000000E+00  0.45593999997E+02  0.45594000000E+02  0.51100000000E-03 0.  1.
         11   -1    0    0    0    0 -0.00000000000E+00 -0.00000000000E+00 -0.45593999997E+02  0.45594000000E+02  0.51100000000E-03 0. -1.
    9900012    2    1    2    0    0 -0.89832760901E+01  0.38629970094E+02  0.89549493494E+01  0.50528868718E+02  0.30000026956E+02 0.  0.
         12    1    1    2    0    0  0.89832760901E+01 -0.38629970094E+02 -0.89549493494E+01  0.40659131282E+02  0.00000000000E+00 0. -1.
         11    1    3    3    0    0  0.42947349533E+01  0.28758745959E+02  0.65996531247E+01  0.29817203743E+02  0.51100000000E-03 0. -1.
        -11    1    3    3    0    0 -0.12848915872E+02  0.12048717096E+02  0.38573446387E+01  0.18031786675E+02  0.51100000000E-03 0.  1.
        -12    1    3    3    0    0 -0.42909517127E+00 -0.21774929618E+01 -0.15020484140E+01  0.26798783000E+01  0.00000000000E+00 0.  1.
</event>
<event>
 7    1  0.3004200E-011  0.5052886E+02  0.7816164E-02  0.1300439E+00
        -11   -1    0    0    0    0  0.00000000000E+00  0.00000000000E+00  0.45593999997E+02  0.45594000000E+02  0.51100000000E-03 0. -1.
         11   -1    0    0    0    0 -0.00000000000E+00 -0.00000000000E+00 -0.45593999997E+02  0.45594000000E+02  0.51100000000E-03 0.  1.
    9900012    2    1    2    0    0  0.27593941613E+02 -0.29798558289E+02 -0.19456818540E+01  0.50528863663E+02  0.30000011589E+02 0.  0.
         12    1    1    2    0    0 -0.27593941613E+02  0.29798558289E+02  0.19456818540E+01  0.40659136337E+02  0.00000000000E+00 0. -1.
         11    1    3    3    0    0  0.23427842027E+02 -0.18680871202E+02 -0.76383649187E+01  0.30922214504E+02  0.51100000000E-03 0. -1.
        -11    1    3    3    0    0 -0.38585062582E+01 -0.11885021460E+00 -0.15797568232E+01  0.41710703422E+01  0.51100000000E-03 0.  1.
        -12    1    3    3    0    0  0.80246058438E+01 -0.10998836872E+02  0.72724398879E+01  0.15435578817E+02  0.00000000000E+00 0.  1.
</event>
<event>
 7    1  0.3004200E-011  0.5052887E+02  0.7816164E-02  0.1300439E+00
        -11   -1    0    0    0    0  0.00000000000E+00  0.00000000000E+00  0.45593999997E+02  0.45594000000E+02  0.51100000000E-03 0.  1.
         11   -1    0    0    0    0 -0.00000000000E+00 -0.00000000000E+00 -0.45593999997E+02  0.45594000000E+02  0.51100000000E-03 0. -1.
    9900012    2    1    2    0    0  0.77323738142E+01  0.16915086032E+02  0.36155979967E+02  0.50528872763E+02  0.30000039251E+02 0.  0.
         12    1    1    2    0    0 -0.77323738142E+01 -0.16915086032E+02 -0.36155979967E+02  0.40659127237E+02  0.00000000000E+00 0. -1.
         11    1    3    3    0    0 -0.87170408723E+01  0.34950371185E+01  0.87903515214E+01  0.12863606266E+02  0.51100000000E-03 0. -1.
        -11    1    3    3    0    0  0.43689335980E+01  0.91653949049E+01  0.21080800597E+02  0.23398551208E+02  0.51100000000E-03 0.  1.
         12    1    3    3    0    0  0.12080481089E+02  0.42546540089E+01  0.62848278482E+01  0.14266715289E+02  0.00000000000E+00 0. -1.
</event>
<event>
 7    1  0.3004200E-011  0.5052886E+02  0.7816164E-02  0.1300439E+00
        -11   -1    0    0    0    0  0.00000000000E+00  0.00000000000E+00  0.45593999997E+02  0.45594000000E+02  0.51100000000E-03 0. -1.
         11   -1    0    0    0    0 -0.00000000000E+00 -0.00000000000E+00 -0.45593999997E+02  0.45594000000E+02  0.51100000000E-03 0.  1.
    9900012    2    1    2    0    0 -0.54756486329E+01  0.40154386602E+02  0.32876208370E+01  0.50528856599E+02  0.29999990119E+02 0.  0.
         12    1    1    2    0    0  0.54756486329E+01 -0.40154386602E+02 -0.32876208370E+01  0.40659143401E+02  0.00000000000E+00 0. -1.
         11    1    3    3    0    0 -0.54101192632E+01  0.28873418254E+01 -0.86355272207E+01  0.10591433515E+02  0.51100000000E-03 0. -1.
        -11    1    3    3    0    0 -0.33011241240E+01  0.91841887269E+01  0.18877557423E+01  0.99403402889E+01  0.51100000000E-03 0.  1.
         12    1    3    3    0    0  0.32355947543E+01  0.28082856049E+02  0.10035392315E+02  0.29997082795E+02  0.00000000000E+00 0. -1.
</event>
<event>
 7    1  0.3004200E-011  0.5052886E+02  0.7816164E-02  0.1300439E+00
        -11   -1    0    0    0    0  0.00000000000E+00  0.00000000000E+00  0.45593999997E+02  0.45594000000E+02  0.51100000000E-03 0.  1.
         11   -1    0    0    0    0 -0.00000000000E+00 -0.00000000000E+00 -0.45593999997E+02  0.45594000000E+02  0.51100000000E-03 0. -1.
    9900012    2    1    2    0    0  0.18216856872E+02  0.34114222117E+02  0.12551150889E+02  0.50528863099E+02  0.30000009874E+02 0.  0.
         12    1    1    2    0    0 -0.18216856872E+02 -0.34114222117E+02 -0.12551150889E+02  0.40659136901E+02  0.00000000000E+00 0. -1.
         11    1    3    3    0    0  0.47924438343E-01 -0.27201299587E+00 -0.18949694308E+01  0.19149927484E+01  0.51100000000E-03 0. -1.
        -11    1    3    3    0    0  0.20964748146E+02  0.32008840884E+02  0.51360188545E+01  0.38606544128E+02  0.51100000000E-03 0.  1.
        -12    1    3    3    0    0 -0.27958157127E+01  0.23773942284E+01  0.93101014650E+01  0.10007326222E+02  0.00000000000E+00 0.  1.
</event>
<event>
 7    1  0.3004200E-011  0.5052884E+02  0.7816164E-02  0.1300439E+00
        -11   -1    0    0    0    0  0.00000000000E+00  0.00000000000E+00  0.45593999997E+02  0.45594000000E+02  0.51100000000E-03 0. -1.
         11   -1    0    0    0    0 -0.00000000000E+00 -0.00000000000E+00 -0.45593999997E+02  0.45594000000E+02  0.51100000000E-03 0.  1.
    9900012    2    1    2    0    0 -0.36957449084E+02  0.12995135082E+02 -0.10883035365E+02  0.50528843130E+02  0.29999949179E+02 0.  0.
         12    1    1    2    0    0  0.36957449084E+02 -0.12995135082E+02  0.10883035365E+02  0.40659156870E+02  0.00000000000E+00 0. -1.
         11    1    3    3    0    0 -0.21799195167E+02  0.44750603737E+01 -0.97618532037E+01  0.24300717140E+02  0.51100000000E-03 0.  1.
        -11    1    3    3    0    0 -0.12718212790E+02 -0.24348427026E+01  0.44572754225E+01  0.13694842095E+02  0.51100000000E-03 0. -1.
        -12    1    3    3    0    0 -0.24400411267E+01  0.10954917411E+02 -0.55784575837E+01  0.12533283895E+02  0.00000000000E+00 0.  1.
</event>
<event>
 7    1  0.3427056E-011  0.5052886E+02  0.7816164E-02  0.1300439E+00
        -11   -1    0    0    0    0  0.00000000000E+00  0.00000000000E+00  0.45593999997E+02  0.45594000000E+02  0.51100000000E-03 0.  1.
         11   -1    0    0    0    0 -0.00000000000E+00 -0.00000000000E+00 -0.45593999997E+02  0.45594000000E+02  0.51100000000E-03 0. -1.
    9900012    2    1    2    0    0 -0.25075403713E+02  0.31891966832E+02  0.27003563103E+01  0.50528863954E+02  0.30000012475E+02 0.  0.
         12    1    1    2    0    0  0.25075403713E+02 -0.31891966832E+02 -0.27003563103E+01  0.40659136046E+02  0.00000000000E+00 0. -1.
         11    1    3    3    0    0 -0.25431935104E+01  0.34800081969E+01 -0.91157373986E+01  0.10083400164E+02  0.51100000000E-03 0. -1.
        -11    1    3    3    0    0 -0.89390145383E+01  0.10151810751E+02  0.11380471400E+02  0.17677114357E+02  0.51100000000E-03 0.  1.
        -12    1    3    3    0    0 -0.13593195664E+02  0.18260147884E+02  0.43562230887E+00  0.22768349433E+02  0.00000000000E+00 0.  1.
</event>
<event>
 7    1  0.3004200E-011  0.5052886E+02  0.7816164E-02  0.1300439E+00
        -11   -1    0    0    0    0  0.00000000000E+00  0.00000000000E+00  0.45593999997E+02  0.45594000000E+02  0.51100000000E-03 0.  1.
         11   -1    0    0    0    0 -0.00000000000E+00 -0.00000000000E+00 -0.45593999997E+02  0.45594000000E+02  0.51100000000E-03 0. -1.
    9900012    2    1    2    0    0 -0.34948522765E+02 -0.19960990130E+02 -0.57728053162E+01  0.50528860171E+02  0.30000000976E+02 0.  0.
         12    1    1    2    0    0  0.34948522765E+02  0.19960990130E+02  0.57728053162E+01  0.40659139829E+02  0.00000000000E+00 0. -1.
         11    1    3    3    0    0  0.22500924340E+01  0.26112237473E+01  0.25456341808E+01  0.42850506489E+01  0.51100000000E-03 0. -1.
        -11    1    3    3    0    0 -0.35810290061E+02 -0.16914734951E+02 -0.64481550326E+01  0.40125600759E+02  0.51100000000E-03 0.  1.
         12    1    3    3    0    0 -0.13883251378E+01 -0.56574789263E+01 -0.18702844644E+01  0.61182087630E+01  0.00000000000E+00 0. -1.
</event>
<event>
 7    1  0.3004200E-011  0.5052887E+02  0.7816164E-02  0.1300439E+00
        -11   -1    0    0    0    0  0.00000000000E+00  0.00000000000E+00  0.45593999997E+02  0.45594000000E+02  0.51100000000E-03 0.  1.
         11   -1    0    0    0    0 -0.00000000000E+00 -0.00000000000E+00 -0.45593999997E+02  0.45594000000E+02  0.51100000000E-03 0. -1.
    9900012    2    1    2    0    0  0.25058031053E+02  0.71263452123E+01  0.31216590797E+02  0.50528865020E+02  0.30000015714E+02 0.  0.
         12    1    1    2    0    0 -0.25058031053E+02 -0.71263452123E+01 -0.31216590797E+02  0.40659134980E+02  0.00000000000E+00 0. -1.
         11    1    3    3    0    0 -0.56358754351E+00 -0.29126719477E+01  0.13546606856E+02  0.13867654681E+02  0.51100000000E-03 0. -1.
        -11    1    3    3    0    0  0.27834588060E+02  0.96516641915E+01  0.17783381420E+02  0.34411735921E+02  0.51100000000E-03 0.  1.
         12    1    3    3    0    0 -0.22129694628E+01  0.38735296854E+00 -0.11339747873E+00  0.22494744172E+01  0.00000000000E+00 0. -1.
</event>
<event>
 7    1  0.3004200E-011  0.5052886E+02  0.7816164E-02  0.1300439E+00
        -11   -1    0    0    0    0  0.00000000000E+00  0.00000000000E+00  0.45593999997E+02  0.45594000000E+02  0.51100000000E-03 0. -1.
         11   -1    0    0    0    0 -0.00000000000E+00 -0.00000000000E+00 -0.45593999997E+02  0.45594000000E+02  0.51100000000E-03 0.  1.
    9900012    2    1    2    0    0  0.74452687327E+01  0.21272312990E+02 -0.33841129726E+02  0.50528863418E+02  0.30000010846E+02 0.  0.
         12    1    1    2    0    0 -0.74452687327E+01 -0.21272312990E+02  0.33841129726E+02  0.40659136582E+02  0.00000000000E+00 0. -1.
         11    1    3    3    0    0 -0.11637977831E+01  0.13116696510E+02  0.69107556142E+00  0.13186346663E+02  0.51100000000E-03 0. -1.
        -11    1    3    3    0    0  0.28806218279E+01  0.50941470730E+01 -0.25823906468E+02  0.26478717152E+02  0.51100000000E-03 0.  1.
         12    1    3    3    0    0  0.57284446879E+01  0.30614694065E+01 -0.87082988199E+01  0.10863799603E+02  0.00000000000E+00 0. -1.
</event>
<event>
 7    1  0.3004200E-011  0.5052886E+02  0.7816164E-02  0.1300439E+00
        -11   -1    0    0    0    0  0.00000000000E+00  0.00000000000E+00  0.45593999997E+02  0.45594000000E+02  0.51100000000E-03 0. -1.
         11   -1    0    0    0    0 -0.00000000000E+00 -0.00000000000E+00 -0.45593999997E+02  0.45594000000E+02  0.51100000000E-03 0.  1.
    9900012    2    1    2    0    0 -0.27862401433E+02  0.12328487680E+01 -0.29586021847E+02  0.50528855660E+02  0.29999987264E+02 0.  0.
         12    1    1    2    0    0  0.27862401433E+02 -0.12328487680E+01  0.29586021847E+02  0.40659144340E+02  0.00000000000E+00 0. -1.
         11    1    3    3    0    0 -0.99615144354E+01  0.14436643455E+02 -0.12902031384E+02  0.21774086851E+02  0.51100000000E-03 0. -1.
        -11    1    3    3    0    0 -0.16910034350E+02 -0.13674282732E+02 -0.14022133093E+02  0.25875770263E+02  0.51100000000E-03 0.  1.
         12    1    3    3    0    0 -0.99085264764E+00  0.47048804482E+00 -0.26618573702E+01  0.28789985462E+01  0.00000000000E+00 0. -1.
</event>
<event>
 7    1  0.3004200E-011  0.5052887E+02  0.7816164E-02  0.1300439E+00
        -11   -1    0    0    0    0  0.00000000000E+00  0.00000000000E+00  0.45593999997E+02  0.45594000000E+02  0.51100000000E-03 0. -1.
         11   -1    0    0    0    0 -0.00000000000E+00 -0.00000000000E+00 -0.45593999997E+02  0.45594000000E+02  0.51100000000E-03 0.  1.
    9900012    2    1    2    0    0  0.51942985991E+00  0.14494580931E+01 -0.40629965928E+02  0.50528869814E+02  0.30000030287E+02 0.  0.
         12    1    1    2    0    0 -0.51942985991E+00 -0.14494580931E+01  0.40629965928E+02  0.40659130186E+02  0.00000000000E+00 0. -1.
         11    1    3    3    0    0  0.21801875524E+01  0.63394106575E+01 -0.72371120495E+01  0.98649448212E+01  0.51100000000E-03 0. -1.
        -11    1    3    3    0    0 -0.10373247466E+02 -0.80540266971E+00 -0.27446551910E+02  0.29352447061E+02  0.51100000000E-03 0.  1.
        -12    1    3    3    0    0  0.87124897738E+01 -0.40845498948E+01 -0.59463019684E+01  0.11311477932E+02  0.00000000000E+00 0.  1.
</event>
<event>
 7    1  0.3004200E-011  0.5052886E+02  0.7816164E-02  0.1300439E+00
        -11   -1    0    0    0    0  0.00000000000E+00  0.00000000000E+00  0.45593999997E+02  0.45594000000E+02  0.51100000000E-03 0.  1.
         11   -1    0    0    0    0 -0.00000000000E+00 -0.00000000000E+00 -0.45593999997E+02  0.45594000000E+02  0.51100000000E-03 0. -1.
    9900012    2    1    2    0    0  0.18366621081E+02  0.26304261411E+02  0.24978368837E+02  0.50528857755E+02  0.29999993633E+02 0.  0.
         12    1    1    2    0    0 -0.18366621081E+02 -0.26304261411E+02 -0.24978368837E+02  0.40659142245E+02  0.00000000000E+00 0. -1.
         11    1    3    3    0    0 -0.29181956233E+00 -0.35851355372E+01  0.39585267447E+01  0.53486717722E+01  0.51100000000E-03 0. -1.
        -11    1    3    3    0    0  0.22078016860E+02  0.28821726854E+02  0.20024207302E+02  0.41462026550E+02  0.51100000000E-03 0.  1.
         12    1    3    3    0    0 -0.34195762165E+01  0.10676700940E+01  0.99563479021E+00  0.37181594325E+01  0.00000000000E+00 0. -1.
</event>
<event>
 7    1  0.3004200E-011  0.5052886E+02  0.7816164E-02  0.1300439E+00
        -11   -1    0    0    0    0  0.00000000000E+00  0.00000000000E+00  0.45593999997E+02  0.45594000000E+02  0.51100000000E-03 0.  1.
         11   -1    0    0    0    0 -0.00000000000E+00 -0.00000000000E+00 -0.45593999997E+02  0.45594000000E+02  0.51100000000E-03 0. -1.
    9900012    2    1    2    0    0  0.14385570384E+02 -0.36063726121E+02  0.12067681811E+02  0.50528856855E+02  0.29999990895E+02 0.  0.
         12    1    1    2    0    0 -0.14385570384E+02  0.36063726121E+02 -0.12067681811E+02  0.40659143145E+02  0.00000000000E+00 0. -1.
         11    1    3    3    0    0  0.13892660248E+00 -0.63415450624E+01  0.23196730800E+01  0.67539157412E+01  0.51100000000E-03 0. -1.
        -11    1    3    3    0    0  0.66704350700E+01  0.39266386773E+01 -0.60360462542E+00  0.77638607748E+01  0.51100000000E-03 0.  1.
        -12    1    3    3    0    0  0.75762087112E+01 -0.33648819736E+02  0.10351613357E+02  0.36011080339E+02  0.00000000000E+00 0.  1.
</event>
<event>
 7    1  0.3004200E-011  0.5052886E+02  0.7816164E-02  0.1300439E+00
        -11   -1    0    0    0    0  0.00000000000E+00  0.00000000000E+00  0.45593999997E+02  0.45594000000E+02  0.51100000000E-03 0.  1.
         11   -1    0    0    0    0 -0.00000000000E+00 -0.00000000000E+00 -0.45593999997E+02  0.45594000000E+02  0.51100000000E-03 0. -1.
    9900012    2    1    2    0    0 -0.32294855658E+02 -0.45051319350E+01  0.24288102319E+02  0.50528857978E+02  0.29999994309E+02 0.  0.
         12    1    1    2    0    0  0.32294855658E+02  0.45051319350E+01 -0.24288102319E+02  0.40659142022E+02  0.00000000000E+00 0. -1.
         11    1    3    3    0    0 -0.10867292767E+02  0.30817192112E+01 -0.68532910933E+00  0.11316568456E+02  0.51100000000E-03 0. -1.
        -11    1    3    3    0    0 -0.25243488798E+02 -0.65492323349E+01  0.23090450144E+02  0.34832385204E+02  0.51100000000E-03 0.  1.
        -12    1    3    3    0    0  0.38159259062E+01 -0.10376188113E+01  0.18829812836E+01  0.43799043178E+01  0.00000000000E+00 0.  1.
</event>
<event>
 7    1  0.4320425E-011  0.5052886E+02  0.7816164E-02  0.1300439E+00
        -11   -1    0    0    0    0  0.00000000000E+00  0.00000000000E+00  0.45593999997E+02  0.45594000000E+02  0.51100000000E-03 0. -1.
         11   -1    0    0    0    0 -0.00000000000E+00 -0.00000000000E+00 -0.45593999997E+02  0.45594000000E+02  0.51100000000E-03 0.  1.
    9900012    2    1    2    0    0 -0.31119233400E+02  0.16131724593E+02 -0.20604038501E+02  0.50528860458E+02  0.30000001847E+02 0.  0.
         12    1    1    2    0    0  0.31119233400E+02 -0.16131724593E+02  0.20604038501E+02  0.40659139542E+02  0.00000000000E+00 0. -1.
         11    1    3    3    0    0 -0.87167135876E+00  0.24591862818E+01  0.46413637525E+01  0.53244404279E+01  0.51100000000E-03 0. -1.
        -11    1    3    3    0    0 -0.26506234075E+02  0.67202651613E+01 -0.12170987487E+02  0.29931176812E+02  0.51100000000E-03 0.  1.
        -12    1    3    3    0    0 -0.37413279668E+01  0.69522731496E+01 -0.13074414767E+02  0.15273243218E+02  0.00000000000E+00 0.  1.
</event>
<event>
 7    1  0.3004200E-011  0.5052888E+02  0.7816164E-02  0.1300439E+00
        -11   -1    0    0    0    0  0.00000000000E+00  0.00000000000E+00  0.45593999997E+02  0.45594000000E+02  0.51100000000E-03 0.  1.
         11   -1    0    0    0    0 -0.00000000000E+00 -0.00000000000E+00 -0.45593999997E+02  0.45594000000E+02  0.51100000000E-03 0. -1.
    9900012    2    1    2    0    0  0.31519602287E+01  0.37040012741E+02 -0.16470174517E+02  0.50528879919E+02  0.30000061003E+02 0.  0.
         12    1    1    2    0    0 -0.31519602287E+01 -0.37040012741E+02  0.16470174517E+02  0.40659120081E+02  0.00000000000E+00 0. -1.
         11    1    3    3    0    0 -0.71736051183E+01  0.19567335429E+02  0.26221466975E+00  0.20842504239E+02  0.51100000000E-03 0.  1.
        -11    1    3    3    0    0  0.11373612286E+02  0.16758948035E+02 -0.95492450610E+01  0.22392174463E+02  0.51100000000E-03 0. -1.
        -12    1    3    3    0    0 -0.10480469386E+01  0.71372927704E+00 -0.71831441260E+01  0.72942012175E+01  0.00000000000E+00 0.  1.
</event>
<event>
 7    1  0.3004200E-011  0.5052886E+02  0.7816164E-02  0.1300439E+00
        -11   -1    0    0    0    0  0.00000000000E+00  0.00000000000E+00  0.45593999997E+02  0.45594000000E+02  0.51100000000E-03 0. -1.
         11   -1    0    0    0    0 -0.00000000000E+00 -0.00000000000E+00 -0.45593999997E+02  0.45594000000E+02  0.51100000000E-03 0.  1.
    9900012    2    1    2    0    0 -0.13051397287E+02 -0.22756723733E+02 -0.31063780082E+02  0.50528857373E+02  0.29999992470E+02 0.  0.
         12    1    1    2    0    0  0.13051397287E+02  0.22756723733E+02  0.31063780082E+02  0.40659142627E+02  0.00000000000E+00 0. -1.
         11    1    3    3    0    0 -0.21985877308E+01  0.91948049208E+00 -0.40608189040E+01  0.47084480264E+01  0.51100000000E-03 0. -1.
        -11    1    3    3    0    0 -0.82127206743E+01 -0.25743101998E+02 -0.10515344033E+02  0.28995319308E+02  0.51100000000E-03 0.  1.
        -12    1    3    3    0    0 -0.26400888819E+01  0.20668977728E+01 -0.16487617144E+02  0.16825090038E+02  0.00000000000E+00 0.  1.
</event>
<event>
 7    1  0.3004200E-011  0.5052886E+02  0.7816164E-02  0.1300439E+00
        -11   -1    0    0    0    0  0.00000000000E+00  0.00000000000E+00  0.45593999997E+02  0.45594000000E+02  0.51100000000E-03 0.  1.
         11   -1    0    0    0    0 -0.00000000000E+00 -0.00000000000E+00 -0.45593999997E+02  0.45594000000E+02  0.51100000000E-03 0. -1.
    9900012    2    1    2    0    0 -0.26458407232E+02  0.22538095324E+02  0.21098637646E+02  0.50528861241E+02  0.30000004228E+02 0.  0.
         12    1    1    2    0    0  0.26458407232E+02 -0.22538095324E+02 -0.21098637646E+02  0.40659138759E+02  0.00000000000E+00 0. -1.
         11    1    3    3    0    0  0.44566601774E+01  0.26847526376E+01  0.11143786791E+02  0.12298524341E+02  0.51100000000E-03 0. -1.
        -11    1    3    3    0    0 -0.15787736002E+02  0.80593648054E+01  0.44983135378E+01  0.18287722496E+02  0.51100000000E-03 0.  1.
         12    1    3    3    0    0 -0.15127331407E+02  0.11793977881E+02  0.54565373171E+01  0.19942614403E+02  0.00000000000E+00 0. -1.
</event>
<event>
 7    1  0.3004200E-011  0.5052886E+02  0.7816164E-02  0.1300439E+00
        -11   -1    0    0    0    0  0.00000000000E+00  0.00000000000E+00  0.45593999997E+02  0.45594000000E+02  0.51100000000E-03 0.  1.
         11   -1    0    0    0    0 -0.00000000000E+00 -0.00000000000E+00 -0.45593999997E+02  0.45594000000E+02  0.51100000000E-03 0. -1.
    9900012    2    1    2    0    0  0.31994842248E+02 -0.97374580894E+01  0.23123095667E+02  0.50528861129E+02  0.30000003887E+02 0.  0.
         12    1    1    2    0    0 -0.31994842248E+02  0.97374580894E+01 -0.23123095667E+02  0.40659138871E+02  0.00000000000E+00 0. -1.
         11    1    3    3    0    0  0.15564695840E+01  0.40041194082E+01 -0.28801215296E+01  0.51721049958E+01  0.51100000000E-03 0. -1.
        -11    1    3    3    0    0  0.30830990098E+02 -0.89075464840E+01  0.20796743801E+02  0.38241324346E+02  0.51100000000E-03 0.  1.
         12    1    3    3    0    0 -0.39261743369E+00 -0.48340310137E+01  0.52064733954E+01  0.71154317864E+01  0.00000000000E+00 0. -1.
</event>
<event>
 7    1  0.3004200E-011  0.5052886E+02  0.7816164E-02  0.1300439E+00
        -11   -1    0    0    0    0  0.00000000000E+00  0.00000000000E+00  0.45593999997E+02  0.45594000000E+02  0.51100000000E-03 0.  1.
         11   -1    0    0    0    0 -0.00000000000E+00 -0.00000000000E+00 -0.45593999997E+02  0.45594000000E+02  0.51100000000E-03 0. -1.
    9900012    2    1    2    0    0  0.72685386389E+01 -0.22054902163E+02  0.33375370815E+02  0.50528859079E+02  0.29999997657E+02 0.  0.
         12    1    1    2    0    0 -0.72685386389E+01  0.22054902163E+02 -0.33375370815E+02  0.40659140921E+02  0.00000000000E+00 0. -1.
         11    1    3    3    0    0  0.17159883313E+01  0.20124296747E+01 -0.38428032631E+01  0.46649358333E+01  0.51100000000E-03 0. -1.
        -11    1    3    3    0    0  0.16557162761E+01 -0.58225981453E+01  0.18379428377E+02  0.19350644260E+02  0.51100000000E-03 0.  1.
         12    1    3    3    0    0  0.38968340315E+01 -0.18244733693E+02  0.18838745702E+02  0.26513278986E+02  0.00000000000E+00 0. -1.
</event>
<event>
 7    1  0.3004200E-011  0.5052887E+02  0.7816164E-02  0.1300439E+00
        -11   -1    0    0    0    0  0.00000000000E+00  0.00000000000E+00  0.45593999997E+02  0.45594000000E+02  0.51100000000E-03 0. -1.
         11   -1    0    0    0    0 -0.00000000000E+00 -0.00000000000E+00 -0.45593999997E+02  0.45594000000E+02  0.51100000000E-03 0.  1.
    9900012    2    1    2    0    0 -0.60797938887E+01  0.67977309002E+01 -0.39623120113E+02  0.50528872039E+02  0.30000037049E+02 0.  0.
         12    1    1    2    0    0  0.60797938887E+01 -0.67977309002E+01  0.39623120113E+02  0.40659127961E+02  0.00000000000E+00 0. -1.
         11    1    3    3    0    0 -0.87447734048E+01 -0.34249565501E+01 -0.26086444280E+01  0.97471234364E+01  0.51100000000E-03 0. -1.
        -11    1    3    3    0    0 -0.26462273531E+01  0.11374165119E+02 -0.25798278933E+02  0.28318286451E+02  0.51100000000E-03 0.  1.
         12    1    3    3    0    0  0.53112068692E+01 -0.11514776686E+01 -0.11216196752E+02  0.12463462152E+02  0.00000000000E+00 0. -1.
</event>
<event>
 7    1  0.3004200E-011  0.5052886E+02  0.7816164E-02  0.1300439E+00
        -11   -1    0    0    0    0  0.00000000000E+00  0.00000000000E+00  0.45593999997E+02  0.45594000000E+02  0.51100000000E-03 0. -1.
         11   -1    0    0    0    0 -0.00000000000E+00 -0.00000000000E+00 -0.45593999997E+02  0.45594000000E+02  0.51100000000E-03 0.  1.
    9900012    2    1    2    0    0 -0.19683909910E+02 -0.29073796718E+02  0.20504233044E+02  0.50528861572E+02  0.30000005235E+02 0.  0.
         12    1    1    2    0    0  0.19683909910E+02  0.29073796718E+02 -0.20504233044E+02  0.40659138428E+02  0.00000000000E+00 0. -1.
         11    1    3    3    0    0  0.15137121825E+01 -0.18702012795E+02  0.37332724590E+01  0.19130967844E+02  0.51100000000E-03 0.  1.
        -11    1    3    3    0    0 -0.15999256959E+02 -0.53193229757E+01  0.17264939440E+02  0.24131919822E+02  0.51100000000E-03 0. -1.
         12    1    3    3    0    0 -0.51983651343E+01 -0.50524609474E+01 -0.49397885520E+00  0.72659739061E+01  0.00000000000E+00 0. -1.
</event>
<event>
 7    1  0.3004200E-011  0.5052886E+02  0.7816164E-02  0.1300439E+00
        -11   -1    0    0    0    0  0.00000000000E+00  0.00000000000E+00  0.45593999997E+02  0.45594000000E+02  0.51100000000E-03 0.  1.
         11   -1    0    0    0    0 -0.00000000000E+00 -0.00000000000E+00 -0.45593999997E+02  0.45594000000E+02  0.51100000000E-03 0. -1.
    9900012    2    1    2    0    0  0.34145976281E+02  0.39544558917E+01  0.21715898836E+02  0.50528859825E+02  0.29999999923E+02 0.  0.
         12    1    1    2    0    0 -0.34145976281E+02 -0.39544558917E+01 -0.21715898836E+02  0.40659140175E+02  0.00000000000E+00 0. -1.
         11    1    3    3    0    0 -0.46676555185E+00 -0.12561107567E+01 -0.41164702235E+01  0.43290890122E+01  0.51100000000E-03 0. -1.
        -11    1    3    3    0    0  0.18072306706E+02  0.10470425283E+02  0.15390579041E+02  0.25944324981E+02  0.51100000000E-03 0.  1.
        -12    1    3    3    0    0  0.16540435127E+02 -0.52598586341E+01  0.10441790018E+02  0.20255445831E+02  0.00000000000E+00 0.  1.
</event>
<event>
 7    1  0.3004200E-011  0.5052886E+02  0.7816164E-02  0.1300439E+00
        -11   -1    0    0    0    0  0.00000000000E+00  0.00000000000E+00  0.45593999997E+02  0.45594000000E+02  0.51100000000E-03 0. -1.
         11   -1    0    0    0    0 -0.00000000000E+00 -0.00000000000E+00 -0.45593999997E+02  0.45594000000E+02  0.51100000000E-03 0.  1.
    9900012    2    1    2    0    0  0.37742725065E+02  0.14797641813E+02 -0.31116143485E+01  0.50528860284E+02  0.30000001320E+02 0.  0.
         12    1    1    2    0    0 -0.37742725065E+02 -0.14797641813E+02  0.31116143485E+01  0.40659139716E+02  0.00000000000E+00 0. -1.
         11    1    3    3    0    0  0.34097428106E+01  0.61584819376E+01 -0.66528186377E+01  0.96857236125E+01  0.51100000000E-03 0. -1.
        -11    1    3    3    0    0  0.22256719501E+02  0.13175422437E+02  0.81916380981E+01  0.27130356693E+02  0.51100000000E-03 0.  1.
        -12    1    3    3    0    0  0.12076262754E+02 -0.45362625610E+01 -0.46504338089E+01  0.13712779978E+02  0.00000000000E+00 0.  1.
</event>
<event>
 7    1  0.3004200E-011  0.5052885E+02  0.7816164E-02  0.1300439E+00
        -11   -1    0    0    0    0  0.00000000000E+00  0.00000000000E+00  0.45593999997E+02  0.45594000000E+02  0.51100000000E-03 0. -1.
         11   -1    0    0    0    0 -0.00000000000E+00 -0.00000000000E+00 -0.45593999997E+02  0.45594000000E+02  0.51100000000E-03 0.  1.
    9900012    2    1    2    0    0 -0.12811762867E+02  0.37033907376E+02 -0.10840412453E+02  0.50528854590E+02  0.29999984012E+02 0.  0.
         12    1    1    2    0    0  0.12811762867E+02 -0.37033907376E+02  0.10840412453E+02  0.40659145410E+02  0.00000000000E+00 0. -1.
         11    1    3    3    0    0  0.47111763067E+01  0.41090572865E+01  0.11006972046E+01  0.63475246021E+01  0.51100000000E-03 0. -1.
        -11    1    3    3    0    0 -0.19103760432E+02  0.27221406592E+02 -0.16099569256E+02  0.36948000892E+02  0.51100000000E-03 0.  1.
        -12    1    3    3    0    0  0.15808212581E+01  0.57034434976E+01  0.41584595975E+01  0.72333290956E+01  0.00000000000E+00 0.  1.
</event>
<event>
 7    1  0.3004200E-011  0.5052886E+02  0.7816164E-02  0.1300439E+00
        -11   -1    0    0    0    0  0.00000000000E+00  0.00000000000E+00  0.45593999997E+02  0.45594000000E+02  0.51100000000E-03 0.  1.
         11   -1    0    0    0    0 -0.00000000000E+00 -0.00000000000E+00 -0.45593999997E+02  0.45594000000E+02  0.51100000000E-03 0. -1.
    9900012    2    1    2    0    0 -0.21347589082E+02  0.33786894925E+02  0.74760871783E+01  0.50528859481E+02  0.29999998879E+02 0.  0.
         12    1    1    2    0    0  0.21347589082E+02 -0.33786894925E+02 -0.74760871783E+01  0.40659140519E+02  0.00000000000E+00 0. -1.
         11    1    3    3    0    0  0.28975246014E+01  0.10611316605E+02  0.50357302879E+01  0.12097696835E+02  0.51100000000E-03 0. -1.
        -11    1    3    3    0    0 -0.23873563684E+02  0.25862115800E+02  0.69005065007E+00  0.35203298805E+02  0.51100000000E-03 0.  1.
        -12    1    3    3    0    0 -0.37154999943E+00 -0.26865374811E+01  0.17503062403E+01  0.32278638407E+01  0.00000000000E+00 0.  1.
</event>
<event>
 7    1  0.3004200E-011  0.5052886E+02  0.7816164E-02  0.1300439E+00
        -11   -1    0    0    0    0  0.00000000000E+00  0.00000000000E+00  0.45593999997E+02  0.45594000000E+02  0.51100000000E-03 0. -1.
         11   -1    0    0    0    0 -0.00000000000E+00 -0.00000000000E+00 -0.45593999997E+02  0.45594000000E+02  0.51100000000E-03 0.  1.
    9900012    2    1    2    0    0  0.35170554942E+02  0.40307908080E+01  0.19998755935E+02  0.50528862670E+02  0.30000008572E+02 0.  0.
         12    1    1    2    0    0 -0.35170554942E+02 -0.40307908080E+01 -0.19998755935E+02  0.40659137330E+02  0.00000000000E+00 0. -1.
         11    1    3    3    0    0  0.33625211446E+01 -0.13560772280E+01  0.64652777340E+01  0.74125103935E+01  0.51100000000E-03 0. -1.
        -11    1    3    3    0    0  0.16530883722E+02 -0.28085237682E+01 -0.52352032318E+01  0.17566026173E+02  0.51100000000E-03 0.  1.
        -12    1    3    3    0    0  0.15277150076E+02  0.81953918041E+01  0.18768681432E+02  0.25550326103E+02  0.00000000000E+00 0.  1.
</event>
<event>
 7    1  0.3004200E-011  0.5052886E+02  0.7816164E-02  0.1300439E+00
        -11   -1    0    0    0    0  0.00000000000E+00  0.00000000000E+00  0.45593999997E+02  0.45594000000E+02  0.51100000000E-03 0.  1.
         11   -1    0    0    0    0 -0.00000000000E+00 -0.00000000000E+00 -0.45593999997E+02  0.45594000000E+02  0.51100000000E-03 0. -1.
    9900012    2    1    2    0    0  0.12470411917E+02 -0.17880724113E+02  0.34321041121E+02  0.50528864105E+02  0.30000012932E+02 0.  0.
         12    1    1    2    0    0 -0.12470411917E+02  0.17880724113E+02 -0.34321041121E+02  0.40659135895E+02  0.00000000000E+00 0. -1.
         11    1    3    3    0    0 -0.20573440159E+01 -0.99629525721E+01  0.27499056619E+02  0.29320491189E+02  0.51100000000E-03 0. -1.
        -11    1    3    3    0    0  0.13897619553E+02 -0.85514500174E+01  0.91546448566E+01  0.18710388808E+02  0.51100000000E-03 0.  1.
         12    1    3    3    0    0  0.63013637950E+00  0.63367847689E+00 -0.23326603553E+01  0.24979841076E+01  0.00000000000E+00 0. -1.
</event>
<event>
 7    1  0.3004200E-011  0.5052887E+02  0.7816164E-02  0.1300439E+00
        -11   -1    0    0    0    0  0.00000000000E+00  0.00000000000E+00  0.45593999997E+02  0.45594000000E+02  0.51100000000E-03 0. -1.
         11   -1    0    0    0    0 -0.00000000000E+00 -0.00000000000E+00 -0.45593999997E+02  0.45594000000E+02  0.51100000000E-03 0.  1.
    9900012    2    1    2    0    0 -0.24757992039E+02 -0.28760343590E+02 -0.14596219050E+02  0.50528866416E+02  0.30000019959E+02 0.  0.
         12    1    1    2    0    0  0.24757992039E+02  0.28760343590E+02  0.14596219050E+02  0.40659133584E+02  0.00000000000E+00 0. -1.
         11    1    3    3    0    0 -0.65331699172E+01 -0.28143098035E+02 -0.48685326733E+01  0.29298786440E+02  0.51100000000E-03 0. -1.
        -11    1    3    3    0    0 -0.13043560932E+02  0.11535150763E+01 -0.50706363800E+01  0.14041952585E+02  0.51100000000E-03 0.  1.
         12    1    3    3    0    0 -0.51812611898E+01 -0.17707606310E+01 -0.46570499971E+01  0.71881273921E+01  0.00000000000E+00 0. -1.
</event>
<event>
 7    1  0.3004200E-011  0.5052893E+02  0.7816164E-02  0.1300439E+00
        -11   -1    0    0    0    0  0.00000000000E+00  0.00000000000E+00  0.45593999997E+02  0.45594000000E+02  0.51100000000E-03 0. -1.
         11   -1    0    0    0    0 -0.00000000000E+00 -0.00000000000E+00 -0.45593999997E+02  0.45594000000E+02  0.51100000000E-03 0.  1.
    9900012    2    1    2    0    0  0.11195448505E+02 -0.22744086073E+02 -0.31788815422E+02  0.50528925927E+02  0.30000200847E+02 0.  0.
         12    1    1    2    0    0 -0.11195448505E+02  0.22744086073E+02  0.31788815422E+02  0.40659074073E+02  0.00000000000E+00 0. -1.
         11    1    3    3    0    0  0.88531702576E-01 -0.20885559090E+00  0.67487231614E+00  0.71197712353E+00  0.51100000000E-03 0. -1.
        -11    1    3    3    0    0 -0.95772669144E+01 -0.69787907878E+01 -0.89627941107E+01  0.14857968937E+02  0.51100000000E-03 0.  1.
        -12    1    3    3    0    0  0.20684183716E+02 -0.15556439694E+02 -0.23500893628E+02  0.34958979866E+02  0.00000000000E+00 0.  1.
</event>
<event>
 7    1  0.3004200E-011  0.5052886E+02  0.7816164E-02  0.1300439E+00
        -11   -1    0    0    0    0  0.00000000000E+00  0.00000000000E+00  0.45593999997E+02  0.45594000000E+02  0.51100000000E-03 0.  1.
         11   -1    0    0    0    0 -0.00000000000E+00 -0.00000000000E+00 -0.45593999997E+02  0.45594000000E+02  0.51100000000E-03 0. -1.
    9900012    2    1    2    0    0  0.39161956916E+02 -0.27215816223E-01  0.10931896484E+02  0.50528856245E+02  0.29999989042E+02 0.  0.
         12    1    1    2    0    0 -0.39161956916E+02  0.27215816223E-01 -0.10931896484E+02  0.40659143755E+02  0.00000000000E+00 0. -1.
         11    1    3    3    0    0  0.22417650918E+02 -0.63629702221E+01 -0.64322075860E+01  0.24174609768E+02  0.51100000000E-03 0. -1.
        -11    1    3    3    0    0  0.12686003940E+02  0.15365692328E+01  0.14833701987E+02  0.19578928875E+02  0.51100000000E-03 0.  1.
         12    1    3    3    0    0  0.40583020572E+01  0.47991851731E+01  0.25304020823E+01  0.67753176022E+01  0.00000000000E+00 0. -1.
</event>
<event>
 7    1  0.3004200E-011  0.5052886E+02  0.7816164E-02  0.1300439E+00
        -11   -1    0    0    0    0  0.00000000000E+00  0.00000000000E+00  0.45593999997E+02  0.45594000000E+02  0.51100000000E-03 0.  1.
         11   -1    0    0    0    0 -0.00000000000E+00 -0.00000000000E+00 -0.45593999997E+02  0.45594000000E+02  0.51100000000E-03 0. -1.
    9900012    2    1    2    0    0 -0.27412797786E+02  0.27835710287E+02 -0.11264001536E+02  0.50528856130E+02  0.29999988693E+02 0.  0.
         12    1    1    2    0    0  0.27412797786E+02 -0.27835710287E+02  0.11264001536E+02  0.40659143870E+02  0.00000000000E+00 0. -1.
         11    1    3    3    0    0 -0.13222779316E+02  0.20534962100E+02 -0.13944953704E+02  0.28124514136E+02  0.51100000000E-03 0. -1.
        -11    1    3    3    0    0 -0.56844576412E+00  0.42010630922E+01  0.66457856363E+01  0.78827995456E+01  0.51100000000E-03 0.  1.
        -12    1    3    3    0    0 -0.13621572706E+02  0.30996850950E+01 -0.39648334681E+01  0.14521542449E+02  0.00000000000E+00 0.  1.
</event>
<event>
 7    1  0.3004200E-011  0.5052886E+02  0.7816164E-02  0.1300439E+00
        -11   -1    0    0    0    0  0.00000000000E+00  0.00000000000E+00  0.45593999997E+02  0.45594000000E+02  0.51100000000E-03 0.  1.
         11   -1    0    0    0    0 -0.00000000000E+00 -0.00000000000E+00 -0.45593999997E+02  0.45594000000E+02  0.51100000000E-03 0. -1.
    9900012    2    1    2    0    0 -0.22050606903E+02 -0.33981096975E+02  0.34959203049E+01  0.50528859881E+02  0.30000000095E+02 0.  0.
         12    1    1    2    0    0  0.22050606903E+02  0.33981096975E+02 -0.34959203049E+01  0.40659140119E+02  0.00000000000E+00 0. -1.
         11    1    3    3    0    0 -0.97707594881E+01  0.21062824970E-01 -0.36281445151E+01  0.10422649255E+02  0.51100000000E-03 0. -1.
        -11    1    3    3    0    0 -0.14949816869E+02 -0.32226533299E+02  0.42108905981E+01  0.35773985978E+02  0.51100000000E-03 0.  1.
        -12    1    3    3    0    0  0.26699694534E+01 -0.17756265013E+01  0.29131742219E+01  0.43322246481E+01  0.00000000000E+00 0.  1.
</event>
<event>
 7    1  0.3004200E-011  0.5052880E+02  0.7816164E-02  0.1300439E+00
        -11   -1    0    0    0    0  0.00000000000E+00  0.00000000000E+00  0.45593999997E+02  0.45594000000E+02  0.51100000000E-03 0. -1.
         11   -1    0    0    0    0 -0.00000000000E+00 -0.00000000000E+00 -0.45593999997E+02  0.45594000000E+02  0.51100000000E-03 0.  1.
    9900012    2    1    2    0    0 -0.84466524393E+01  0.38234793695E+02  0.10951040117E+02  0.50528798508E+02  0.29999813545E+02 0.  0.
         12    1    1    2    0    0  0.84466524393E+01 -0.38234793695E+02 -0.10951040117E+02  0.40659201492E+02  0.00000000000E+00 0. -1.
         11    1    3    3    0    0  0.63380430912E+01  0.13837916299E+02  0.27186328808E+01  0.15461231605E+02  0.51100000000E-03 0. -1.
        -11    1    3    3    0    0 -0.16697055964E+02  0.23869632840E+02  0.27761437520E+01  0.29261886886E+02  0.51100000000E-03 0.  1.
        -12    1    3    3    0    0  0.19123604333E+01  0.52724455558E+00  0.54562634845E+01  0.58056800171E+01  0.00000000000E+00 0.  1.
</event>
<event>
 7    1  0.3004200E-011  0.5052885E+02  0.7816164E-02  0.1300439E+00
        -11   -1    0    0    0    0  0.00000000000E+00  0.00000000000E+00  0.45593999997E+02  0.45594000000E+02  0.51100000000E-03 0.  1.
         11   -1    0    0    0    0 -0.00000000000E+00 -0.00000000000E+00 -0.45593999997E+02  0.45594000000E+02  0.51100000000E-03 0. -1.
    9900012    2    1    2    0    0  0.20199932814E+02  0.91598482049E+01  0.34076769884E+02  0.50528851576E+02  0.29999974851E+02 0.  0.
         12    1    1    2    0    0 -0.20199932814E+02 -0.91598482049E+01 -0.34076769884E+02  0.40659148424E+02  0.00000000000E+00 0. -1.
         11    1    3    3    0    0 -0.24335331473E+01 -0.92597851056E+00 -0.33124911493E+01  0.42133261986E+01  0.51100000000E-03 0. -1.
        -11    1    3    3    0    0  0.73216278898E+01  0.95005947537E+01  0.15610661656E+02  0.19686551075E+02  0.51100000000E-03 0.  1.
         12    1    3    3    0    0  0.15311838072E+02  0.58523196178E+00  0.21778599376E+02  0.26628974302E+02  0.00000000000E+00 0. -1.
</event>
<event>
 7    1  0.3004200E-011  0.5052889E+02  0.7816164E-02  0.1300439E+00
        -11   -1    0    0    0    0  0.00000000000E+00  0.00000000000E+00  0.45593999997E+02  0.45594000000E+02  0.51100000000E-03 0.  1.
         11   -1    0    0    0    0 -0.00000000000E+00 -0.00000000000E+00 -0.45593999997E+02  0.45594000000E+02  0.51100000000E-03 0. -1.
    9900012    2    1    2    0    0 -0.85299437870E+01  0.10539893761E+02  0.38331625857E+02  0.50528894718E+02  0.30000105983E+02 0.  0.
         12    1    1    2    0    0  0.85299437870E+01 -0.10539893761E+02 -0.38331625857E+02  0.40659105282E+02  0.00000000000E+00 0. -1.
         11    1    3    3    0    0 -0.91949976692E+01  0.21259387191E+01 -0.69496207451E+00  0.94631163007E+01  0.51100000000E-03 0. -1.
        -11    1    3    3    0    0  0.30573103277E+01  0.83299895257E+01  0.36588230999E+02  0.37648831587E+02  0.51100000000E-03 0.  1.
        -12    1    3    3    0    0 -0.23922564455E+01  0.83965516444E-01  0.24383569326E+01  0.34169468301E+01  0.00000000000E+00 0.  1.
</event>
<event>
 7    1  0.3004200E-011  0.5052887E+02  0.7816164E-02  0.1300439E+00
        -11   -1    0    0    0    0  0.00000000000E+00  0.00000000000E+00  0.45593999997E+02  0.45594000000E+02  0.51100000000E-03 0.  1.
         11   -1    0    0    0    0 -0.00000000000E+00 -0.00000000000E+00 -0.45593999997E+02  0.45594000000E+02  0.51100000000E-03 0. -1.
    9900012    2    1    2    0    0  0.11193839348E+02  0.20002316337E+02  0.33582290196E+02  0.50528869254E+02  0.30000028585E+02 0.  0.
         12    1    1    2    0    0 -0.11193839348E+02 -0.20002316337E+02 -0.33582290196E+02  0.40659130746E+02  0.00000000000E+00 0. -1.
         11    1    3    3    0    0 -0.15192619920E+01 -0.69388381602E+01  0.33217333892E+01  0.78415269548E+01  0.51100000000E-03 0. -1.
        -11    1    3    3    0    0  0.93098565059E+01  0.14784850276E+02  0.18178038288E+02  0.25213216814E+02  0.51100000000E-03 0.  1.
         12    1    3    3    0    0  0.34032448340E+01  0.12156304221E+02  0.12082518519E+02  0.17474125486E+02  0.00000000000E+00 0. -1.
</event>
<event>
 7    1  0.3004200E-011  0.5052887E+02  0.7816164E-02  0.1300439E+00
        -11   -1    0    0    0    0  0.00000000000E+00  0.00000000000E+00  0.45593999997E+02  0.45594000000E+02  0.51100000000E-03 0. -1.
         11   -1    0    0    0    0 -0.00000000000E+00 -0.00000000000E+00 -0.45593999997E+02  0.45594000000E+02  0.51100000000E-03 0.  1.
    9900012    2    1    2    0    0  0.11700478886E+02  0.30717804777E+02 -0.23930739564E+02  0.50528867785E+02  0.30000024118E+02 0.  0.
         12    1    1    2    0    0 -0.11700478886E+02 -0.30717804777E+02  0.23930739564E+02  0.40659132215E+02  0.00000000000E+00 0. -1.
         11    1    3    3    0    0  0.35366533088E+01  0.26192092333E+02 -0.98094787158E+01  0.28191479038E+02  0.51100000000E-03 0. -1.
        -11    1    3    3    0    0 -0.41153488918E+01  0.25266643539E-01 -0.45239142193E+01  0.61157611979E+01  0.51100000000E-03 0.  1.
         12    1    3    3    0    0  0.12279174469E+02  0.45004458006E+01 -0.95973466284E+01  0.16221627549E+02  0.00000000000E+00 0. -1.
</event>
<event>
 7    1  0.3004200E-011  0.5052885E+02  0.7816164E-02  0.1300439E+00
        -11   -1    0    0    0    0  0.00000000000E+00  0.00000000000E+00  0.45593999997E+02  0.45594000000E+02  0.51100000000E-03 0. -1.
         11   -1    0    0    0    0 -0.00000000000E+00 -0.00000000000E+00 -0.45593999997E+02  0.45594000000E+02  0.51100000000E-03 0.  1.
    9900012    2    1    2    0    0 -0.94254200821E+01  0.17048606241E+02 -0.35688559101E+02  0.50528846428E+02  0.29999959201E+02 0.  0.
         12    1    1    2    0    0  0.94254200821E+01 -0.17048606241E+02  0.35688559101E+02  0.40659153572E+02  0.00000000000E+00 0. -1.
         11    1    3    3    0    0 -0.42072480039E+01 -0.41223921669E+01  0.18979149857E+01  0.61884678636E+01  0.51100000000E-03 0. -1.
        -11    1    3    3    0    0  0.14185823196E+01  0.29060873581E+01 -0.10618176154E+02  0.11099702007E+02  0.51100000000E-03 0.  1.
         12    1    3    3    0    0 -0.66367543978E+01  0.18264911050E+02 -0.26968297933E+02  0.33240676557E+02  0.00000000000E+00 0. -1.
</event>
<event>
 7    1  0.3004200E-011  0.5052886E+02  0.7816164E-02  0.1300439E+00
        -11   -1    0    0    0    0  0.00000000000E+00  0.00000000000E+00  0.45593999997E+02  0.45594000000E+02  0.51100000000E-03 0. -1.
         11   -1    0    0    0    0 -0.00000000000E+00 -0.00000000000E+00 -0.45593999997E+02  0.45594000000E+02  0.51100000000E-03 0.  1.
    9900012    2    1    2    0    0 -0.17702505358E+02 -0.35933458515E+02 -0.69694818677E+01  0.50528858171E+02  0.29999994896E+02 0.  0.
         12    1    1    2    0    0  0.17702505358E+02  0.35933458515E+02  0.69694818677E+01  0.40659141829E+02  0.00000000000E+00 0. -1.
         11    1    3    3    0    0 -0.18573939314E+02 -0.17230449203E+02  0.37580599124E+01  0.25612548017E+02  0.51100000000E-03 0. -1.
        -11    1    3    3    0    0 -0.33223020970E+01 -0.15816058546E+02 -0.11404720081E+02  0.19780117279E+02  0.51100000000E-03 0.  1.
         12    1    3    3    0    0  0.41937360524E+01 -0.28869507655E+01  0.67717830094E+00  0.51361928751E+01  0.00000000000E+00 0. -1.
</event>
<event>
 7    1  0.3693649E-011  0.5052885E+02  0.7816164E-02  0.1300439E+00
        -11   -1    0    0    0    0  0.00000000000E+00  0.00000000000E+00  0.45593999997E+02  0.45594000000E+02  0.51100000000E-03 0.  1.
         11   -1    0    0    0    0 -0.00000000000E+00 -0.00000000000E+00 -0.45593999997E+02  0.45594000000E+02  0.51100000000E-03 0. -1.
    9900012    2    1    2    0    0  0.40572167491E+02 -0.12466978361E+01  0.23477038809E+01  0.50528846739E+02  0.29999960148E+02 0.  0.
         12    1    1    2    0    0 -0.40572167491E+02  0.12466978361E+01 -0.23477038809E+01  0.40659153261E+02  0.00000000000E+00 0. -1.
         11    1    3    3    0    0  0.94245049876E+01  0.15719586399E+01 -0.10080087110E+02  0.13888862611E+02  0.51100000000E-03 0. -1.
        -11    1    3    3    0    0  0.90389953641E+01  0.30524719311E+01  0.96956523356E+01  0.13602451858E+02  0.51100000000E-03 0.  1.
        -12    1    3    3    0    0  0.22108667139E+02 -0.58711284072E+01  0.27321386553E+01  0.23037532270E+02  0.00000000000E+00 0.  1.
</event>
<event>
 7    1  0.3004200E-011  0.5052878E+02  0.7816164E-02  0.1300439E+00
        -11   -1    0    0    0    0  0.00000000000E+00  0.00000000000E+00  0.45593999997E+02  0.45594000000E+02  0.51100000000E-03 0. -1.
         11   -1    0    0    0    0 -0.00000000000E+00 -0.00000000000E+00 -0.45593999997E+02  0.45594000000E+02  0.51100000000E-03 0.  1.
    9900012    2    1    2    0    0 -0.63501068607E+00  0.39988613974E+02 -0.73266546329E+01  0.50528777747E+02  0.29999750439E+02 0.  0.
         12    1    1    2    0    0  0.63501068607E+00 -0.39988613974E+02  0.73266546329E+01  0.40659222253E+02  0.00000000000E+00 0. -1.
         11    1    3    3    0    0 -0.15669977652E+01  0.74954645416E+01  0.54489977288E+01  0.93983534302E+01  0.51100000000E-03 0. -1.
        -11    1    3    3    0    0 -0.61275240629E+01  0.29410139630E+02 -0.14309921638E+02  0.33275767786E+02  0.51100000000E-03 0.  1.
        -12    1    3    3    0    0  0.70595111421E+01  0.30830098016E+01  0.15342692761E+01  0.78546565306E+01  0.00000000000E+00 0.  1.
</event>
<event>
 7    1  0.3004200E-011  0.5052886E+02  0.7816164E-02  0.1300439E+00
        -11   -1    0    0    0    0  0.00000000000E+00  0.00000000000E+00  0.45593999997E+02  0.45594000000E+02  0.51100000000E-03 0.  1.
         11   -1    0    0    0    0 -0.00000000000E+00 -0.00000000000E+00 -0.45593999997E+02  0.45594000000E+02  0.51100000000E-03 0. -1.
    9900012    2    1    2    0    0  0.13110706924E+02 -0.41404754762E+01  0.38263972473E+02  0.50528858806E+02  0.29999996828E+02 0.  0.
         12    1    1    2    0    0 -0.13110706924E+02  0.41404754762E+01 -0.38263972473E+02  0.40659141194E+02  0.00000000000E+00 0. -1.
         11    1    3    3    0    0 -0.45425830416E+01 -0.97103796726E+00  0.39666984850E+01  0.61084099859E+01  0.51100000000E-03 0. -1.
        -11    1    3    3    0    0  0.14383757882E+02 -0.13600505512E+01  0.37057745207E+02  0.39774598784E+02  0.51100000000E-03 0.  1.
        -12    1    3    3    0    0  0.32695320839E+01 -0.18093869577E+01 -0.27604712195E+01  0.46458500368E+01  0.00000000000E+00 0.  1.
</event>
<event>
 7    1  0.3004200E-011  0.5052886E+02  0.7816164E-02  0.1300439E+00
        -11   -1    0    0    0    0  0.00000000000E+00  0.00000000000E+00  0.45593999997E+02  0.45594000000E+02  0.51100000000E-03 0.  1.
         11   -1    0    0    0    0 -0.00000000000E+00 -0.00000000000E+00 -0.45593999997E+02  0.45594000000E+02  0.51100000000E-03 0. -1.
    9900012    2    1    2    0    0  0.34962673511E+02  0.16344673695E+02 -0.12791732248E+02  0.50528864358E+02  0.30000013702E+02 0.  0.
         12    1    1    2    0    0 -0.34962673511E+02 -0.16344673695E+02  0.12791732248E+02  0.40659135642E+02  0.00000000000E+00 0. -1.
         11    1    3    3    0    0 -0.25896617213E+01 -0.44505663718E+01 -0.31349780825E+01  0.60284306995E+01  0.51100000000E-03 0. -1.
        -11    1    3    3    0    0  0.19529275902E+02  0.70195299621E+01 -0.48616540518E+01  0.21314363667E+02  0.51100000000E-03 0.  1.
         12    1    3    3    0    0  0.18023059331E+02  0.13775710105E+02 -0.47951001142E+01  0.23186069991E+02  0.00000000000E+00 0. -1.
</event>
<event>
 7    1  0.3004200E-011  0.5052886E+02  0.7816164E-02  0.1300439E+00
        -11   -1    0    0    0    0  0.00000000000E+00  0.00000000000E+00  0.45593999997E+02  0.45594000000E+02  0.51100000000E-03 0.  1.
         11   -1    0    0    0    0 -0.00000000000E+00 -0.00000000000E+00 -0.45593999997E+02  0.45594000000E+02  0.51100000000E-03 0. -1.
    9900012    2    1    2    0    0 -0.33357714882E+02  0.17266611539E+02 -0.15565752931E+02  0.50528859816E+02  0.29999999898E+02 0.  0.
         12    1    1    2    0    0  0.33357714882E+02 -0.17266611539E+02  0.15565752931E+02  0.40659140184E+02  0.00000000000E+00 0. -1.
         11    1    3    3    0    0 -0.11152711941E+02 -0.30822455699E+01 -0.82296976266E+01  0.14198983931E+02  0.51100000000E-03 0.  1.
        -11    1    3    3    0    0 -0.57420498385E+01  0.13323103408E+02 -0.10815211908E+02  0.18095442234E+02  0.51100000000E-03 0. -1.
        -12    1    3    3    0    0 -0.16462953102E+02  0.70257537008E+01  0.34791566038E+01  0.18234433651E+02  0.00000000000E+00 0.  1.
</event>
<event>
 7    1  0.3004200E-011  0.5052888E+02  0.7816164E-02  0.1300439E+00
        -11   -1    0    0    0    0  0.00000000000E+00  0.00000000000E+00  0.45593999997E+02  0.45594000000E+02  0.51100000000E-03 0. -1.
         11   -1    0    0    0    0 -0.00000000000E+00 -0.00000000000E+00 -0.45593999997E+02  0.45594000000E+02  0.51100000000E-03 0.  1.
    9900012    2    1    2    0    0 -0.39030885237E+02  0.49333985279E+01  0.10267219293E+02  0.50528877832E+02  0.30000054659E+02 0.  0.
         12    1    1    2    0    0  0.39030885237E+02 -0.49333985279E+01 -0.10267219293E+02  0.40659122168E+02  0.00000000000E+00 0. -1.
         11    1    3    3    0    0 -0.26451995053E+02 -0.78608663318E+01  0.72825935694E+01  0.28540102157E+02  0.51100000000E-03 0. -1.
        -11    1    3    3    0    0 -0.13857651084E+02  0.64251924593E+01  0.17279369854E+01  0.15372161793E+02  0.51100000000E-03 0.  1.
         12    1    3    3    0    0  0.12787608999E+01  0.63690724004E+01  0.12566887383E+01  0.66166138822E+01  0.00000000000E+00 0. -1.
</event>
<event>
 7    1  0.3004200E-011  0.5052886E+02  0.7816164E-02  0.1300439E+00
        -11   -1    0    0    0    0  0.00000000000E+00  0.00000000000E+00  0.45593999997E+02  0.45594000000E+02  0.51100000000E-03 0.  1.
         11   -1    0    0    0    0 -0.00000000000E+00 -0.00000000000E+00 -0.45593999997E+02  0.45594000000E+02  0.51100000000E-03 0. -1.
    9900012    2    1    2    0    0  0.15454302730E+02  0.11512662894E+02  0.35802079355E+02  0.50528858766E+02  0.29999996705E+02 0.  0.
         12    1    1    2    0    0 -0.15454302730E+02 -0.11512662894E+02 -0.35802079355E+02  0.40659141234E+02  0.00000000000E+00 0. -1.
         11    1    3    3    0    0 -0.17553519641E+01 -0.23910158008E+01 -0.39504954436E+00  0.29923705454E+01  0.51100000000E-03 0. -1.
        -11    1    3    3    0    0  0.20572902530E+02  0.16177900679E+02  0.34042478986E+02  0.42940181237E+02  0.51100000000E-03 0.  1.
        -12    1    3    3    0    0 -0.33632478357E+01 -0.22742219843E+01  0.21546499128E+01  0.45963069834E+01  0.00000000000E+00 0.  1.
</event>
<event>
 7    1  0.3004200E-011  0.5052885E+02  0.7816164E-02  0.1300439E+00
        -11   -1    0    0    0    0  0.00000000000E+00  0.00000000000E+00  0.45593999997E+02  0.45594000000E+02  0.51100000000E-03 0. -1.
         11   -1    0    0    0    0 -0.00000000000E+00 -0.00000000000E+00 -0.45593999997E+02  0.45594000000E+02  0.51100000000E-03 0.  1.
    9900012    2    1    2    0    0 -0.29817609372E+02  0.26020386676E+02  0.93282270749E+01  0.50528853774E+02  0.29999981532E+02 0.  0.
         12    1    1    2    0    0  0.29817609372E+02 -0.26020386676E+02 -0.93282270749E+01  0.40659146226E+02  0.00000000000E+00 0. -1.
         11    1    3    3    0    0 -0.11039271837E+01  0.15610332804E+02 -0.17974325403E+00  0.15650349944E+02  0.51100000000E-03 0. -1.
        -11    1    3    3    0    0 -0.27218067113E+02  0.12331575354E+02  0.11202237669E+02  0.31912083247E+02  0.51100000000E-03 0.  1.
        -12    1    3    3    0    0 -0.14956150754E+01 -0.19215214815E+01 -0.16942673401E+01  0.29664205833E+01  0.00000000000E+00 0.  1.
</event>
<event>
 7    1  0.3004200E-011  0.5052882E+02  0.7816164E-02  0.1300439E+00
        -11   -1    0    0    0    0  0.00000000000E+00  0.00000000000E+00  0.45593999997E+02  0.45594000000E+02  0.51100000000E-03 0.  1.
         11   -1    0    0    0    0 -0.00000000000E+00 -0.00000000000E+00 -0.45593999997E+02  0.45594000000E+02  0.51100000000E-03 0. -1.
    9900012    2    1    2    0    0 -0.62366305857E+01  0.14165419937E+02  0.37598066561E+02  0.50528815402E+02  0.29999864897E+02 0.  0.
         12    1    1    2    0    0  0.62366305857E+01 -0.14165419937E+02 -0.37598066561E+02  0.40659184598E+02  0.00000000000E+00 0. -1.
         11    1    3    3    0    0 -0.17989000471E+01 -0.19664629304E+01 -0.57684430245E+00  0.27268603644E+01  0.51100000000E-03 0. -1.
        -11    1    3    3    0    0 -0.36020500585E+01  0.19733330387E+02  0.16962774117E+02  0.26270036140E+02  0.51100000000E-03 0.  1.
        -12    1    3    3    0    0 -0.83568048004E+00 -0.36014475199E+01  0.21212136746E+02  0.21531918898E+02  0.00000000000E+00 0.  1.
</event>
<event>
 7    1  0.3004200E-011  0.5052886E+02  0.7816164E-02  0.1300439E+00
        -11   -1    0    0    0    0  0.00000000000E+00  0.00000000000E+00  0.45593999997E+02  0.45594000000E+02  0.51100000000E-03 0.  1.
         11   -1    0    0    0    0 -0.00000000000E+00 -0.00000000000E+00 -0.45593999997E+02  0.45594000000E+02  0.51100000000E-03 0. -1.
    9900012    2    1    2    0    0 -0.18122608260E+02  0.11693661553E+02  0.34467305061E+02  0.50528858729E+02  0.29999996594E+02 0.  0.
         12    1    1    2    0    0  0.18122608260E+02 -0.11693661553E+02 -0.34467305061E+02  0.40659141271E+02  0.00000000000E+00 0. -1.
         11    1    3    3    0    0 -0.17762674487E+02  0.21823633387E+00  0.76034216047E+01  0.19322842761E+02  0.51100000000E-03 0. -1.
        -11    1    3    3    0    0 -0.22730214557E+01  0.13098112665E+02  0.21386976789E+02  0.25181937145E+02  0.51100000000E-03 0.  1.
        -12    1    3    3    0    0  0.19130876821E+01 -0.16226874454E+01  0.54769066676E+01  0.60240788234E+01  0.00000000000E+00 0.  1.
</event>
<event>
 7    1  0.3004200E-011  0.5052885E+02  0.7816164E-02  0.1300439E+00
        -11   -1    0    0    0    0  0.00000000000E+00  0.00000000000E+00  0.45593999997E+02  0.45594000000E+02  0.51100000000E-03 0. -1.
         11   -1    0    0    0    0 -0.00000000000E+00 -0.00000000000E+00 -0.45593999997E+02  0.45594000000E+02  0.51100000000E-03 0.  1.
    9900012    2    1    2    0    0 -0.33067009016E+02 -0.48075131011E+01  0.23165211102E+02  0.50528852532E+02  0.29999977755E+02 0.  0.
         12    1    1    2    0    0  0.33067009016E+02  0.48075131011E+01 -0.23165211102E+02  0.40659147468E+02  0.00000000000E+00 0. -1.
         11    1    3    3    0    0  0.43559154668E+01 -0.13097280048E+01  0.17494933733E+01  0.48734089019E+01  0.51100000000E-03 0. -1.
        -11    1    3    3    0    0 -0.28814679022E+02  0.37624352971E+01  0.15317910591E+02  0.32849353596E+02  0.51100000000E-03 0.  1.
        -12    1    3    3    0    0 -0.86082454601E+01 -0.72602203935E+01  0.60978071375E+01  0.12806090034E+02  0.00000000000E+00 0.  1.
</event>
<event>
 7    1  0.3004200E-011  0.5052889E+02  0.7816164E-02  0.1300439E+00
        -11   -1    0    0    0    0  0.00000000000E+00  0.00000000000E+00  0.45593999997E+02  0.45594000000E+02  0.51100000000E-03 0.  1.
         11   -1    0    0    0    0 -0.00000000000E+00 -0.00000000000E+00 -0.45593999997E+02  0.45594000000E+02  0.51100000000E-03 0. -1.
    9900012    2    1    2    0    0 -0.74933714025E+01  0.36804074320E+02  0.15571538149E+02  0.50528889067E+02  0.30000088809E+02 0.  0.
         12    1    1    2    0    0  0.74933714025E+01 -0.36804074320E+02 -0.15571538149E+02  0.40659110933E+02  0.00000000000E+00 0. -1.
         11    1    3    3    0    0  0.35565888287E+01  0.12825076755E+02 -0.47368153848E+01  0.14126901221E+02  0.51100000000E-03 0. -1.
        -11    1    3    3    0    0 -0.10909958331E+02  0.18897465779E+02  0.22056550132E+02  0.31026324430E+02  0.51100000000E-03 0.  1.
        -12    1    3    3    0    0 -0.14000190065E+00  0.50815317857E+01 -0.17481965975E+01  0.53756634162E+01  0.00000000000E+00 0.  1.
</event>
<event>
 7    1  0.3004200E-011  0.5052886E+02  0.7816164E-02  0.1300439E+00
        -11   -1    0    0    0    0  0.00000000000E+00  0.00000000000E+00  0.45593999997E+02  0.45594000000E+02  0.51100000000E-03 0.  1.
         11   -1    0    0    0    0 -0.00000000000E+00 -0.00000000000E+00 -0.45593999997E+02  0.45594000000E+02  0.51100000000E-03 0. -1.
    9900012    2    1    2    0    0  0.29494956112E+02 -0.82096230866E+01  0.26754725723E+02  0.50528859628E+02  0.29999999325E+02 0.  0.
         12    1    1    2    0    0 -0.29494956112E+02  0.82096230866E+01 -0.26754725723E+02  0.40659140372E+02  0.00000000000E+00 0. -1.
         11    1    3    3    0    0  0.23032701319E+02 -0.15578583373E+01  0.15478052747E+02  0.27793926850E+02  0.51100000000E-03 0.  1.
        -11    1    3    3    0    0 -0.44713140719E+01 -0.45584719860E+01  0.95228570254E+01  0.11465475244E+02  0.51100000000E-03 0. -1.
         12    1    3    3    0    0  0.10933568865E+02 -0.20932927632E+01  0.17538159504E+01  0.11269457534E+02  0.00000000000E+00 0. -1.
</event>
<event>
 7    1  0.3004200E-011  0.5052887E+02  0.7816164E-02  0.1300439E+00
        -11   -1    0    0    0    0  0.00000000000E+00  0.00000000000E+00  0.45593999997E+02  0.45594000000E+02  0.51100000000E-03 0. -1.
         11   -1    0    0    0    0 -0.00000000000E+00 -0.00000000000E+00 -0.45593999997E+02  0.45594000000E+02  0.51100000000E-03 0.  1.
    9900012    2    1    2    0    0  0.16095977830E+02 -0.26977755237E+02 -0.25812491692E+02  0.50528874244E+02  0.30000043751E+02 0.  0.
         12    1    1    2    0    0 -0.16095977830E+02  0.26977755237E+02  0.25812491692E+02  0.40659125756E+02  0.00000000000E+00 0. -1.
         11    1    3    3    0    0  0.13382242723E+02 -0.61410708175E+01 -0.59059074011E+01  0.15864328337E+02  0.51100000000E-03 0. -1.
        -11    1    3    3    0    0 -0.26737465744E+01 -0.20611714350E+02 -0.93086686536E+01  0.22773734906E+02  0.51100000000E-03 0.  1.
        -12    1    3    3    0    0  0.53874816815E+01 -0.22497006874E+00 -0.10597915637E+02  0.11890811001E+02  0.00000000000E+00 0.  1.
</event>
<event>
 7    1  0.3004200E-011  0.5052886E+02  0.7816164E-02  0.1300439E+00
        -11   -1    0    0    0    0  0.00000000000E+00  0.00000000000E+00  0.45593999997E+02  0.45594000000E+02  0.51100000000E-03 0.  1.
         11   -1    0    0    0    0 -0.00000000000E+00 -0.00000000000E+00 -0.45593999997E+02  0.45594000000E+02  0.51100000000E-03 0. -1.
    9900012    2    1    2    0    0 -0.13650258921E-01 -0.36909417118E+02  0.17054638354E+02  0.50528856530E+02  0.29999989909E+02 0.  0.
         12    1    1    2    0    0  0.13650258921E-01  0.36909417118E+02 -0.17054638354E+02  0.40659143470E+02  0.00000000000E+00 0. -1.
         11    1    3    3    0    0 -0.70145744618E+01 -0.15131982805E+02 -0.45935521195E+00  0.16685088132E+02  0.51100000000E-03 0. -1.
        -11    1    3    3    0    0  0.57006153019E+01 -0.24075336924E+02  0.18636468674E+02  0.30974777283E+02  0.51100000000E-03 0.  1.
        -12    1    3    3    0    0  0.13003089010E+01  0.22979026114E+01 -0.11224751080E+01  0.28689911150E+01  0.00000000000E+00 0.  1.
</event>
<event>
 7    1  0.3004200E-011  0.5052886E+02  0.7816164E-02  0.1300439E+00
        -11   -1    0    0    0    0  0.00000000000E+00  0.00000000000E+00  0.45593999997E+02  0.45594000000E+02  0.51100000000E-03 0. -1.
         11   -1    0    0    0    0 -0.00000000000E+00 -0.00000000000E+00 -0.45593999997E+02  0.45594000000E+02  0.51100000000E-03 0.  1.
    9900012    2    1    2    0    0  0.11319649628E+02  0.79412662018E+01 -0.38235684250E+02  0.50528859248E+02  0.29999998171E+02 0.  0.
         12    1    1    2    0    0 -0.11319649628E+02 -0.79412662018E+01  0.38235684250E+02  0.40659140752E+02  0.00000000000E+00 0. -1.
         11    1    3    3    0    0  0.14868097950E+02  0.37498223955E+01 -0.89092302398E+01  0.17734031927E+02  0.51100000000E-03 0. -1.
        -11    1    3    3    0    0 -0.74490811531E+01  0.40219771075E+01 -0.10112330299E+02  0.13188037542E+02  0.51100000000E-03 0.  1.
        -12    1    3    3    0    0  0.39006328304E+01  0.16946669888E+00 -0.19214123712E+02  0.19606789779E+02  0.00000000000E+00 0.  1.
</event>
<event>
 7    1  0.3004200E-011  0.5052886E+02  0.7816164E-02  0.1300439E+00
        -11   -1    0    0    0    0  0.00000000000E+00  0.00000000000E+00  0.45593999997E+02  0.45594000000E+02  0.51100000000E-03 0.  1.
         11   -1    0    0    0    0 -0.00000000000E+00 -0.00000000000E+00 -0.45593999997E+02  0.45594000000E+02  0.51100000000E-03 0. -1.
    9900012    2    1    2    0    0  0.33355485157E+02 -0.15739187722E+02  0.17113021955E+02  0.50528856617E+02  0.29999990173E+02 0.  0.
         12    1    1    2    0    0 -0.33355485157E+02  0.15739187722E+02 -0.17113021955E+02  0.40659143383E+02  0.00000000000E+00 0. -1.
         11    1    3    3    0    0  0.24349596268E+02 -0.55286325609E+00  0.19215583682E+02  0.31023332392E+02  0.51100000000E-03 0. -1.
        -11    1    3    3    0    0  0.89125460060E+01 -0.14642183332E+02  0.19507068532E+00  0.17142492872E+02  0.51100000000E-03 0.  1.
         12    1    3    3    0    0  0.93342883294E-01 -0.54414113384E+00 -0.22976324131E+01  0.23630313526E+01  0.00000000000E+00 0. -1.
</event>
<event>
 7    1  0.3004200E-011  0.5052886E+02  0.7816164E-02  0.1300439E+00
        -11   -1    0    0    0    0  0.00000000000E+00  0.00000000000E+00  0.45593999997E+02  0.45594000000E+02  0.51100000000E-03 0. -1.
         11   -1    0    0    0    0 -0.00000000000E+00 -0.00000000000E+00 -0.45593999997E+02  0.45594000000E+02  0.51100000000E-03 0.  1.
    9900012    2    1    2    0    0 -0.29516185183E+02 -0.13550363675E+02 -0.24461159036E+02  0.50528857794E+02  0.29999993752E+02 0.  0.
         12    1    1    2    0    0  0.29516185183E+02  0.13550363675E+02  0.24461159036E+02  0.40659142206E+02  0.00000000000E+00 0. -1.
         11    1    3    3    0    0 -0.67802257046E+01 -0.79525559003E+01  0.43153532565E+01  0.11306497245E+02  0.51100000000E-03 0. -1.
        -11    1    3    3    0    0 -0.83803484688E+01  0.37819482108E+01 -0.73015884716E+01  0.11740807775E+02  0.51100000000E-03 0.  1.
         12    1    3    3    0    0 -0.14355611010E+02 -0.93797559858E+01 -0.21474923821E+02  0.27481552775E+02  0.00000000000E+00 0. -1.
</event>
<event>
 7    1  0.3004200E-011  0.5052885E+02  0.7816164E-02  0.1300439E+00
        -11   -1    0    0    0    0  0.00000000000E+00  0.00000000000E+00  0.45593999997E+02  0.45594000000E+02  0.51100000000E-03 0. -1.
         11   -1    0    0    0    0 -0.00000000000E+00 -0.00000000000E+00 -0.45593999997E+02  0.45594000000E+02  0.51100000000E-03 0.  1.
    9900012    2    1    2    0    0 -0.18070160798E+02 -0.36314643961E+02  0.28075607760E+01  0.50528850048E+02  0.29999970207E+02 0.  0.
         12    1    1    2    0    0  0.18070160798E+02  0.36314643961E+02 -0.28075607760E+01  0.40659149952E+02  0.00000000000E+00 0. -1.
         11    1    3    3    0    0  0.71553892233E+01 -0.15568869334E+02 -0.23661067886E+01  0.17297044513E+02  0.51100000000E-03 0. -1.
        -11    1    3    3    0    0 -0.14620730095E+02 -0.12380591071E+02  0.46501615288E+01  0.19714684534E+02  0.51100000000E-03 0.  1.
         12    1    3    3    0    0 -0.10604819927E+02 -0.83651835554E+01  0.52350603577E+00  0.13517121001E+02  0.00000000000E+00 0. -1.
</event>
<event>
 7    1  0.3004200E-011  0.5052886E+02  0.7816164E-02  0.1300439E+00
        -11   -1    0    0    0    0  0.00000000000E+00  0.00000000000E+00  0.45593999997E+02  0.45594000000E+02  0.51100000000E-03 0. -1.
         11   -1    0    0    0    0 -0.00000000000E+00 -0.00000000000E+00 -0.45593999997E+02  0.45594000000E+02  0.51100000000E-03 0.  1.
    9900012    2    1    2    0    0  0.30494563940E+02  0.26455525469E+02 -0.48324110317E+01  0.50528862600E+02  0.30000008358E+02 0.  0.
         12    1    1    2    0    0 -0.30494563940E+02 -0.26455525469E+02  0.48324110317E+01  0.40659137400E+02  0.00000000000E+00 0. -1.
         11    1    3    3    0    0  0.11897814707E+01  0.10463021217E+02 -0.59032039605E+01  0.12072208174E+02  0.51100000000E-03 0. -1.
        -11    1    3    3    0    0  0.31973877275E+02  0.14962616460E+02  0.22249345269E+01  0.35371726749E+02  0.51100000000E-03 0.  1.
        -12    1    3    3    0    0 -0.26690948051E+01  0.10298877924E+01 -0.11541415982E+01  0.30849276770E+01  0.00000000000E+00 0.  1.
</event>
<event>
 7    1  0.3004200E-011  0.5052887E+02  0.7816164E-02  0.1300439E+00
        -11   -1    0    0    0    0  0.00000000000E+00  0.00000000000E+00  0.45593999997E+02  0.45594000000E+02  0.51100000000E-03 0. -1.
         11   -1    0    0    0    0 -0.00000000000E+00 -0.00000000000E+00 -0.45593999997E+02  0.45594000000E+02  0.51100000000E-03 0.  1.
    9900012    2    1    2    0    0 -0.15963180053E+02 -0.36683537238E+02 -0.72567120870E+01  0.50528869512E+02  0.30000029369E+02 0.  0.
         12    1    1    2    0    0  0.15963180053E+02  0.36683537238E+02  0.72567120870E+01  0.40659130488E+02  0.00000000000E+00 0. -1.
         11    1    3    3    0    0 -0.18349738343E+02 -0.23671771244E+02 -0.14235702249E+01  0.29984866242E+02  0.51100000000E-03 0. -1.
        -11    1    3    3    0    0  0.15337354641E+01  0.93567668023E+00 -0.63115963002E+01  0.65623230217E+01  0.51100000000E-03 0.  1.
        -12    1    3    3    0    0  0.85282282613E+00 -0.13947442675E+02  0.47845443803E+00  0.13981680249E+02  0.00000000000E+00 0.  1.
</event>
<event>
 7    1  0.3004200E-011  0.5052885E+02  0.7816164E-02  0.1300439E+00
        -11   -1    0    0    0    0  0.00000000000E+00  0.00000000000E+00  0.45593999997E+02  0.45594000000E+02  0.51100000000E-03 0. -1.
         11   -1    0    0    0    0 -0.00000000000E+00 -0.00000000000E+00 -0.45593999997E+02  0.45594000000E+02  0.51100000000E-03 0.  1.
    9900012    2    1    2    0    0  0.16548255345E+02 -0.19685275545E+02 -0.31493035183E+02  0.50528854740E+02  0.29999984466E+02 0.  0.
         12    1    1    2    0    0 -0.16548255345E+02  0.19685275545E+02  0.31493035183E+02  0.40659145260E+02  0.00000000000E+00 0. -1.
         11    1    3    3    0    0 -0.23571593414E+01 -0.56572580470E+01 -0.12081101381E+02  0.13546725789E+02  0.51100000000E-03 0. -1.
        -11    1    3    3    0    0  0.23255193494E+02 -0.12117882812E+02 -0.18630906971E+02  0.32167651502E+02  0.51100000000E-03 0.  1.
        -12    1    3    3    0    0 -0.43497788075E+01 -0.19101346857E+01 -0.78102683104E+00  0.48144774485E+01  0.00000000000E+00 0.  1.
</event>
<event>
 7    1  0.3004200E-011  0.5052886E+02  0.7816164E-02  0.1300439E+00
        -11   -1    0    0    0    0  0.00000000000E+00  0.00000000000E+00  0.45593999997E+02  0.45594000000E+02  0.51100000000E-03 0.  1.
         11   -1    0    0    0    0 -0.00000000000E+00 -0.00000000000E+00 -0.45593999997E+02  0.45594000000E+02  0.51100000000E-03 0. -1.
    9900012    2    1    2    0    0  0.19550398952E+01 -0.40538456100E+02 -0.24447882814E+01  0.50528860883E+02  0.30000003141E+02 0.  0.
         12    1    1    2    0    0 -0.19550398952E+01  0.40538456100E+02  0.24447882814E+01  0.40659139117E+02  0.00000000000E+00 0. -1.
         11    1    3    3    0    0  0.86974143383E+00  0.13132709850E+00  0.30526187805E+01  0.31768189512E+01  0.51100000000E-03 0. -1.
        -11    1    3    3    0    0  0.34878062775E+01 -0.42956033949E+02 -0.70837855939E+01  0.43675687332E+02  0.51100000000E-03 0.  1.
        -12    1    3    3    0    0 -0.24025078161E+01  0.22862507507E+01  0.15863785319E+01  0.36763546004E+01  0.00000000000E+00 0.  1.
</event>
<event>
 7    1  0.3004200E-011  0.5052886E+02  0.7816164E-02  0.1300439E+00
        -11   -1    0    0    0    0  0.00000000000E+00  0.00000000000E+00  0.45593999997E+02  0.45594000000E+02  0.51100000000E-03 0.  1.
         11   -1    0    0    0    0 -0.00000000000E+00 -0.00000000000E+00 -0.45593999997E+02  0.45594000000E+02  0.51100000000E-03 0. -1.
    9900012    2    1    2    0    0  0.14265226927E+02 -0.28142589955E+02  0.25644958118E+02  0.50528856557E+02  0.29999989991E+02 0.  0.
         12    1    1    2    0    0 -0.14265226927E+02  0.28142589955E+02 -0.25644958118E+02  0.40659143443E+02  0.00000000000E+00 0. -1.
         11    1    3    3    0    0 -0.24728724699E+01 -0.31214338478E+01  0.17459870879E+02  0.17908253374E+02  0.51100000000E-03 0. -1.
        -11    1    3    3    0    0  0.23702167304E+01 -0.90763856227E+01 -0.66503613439E+00  0.94043062818E+01  0.51100000000E-03 0.  1.
         12    1    3    3    0    0  0.14367882667E+02 -0.15944770484E+02  0.88501233729E+01  0.23216296902E+02  0.00000000000E+00 0. -1.
</event>
<event>
 7    1  0.3004200E-011  0.5052886E+02  0.7816164E-02  0.1300439E+00
        -11   -1    0    0    0    0  0.00000000000E+00  0.00000000000E+00  0.45593999997E+02  0.45594000000E+02  0.51100000000E-03 0.  1.
         11   -1    0    0    0    0 -0.00000000000E+00 -0.00000000000E+00 -0.45593999997E+02  0.45594000000E+02  0.51100000000E-03 0. -1.
    9900012    2    1    2    0    0 -0.23824821934E+02  0.12094125104E+02  0.30647600175E+02  0.50528863281E+02  0.30000010429E+02 0.  0.
         12    1    1    2    0    0  0.23824821934E+02 -0.12094125104E+02 -0.30647600175E+02  0.40659136719E+02  0.00000000000E+00 0. -1.
         11    1    3    3    0    0 -0.20576264956E+02  0.10649487084E+02  0.14868596076E+02  0.27529427968E+02  0.51100000000E-03 0.  1.
        -11    1    3    3    0    0  0.48999533230E+01 -0.34572515472E+00 -0.26142582431E+00  0.49190865181E+01  0.51100000000E-03 0. -1.
         12    1    3    3    0    0 -0.81485103012E+01  0.17903631745E+01  0.16040429923E+02  0.18080348795E+02  0.00000000000E+00 0. -1.
</event>
<event>
 7    1  0.3004200E-011  0.5052887E+02  0.7816164E-02  0.1300439E+00
        -11   -1    0    0    0    0  0.00000000000E+00  0.00000000000E+00  0.45593999997E+02  0.45594000000E+02  0.51100000000E-03 0.  1.
         11   -1    0    0    0    0 -0.00000000000E+00 -0.00000000000E+00 -0.45593999997E+02  0.45594000000E+02  0.51100000000E-03 0. -1.
    9900012    2    1    2    0    0  0.15952038716E+02  0.21309228454E+01  0.37338409571E+02  0.50528865717E+02  0.30000017833E+02 0.  0.
         12    1    1    2    0    0 -0.15952038716E+02 -0.21309228454E+01 -0.37338409571E+02  0.40659134283E+02  0.00000000000E+00 0. -1.
         11    1    3    3    0    0 -0.15481293550E+01  0.57454640821E+01  0.49857241543E+01  0.77630218100E+01  0.51100000000E-03 0. -1.
        -11    1    3    3    0    0  0.80969052550E+01 -0.95948283540E+01  0.28208800552E+02  0.30876480283E+02  0.51100000000E-03 0.  1.
        -12    1    3    3    0    0  0.94032628165E+01  0.59802871173E+01  0.41438848650E+01  0.11889363624E+02  0.00000000000E+00 0.  1.
</event>
<event>
 7    1  0.3004200E-011  0.5052886E+02  0.7816164E-02  0.1300439E+00
        -11   -1    0    0    0    0  0.00000000000E+00  0.00000000000E+00  0.45593999997E+02  0.45594000000E+02  0.51100000000E-03 0. -1.
         11   -1    0    0    0    0 -0.00000000000E+00 -0.00000000000E+00 -0.45593999997E+02  0.45594000000E+02  0.51100000000E-03 0.  1.
    9900012    2    1    2    0    0 -0.18469771237E+02  0.34101481430E+02  0.12211542667E+02  0.50528864993E+02  0.30000015632E+02 0.  0.
         12    1    1    2    0    0  0.18469771237E+02 -0.34101481430E+02 -0.12211542667E+02  0.40659135007E+02  0.00000000000E+00 0. -1.
         11    1    3    3    0    0 -0.12935250800E+01  0.17671606749E+02  0.14664386566E+02  0.23000067953E+02  0.51100000000E-03 0. -1.
        -11    1    3    3    0    0 -0.64732060025E+01 -0.98043509039E+00 -0.27210197140E+01  0.70899645600E+01  0.51100000000E-03 0.  1.
        -12    1    3    3    0    0 -0.10703040154E+02  0.17410309771E+02  0.26817581462E+00  0.20438832480E+02  0.00000000000E+00 0.  1.
</event>
<event>
 7    1  0.3004200E-011  0.5052888E+02  0.7816164E-02  0.1300439E+00
        -11   -1    0    0    0    0  0.00000000000E+00  0.00000000000E+00  0.45593999997E+02  0.45594000000E+02  0.51100000000E-03 0.  1.
         11   -1    0    0    0    0 -0.00000000000E+00 -0.00000000000E+00 -0.45593999997E+02  0.45594000000E+02  0.51100000000E-03 0. -1.
    9900012    2    1    2    0    0  0.19332037849E+02  0.12814253964E+02  0.33395083234E+02  0.50528875855E+02  0.30000048648E+02 0.  0.
         12    1    1    2    0    0 -0.19332037849E+02 -0.12814253964E+02 -0.33395083234E+02  0.40659124145E+02  0.00000000000E+00 0. -1.
         11    1    3    3    0    0 -0.34097937763E+01 -0.27639232435E+01  0.70263232069E+00  0.44451836556E+01  0.51100000000E-03 0. -1.
        -11    1    3    3    0    0  0.16392817566E+02  0.85839662053E+01  0.31540084855E+02  0.36567552509E+02  0.51100000000E-03 0.  1.
         12    1    3    3    0    0  0.63490140594E+01  0.69942110027E+01  0.11523660581E+01  0.95161396904E+01  0.00000000000E+00 0. -1.
</event>
<event>
 7    1  0.3004200E-011  0.5052893E+02  0.7816164E-02  0.1300439E+00
        -11   -1    0    0    0    0  0.00000000000E+00  0.00000000000E+00  0.45593999997E+02  0.45594000000E+02  0.51100000000E-03 0.  1.
         11   -1    0    0    0    0 -0.00000000000E+00 -0.00000000000E+00 -0.45593999997E+02  0.45594000000E+02  0.51100000000E-03 0. -1.
    9900012    2    1    2    0    0 -0.15613320916E+02  0.22708782991E+02  0.29894733696E+02  0.50528933143E+02  0.30000222781E+02 0.  0.
         12    1    1    2    0    0  0.15613320916E+02 -0.22708782991E+02 -0.29894733696E+02  0.40659066857E+02  0.00000000000E+00 0. -1.
         11    1    3    3    0    0 -0.64539962458E+01  0.10022199295E+01 -0.27776883849E+01  0.70974689399E+01  0.51100000000E-03 0. -1.
        -11    1    3    3    0    0 -0.12252660187E+02  0.22087333554E+02  0.27093531888E+02  0.37041023955E+02  0.51100000000E-03 0.  1.
        -12    1    3    3    0    0  0.30933355170E+01 -0.38077049251E+00  0.55788901923E+01  0.63904402483E+01  0.00000000000E+00 0.  1.
</event>
<event>
 7    1  0.3004200E-011  0.5052886E+02  0.7816164E-02  0.1300439E+00
        -11   -1    0    0    0    0  0.00000000000E+00  0.00000000000E+00  0.45593999997E+02  0.45594000000E+02  0.51100000000E-03 0. -1.
         11   -1    0    0    0    0 -0.00000000000E+00 -0.00000000000E+00 -0.45593999997E+02  0.45594000000E+02  0.51100000000E-03 0.  1.
    9900012    2    1    2    0    0  0.43570719642E+01  0.24081076645E+02 -0.32469727280E+02  0.50528861813E+02  0.30000005968E+02 0.  0.
         12    1    1    2    0    0 -0.43570719642E+01 -0.24081076645E+02  0.32469727280E+02  0.40659138187E+02  0.00000000000E+00 0. -1.
         11    1    3    3    0    0  0.49164980100E+01  0.22876905306E+02 -0.85204068253E+01  0.24902250537E+02  0.51100000000E-03 0. -1.
        -11    1    3    3    0    0 -0.29942910043E+01  0.20665445103E+01 -0.22225167141E+02  0.22520977766E+02  0.51100000000E-03 0.  1.
        -12    1    3    3    0    0  0.24348649585E+01 -0.86237317201E+00 -0.17241533138E+01  0.31056335108E+01  0.00000000000E+00 0.  1.
</event>
<event>
 7    1  0.3004200E-011  0.5052887E+02  0.7816164E-02  0.1300439E+00
        -11   -1    0    0    0    0  0.00000000000E+00  0.00000000000E+00  0.45593999997E+02  0.45594000000E+02  0.51100000000E-03 0.  1.
         11   -1    0    0    0    0 -0.00000000000E+00 -0.00000000000E+00 -0.45593999997E+02  0.45594000000E+02  0.51100000000E-03 0. -1.
    9900012    2    1    2    0    0 -0.83758047314E+01  0.33643922547E+01  0.39644570317E+02  0.50528865777E+02  0.30000018015E+02 0.  0.
         12    1    1    2    0    0  0.83758047314E+01 -0.33643922547E+01 -0.39644570317E+02  0.40659134223E+02  0.00000000000E+00 0. -1.
         11    1    3    3    0    0 -0.13671873240E+01 -0.82075959049E+01  0.34970553317E+01  0.90256981985E+01  0.51100000000E-03 0. -1.
        -11    1    3    3    0    0 -0.34349500794E+01  0.34840735130E+01  0.30764771925E+02  0.31151385878E+02  0.51100000000E-03 0.  1.
        -12    1    3    3    0    0 -0.35736673280E+01  0.80879146467E+01  0.53827430607E+01  0.10351781700E+02  0.00000000000E+00 0.  1.
</event>
<event>
 7    1  0.3004200E-011  0.5052886E+02  0.7816164E-02  0.1300439E+00
        -11   -1    0    0    0    0  0.00000000000E+00  0.00000000000E+00  0.45593999997E+02  0.45594000000E+02  0.51100000000E-03 0.  1.
         11   -1    0    0    0    0 -0.00000000000E+00 -0.00000000000E+00 -0.45593999997E+02  0.45594000000E+02  0.51100000000E-03 0. -1.
    9900012    2    1    2    0    0 -0.23924694502E+02 -0.12403674355E+02  0.30445417034E+02  0.50528861263E+02  0.30000004294E+02 0.  0.
         12    1    1    2    0    0  0.23924694502E+02  0.12403674355E+02 -0.30445417034E+02  0.40659138737E+02  0.00000000000E+00 0. -1.
         11    1    3    3    0    0 -0.11932296092E+01 -0.46048213150E+01  0.18361981239E+02  0.18968145179E+02  0.51100000000E-03 0.  1.
        -11    1    3    3    0    0 -0.15846950866E+02 -0.55260994142E+01 -0.77337930808E+00  0.16800647080E+02  0.51100000000E-03 0. -1.
         12    1    3    3    0    0 -0.68845140267E+01 -0.22727536253E+01  0.12856815102E+02  0.14760069004E+02  0.00000000000E+00 0. -1.
</event>
<event>
 7    1  0.3004200E-011  0.5052886E+02  0.7816164E-02  0.1300439E+00
        -11   -1    0    0    0    0  0.00000000000E+00  0.00000000000E+00  0.45593999997E+02  0.45594000000E+02  0.51100000000E-03 0.  1.
         11   -1    0    0    0    0 -0.00000000000E+00 -0.00000000000E+00 -0.45593999997E+02  0.45594000000E+02  0.51100000000E-03 0. -1.
    9900012    2    1    2    0    0  0.46636928262E+01 -0.86640244647E+01  0.39450603745E+02  0.50528862201E+02  0.30000007146E+02 0.  0.
         12    1    1    2    0    0 -0.46636928262E+01  0.86640244647E+01 -0.39450603745E+02  0.40659137799E+02  0.00000000000E+00 0. -1.
         11    1    3    3    0    0 -0.16345634744E+01  0.37500389590E+01  0.29266710623E+01  0.50299099111E+01  0.51100000000E-03 0. -1.
        -11    1    3    3    0    0  0.97259736325E+01 -0.17957906378E+02  0.25236462214E+02  0.32464749959E+02  0.51100000000E-03 0.  1.
        -12    1    3    3    0    0 -0.34277173320E+01  0.55438429544E+01  0.11287470469E+02  0.13034202331E+02  0.00000000000E+00 0.  1.
</event>
<event>
 7    1  0.3004200E-011  0.5052886E+02  0.7816164E-02  0.1300439E+00
        -11   -1    0    0    0    0  0.00000000000E+00  0.00000000000E+00  0.45593999997E+02  0.45594000000E+02  0.51100000000E-03 0.  1.
         11   -1    0    0    0    0 -0.00000000000E+00 -0.00000000000E+00 -0.45593999997E+02  0.45594000000E+02  0.51100000000E-03 0. -1.
    9900012    2    1    2    0    0 -0.62236976706E+01 -0.39645578446E+02  0.65314243924E+01  0.50528858253E+02  0.29999995146E+02 0.  0.
         12    1    1    2    0    0  0.62236976706E+01  0.39645578446E+02 -0.65314243924E+01  0.40659141747E+02  0.00000000000E+00 0. -1.
         11    1    3    3    0    0  0.58865064696E+01 -0.44743216470E+01  0.85646409137E+01  0.11314750853E+02  0.51100000000E-03 0. -1.
        -11    1    3    3    0    0 -0.12551422783E+02 -0.23415558697E+02 -0.51101498037E+01  0.27054393992E+02  0.51100000000E-03 0.  1.
        -12    1    3    3    0    0  0.44121864308E+00 -0.11755698102E+02  0.30769332824E+01  0.12159713409E+02  0.00000000000E+00 0.  1.
</event>
<event>
 7    1  0.3004200E-011  0.5052887E+02  0.7816164E-02  0.1300439E+00
        -11   -1    0    0    0    0  0.00000000000E+00  0.00000000000E+00  0.45593999997E+02  0.45594000000E+02  0.51100000000E-03 0.  1.
         11   -1    0    0    0    0 -0.00000000000E+00 -0.00000000000E+00 -0.45593999997E+02  0.45594000000E+02  0.51100000000E-03 0. -1.
    9900012    2    1    2    0    0 -0.13925802342E+02 -0.58843611931E+00  0.38195429328E+02  0.50528867576E+02  0.30000023485E+02 0.  0.
         12    1    1    2    0    0  0.13925802342E+02  0.58843611931E+00 -0.38195429328E+02  0.40659132424E+02  0.00000000000E+00 0. -1.
         11    1    3    3    0    0 -0.91186394900E+01  0.24812642436E+01  0.45818563225E+00  0.94612997379E+01  0.51100000000E-03 0. -1.
        -11    1    3    3    0    0 -0.10538559296E+01  0.28715595827E+01  0.31569464048E+02  0.31717306432E+02  0.51100000000E-03 0.  1.
        -12    1    3    3    0    0 -0.37533069221E+01 -0.59412599456E+01  0.61677796470E+01  0.93502614063E+01  0.00000000000E+00 0.  1.
</event>
<event>
 7    1  0.3004200E-011  0.5052886E+02  0.7816164E-02  0.1300439E+00
        -11   -1    0    0    0    0  0.00000000000E+00  0.00000000000E+00  0.45593999997E+02  0.45594000000E+02  0.51100000000E-03 0.  1.
         11   -1    0    0    0    0 -0.00000000000E+00 -0.00000000000E+00 -0.45593999997E+02  0.45594000000E+02  0.51100000000E-03 0. -1.
    9900012    2    1    2    0    0  0.22528365667E+02  0.75245694957E+01  0.33000291156E+02  0.50528860534E+02  0.30000002080E+02 0.  0.
         12    1    1    2    0    0 -0.22528365667E+02 -0.75245694957E+01 -0.33000291156E+02  0.40659139466E+02  0.00000000000E+00 0. -1.
         11    1    3    3    0    0  0.11323198497E+02  0.43378288659E+01  0.56035467275E+01  0.13357818672E+02  0.51100000000E-03 0. -1.
        -11    1    3    3    0    0  0.86109836823E+01 -0.58264333025E+01  0.25587393497E+02  0.27619034582E+02  0.51100000000E-03 0.  1.
        -12    1    3    3    0    0  0.25941834871E+01  0.90131739323E+01  0.18093509315E+01  0.95520072808E+01  0.00000000000E+00 0.  1.
</event>
<event>
 7    1  0.3004200E-011  0.5052888E+02  0.7816164E-02  0.1300439E+00
        -11   -1    0    0    0    0  0.00000000000E+00  0.00000000000E+00  0.45593999997E+02  0.45594000000E+02  0.51100000000E-03 0. -1.
         11   -1    0    0    0    0 -0.00000000000E+00 -0.00000000000E+00 -0.45593999997E+02  0.45594000000E+02  0.51100000000E-03 0.  1.
    9900012    2    1    2    0    0 -0.24270133771E+02  0.31860712998E+02 -0.70013962161E+01  0.50528880789E+02  0.30000063646E+02 0.  0.
         12    1    1    2    0    0  0.24270133771E+02 -0.31860712998E+02  0.70013962161E+01  0.40659119211E+02  0.00000000000E+00 0. -1.
         11    1    3    3    0    0  0.55084036227E+01  0.96912852417E+01 -0.29150368266E+01  0.11522194238E+02  0.51100000000E-03 0. -1.
        -11    1    3    3    0    0 -0.30063917187E+02  0.20760387392E+02 -0.55506705195E+01  0.36954603838E+02  0.51100000000E-03 0.  1.
        -12    1    3    3    0    0  0.28537979327E+00  0.14090403642E+01  0.14643111300E+01  0.20520827127E+01  0.00000000000E+00 0.  1.
</event>
<event>
 7    1  0.3004200E-011  0.5052889E+02  0.7816164E-02  0.1300439E+00
        -11   -1    0    0    0    0  0.00000000000E+00  0.00000000000E+00  0.45593999997E+02  0.45594000000E+02  0.51100000000E-03 0. -1.
         11   -1    0    0    0    0 -0.00000000000E+00 -0.00000000000E+00 -0.45593999997E+02  0.45594000000E+02  0.51100000000E-03 0.  1.
    9900012    2    1    2    0    0  0.26118736918E+02 -0.27795277932E+02 -0.14085353226E+02  0.50528891930E+02  0.30000097511E+02 0.  0.
         12    1    1    2    0    0 -0.26118736918E+02  0.27795277932E+02  0.14085353226E+02  0.40659108070E+02  0.00000000000E+00 0. -1.
         11    1    3    3    0    0  0.13252428157E+02  0.57546019619E+00  0.11594506535E+01  0.13315492202E+02  0.51100000000E-03 0. -1.
        -11    1    3    3    0    0  0.11794455748E+02 -0.29826825437E+02 -0.13882510997E+02  0.34949575303E+02  0.51100000000E-03 0.  1.
        -12    1    3    3    0    0  0.10718530135E+01  0.14560873087E+01 -0.13622928819E+01  0.22638244254E+01  0.00000000000E+00 0.  1.
</event>
<event>
 7    1  0.3004200E-011  0.5052883E+02  0.7816164E-02  0.1300439E+00
        -11   -1    0    0    0    0  0.00000000000E+00  0.00000000000E+00  0.45593999997E+02  0.45594000000E+02  0.51100000000E-03 0. -1.
         11   -1    0    0    0    0 -0.00000000000E+00 -0.00000000000E+00 -0.45593999997E+02  0.45594000000E+02  0.51100000000E-03 0.  1.
    9900012    2    1    2    0    0  0.25136617490E+02  0.28637956792E+01 -0.31829497276E+02  0.50528834227E+02  0.29999922115E+02 0.  0.
         12    1    1    2    0    0 -0.25136617490E+02 -0.28637956792E+01  0.31829497276E+02  0.40659165773E+02  0.00000000000E+00 0. -1.
         11    1    3    3    0    0  0.14422170044E+02  0.61402958280E+01 -0.60157571220E+00  0.15686430927E+02  0.51100000000E-03 0. -1.
        -11    1    3    3    0    0  0.81754001856E+01 -0.42812690817E+01 -0.30705374111E+02  0.32062227507E+02  0.51100000000E-03 0.  1.
        -12    1    3    3    0    0  0.25390472602E+01  0.10047689329E+01 -0.52254745318E+00  0.27801757928E+01  0.00000000000E+00 0.  1.
</event>
<event>
 7    1  0.3004200E-011  0.5052886E+02  0.7816164E-02  0.1300439E+00
        -11   -1    0    0    0    0  0.00000000000E+00  0.00000000000E+00  0.45593999997E+02  0.45594000000E+02  0.51100000000E-03 0. -1.
         11   -1    0    0    0    0 -0.00000000000E+00 -0.00000000000E+00 -0.45593999997E+02  0.45594000000E+02  0.51100000000E-03 0.  1.
    9900012    2    1    2    0    0 -0.11231455363E+02 -0.45749230544E+01 -0.38808381000E+02  0.50528856547E+02  0.29999989960E+02 0.  0.
         12    1    1    2    0    0  0.11231455363E+02  0.45749230544E+01  0.38808381000E+02  0.40659143453E+02  0.00000000000E+00 0. -1.
         11    1    3    3    0    0 -0.12950833685E+02 -0.30717067426E+01 -0.39283057859E+02  0.41476717692E+02  0.51100000000E-03 0.  1.
        -11    1    3    3    0    0  0.44823472041E+01 -0.34527679390E+01  0.27210914435E+00  0.56645464555E+01  0.51100000000E-03 0. -1.
        -12    1    3    3    0    0 -0.27629688813E+01  0.19495516272E+01  0.20256771528E+00  0.33875923996E+01  0.00000000000E+00 0.  1.
</event>
<event>
 7    1  0.3004200E-011  0.5052886E+02  0.7816164E-02  0.1300439E+00
        -11   -1    0    0    0    0  0.00000000000E+00  0.00000000000E+00  0.45593999997E+02  0.45594000000E+02  0.51100000000E-03 0.  1.
         11   -1    0    0    0    0 -0.00000000000E+00 -0.00000000000E+00 -0.45593999997E+02  0.45594000000E+02  0.51100000000E-03 0. -1.
    9900012    2    1    2    0    0  0.15318268935E+01 -0.38637281131E+02  0.12568991484E+02  0.50528861621E+02  0.30000005382E+02 0.  0.
         12    1    1    2    0    0 -0.15318268935E+01  0.38637281131E+02 -0.12568991484E+02  0.40659138379E+02  0.00000000000E+00 0. -1.
         11    1    3    3    0    0 -0.11071858608E+01 -0.27725191890E+01  0.11291951504E+01  0.31918341330E+01  0.51100000000E-03 0. -1.
        -11    1    3    3    0    0  0.12032111732E+02 -0.33660985990E+02  0.59567872448E+01  0.36239715853E+02  0.51100000000E-03 0.  1.
        -12    1    3    3    0    0 -0.93930989779E+01 -0.22037759523E+01  0.54830090885E+01  0.11097311635E+02  0.00000000000E+00 0.  1.
</event>
<event>
 7    1  0.3004200E-011  0.5052886E+02  0.7816164E-02  0.1300439E+00
        -11   -1    0    0    0    0  0.00000000000E+00  0.00000000000E+00  0.45593999997E+02  0.45594000000E+02  0.51100000000E-03 0. -1.
         11   -1    0    0    0    0 -0.00000000000E+00 -0.00000000000E+00 -0.45593999997E+02  0.45594000000E+02  0.51100000000E-03 0.  1.
    9900012    2    1    2    0    0  0.40469602268E+01  0.26333682897E+02 -0.30713601457E+02  0.50528855192E+02  0.29999985843E+02 0.  0.
         12    1    1    2    0    0 -0.40469602268E+01 -0.26333682897E+02  0.30713601457E+02  0.40659144808E+02  0.00000000000E+00 0. -1.
         11    1    3    3    0    0 -0.62740268816E+01 -0.15813683443E+01 -0.13196540074E+02  0.14697374233E+02  0.51100000000E-03 0. -1.
        -11    1    3    3    0    0  0.33415238147E+00  0.13174157912E+02 -0.98143244580E+01  0.16431404667E+02  0.51100000000E-03 0.  1.
         12    1    3    3    0    0  0.99868347269E+01  0.14740893330E+02 -0.77027369256E+01  0.19400076293E+02  0.00000000000E+00 0. -1.
</event>
<event>
 7    1  0.3004200E-011  0.5052895E+02  0.7816164E-02  0.1300438E+00
        -11   -1    0    0    0    0  0.00000000000E+00  0.00000000000E+00  0.45593999997E+02  0.45594000000E+02  0.51100000000E-03 0.  1.
         11   -1    0    0    0    0 -0.00000000000E+00 -0.00000000000E+00 -0.45593999997E+02  0.45594000000E+02  0.51100000000E-03 0. -1.
    9900012    2    1    2    0    0 -0.10661634587E+01 -0.66327217821E+01  0.40100231171E+02  0.50528951281E+02  0.30000277912E+02 0.  0.
         12    1    1    2    0    0  0.10661634587E+01  0.66327217821E+01 -0.40100231171E+02  0.40659048719E+02  0.00000000000E+00 0. -1.
         11    1    3    3    0    0  0.36970617225E+01  0.10225421554E+02  0.24238444526E+02  0.26565573674E+02  0.51100000000E-03 0. -1.
        -11    1    3    3    0    0 -0.15363157451E+01 -0.11910210946E+02  0.98094325916E+01  0.15506074902E+02  0.51100000000E-03 0.  1.
         12    1    3    3    0    0 -0.32269094361E+01 -0.49479323902E+01  0.60523540535E+01  0.84573027045E+01  0.00000000000E+00 0. -1.
</event>
<event>
 7    1  0.3004200E-011  0.5052894E+02  0.7816164E-02  0.1300439E+00
        -11   -1    0    0    0    0  0.00000000000E+00  0.00000000000E+00  0.45593999997E+02  0.45594000000E+02  0.51100000000E-03 0.  1.
         11   -1    0    0    0    0 -0.00000000000E+00 -0.00000000000E+00 -0.45593999997E+02  0.45594000000E+02  0.51100000000E-03 0. -1.
    9900012    2    1    2    0    0 -0.35236381836E+02  0.20248124510E+02  0.12531045891E+01  0.50528936777E+02  0.30000233825E+02 0.  0.
         12    1    1    2    0    0  0.35236381836E+02 -0.20248124510E+02 -0.12531045891E+01  0.40659063223E+02  0.00000000000E+00 0. -1.
         11    1    3    3    0    0  0.47120328194E+01  0.15145834130E+01  0.30160986026E+01  0.57960389274E+01  0.51100000000E-03 0. -1.
        -11    1    3    3    0    0 -0.32979310226E+02  0.12725809813E+02 -0.28682964888E+01  0.35465592669E+02  0.51100000000E-03 0.  1.
         12    1    3    3    0    0 -0.69691044295E+01  0.60077312844E+01  0.11053024753E+01  0.92673051798E+01  0.00000000000E+00 0. -1.
</event>
<event>
 7    1  0.3004200E-011  0.5052888E+02  0.7816164E-02  0.1300439E+00
        -11   -1    0    0    0    0  0.00000000000E+00  0.00000000000E+00  0.45593999997E+02  0.45594000000E+02  0.51100000000E-03 0. -1.
         11   -1    0    0    0    0 -0.00000000000E+00 -0.00000000000E+00 -0.45593999997E+02  0.45594000000E+02  0.51100000000E-03 0.  1.
    9900012    2    1    2    0    0  0.14891397708E+02  0.18068905193E+02 -0.33240407538E+02  0.50528883509E+02  0.30000071913E+02 0.  0.
         12    1    1    2    0    0 -0.14891397708E+02 -0.18068905193E+02  0.33240407538E+02  0.40659116491E+02  0.00000000000E+00 0. -1.
         11    1    3    3    0    0  0.44153753479E+01  0.26704738272E+01 -0.27894321543E+01  0.58658249147E+01  0.51100000000E-03 0. -1.
        -11    1    3    3    0    0  0.92139858342E+01 -0.61526582064E+01 -0.10722095022E+02  0.15418043322E+02  0.51100000000E-03 0.  1.
        -12    1    3    3    0    0  0.12620365259E+01  0.21551089572E+02 -0.19728880362E+02  0.29245015272E+02  0.00000000000E+00 0.  1.
</event>
<event>
 7    1  0.3004200E-011  0.5052886E+02  0.7816164E-02  0.1300439E+00
        -11   -1    0    0    0    0  0.00000000000E+00  0.00000000000E+00  0.45593999997E+02  0.45594000000E+02  0.51100000000E-03 0. -1.
         11   -1    0    0    0    0 -0.00000000000E+00 -0.00000000000E+00 -0.45593999997E+02  0.45594000000E+02  0.51100000000E-03 0.  1.
    9900012    2    1    2    0    0 -0.73558872782E+01  0.36511949133E+02  0.16307490591E+02  0.50528858881E+02  0.29999997055E+02 0.  0.
         12    1    1    2    0    0  0.73558872782E+01 -0.36511949133E+02 -0.16307490591E+02  0.40659141119E+02  0.00000000000E+00 0. -1.
         11    1    3    3    0    0 -0.24503345872E+01  0.32811112740E+02  0.16360444148E+02  0.36745576492E+02  0.51100000000E-03 0. -1.
        -11    1    3    3    0    0 -0.53442148220E+01  0.63194470513E+01 -0.38678012235E+01  0.91354217015E+01  0.51100000000E-03 0.  1.
         12    1    3    3    0    0  0.43866213096E+00 -0.26186106576E+01  0.38148476672E+01  0.46478606870E+01  0.00000000000E+00 0. -1.
</event>
<event>
 7    1  0.3004200E-011  0.5052886E+02  0.7816164E-02  0.1300439E+00
        -11   -1    0    0    0    0  0.00000000000E+00  0.00000000000E+00  0.45593999997E+02  0.45594000000E+02  0.51100000000E-03 0. -1.
         11   -1    0    0    0    0 -0.00000000000E+00 -0.00000000000E+00 -0.45593999997E+02  0.45594000000E+02  0.51100000000E-03 0.  1.
    9900012    2    1    2    0    0 -0.11191463917E+02 -0.24655254931E+02 -0.30332085586E+02  0.50528857408E+02  0.29999992578E+02 0.  0.
         12    1    1    2    0    0  0.11191463917E+02  0.24655254931E+02  0.30332085586E+02  0.40659142592E+02  0.00000000000E+00 0. -1.
         11    1    3    3    0    0 -0.60835921656E+01 -0.76988209729E+01  0.49212960901E+01  0.10977299006E+02  0.51100000000E-03 0. -1.
        -11    1    3    3    0    0 -0.22125961768E+01 -0.11536322018E+02 -0.21873392718E+02  0.24827960383E+02  0.51100000000E-03 0.  1.
         12    1    3    3    0    0 -0.28952755742E+01 -0.54201119403E+01 -0.13379988958E+02  0.14723598018E+02  0.00000000000E+00 0. -1.
</event>
<event>
 7    1  0.3004200E-011  0.5052886E+02  0.7816164E-02  0.1300439E+00
        -11   -1    0    0    0    0  0.00000000000E+00  0.00000000000E+00  0.45593999997E+02  0.45594000000E+02  0.51100000000E-03 0.  1.
         11   -1    0    0    0    0 -0.00000000000E+00 -0.00000000000E+00 -0.45593999997E+02  0.45594000000E+02  0.51100000000E-03 0. -1.
    9900012    2    1    2    0    0  0.21233734368E+02  0.97342017474E+01  0.33279715242E+02  0.50528860739E+02  0.30000002701E+02 0.  0.
         12    1    1    2    0    0 -0.21233734368E+02 -0.97342017474E+01 -0.33279715242E+02  0.40659139261E+02  0.00000000000E+00 0. -1.
         11    1    3    3    0    0 -0.60502346709E+01 -0.36987031014E+01  0.41359544825E+01  0.82092547742E+01  0.51100000000E-03 0. -1.
        -11    1    3    3    0    0  0.24998283254E+02  0.13362558689E+02  0.27581683368E+02  0.39550238912E+02  0.51100000000E-03 0.  1.
        -12    1    3    3    0    0  0.22856857855E+01  0.70346159773E-01  0.15620773917E+01  0.27693670522E+01  0.00000000000E+00 0.  1.
</event>
<event>
 7    1  0.3004200E-011  0.5052886E+02  0.7816164E-02  0.1300439E+00
        -11   -1    0    0    0    0  0.00000000000E+00  0.00000000000E+00  0.45593999997E+02  0.45594000000E+02  0.51100000000E-03 0.  1.
         11   -1    0    0    0    0 -0.00000000000E+00 -0.00000000000E+00 -0.45593999997E+02  0.45594000000E+02  0.51100000000E-03 0. -1.
    9900012    2    1    2    0    0  0.19458186079E+01  0.34511285333E+02  0.21409115729E+02  0.50528864967E+02  0.30000015553E+02 0.  0.
         12    1    1    2    0    0 -0.19458186079E+01 -0.34511285333E+02 -0.21409115729E+02  0.40659135033E+02  0.00000000000E+00 0. -1.
         11    1    3    3    0    0  0.87129161050E+00  0.18689268962E+02  0.51971414933E+01  0.19417986594E+02  0.51100000000E-03 0. -1.
        -11    1    3    3    0    0 -0.53541416496E+01  0.10408539420E+02  0.18948521083E+02  0.22272201893E+02  0.51100000000E-03 0.  1.
        -12    1    3    3    0    0  0.64286686471E+01  0.54134769506E+01 -0.27365468476E+01  0.88386764800E+01  0.00000000000E+00 0.  1.
</event>
<event>
 7    1  0.3004200E-011  0.5052886E+02  0.7816164E-02  0.1300439E+00
        -11   -1    0    0    0    0  0.00000000000E+00  0.00000000000E+00  0.45593999997E+02  0.45594000000E+02  0.51100000000E-03 0. -1.
         11   -1    0    0    0    0 -0.00000000000E+00 -0.00000000000E+00 -0.45593999997E+02  0.45594000000E+02  0.51100000000E-03 0.  1.
    9900012    2    1    2    0    0 -0.52198466039E+01  0.19178614115E+02 -0.35469699845E+02  0.50528860252E+02  0.30000001223E+02 0.  0.
         12    1    1    2    0    0  0.52198466039E+01 -0.19178614115E+02  0.35469699845E+02  0.40659139748E+02  0.00000000000E+00 0. -1.
         11    1    3    3    0    0  0.33917484246E+00  0.14028270415E+01  0.13867892123E+01  0.20015363755E+01  0.51100000000E-03 0. -1.
        -11    1    3    3    0    0 -0.61843215032E+01 -0.16091720967E+01 -0.24981063953E+02  0.25785438212E+02  0.51100000000E-03 0.  1.
        -12    1    3    3    0    0  0.62530005689E+00  0.19384959170E+02 -0.11875425104E+02  0.22741885665E+02  0.00000000000E+00 0.  1.
</event>
<event>
 7    1  0.3004200E-011  0.5052886E+02  0.7816164E-02  0.1300439E+00
        -11   -1    0    0    0    0  0.00000000000E+00  0.00000000000E+00  0.45593999997E+02  0.45594000000E+02  0.51100000000E-03 0.  1.
         11   -1    0    0    0    0 -0.00000000000E+00 -0.00000000000E+00 -0.45593999997E+02  0.45594000000E+02  0.51100000000E-03 0. -1.
    9900012    2    1    2    0    0  0.15528777830E+02  0.93119929960E+01  0.36404800077E+02  0.50528860522E+02  0.30000002042E+02 0.  0.
         12    1    1    2    0    0 -0.15528777830E+02 -0.93119929960E+01 -0.36404800077E+02  0.40659139478E+02  0.00000000000E+00 0. -1.
         11    1    3    3    0    0  0.10630022543E+02  0.67111492538E+01  0.78226871761E+01  0.14806462727E+02  0.51100000000E-03 0. -1.
        -11    1    3    3    0    0 -0.54150209082E+01  0.56238817953E+01  0.21442197646E+02  0.22819253670E+02  0.51100000000E-03 0.  1.
        -12    1    3    3    0    0  0.10313776195E+02 -0.30230380531E+01  0.71399152550E+01  0.12903144125E+02  0.00000000000E+00 0.  1.
</event>
<event>
 7    1  0.3004200E-011  0.5052886E+02  0.7816164E-02  0.1300439E+00
        -11   -1    0    0    0    0  0.00000000000E+00  0.00000000000E+00  0.45593999997E+02  0.45594000000E+02  0.51100000000E-03 0.  1.
         11   -1    0    0    0    0 -0.00000000000E+00 -0.00000000000E+00 -0.45593999997E+02  0.45594000000E+02  0.51100000000E-03 0. -1.
    9900012    2    1    2    0    0  0.31608488327E+02  0.14183559825E+02  0.21281350323E+02  0.50528858651E+02  0.29999996357E+02 0.  0.
         12    1    1    2    0    0 -0.31608488327E+02 -0.14183559825E+02 -0.21281350323E+02  0.40659141349E+02  0.00000000000E+00 0. -1.
         11    1    3    3    0    0  0.34122513683E+00  0.69016195795E+01 -0.20161404703E+01  0.71981671328E+01  0.51100000000E-03 0. -1.
        -11    1    3    3    0    0  0.97626377146E+01 -0.38679676659E+01  0.13732418917E+02  0.17287266950E+02  0.51100000000E-03 0.  1.
        -12    1    3    3    0    0  0.21504625476E+02  0.11149907911E+02  0.95650718763E+01  0.26043424569E+02  0.00000000000E+00 0.  1.
</event>
<event>
 7    1  0.3004200E-011  0.5052886E+02  0.7816164E-02  0.1300439E+00
        -11   -1    0    0    0    0  0.00000000000E+00  0.00000000000E+00  0.45593999997E+02  0.45594000000E+02  0.51100000000E-03 0. -1.
         11   -1    0    0    0    0 -0.00000000000E+00 -0.00000000000E+00 -0.45593999997E+02  0.45594000000E+02  0.51100000000E-03 0.  1.
    9900012    2    1    2    0    0  0.40299190383E+02 -0.39466149315E+01  0.36831360231E+01  0.50528855814E+02  0.29999987732E+02 0.  0.
         12    1    1    2    0    0 -0.40299190383E+02  0.39466149315E+01 -0.36831360231E+01  0.40659144186E+02  0.00000000000E+00 0. -1.
         11    1    3    3    0    0 -0.29732115478E+01  0.14357847222E+00  0.33113324537E+01  0.44525862783E+01  0.51100000000E-03 0. -1.
        -11    1    3    3    0    0  0.26571515869E+02 -0.99351105655E+01  0.75052057133E+00  0.28378075321E+02  0.51100000000E-03 0.  1.
         12    1    3    3    0    0  0.16700886062E+02  0.58449171618E+01 -0.37871700190E+00  0.17698194214E+02  0.00000000000E+00 0. -1.
</event>
<event>
 7    1  0.3004200E-011  0.5052887E+02  0.7816164E-02  0.1300439E+00
        -11   -1    0    0    0    0  0.00000000000E+00  0.00000000000E+00  0.45593999997E+02  0.45594000000E+02  0.51100000000E-03 0.  1.
         11   -1    0    0    0    0 -0.00000000000E+00 -0.00000000000E+00 -0.45593999997E+02  0.45594000000E+02  0.51100000000E-03 0. -1.
    9900012    2    1    2    0    0  0.25736234065E+02 -0.11258933870E+02  0.29394690247E+02  0.50528866334E+02  0.30000019710E+02 0.  0.
         12    1    1    2    0    0 -0.25736234065E+02  0.11258933870E+02 -0.29394690247E+02  0.40659133666E+02  0.00000000000E+00 0. -1.
         11    1    3    3    0    0 -0.36165862836E+01 -0.89154978001E+01  0.83807545601E+01  0.12759421798E+02  0.51100000000E-03 0. -1.
        -11    1    3    3    0    0  0.10979362771E+02 -0.57608956276E+01  0.10957493033E+02  0.16546932619E+02  0.51100000000E-03 0.  1.
         12    1    3    3    0    0  0.18373457578E+02  0.34174595578E+01  0.10056442654E+02  0.21222511917E+02  0.00000000000E+00 0. -1.
</event>
<event>
 7    1  0.3004200E-011  0.5052886E+02  0.7816164E-02  0.1300439E+00
        -11   -1    0    0    0    0  0.00000000000E+00  0.00000000000E+00  0.45593999997E+02  0.45594000000E+02  0.51100000000E-03 0. -1.
         11   -1    0    0    0    0 -0.00000000000E+00 -0.00000000000E+00 -0.45593999997E+02  0.45594000000E+02  0.51100000000E-03 0.  1.
    9900012    2    1    2    0    0 -0.28434720582E+02  0.16005915237E+02  0.24257850837E+02  0.50528856079E+02  0.29999988539E+02 0.  0.
         12    1    1    2    0    0  0.28434720582E+02 -0.16005915237E+02 -0.24257850837E+02  0.40659143921E+02  0.00000000000E+00 0. -1.
         11    1    3    3    0    0 -0.77394705978E+00  0.12701954339E+00  0.91861949784E+01  0.92196153097E+01  0.51100000000E-03 0. -1.
        -11    1    3    3    0    0 -0.25861296526E+02  0.20424973247E+02  0.15468033951E+02  0.36403931996E+02  0.51100000000E-03 0.  1.
        -12    1    3    3    0    0 -0.17994769953E+01 -0.45460775533E+01 -0.39637809228E+00  0.49053087741E+01  0.00000000000E+00 0.  1.
</event>
<event>
 7    1  0.3004200E-011  0.5052886E+02  0.7816164E-02  0.1300439E+00
        -11   -1    0    0    0    0  0.00000000000E+00  0.00000000000E+00  0.45593999997E+02  0.45594000000E+02  0.51100000000E-03 0.  1.
         11   -1    0    0    0    0 -0.00000000000E+00 -0.00000000000E+00 -0.45593999997E+02  0.45594000000E+02  0.51100000000E-03 0. -1.
    9900012    2    1    2    0    0 -0.39434037806E+02  0.44262458751E+01  0.88617331708E+01  0.50528864433E+02  0.30000013931E+02 0.  0.
         12    1    1    2    0    0  0.39434037806E+02 -0.44262458751E+01 -0.88617331708E+01  0.40659135567E+02  0.00000000000E+00 0. -1.
         11    1    3    3    0    0 -0.10627849053E+02 -0.87735908550E-01 -0.59742933686E+01  0.12192253877E+02  0.51100000000E-03 0. -1.
        -11    1    3    3    0    0 -0.17787198243E+02  0.12482623010E+02  0.97649336044E+01  0.23823396632E+02  0.51100000000E-03 0.  1.
        -12    1    3    3    0    0 -0.11018990510E+02 -0.79686412260E+01  0.50710929350E+01  0.14513213924E+02  0.00000000000E+00 0.  1.
</event>
<event>
 7    1  0.3004200E-011  0.5052883E+02  0.7816164E-02  0.1300439E+00
        -11   -1    0    0    0    0  0.00000000000E+00  0.00000000000E+00  0.45593999997E+02  0.45594000000E+02  0.51100000000E-03 0.  1.
         11   -1    0    0    0    0 -0.00000000000E+00 -0.00000000000E+00 -0.45593999997E+02  0.45594000000E+02  0.51100000000E-03 0. -1.
    9900012    2    1    2    0    0 -0.24507906392E+02  0.13509924321E+02  0.29495973225E+02  0.50528831694E+02  0.29999914416E+02 0.  0.
         12    1    1    2    0    0  0.24507906392E+02 -0.13509924321E+02 -0.29495973225E+02  0.40659168306E+02  0.00000000000E+00 0. -1.
         11    1    3    3    0    0 -0.10538161846E+02  0.20358353638E+02  0.15230437134E+02  0.27522384226E+02  0.51100000000E-03 0. -1.
        -11    1    3    3    0    0 -0.33617061622E+01  0.21887551668E+01  0.22101301296E+01  0.45799992305E+01  0.51100000000E-03 0.  1.
         12    1    3    3    0    0 -0.10608038384E+02 -0.90371844834E+01  0.12055405961E+02  0.18426448237E+02  0.00000000000E+00 0. -1.
</event>
<event>
 7    1  0.3004200E-011  0.5052886E+02  0.7816164E-02  0.1300439E+00
        -11   -1    0    0    0    0  0.00000000000E+00  0.00000000000E+00  0.45593999997E+02  0.45594000000E+02  0.51100000000E-03 0.  1.
         11   -1    0    0    0    0 -0.00000000000E+00 -0.00000000000E+00 -0.45593999997E+02  0.45594000000E+02  0.51100000000E-03 0. -1.
    9900012    2    1    2    0    0 -0.88124179369E+01  0.31901630692E+02  0.23617636330E+02  0.50528862079E+02  0.30000006775E+02 0.  0.
         12    1    1    2    0    0  0.88124179369E+01 -0.31901630692E+02 -0.23617636330E+02  0.40659137921E+02  0.00000000000E+00 0. -1.
         11    1    3    3    0    0 -0.96569157530E+01  0.35065144715E+01  0.10218614106E+02  0.14490401655E+02  0.51100000000E-03 0. -1.
        -11    1    3    3    0    0 -0.58021269146E+01  0.25480504792E+02  0.95475427004E+01  0.27822228039E+02  0.51100000000E-03 0.  1.
        -12    1    3    3    0    0  0.66466247308E+01  0.29146114287E+01  0.38514795231E+01  0.82162323853E+01  0.00000000000E+00 0.  1.
</event>
<event>
 7    1  0.3004200E-011  0.5052887E+02  0.7816164E-02  0.1300439E+00
        -11   -1    0    0    0    0  0.00000000000E+00  0.00000000000E+00  0.45593999997E+02  0.45594000000E+02  0.51100000000E-03 0.  1.
         11   -1    0    0    0    0 -0.00000000000E+00 -0.00000000000E+00 -0.45593999997E+02  0.45594000000E+02  0.51100000000E-03 0. -1.
    9900012    2    1    2    0    0  0.30811484025E+02  0.34487448345E+01  0.26304441730E+02  0.50528867650E+02  0.30000023709E+02 0.  0.
         12    1    1    2    0    0 -0.30811484025E+02 -0.34487448345E+01 -0.26304441730E+02  0.40659132350E+02  0.00000000000E+00 0. -1.
         11    1    3    3    0    0  0.51963432096E+01 -0.10859213639E+02  0.59756790151E+01  0.13439986740E+02  0.51100000000E-03 0. -1.
        -11    1    3    3    0    0  0.17568246365E+02  0.59388192935E+01  0.81311992648E+01  0.20249179161E+02  0.51100000000E-03 0.  1.
         12    1    3    3    0    0  0.80468944507E+01  0.83691391798E+01  0.12197563450E+02  0.16839701750E+02  0.00000000000E+00 0. -1.
</event>
<event>
 7    1  0.3004200E-011  0.5052886E+02  0.7816164E-02  0.1300439E+00
        -11   -1    0    0    0    0  0.00000000000E+00  0.00000000000E+00  0.45593999997E+02  0.45594000000E+02  0.51100000000E-03 0. -1.
         11   -1    0    0    0    0 -0.00000000000E+00 -0.00000000000E+00 -0.45593999997E+02  0.45594000000E+02  0.51100000000E-03 0.  1.
    9900012    2    1    2    0    0 -0.28471030754E+02  0.33942584229E+01 -0.28827852632E+02  0.50528859947E+02  0.30000000296E+02 0.  0.
         12    1    1    2    0    0  0.28471030754E+02 -0.33942584229E+01  0.28827852632E+02  0.40659140053E+02  0.00000000000E+00 0. -1.
         11    1    3    3    0    0 -0.53379508965E+01 -0.30675547705E+00 -0.11571090018E+01  0.54705319851E+01  0.51100000000E-03 0. -1.
        -11    1    3    3    0    0 -0.24713631241E+02  0.76966401666E+01 -0.30431530810E+02  0.39950968783E+02  0.51100000000E-03 0.  1.
        -12    1    3    3    0    0  0.15805513833E+01 -0.39956262666E+01  0.27607871797E+01  0.51073591796E+01  0.00000000000E+00 0.  1.
</event>
<event>
 7    1  0.3004200E-011  0.5052886E+02  0.7816164E-02  0.1300439E+00
        -11   -1    0    0    0    0  0.00000000000E+00  0.00000000000E+00  0.45593999997E+02  0.45594000000E+02  0.51100000000E-03 0. -1.
         11   -1    0    0    0    0 -0.00000000000E+00 -0.00000000000E+00 -0.45593999997E+02  0.45594000000E+02  0.51100000000E-03 0.  1.
    9900012    2    1    2    0    0  0.21744749885E+02 -0.55887606192E+01 -0.33898331475E+02  0.50528864869E+02  0.30000015255E+02 0.  0.
         12    1    1    2    0    0 -0.21744749885E+02  0.55887606192E+01  0.33898331475E+02  0.40659135131E+02  0.00000000000E+00 0. -1.
         11    1    3    3    0    0 -0.63262402577E+01 -0.36968784019E+01 -0.40130909838E+01  0.83542279848E+01  0.51100000000E-03 0. -1.
        -11    1    3    3    0    0  0.25893409346E+02 -0.39701734835E+01 -0.23833667428E+02  0.35415739839E+02  0.51100000000E-03 0.  1.
        -12    1    3    3    0    0  0.21775807970E+01  0.20782912662E+01 -0.60515730638E+01  0.67588970447E+01  0.00000000000E+00 0.  1.
</event>
<event>
 7    1  0.3004200E-011  0.5052886E+02  0.7816164E-02  0.1300439E+00
        -11   -1    0    0    0    0  0.00000000000E+00  0.00000000000E+00  0.45593999997E+02  0.45594000000E+02  0.51100000000E-03 0.  1.
         11   -1    0    0    0    0 -0.00000000000E+00 -0.00000000000E+00 -0.45593999997E+02  0.45594000000E+02  0.51100000000E-03 0. -1.
    9900012    2    1    2    0    0  0.42287021794E+01 -0.39636210981E+02  0.80158772698E+01  0.50528862879E+02  0.30000009207E+02 0.  0.
         12    1    1    2    0    0 -0.42287021794E+01  0.39636210981E+02 -0.80158772698E+01  0.40659137121E+02  0.00000000000E+00 0. -1.
         11    1    3    3    0    0 -0.97730225369E+01 -0.22868659642E+02  0.75932510083E+01  0.26002788783E+02  0.51100000000E-03 0. -1.
        -11    1    3    3    0    0  0.10842455483E+02 -0.48034626072E+01  0.20849717706E+01  0.12040730936E+02  0.51100000000E-03 0.  1.
        -12    1    3    3    0    0  0.31592692334E+01 -0.11964088731E+02 -0.16623455091E+01  0.12485343161E+02  0.00000000000E+00 0.  1.
</event>
<event>
 7    1  0.3004200E-011  0.5052886E+02  0.7816164E-02  0.1300439E+00
        -11   -1    0    0    0    0  0.00000000000E+00  0.00000000000E+00  0.45593999997E+02  0.45594000000E+02  0.51100000000E-03 0.  1.
         11   -1    0    0    0    0 -0.00000000000E+00 -0.00000000000E+00 -0.45593999997E+02  0.45594000000E+02  0.51100000000E-03 0. -1.
    9900012    2    1    2    0    0 -0.28565079742E+02  0.28387967099E+02  0.55969064414E+01  0.50528858121E+02  0.29999994744E+02 0.  0.
         12    1    1    2    0    0  0.28565079742E+02 -0.28387967099E+02 -0.55969064414E+01  0.40659141879E+02  0.00000000000E+00 0. -1.
         11    1    3    3    0    0  0.89193213308E-01  0.18878833919E+00 -0.49910869636E+00  0.54102330654E+00  0.51100000000E-03 0. -1.
        -11    1    3    3    0    0 -0.10006949925E+02 -0.34402654899E+01 -0.48859391175E+01  0.11655336750E+02  0.51100000000E-03 0.  1.
        -12    1    3    3    0    0 -0.18647323030E+02  0.31639444249E+02  0.10981954255E+02  0.38332498064E+02  0.00000000000E+00 0.  1.
</event>
<event>
 7    1  0.3004200E-011  0.5052885E+02  0.7816164E-02  0.1300439E+00
        -11   -1    0    0    0    0  0.00000000000E+00  0.00000000000E+00  0.45593999997E+02  0.45594000000E+02  0.51100000000E-03 0.  1.
         11   -1    0    0    0    0 -0.00000000000E+00 -0.00000000000E+00 -0.45593999997E+02  0.45594000000E+02  0.51100000000E-03 0. -1.
    9900012    2    1    2    0    0 -0.10215121613E+02  0.22522803614E+02  0.32272910839E+02  0.50528853843E+02  0.29999981742E+02 0.  0.
         12    1    1    2    0    0  0.10215121613E+02 -0.22522803614E+02 -0.32272910839E+02  0.40659146157E+02  0.00000000000E+00 0. -1.
         11    1    3    3    0    0 -0.65888343870E+01  0.14681126546E+01  0.22461612221E+02  0.23454042662E+02  0.51100000000E-03 0. -1.
        -11    1    3    3    0    0 -0.19623399631E+01  0.17119575746E+02  0.13130726103E+02  0.21664409064E+02  0.51100000000E-03 0.  1.
        -12    1    3    3    0    0 -0.16639472631E+01  0.39351152131E+01 -0.33194274856E+01  0.54104021170E+01  0.00000000000E+00 0.  1.
</event>
<event>
 7    1  0.3004200E-011  0.5052886E+02  0.7816164E-02  0.1300439E+00
        -11   -1    0    0    0    0  0.00000000000E+00  0.00000000000E+00  0.45593999997E+02  0.45594000000E+02  0.51100000000E-03 0.  1.
         11   -1    0    0    0    0 -0.00000000000E+00 -0.00000000000E+00 -0.45593999997E+02  0.45594000000E+02  0.51100000000E-03 0. -1.
    9900012    2    1    2    0    0 -0.18015603151E+02 -0.38137738915E+01  0.36249947452E+02  0.50528861808E+02  0.30000005952E+02 0.  0.
         12    1    1    2    0    0  0.18015603151E+02  0.38137738915E+01 -0.36249947452E+02  0.40659138192E+02  0.00000000000E+00 0. -1.
         11    1    3    3    0    0 -0.73322235810E+01  0.22564974951E+01  0.48304877038E+01  0.90656988316E+01  0.51100000000E-03 0. -1.
        -11    1    3    3    0    0  0.26462021541E+01 -0.11456344876E+02  0.89027583040E+01  0.14748197498E+02  0.51100000000E-03 0.  1.
        -12    1    3    3    0    0 -0.13329581724E+02  0.53860734897E+01  0.22516701445E+02  0.26714965479E+02  0.00000000000E+00 0.  1.
</event>
<event>
 7    1  0.3004200E-011  0.5052886E+02  0.7816164E-02  0.1300439E+00
        -11   -1    0    0    0    0  0.00000000000E+00  0.00000000000E+00  0.45593999997E+02  0.45594000000E+02  0.51100000000E-03 0.  1.
         11   -1    0    0    0    0 -0.00000000000E+00 -0.00000000000E+00 -0.45593999997E+02  0.45594000000E+02  0.51100000000E-03 0. -1.
    9900012    2    1    2    0    0  0.38640060957E+02 -0.10717112815E+02 -0.67271748608E+01  0.50528859583E+02  0.29999999188E+02 0.  0.
         12    1    1    2    0    0 -0.38640060957E+02  0.10717112815E+02  0.67271748608E+01  0.40659140417E+02  0.00000000000E+00 0. -1.
         11    1    3    3    0    0  0.20325566571E+01 -0.90584927891E+01 -0.74616093476E+01  0.11910633589E+02  0.51100000000E-03 0. -1.
        -11    1    3    3    0    0  0.24412400882E+02  0.74974625780E+00  0.59492714800E+01  0.25138044230E+02  0.51100000000E-03 0.  1.
        -12    1    3    3    0    0  0.12195103418E+02 -0.24083662833E+01 -0.52148369931E+01  0.13480181764E+02  0.00000000000E+00 0.  1.
</event>
<event>
 7    1  0.3004200E-011  0.5052885E+02  0.7816164E-02  0.1300439E+00
        -11   -1    0    0    0    0  0.00000000000E+00  0.00000000000E+00  0.45593999997E+02  0.45594000000E+02  0.51100000000E-03 0. -1.
         11   -1    0    0    0    0 -0.00000000000E+00 -0.00000000000E+00 -0.45593999997E+02  0.45594000000E+02  0.51100000000E-03 0.  1.
    9900012    2    1    2    0    0  0.38475046221E+02 -0.78001890603E+01 -0.10582736867E+02  0.50528850345E+02  0.29999971107E+02 0.  0.
         12    1    1    2    0    0 -0.38475046221E+02  0.78001890603E+01  0.10582736867E+02  0.40659149655E+02  0.00000000000E+00 0. -1.
         11    1    3    3    0    0  0.60250454555E+01 -0.97930208142E+01  0.49218058684E+01  0.12507142067E+02  0.51100000000E-03 0. -1.
        -11    1    3    3    0    0  0.32991395334E+02  0.59341448614E+00 -0.15638933475E+02  0.36515209808E+02  0.51100000000E-03 0.  1.
        -12    1    3    3    0    0 -0.54139456857E+00  0.13994172678E+01  0.13439073892E+00  0.15064984696E+01  0.00000000000E+00 0.  1.
</event>
<event>
 7    1  0.3004200E-011  0.5052886E+02  0.7816164E-02  0.1300439E+00
        -11   -1    0    0    0    0  0.00000000000E+00  0.00000000000E+00  0.45593999997E+02  0.45594000000E+02  0.51100000000E-03 0. -1.
         11   -1    0    0    0    0 -0.00000000000E+00 -0.00000000000E+00 -0.45593999997E+02  0.45594000000E+02  0.51100000000E-03 0.  1.
    9900012    2    1    2    0    0 -0.10502488433E+02  0.37744776990E+02 -0.10871751595E+02  0.50528862822E+02  0.30000009034E+02 0.  0.
         12    1    1    2    0    0  0.10502488433E+02 -0.37744776990E+02  0.10871751595E+02  0.40659137178E+02  0.00000000000E+00 0. -1.
         11    1    3    3    0    0 -0.14266987738E+02  0.35683490616E+02 -0.84312782276E+01  0.39343930847E+02  0.51100000000E-03 0. -1.
        -11    1    3    3    0    0  0.30062598261E+01 -0.10613562798E+01 -0.57483327804E+01  0.65732340070E+01  0.51100000000E-03 0.  1.
         12    1    3    3    0    0  0.75823947902E+00  0.31226426541E+01  0.33078594133E+01  0.46116979683E+01  0.00000000000E+00 0. -1.
</event>
<event>
 7    1  0.3004200E-011  0.5052886E+02  0.7816164E-02  0.1300439E+00
        -11   -1    0    0    0    0  0.00000000000E+00  0.00000000000E+00  0.45593999997E+02  0.45594000000E+02  0.51100000000E-03 0.  1.
         11   -1    0    0    0    0 -0.00000000000E+00 -0.00000000000E+00 -0.45593999997E+02  0.45594000000E+02  0.51100000000E-03 0. -1.
    9900012    2    1    2    0    0  0.10236793428E+02 -0.37468515322E+02  0.12020146926E+02  0.50528861885E+02  0.30000006184E+02 0.  0.
         12    1    1    2    0    0 -0.10236793428E+02  0.37468515322E+02 -0.12020146926E+02  0.40659138115E+02  0.00000000000E+00 0. -1.
         11    1    3    3    0    0  0.56874069750E+01 -0.84105852684E+01 -0.60243993946E+01  0.11805843087E+02  0.51100000000E-03 0. -1.
        -11    1    3    3    0    0 -0.59664910854E+01 -0.12440558265E+02  0.34171009979E+01  0.14214186058E+02  0.51100000000E-03 0.  1.
         12    1    3    3    0    0  0.10515877539E+02 -0.16617371789E+02  0.14627445323E+02  0.24508832740E+02  0.00000000000E+00 0. -1.
</event>
<event>
 7    1  0.3004200E-011  0.5052887E+02  0.7816164E-02  0.1300439E+00
        -11   -1    0    0    0    0  0.00000000000E+00  0.00000000000E+00  0.45593999997E+02  0.45594000000E+02  0.51100000000E-03 0.  1.
         11   -1    0    0    0    0 -0.00000000000E+00 -0.00000000000E+00 -0.45593999997E+02  0.45594000000E+02  0.51100000000E-03 0. -1.
    9900012    2    1    2    0    0  0.99259549184E+01 -0.31253617440E+02  0.24038545750E+02  0.50528869833E+02  0.30000030346E+02 0.  0.
         12    1    1    2    0    0 -0.99259549184E+01  0.31253617440E+02 -0.24038545750E+02  0.40659130167E+02  0.00000000000E+00 0. -1.
         11    1    3    3    0    0  0.13311544354E+02 -0.12676335261E+02  0.92863741412E+01  0.20594257299E+02  0.51100000000E-03 0.  1.
        -11    1    3    3    0    0 -0.45725216166E+01 -0.19433660855E+01  0.12058915515E+02  0.13042318404E+02  0.51100000000E-03 0. -1.
         12    1    3    3    0    0  0.11869321808E+01 -0.16633916094E+02  0.26932560931E+01  0.16892294131E+02  0.00000000000E+00 0. -1.
</event>
<event>
 7    1  0.3004200E-011  0.5052893E+02  0.7816164E-02  0.1300439E+00
        -11   -1    0    0    0    0  0.00000000000E+00  0.00000000000E+00  0.45593999997E+02  0.45594000000E+02  0.51100000000E-03 0. -1.
         11   -1    0    0    0    0 -0.00000000000E+00 -0.00000000000E+00 -0.45593999997E+02  0.45594000000E+02  0.51100000000E-03 0.  1.
    9900012    2    1    2    0    0 -0.31391343297E+02 -0.24968530798E+02 -0.66570305759E+01  0.50528929422E+02  0.30000211469E+02 0.  0.
         12    1    1    2    0    0  0.31391343297E+02  0.24968530798E+02  0.66570305759E+01  0.40659070578E+02  0.00000000000E+00 0. -1.
         11    1    3    3    0    0 -0.57298841046E+01  0.10734106067E+01 -0.10861145730E+02  0.12326729859E+02  0.51100000000E-03 0. -1.
        -11    1    3    3    0    0 -0.24233401897E+02 -0.21071521300E+02  0.10209676505E+01  0.32129568198E+02  0.51100000000E-03 0.  1.
         12    1    3    3    0    0 -0.14280572958E+01 -0.49704201049E+01  0.31831475038E+01  0.60726313646E+01  0.00000000000E+00 0. -1.
</event>
<event>
 7    1  0.3004200E-011  0.5052887E+02  0.7816164E-02  0.1300439E+00
        -11   -1    0    0    0    0  0.00000000000E+00  0.00000000000E+00  0.45593999997E+02  0.45594000000E+02  0.51100000000E-03 0. -1.
         11   -1    0    0    0    0 -0.00000000000E+00 -0.00000000000E+00 -0.45593999997E+02  0.45594000000E+02  0.51100000000E-03 0.  1.
    9900012    2    1    2    0    0  0.17168911587E+02 -0.60762684901E+01 -0.36352063794E+02  0.50528866881E+02  0.30000021373E+02 0.  0.
         12    1    1    2    0    0 -0.17168911587E+02  0.60762684901E+01  0.36352063794E+02  0.40659133119E+02  0.00000000000E+00 0. -1.
         11    1    3    3    0    0  0.15151295819E+02 -0.54231627679E+01 -0.36216532117E+01  0.16495115388E+02  0.51100000000E-03 0. -1.
        -11    1    3    3    0    0  0.14754243206E+01 -0.43382940260E+00 -0.33229393544E+02  0.33264961753E+02  0.51100000000E-03 0.  1.
        -12    1    3    3    0    0  0.54219144736E+00 -0.21927631957E+00  0.49898296113E+00  0.76878974070E+00  0.00000000000E+00 0.  1.
</event>
<event>
 7    1  0.3004200E-011  0.5052887E+02  0.7816164E-02  0.1300439E+00
        -11   -1    0    0    0    0  0.00000000000E+00  0.00000000000E+00  0.45593999997E+02  0.45594000000E+02  0.51100000000E-03 0.  1.
         11   -1    0    0    0    0 -0.00000000000E+00 -0.00000000000E+00 -0.45593999997E+02  0.45594000000E+02  0.51100000000E-03 0. -1.
    9900012    2    1    2    0    0  0.34549048207E+02  0.13661305426E+02  0.16519592346E+02  0.50528869054E+02  0.30000027977E+02 0.  0.
         12    1    1    2    0    0 -0.34549048207E+02 -0.13661305426E+02 -0.16519592346E+02  0.40659130946E+02  0.00000000000E+00 0. -1.
         11    1    3    3    0    0  0.99421379893E+01  0.65715354262E+01  0.54568719461E+00  0.11930170176E+02  0.51100000000E-03 0. -1.
        -11    1    3    3    0    0  0.21596274235E+02  0.74615409588E+00  0.20867349489E+02  0.30040008018E+02  0.51100000000E-03 0.  1.
        -12    1    3    3    0    0  0.30106359833E+01  0.63436159040E+01 -0.48934443371E+01  0.85586908603E+01  0.00000000000E+00 0.  1.
</event>
<event>
 7    1  0.3004200E-011  0.5052885E+02  0.7816164E-02  0.1300439E+00
        -11   -1    0    0    0    0  0.00000000000E+00  0.00000000000E+00  0.45593999997E+02  0.45594000000E+02  0.51100000000E-03 0. -1.
         11   -1    0    0    0    0 -0.00000000000E+00 -0.00000000000E+00 -0.45593999997E+02  0.45594000000E+02  0.51100000000E-03 0.  1.
    9900012    2    1    2    0    0  0.36315165519E+02 -0.12789555599E+02 -0.13069135981E+02  0.50528852267E+02  0.29999976952E+02 0.  0.
         12    1    1    2    0    0 -0.36315165519E+02  0.12789555599E+02  0.13069135981E+02  0.40659147733E+02  0.00000000000E+00 0. -1.
         11    1    3    3    0    0  0.18308991935E+02 -0.17722718992E+02  0.60427339097E+00  0.25488803438E+02  0.51100000000E-03 0. -1.
        -11    1    3    3    0    0  0.62387067827E+01 -0.28533756166E+01 -0.47672049378E+01  0.83540084935E+01  0.51100000000E-03 0.  1.
         12    1    3    3    0    0  0.11767466801E+02  0.77865390095E+01 -0.89062044341E+01  0.16686040335E+02  0.00000000000E+00 0. -1.
</event>
<event>
 7    1  0.3004200E-011  0.5052886E+02  0.7816164E-02  0.1300439E+00
        -11   -1    0    0    0    0  0.00000000000E+00  0.00000000000E+00  0.45593999997E+02  0.45594000000E+02  0.51100000000E-03 0.  1.
         11   -1    0    0    0    0 -0.00000000000E+00 -0.00000000000E+00 -0.45593999997E+02  0.45594000000E+02  0.51100000000E-03 0. -1.
    9900012    2    1    2    0    0  0.96983823613E+00 -0.15971721488E+02  0.37378192557E+02  0.50528858933E+02  0.29999997213E+02 0.  0.
         12    1    1    2    0    0 -0.96983823613E+00  0.15971721488E+02 -0.37378192557E+02  0.40659141067E+02  0.00000000000E+00 0. -1.
         11    1    3    3    0    0 -0.48610838064E+01  0.52068153068E+01  0.14650178887E+02  0.16290144355E+02  0.51100000000E-03 0. -1.
        -11    1    3    3    0    0  0.91395666381E+00 -0.19291153301E+02  0.21361573286E+02  0.28797581947E+02  0.51100000000E-03 0.  1.
         12    1    3    3    0    0  0.49169653788E+01 -0.18873834930E+01  0.13664403836E+01  0.54411326309E+01  0.00000000000E+00 0. -1.
</event>
<event>
 7    1  0.3004200E-011  0.5052886E+02  0.7816164E-02  0.1300439E+00
        -11   -1    0    0    0    0  0.00000000000E+00  0.00000000000E+00  0.45593999997E+02  0.45594000000E+02  0.51100000000E-03 0.  1.
         11   -1    0    0    0    0 -0.00000000000E+00 -0.00000000000E+00 -0.45593999997E+02  0.45594000000E+02  0.51100000000E-03 0. -1.
    9900012    2    1    2    0    0  0.42588132366E+01 -0.36084051348E+02  0.18247440400E+02  0.50528864089E+02  0.30000012885E+02 0.  0.
         12    1    1    2    0    0 -0.42588132366E+01  0.36084051348E+02 -0.18247440400E+02  0.40659135911E+02  0.00000000000E+00 0. -1.
         11    1    3    3    0    0 -0.22446739438E+01 -0.30024769376E+02  0.24609262143E+01  0.30208963823E+02  0.51100000000E-03 0. -1.
        -11    1    3    3    0    0  0.22607729988E+01 -0.78633588823E+01  0.99389662482E+01  0.12873482738E+02  0.51100000000E-03 0.  1.
         12    1    3    3    0    0  0.42427141816E+01  0.18040769095E+01  0.58475479372E+01  0.74464175279E+01  0.00000000000E+00 0. -1.
</event>
<event>
 7    1  0.3004200E-011  0.5052886E+02  0.7816164E-02  0.1300439E+00
        -11   -1    0    0    0    0  0.00000000000E+00  0.00000000000E+00  0.45593999997E+02  0.45594000000E+02  0.51100000000E-03 0.  1.
         11   -1    0    0    0    0 -0.00000000000E+00 -0.00000000000E+00 -0.45593999997E+02  0.45594000000E+02  0.51100000000E-03 0. -1.
    9900012    2    1    2    0    0 -0.18690718534E+02 -0.20049500421E+01  0.36052780221E+02  0.50528859015E+02  0.29999997461E+02 0.  0.
         12    1    1    2    0    0  0.18690718534E+02  0.20049500421E+01 -0.36052780221E+02  0.40659140985E+02  0.00000000000E+00 0. -1.
         11    1    3    3    0    0 -0.21152160368E+02 -0.14411518405E+01  0.30323035001E+02  0.36999692685E+02  0.51100000000E-03 0. -1.
        -11    1    3    3    0    0  0.27591463801E+01  0.41506617929E+01 -0.12150788200E+01  0.51300388757E+01  0.51100000000E-03 0.  1.
         12    1    3    3    0    0 -0.29770454612E+00 -0.47144599944E+01  0.69448240402E+01  0.83991274538E+01  0.00000000000E+00 0. -1.
</event>
<event>
 7    1  0.3004200E-011  0.5052886E+02  0.7816164E-02  0.1300439E+00
        -11   -1    0    0    0    0  0.00000000000E+00  0.00000000000E+00  0.45593999997E+02  0.45594000000E+02  0.51100000000E-03 0.  1.
         11   -1    0    0    0    0 -0.00000000000E+00 -0.00000000000E+00 -0.45593999997E+02  0.45594000000E+02  0.51100000000E-03 0. -1.
    9900012    2    1    2    0    0  0.33217575095E+02 -0.14141550819E+02  0.18702274412E+02  0.50528858065E+02  0.29999994574E+02 0.  0.
         12    1    1    2    0    0 -0.33217575095E+02  0.14141550819E+02 -0.18702274412E+02  0.40659141935E+02  0.00000000000E+00 0. -1.
         11    1    3    3    0    0  0.32986097010E+02 -0.19613220940E+02  0.11880604275E+02  0.40173496112E+02  0.51100000000E-03 0. -1.
        -11    1    3    3    0    0  0.21452754556E+01  0.18542354521E+01  0.52588880958E+01  0.59746380775E+01  0.51100000000E-03 0.  1.
         12    1    3    3    0    0 -0.19137973711E+01  0.36174346697E+01  0.15627820413E+01  0.43807238757E+01  0.00000000000E+00 0. -1.
</event>
<event>
 7    1  0.3004200E-011  0.5052887E+02  0.7816164E-02  0.1300439E+00
        -11   -1    0    0    0    0  0.00000000000E+00  0.00000000000E+00  0.45593999997E+02  0.45594000000E+02  0.51100000000E-03 0.  1.
         11   -1    0    0    0    0 -0.00000000000E+00 -0.00000000000E+00 -0.45593999997E+02  0.45594000000E+02  0.51100000000E-03 0. -1.
    9900012    2    1    2    0    0 -0.28043186279E+02  0.27382540136E+01  0.29312906887E+02  0.50528870129E+02  0.30000031244E+02 0.  0.
         12    1    1    2    0    0  0.28043186279E+02 -0.27382540136E+01 -0.29312906887E+02  0.40659129871E+02  0.00000000000E+00 0. -1.
         11    1    3    3    0    0 -0.19461135472E+01  0.76880900076E+01  0.13199604988E+01  0.80396754837E+01  0.51100000000E-03 0. -1.
        -11    1    3    3    0    0 -0.19532303930E+02 -0.43641382222E+00  0.28446702572E+02  0.34509654320E+02  0.51100000000E-03 0.  1.
        -12    1    3    3    0    0 -0.65647688021E+01 -0.45134221718E+01 -0.45375618379E+00  0.79795403251E+01  0.00000000000E+00 0.  1.
</event>
<event>
 7    1  0.3004200E-011  0.5052888E+02  0.7816164E-02  0.1300439E+00
        -11   -1    0    0    0    0  0.00000000000E+00  0.00000000000E+00  0.45593999997E+02  0.45594000000E+02  0.51100000000E-03 0.  1.
         11   -1    0    0    0    0 -0.00000000000E+00 -0.00000000000E+00 -0.45593999997E+02  0.45594000000E+02  0.51100000000E-03 0. -1.
    9900012    2    1    2    0    0 -0.37464169846E+02 -0.58636748330E+01  0.14670297350E+02  0.50528876435E+02  0.30000050410E+02 0.  0.
         12    1    1    2    0    0  0.37464169846E+02  0.58636748330E+01 -0.14670297350E+02  0.40659123565E+02  0.00000000000E+00 0. -1.
         11    1    3    3    0    0 -0.40703629826E+01 -0.98040973900E+01 -0.45943034185E+01  0.11567013642E+02  0.51100000000E-03 0. -1.
        -11    1    3    3    0    0 -0.20136247464E+02  0.86236990940E+00  0.12963568414E+02  0.23963852989E+02  0.51100000000E-03 0.  1.
         12    1    3    3    0    0 -0.13257559399E+02  0.30780526476E+01  0.63010323541E+01  0.14998009803E+02  0.00000000000E+00 0. -1.
</event>
<event>
 7    1  0.3004200E-011  0.5052886E+02  0.7816164E-02  0.1300439E+00
        -11   -1    0    0    0    0  0.00000000000E+00  0.00000000000E+00  0.45593999997E+02  0.45594000000E+02  0.51100000000E-03 0. -1.
         11   -1    0    0    0    0 -0.00000000000E+00 -0.00000000000E+00 -0.45593999997E+02  0.45594000000E+02  0.51100000000E-03 0.  1.
    9900012    2    1    2    0    0 -0.30153515604E+02 -0.30596064620E+00 -0.27273378480E+02  0.50528864631E+02  0.30000014533E+02 0.  0.
         12    1    1    2    0    0  0.30153515604E+02  0.30596064620E+00  0.27273378480E+02  0.40659135369E+02  0.00000000000E+00 0. -1.
         11    1    3    3    0    0 -0.14105090455E+02 -0.10367804525E+02 -0.35418077230E+01  0.17860272944E+02  0.51100000000E-03 0. -1.
        -11    1    3    3    0    0 -0.15736035194E+02  0.43321704757E+01 -0.14683612802E+02  0.21954475394E+02  0.51100000000E-03 0.  1.
         12    1    3    3    0    0 -0.31238995509E+00  0.57296734031E+01 -0.90479579553E+01  0.10714116294E+02  0.00000000000E+00 0. -1.
</event>
<event>
 7    1  0.3004200E-011  0.5052883E+02  0.7816164E-02  0.1300439E+00
        -11   -1    0    0    0    0  0.00000000000E+00  0.00000000000E+00  0.45593999997E+02  0.45594000000E+02  0.51100000000E-03 0. -1.
         11   -1    0    0    0    0 -0.00000000000E+00 -0.00000000000E+00 -0.45593999997E+02  0.45594000000E+02  0.51100000000E-03 0.  1.
    9900012    2    1    2    0    0  0.36698002024E+02  0.35032640542E+01  0.17150846167E+02  0.50528834541E+02  0.29999923070E+02 0.  0.
         12    1    1    2    0    0 -0.36698002024E+02 -0.35032640542E+01 -0.17150846167E+02  0.40659165459E+02  0.00000000000E+00 0. -1.
         11    1    3    3    0    0  0.28984573061E+02 -0.26805998499E+01 -0.20538479667E+00  0.29108989578E+02  0.51100000000E-03 0. -1.
        -11    1    3    3    0    0  0.79717699015E+01  0.18650424383E+01  0.12142967268E+02  0.14645106794E+02  0.51100000000E-03 0.  1.
         12    1    3    3    0    0 -0.25834093837E+00  0.43188214659E+01  0.52132636960E+01  0.67747381690E+01  0.00000000000E+00 0. -1.
</event>
<event>
 7    1  0.3004200E-011  0.5052889E+02  0.7816164E-02  0.1300439E+00
        -11   -1    0    0    0    0  0.00000000000E+00  0.00000000000E+00  0.45593999997E+02  0.45594000000E+02  0.51100000000E-03 0. -1.
         11   -1    0    0    0    0 -0.00000000000E+00 -0.00000000000E+00 -0.45593999997E+02  0.45594000000E+02  0.51100000000E-03 0.  1.
    9900012    2    1    2    0    0  0.78537897166E+01 -0.39665969189E+02  0.42534652562E+01  0.50528891656E+02  0.30000096678E+02 0.  0.
         12    1    1    2    0    0 -0.78537897166E+01  0.39665969189E+02 -0.42534652562E+01  0.40659108344E+02  0.00000000000E+00 0. -1.
         11    1    3    3    0    0  0.12134634995E+02 -0.32247443645E+02  0.10288851953E+02  0.35958412964E+02  0.51100000000E-03 0. -1.
        -11    1    3    3    0    0 -0.23913112671E+01 -0.88352031846E+00 -0.72276770618E+01  0.76640911855E+01  0.51100000000E-03 0.  1.
        -12    1    3    3    0    0 -0.18895340118E+01 -0.65350052256E+01  0.11922903650E+01  0.69063875069E+01  0.00000000000E+00 0.  1.
</event>
<event>
 7    1  0.3004200E-011  0.5052886E+02  0.7816164E-02  0.1300439E+00
        -11   -1    0    0    0    0  0.00000000000E+00  0.00000000000E+00  0.45593999997E+02  0.45594000000E+02  0.51100000000E-03 0.  1.
         11   -1    0    0    0    0 -0.00000000000E+00 -0.00000000000E+00 -0.45593999997E+02  0.45594000000E+02  0.51100000000E-03 0. -1.
    9900012    2    1    2    0    0 -0.67089131105E+01  0.15951047747E+02  0.36792941736E+02  0.50528855876E+02  0.29999987920E+02 0.  0.
         12    1    1    2    0    0  0.67089131105E+01 -0.15951047747E+02 -0.36792941736E+02  0.40659144124E+02  0.00000000000E+00 0. -1.
         11    1    3    3    0    0  0.10372761404E+02  0.52393977352E+01  0.12143838282E+02  0.16808279991E+02  0.51100000000E-03 0. -1.
        -11    1    3    3    0    0 -0.16450123036E+02  0.11255961382E+02  0.17504671403E+02  0.26527659823E+02  0.51100000000E-03 0.  1.
        -12    1    3    3    0    0 -0.63155147887E+00 -0.54431137025E+00  0.71444320514E+01  0.71929160621E+01  0.00000000000E+00 0.  1.
</event>
<event>
 7    1  0.3004200E-011  0.5052886E+02  0.7816164E-02  0.1300439E+00
        -11   -1    0    0    0    0  0.00000000000E+00  0.00000000000E+00  0.45593999997E+02  0.45594000000E+02  0.51100000000E-03 0. -1.
         11   -1    0    0    0    0 -0.00000000000E+00 -0.00000000000E+00 -0.45593999997E+02  0.45594000000E+02  0.51100000000E-03 0.  1.
    9900012    2    1    2    0    0  0.17350433259E+02 -0.30711751422E+02 -0.20221690981E+02  0.50528855938E+02  0.29999988110E+02 0.  0.
         12    1    1    2    0    0 -0.17350433259E+02  0.30711751422E+02  0.20221690981E+02  0.40659144062E+02  0.00000000000E+00 0. -1.
         11    1    3    3    0    0  0.10026891759E+02 -0.25565257070E+02 -0.19664413242E+01  0.27531578581E+02  0.51100000000E-03 0. -1.
        -11    1    3    3    0    0  0.78368835908E+01 -0.78851553467E+01 -0.13528184228E+02  0.17510116733E+02  0.51100000000E-03 0.  1.
         12    1    3    3    0    0 -0.51334209074E+00  0.27386609944E+01 -0.47270654291E+01  0.54871606242E+01  0.00000000000E+00 0. -1.
</event>
<event>
 7    1  0.3004200E-011  0.5052888E+02  0.7816164E-02  0.1300439E+00
        -11   -1    0    0    0    0  0.00000000000E+00  0.00000000000E+00  0.45593999997E+02  0.45594000000E+02  0.51100000000E-03 0.  1.
         11   -1    0    0    0    0 -0.00000000000E+00 -0.00000000000E+00 -0.45593999997E+02  0.45594000000E+02  0.51100000000E-03 0. -1.
    9900012    2    1    2    0    0  0.11967240323E+02 -0.21442536343E+02  0.32406276183E+02  0.50528881197E+02  0.30000064887E+02 0.  0.
         12    1    1    2    0    0 -0.11967240323E+02  0.21442536343E+02 -0.32406276183E+02  0.40659118803E+02  0.00000000000E+00 0. -1.
         11    1    3    3    0    0  0.76244261736E+01  0.10293479067E+01  0.26623368070E+00  0.76982018825E+01  0.51100000000E-03 0. -1.
        -11    1    3    3    0    0 -0.68721741269E+00 -0.10160865117E+02  0.26491981736E+02  0.28382046160E+02  0.51100000000E-03 0.  1.
        -12    1    3    3    0    0  0.50300315624E+01 -0.12311019133E+02  0.56480607659E+01  0.14448633154E+02  0.00000000000E+00 0.  1.
</event>
<event>
 7    1  0.3004200E-011  0.5052887E+02  0.7816164E-02  0.1300439E+00
        -11   -1    0    0    0    0  0.00000000000E+00  0.00000000000E+00  0.45593999997E+02  0.45594000000E+02  0.51100000000E-03 0.  1.
         11   -1    0    0    0    0 -0.00000000000E+00 -0.00000000000E+00 -0.45593999997E+02  0.45594000000E+02  0.51100000000E-03 0. -1.
    9900012    2    1    2    0    0  0.14879135746E+02 -0.12984113630E+02  0.35541366077E+02  0.50528873228E+02  0.30000040662E+02 0.  0.
         12    1    1    2    0    0 -0.14879135746E+02  0.12984113630E+02 -0.35541366077E+02  0.40659126772E+02  0.00000000000E+00 0. -1.
         11    1    3    3    0    0 -0.74213081730E+00  0.15132338530E+01  0.17062913867E+02  0.17145951847E+02  0.51100000000E-03 0. -1.
        -11    1    3    3    0    0  0.97830929145E+01 -0.17631045248E+01 -0.31154227536E+00  0.99455770768E+01  0.51100000000E-03 0.  1.
        -12    1    3    3    0    0  0.58381736488E+01 -0.12734242958E+02  0.18789994485E+02  0.23437344304E+02  0.00000000000E+00 0.  1.
</event>
<event>
 7    1  0.3004200E-011  0.5052888E+02  0.7816164E-02  0.1300439E+00
        -11   -1    0    0    0    0  0.00000000000E+00  0.00000000000E+00  0.45593999997E+02  0.45594000000E+02  0.51100000000E-03 0. -1.
         11   -1    0    0    0    0 -0.00000000000E+00 -0.00000000000E+00 -0.45593999997E+02  0.45594000000E+02  0.51100000000E-03 0.  1.
    9900012    2    1    2    0    0  0.80520924704E+01 -0.18470495891E+02 -0.35315276671E+02  0.50528878293E+02  0.30000056060E+02 0.  0.
         12    1    1    2    0    0 -0.80520924704E+01  0.18470495891E+02  0.35315276671E+02  0.40659121707E+02  0.00000000000E+00 0. -1.
         11    1    3    3    0    0  0.85982182977E+01  0.30000691616E+00 -0.82688335787E+01  0.11932852595E+02  0.51100000000E-03 0. -1.
        -11    1    3    3    0    0 -0.43812329535E+01 -0.22050748696E+02 -0.21772053377E+02  0.31296214288E+02  0.51100000000E-03 0.  1.
        -12    1    3    3    0    0  0.38351071262E+01  0.32802458885E+01 -0.52743897150E+01  0.72998114101E+01  0.00000000000E+00 0.  1.
</event>
<event>
 7    1  0.3004200E-011  0.5052885E+02  0.7816164E-02  0.1300439E+00
        -11   -1    0    0    0    0  0.00000000000E+00  0.00000000000E+00  0.45593999997E+02  0.45594000000E+02  0.51100000000E-03 0.  1.
         11   -1    0    0    0    0 -0.00000000000E+00 -0.00000000000E+00 -0.45593999997E+02  0.45594000000E+02  0.51100000000E-03 0. -1.
    9900012    2    1    2    0    0 -0.22422145590E+01  0.12248259593E+01  0.40578799140E+02  0.50528847717E+02  0.29999963120E+02 0.  0.
         12    1    1    2    0    0  0.22422145590E+01 -0.12248259593E+01 -0.40578799140E+02  0.40659152283E+02  0.00000000000E+00 0. -1.
         11    1    3    3    0    0  0.76608615748E+01 -0.64795307397E+01  0.65321561573E+01  0.11972559584E+02  0.51100000000E-03 0. -1.
        -11    1    3    3    0    0 -0.57470737754E+01 -0.49432162923E+00  0.25009004674E+02  0.25665609790E+02  0.51100000000E-03 0.  1.
         12    1    3    3    0    0 -0.41560023584E+01  0.81986783283E+01  0.90376383084E+01  0.12890678342E+02  0.00000000000E+00 0. -1.
</event>
<event>
 7    1  0.3004200E-011  0.5052887E+02  0.7816164E-02  0.1300439E+00
        -11   -1    0    0    0    0  0.00000000000E+00  0.00000000000E+00  0.45593999997E+02  0.45594000000E+02  0.51100000000E-03 0.  1.
         11   -1    0    0    0    0 -0.00000000000E+00 -0.00000000000E+00 -0.45593999997E+02  0.45594000000E+02  0.51100000000E-03 0. -1.
    9900012    2    1    2    0    0  0.31593449078E+02  0.15565772170E+02  0.20315655782E+02  0.50528866245E+02  0.30000019437E+02 0.  0.
         12    1    1    2    0    0 -0.31593449078E+02 -0.15565772170E+02 -0.20315655782E+02  0.40659133755E+02  0.00000000000E+00 0. -1.
         11    1    3    3    0    0 -0.33971193346E+01  0.98475432708E+00  0.38204092489E+01  0.52063123176E+01  0.51100000000E-03 0. -1.
        -11    1    3    3    0    0  0.21749062675E+02  0.51730366754E+01  0.18418246190E+02  0.28965735424E+02  0.51100000000E-03 0.  1.
         12    1    3    3    0    0  0.13241505738E+02  0.94079811674E+01 -0.19229996576E+01  0.16356818503E+02  0.00000000000E+00 0. -1.
</event>
<event>
 7    1  0.3004200E-011  0.5052883E+02  0.7816164E-02  0.1300439E+00
        -11   -1    0    0    0    0  0.00000000000E+00  0.00000000000E+00  0.45593999997E+02  0.45594000000E+02  0.51100000000E-03 0.  1.
         11   -1    0    0    0    0 -0.00000000000E+00 -0.00000000000E+00 -0.45593999997E+02  0.45594000000E+02  0.51100000000E-03 0. -1.
    9900012    2    1    2    0    0  0.23392920254E+02 -0.32187757046E+02  0.83598852611E+01  0.50528830023E+02  0.29999909336E+02 0.  0.
         12    1    1    2    0    0 -0.23392920254E+02  0.32187757046E+02 -0.83598852611E+01  0.40659169977E+02  0.00000000000E+00 0. -1.
         11    1    3    3    0    0  0.18630188451E+02 -0.46000883505E+01  0.30898015469E+01  0.19436862103E+02  0.51100000000E-03 0. -1.
        -11    1    3    3    0    0 -0.87222832290E-01 -0.24649738267E+02  0.24859329115E+01  0.24774928196E+02  0.51100000000E-03 0.  1.
        -12    1    3    3    0    0  0.48499546347E+01 -0.29379304294E+01  0.27841508028E+01  0.63170397228E+01  0.00000000000E+00 0.  1.
</event>
<event>
 7    1  0.3004200E-011  0.5052886E+02  0.7816164E-02  0.1300439E+00
        -11   -1    0    0    0    0  0.00000000000E+00  0.00000000000E+00  0.45593999997E+02  0.45594000000E+02  0.51100000000E-03 0.  1.
         11   -1    0    0    0    0 -0.00000000000E+00 -0.00000000000E+00 -0.45593999997E+02  0.45594000000E+02  0.51100000000E-03 0. -1.
    9900012    2    1    2    0    0 -0.57398781631E+01 -0.25814991119E+01  0.40169087134E+02  0.50528857115E+02  0.29999991685E+02 0.  0.
         12    1    1    2    0    0  0.57398781631E+01  0.25814991119E+01 -0.40169087134E+02  0.40659142885E+02  0.00000000000E+00 0. -1.
         11    1    3    3    0    0  0.75989167930E+01  0.12919494131E+01  0.30072637595E+02  0.31044745158E+02  0.51100000000E-03 0. -1.
        -11    1    3    3    0    0 -0.78646158115E+01 -0.49167164976E+01  0.17352025814E+01  0.94359531177E+01  0.51100000000E-03 0.  1.
         12    1    3    3    0    0 -0.54741791447E+01  0.10432679727E+01  0.83612469574E+01  0.10048158839E+02  0.00000000000E+00 0. -1.
</event>
<event>
 7    1  0.3004200E-011  0.5052886E+02  0.7816164E-02  0.1300439E+00
        -11   -1    0    0    0    0  0.00000000000E+00  0.00000000000E+00  0.45593999997E+02  0.45594000000E+02  0.51100000000E-03 0.  1.
         11   -1    0    0    0    0 -0.00000000000E+00 -0.00000000000E+00 -0.45593999997E+02  0.45594000000E+02  0.51100000000E-03 0. -1.
    9900012    2    1    2    0    0 -0.11870561304E+02 -0.13048920871E+02  0.36633058852E+02  0.50528861268E+02  0.30000004311E+02 0.  0.
         12    1    1    2    0    0  0.11870561304E+02  0.13048920871E+02 -0.36633058852E+02  0.40659138732E+02  0.00000000000E+00 0. -1.
         11    1    3    3    0    0  0.41448370555E+01 -0.34726912868E+01  0.52514343818E+01  0.75376934348E+01  0.51100000000E-03 0. -1.
        -11    1    3    3    0    0 -0.13289965494E+02 -0.10532323160E+02  0.34681891188E+02  0.38605525390E+02  0.51100000000E-03 0.  1.
        -12    1    3    3    0    0 -0.27254328656E+01  0.95609357565E+00 -0.33002667182E+01  0.43856424434E+01  0.00000000000E+00 0.  1.
</event>
<event>
 7    1  0.3004200E-011  0.5052886E+02  0.7816164E-02  0.1300439E+00
        -11   -1    0    0    0    0  0.00000000000E+00  0.00000000000E+00  0.45593999997E+02  0.45594000000E+02  0.51100000000E-03 0. -1.
         11   -1    0    0    0    0 -0.00000000000E+00 -0.00000000000E+00 -0.45593999997E+02  0.45594000000E+02  0.51100000000E-03 0.  1.
    9900012    2    1    2    0    0 -0.14055322475E+02  0.38148965615E+02  0.51928398349E+00  0.50528864210E+02  0.30000013252E+02 0.  0.
         12    1    1    2    0    0  0.14055322475E+02 -0.38148965615E+02 -0.51928398349E+00  0.40659135790E+02  0.00000000000E+00 0. -1.
         11    1    3    3    0    0  0.34737704133E+01  0.35599173523E+01  0.55420773045E+00  0.50047216615E+01  0.51100000000E-03 0. -1.
        -11    1    3    3    0    0 -0.14838694700E+02  0.18386524519E+02 -0.10703795954E+02  0.25938820181E+02  0.51100000000E-03 0.  1.
        -12    1    3    3    0    0 -0.26903981886E+01  0.16202523743E+02  0.10668872207E+02  0.19585322367E+02  0.00000000000E+00 0.  1.
</event>
<event>
 7    1  0.3004200E-011  0.5052886E+02  0.7816164E-02  0.1300439E+00
        -11   -1    0    0    0    0  0.00000000000E+00  0.00000000000E+00  0.45593999997E+02  0.45594000000E+02  0.51100000000E-03 0.  1.
         11   -1    0    0    0    0 -0.00000000000E+00 -0.00000000000E+00 -0.45593999997E+02  0.45594000000E+02  0.51100000000E-03 0. -1.
    9900012    2    1    2    0    0 -0.21616534246E+02 -0.70670355892E+00  0.34429515392E+02  0.50528861878E+02  0.30000006165E+02 0.  0.
         12    1    1    2    0    0  0.21616534246E+02  0.70670355892E+00 -0.34429515392E+02  0.40659138122E+02  0.00000000000E+00 0. -1.
         11    1    3    3    0    0 -0.10711308092E+02  0.10072190923E+02  0.85461084210E+01  0.17006384696E+02  0.51100000000E-03 0. -1.
        -11    1    3    3    0    0 -0.13147740654E+02 -0.63933437924E+01  0.12409218762E+02  0.19176199825E+02  0.51100000000E-03 0.  1.
         12    1    3    3    0    0  0.22425145008E+01 -0.43855506897E+01  0.13474188208E+02  0.14346277357E+02  0.00000000000E+00 0. -1.
</event>
<event>
 7    1  0.3004200E-011  0.5052885E+02  0.7816164E-02  0.1300439E+00
        -11   -1    0    0    0    0  0.00000000000E+00  0.00000000000E+00  0.45593999997E+02  0.45594000000E+02  0.51100000000E-03 0. -1.
         11   -1    0    0    0    0 -0.00000000000E+00 -0.00000000000E+00 -0.45593999997E+02  0.45594000000E+02  0.51100000000E-03 0.  1.
    9900012    2    1    2    0    0  0.12589759780E+02 -0.15075313274E+02 -0.35600549095E+02  0.50528853212E+02  0.29999979825E+02 0.  0.
         12    1    1    2    0    0 -0.12589759780E+02  0.15075313274E+02  0.35600549095E+02  0.40659146788E+02  0.00000000000E+00 0. -1.
         11    1    3    3    0    0 -0.26687674448E+00 -0.12088831899E+02 -0.22988508882E+01  0.12308362829E+02  0.51100000000E-03 0. -1.
        -11    1    3    3    0    0  0.12730544898E+02  0.19046472194E+01 -0.28908488954E+02  0.31644828777E+02  0.51100000000E-03 0.  1.
        -12    1    3    3    0    0  0.12609162637E+00 -0.48911285944E+01 -0.43932092529E+01  0.65756616066E+01  0.00000000000E+00 0.  1.
</event>
<event>
 7    1  0.3004200E-011  0.5052885E+02  0.7816164E-02  0.1300439E+00
        -11   -1    0    0    0    0  0.00000000000E+00  0.00000000000E+00  0.45593999997E+02  0.45594000000E+02  0.51100000000E-03 0. -1.
         11   -1    0    0    0    0 -0.00000000000E+00 -0.00000000000E+00 -0.45593999997E+02  0.45594000000E+02  0.51100000000E-03 0.  1.
    9900012    2    1    2    0    0  0.11713270231E+02  0.23631654001E+02 -0.30943673542E+02  0.50528847247E+02  0.29999961693E+02 0.  0.
         12    1    1    2    0    0 -0.11713270231E+02 -0.23631654001E+02  0.30943673542E+02  0.40659152753E+02  0.00000000000E+00 0. -1.
         11    1    3    3    0    0  0.10257618327E+01  0.57955088122E+01  0.48501984209E+01  0.76265676889E+01  0.51100000000E-03 0. -1.
        -11    1    3    3    0    0  0.66041384788E+01  0.89104128950E+01 -0.28766565629E+02  0.30830591972E+02  0.51100000000E-03 0.  1.
         12    1    3    3    0    0  0.40833699196E+01  0.89257322935E+01 -0.70273063336E+01  0.12071687586E+02  0.00000000000E+00 0. -1.
</event>
<event>
 7    1  0.3004200E-011  0.5052885E+02  0.7816164E-02  0.1300439E+00
        -11   -1    0    0    0    0  0.00000000000E+00  0.00000000000E+00  0.45593999997E+02  0.45594000000E+02  0.51100000000E-03 0.  1.
         11   -1    0    0    0    0 -0.00000000000E+00 -0.00000000000E+00 -0.45593999997E+02  0.45594000000E+02  0.51100000000E-03 0. -1.
    9900012    2    1    2    0    0 -0.40033118162E+02 -0.63282553919E+01  0.32355439044E+01  0.50528854529E+02  0.29999983827E+02 0.  0.
         12    1    1    2    0    0  0.40033118162E+02  0.63282553919E+01 -0.32355439044E+01  0.40659145471E+02  0.00000000000E+00 0. -1.
         11    1    3    3    0    0 -0.18302930415E+02 -0.14826239530E+02  0.26174942713E+01  0.23699491912E+02  0.51100000000E-03 0. -1.
        -11    1    3    3    0    0 -0.42971621454E+01  0.36235896902E+01  0.57228666364E+01  0.80216711193E+01  0.51100000000E-03 0.  1.
         12    1    3    3    0    0 -0.17433025602E+02  0.48743944474E+01 -0.51048170033E+01  0.18807691498E+02  0.00000000000E+00 0. -1.
</event>
<event>
 7    1  0.3004200E-011  0.5052886E+02  0.7816164E-02  0.1300439E+00
        -11   -1    0    0    0    0  0.00000000000E+00  0.00000000000E+00  0.45593999997E+02  0.45594000000E+02  0.51100000000E-03 0.  1.
         11   -1    0    0    0    0 -0.00000000000E+00 -0.00000000000E+00 -0.45593999997E+02  0.45594000000E+02  0.51100000000E-03 0. -1.
    9900012    2    1    2    0    0  0.17355869752E+02  0.10316904631E+02  0.35291657067E+02  0.50528858414E+02  0.29999995634E+02 0.  0.
         12    1    1    2    0    0 -0.17355869752E+02 -0.10316904631E+02 -0.35291657067E+02  0.40659141586E+02  0.00000000000E+00 0. -1.
         11    1    3    3    0    0  0.10048674351E+02 -0.10843778539E+00 -0.14726003099E+00  0.10050338340E+02  0.51100000000E-03 0. -1.
        -11    1    3    3    0    0  0.80220402480E+01  0.58565927825E+01  0.34309492701E+02  0.35718260014E+02  0.51100000000E-03 0.  1.
         12    1    3    3    0    0 -0.71484484657E+00  0.45687496339E+01  0.11294243972E+01  0.47602600603E+01  0.00000000000E+00 0. -1.
</event>
<event>
 7    1  0.3004200E-011  0.5052886E+02  0.7816164E-02  0.1300439E+00
        -11   -1    0    0    0    0  0.00000000000E+00  0.00000000000E+00  0.45593999997E+02  0.45594000000E+02  0.51100000000E-03 0.  1.
         11   -1    0    0    0    0 -0.00000000000E+00 -0.00000000000E+00 -0.45593999997E+02  0.45594000000E+02  0.51100000000E-03 0. -1.
    9900012    2    1    2    0    0 -0.21644424117E+02 -0.32585582657E+02  0.11084421783E+02  0.50528859592E+02  0.29999999215E+02 0.  0.
         12    1    1    2    0    0  0.21644424117E+02  0.32585582657E+02 -0.11084421783E+02  0.40659140408E+02  0.00000000000E+00 0. -1.
         11    1    3    3    0    0  0.24818289250E+00 -0.14868420321E+01 -0.48815192054E+01  0.51089650606E+01  0.51100000000E-03 0. -1.
        -11    1    3    3    0    0 -0.72250998917E+01 -0.10788051047E+02  0.15689435425E+02  0.20365227670E+02  0.51100000000E-03 0.  1.
        -12    1    3    3    0    0 -0.14667507118E+02 -0.20310689578E+02  0.27650556349E+00  0.25054666861E+02  0.00000000000E+00 0.  1.
</event>
<event>
 7    1  0.3004200E-011  0.5052885E+02  0.7816164E-02  0.1300439E+00
        -11   -1    0    0    0    0  0.00000000000E+00  0.00000000000E+00  0.45593999997E+02  0.45594000000E+02  0.51100000000E-03 0.  1.
         11   -1    0    0    0    0 -0.00000000000E+00 -0.00000000000E+00 -0.45593999997E+02  0.45594000000E+02  0.51100000000E-03 0. -1.
    9900012    2    1    2    0    0 -0.44094271659E+01  0.57007805856E+01  0.40015305117E+02  0.50528848621E+02  0.29999965869E+02 0.  0.
         12    1    1    2    0    0  0.44094271659E+01 -0.57007805856E+01 -0.40015305117E+02  0.40659151379E+02  0.00000000000E+00 0. -1.
         11    1    3    3    0    0 -0.32770912717E+01 -0.27387348771E+00  0.37718648147E+01  0.50041281290E+01  0.51100000000E-03 0. -1.
        -11    1    3    3    0    0  0.15223149199E+01 -0.68465471098E+00  0.38086183344E+02  0.38122743301E+02  0.51100000000E-03 0.  1.
        -12    1    3    3    0    0 -0.26546508141E+01  0.66593087843E+01 -0.18427430414E+01  0.74019771917E+01  0.00000000000E+00 0.  1.
</event>
<event>
 7    1  0.3004200E-011  0.5052888E+02  0.7816164E-02  0.1300439E+00
        -11   -1    0    0    0    0  0.00000000000E+00  0.00000000000E+00  0.45593999997E+02  0.45594000000E+02  0.51100000000E-03 0.  1.
         11   -1    0    0    0    0 -0.00000000000E+00 -0.00000000000E+00 -0.45593999997E+02  0.45594000000E+02  0.51100000000E-03 0. -1.
    9900012    2    1    2    0    0 -0.33578507609E+02 -0.16483457052E+02  0.15935609023E+02  0.50528878458E+02  0.30000056562E+02 0.  0.
         12    1    1    2    0    0  0.33578507609E+02  0.16483457052E+02 -0.15935609023E+02  0.40659121542E+02  0.00000000000E+00 0. -1.
         11    1    3    3    0    0 -0.16303059675E+00 -0.49002773231E+01  0.46999588448E+01  0.67918267220E+01  0.51100000000E-03 0. -1.
        -11    1    3    3    0    0 -0.22260499935E+02 -0.61720302532E+01  0.18297291178E+02  0.29468876455E+02  0.51100000000E-03 0.  1.
        -12    1    3    3    0    0 -0.11154977077E+02 -0.54111494754E+01 -0.70616410005E+01  0.14268175281E+02  0.00000000000E+00 0.  1.
</event>
<event>
 7    1  0.3004200E-011  0.5052886E+02  0.7816164E-02  0.1300439E+00
        -11   -1    0    0    0    0  0.00000000000E+00  0.00000000000E+00  0.45593999997E+02  0.45594000000E+02  0.51100000000E-03 0.  1.
         11   -1    0    0    0    0 -0.00000000000E+00 -0.00000000000E+00 -0.45593999997E+02  0.45594000000E+02  0.51100000000E-03 0. -1.
    9900012    2    1    2    0    0 -0.14491677078E+02  0.80624961994E+01  0.37123483725E+02  0.50528860887E+02  0.30000003152E+02 0.  0.
         12    1    1    2    0    0  0.14491677078E+02 -0.80624961994E+01 -0.37123483725E+02  0.40659139113E+02  0.00000000000E+00 0. -1.
         11    1    3    3    0    0  0.26863674571E+01 -0.78902585421E+01  0.50774102884E+01  0.97597564249E+01  0.51100000000E-03 0. -1.
        -11    1    3    3    0    0 -0.99766657106E+01  0.38667399774E+01  0.17650679818E+02  0.20640543478E+02  0.51100000000E-03 0.  1.
         12    1    3    3    0    0 -0.72013788249E+01  0.12086014764E+02  0.14395393619E+02  0.20128560984E+02  0.00000000000E+00 0. -1.
</event>
<event>
 7    1  0.3004200E-011  0.5052887E+02  0.7816164E-02  0.1300439E+00
        -11   -1    0    0    0    0  0.00000000000E+00  0.00000000000E+00  0.45593999997E+02  0.45594000000E+02  0.51100000000E-03 0.  1.
         11   -1    0    0    0    0 -0.00000000000E+00 -0.00000000000E+00 -0.45593999997E+02  0.45594000000E+02  0.51100000000E-03 0. -1.
    9900012    2    1    2    0    0  0.16757048552E+02  0.42515372177E+01  0.36800691937E+02  0.50528866070E+02  0.30000018906E+02 0.  0.
         12    1    1    2    0    0 -0.16757048552E+02 -0.42515372177E+01 -0.36800691937E+02  0.40659133930E+02  0.00000000000E+00 0. -1.
         11    1    3    3    0    0  0.81070482717E+00  0.12210479442E+01  0.70855291412E+00  0.16279581973E+01  0.51100000000E-03 0. -1.
        -11    1    3    3    0    0 -0.76534198282E+01 -0.30074913925E+01  0.59717216461E+01  0.10162740734E+02  0.51100000000E-03 0.  1.
        -12    1    3    3    0    0  0.23599763553E+02  0.60379806659E+01  0.30120417377E+02  0.38738167139E+02  0.00000000000E+00 0.  1.
</event>
<event>
 7    1  0.3004200E-011  0.5052886E+02  0.7816164E-02  0.1300439E+00
        -11   -1    0    0    0    0  0.00000000000E+00  0.00000000000E+00  0.45593999997E+02  0.45594000000E+02  0.51100000000E-03 0.  1.
         11   -1    0    0    0    0 -0.00000000000E+00 -0.00000000000E+00 -0.45593999997E+02  0.45594000000E+02  0.51100000000E-03 0. -1.
    9900012    2    1    2    0    0  0.54888582298E+01 -0.26048626697E+02  0.30732833926E+02  0.50528860823E+02  0.30000002958E+02 0.  0.
         12    1    1    2    0    0 -0.54888582298E+01  0.26048626697E+02 -0.30732833926E+02  0.40659139177E+02  0.00000000000E+00 0. -1.
         11    1    3    3    0    0  0.73149875372E+01 -0.16558997534E+01  0.76782889800E+01  0.10733460234E+02  0.51100000000E-03 0. -1.
        -11    1    3    3    0    0 -0.87487949037E+00 -0.27556956653E+02  0.15687726360E+02  0.31721538940E+02  0.51100000000E-03 0.  1.
        -12    1    3    3    0    0 -0.95124981706E+00  0.31642297089E+01  0.73668185856E+01  0.80738616497E+01  0.00000000000E+00 0.  1.
</event>
<event>
 7    1  0.3004200E-011  0.5052886E+02  0.7816164E-02  0.1300439E+00
        -11   -1    0    0    0    0  0.00000000000E+00  0.00000000000E+00  0.45593999997E+02  0.45594000000E+02  0.51100000000E-03 0.  1.
         11   -1    0    0    0    0 -0.00000000000E+00 -0.00000000000E+00 -0.45593999997E+02  0.45594000000E+02  0.51100000000E-03 0. -1.
    9900012    2    1    2    0    0  0.31348912699E+02 -0.16301372366E+02  0.20116579895E+02  0.50528857669E+02  0.29999993370E+02 0.  0.
         12    1    1    2    0    0 -0.31348912699E+02  0.16301372366E+02 -0.20116579895E+02  0.40659142331E+02  0.00000000000E+00 0. -1.
         11    1    3    3    0    0  0.19730020490E+02  0.27750213549E+01  0.10577223129E+02  0.22557750363E+02  0.51100000000E-03 0. -1.
        -11    1    3    3    0    0 -0.25906756027E+01 -0.73380255856E+01  0.38485653400E+01  0.86815709990E+01  0.51100000000E-03 0.  1.
         12    1    3    3    0    0  0.14209567812E+02 -0.11738368135E+02  0.56907914253E+01  0.19289536307E+02  0.00000000000E+00 0. -1.
</event>
<event>
 7    1  0.3004200E-011  0.5052882E+02  0.7816164E-02  0.1300439E+00
        -11   -1    0    0    0    0  0.00000000000E+00  0.00000000000E+00  0.45593999997E+02  0.45594000000E+02  0.51100000000E-03 0.  1.
         11   -1    0    0    0    0 -0.00000000000E+00 -0.00000000000E+00 -0.45593999997E+02  0.45594000000E+02  0.51100000000E-03 0. -1.
    9900012    2    1    2    0    0 -0.11926812212E+02 -0.61122622578E+01  0.38386981137E+02  0.50528819976E+02  0.29999878799E+02 0.  0.
         12    1    1    2    0    0  0.11926812212E+02  0.61122622578E+01 -0.38386981137E+02  0.40659180024E+02  0.00000000000E+00 0. -1.
         11    1    3    3    0    0 -0.99177297299E+01  0.27534908388E+01  0.43856863898E+01  0.11188267076E+02  0.51100000000E-03 0. -1.
        -11    1    3    3    0    0 -0.62848541166E+01 -0.12081159649E+02  0.18716309884E+02  0.23146361824E+02  0.51100000000E-03 0.  1.
         12    1    3    3    0    0  0.42757716348E+01  0.32154065521E+01  0.15284984863E+02  0.16194191076E+02  0.00000000000E+00 0. -1.
</event>
<event>
 7    1  0.3004200E-011  0.5052886E+02  0.7816164E-02  0.1300439E+00
        -11   -1    0    0    0    0  0.00000000000E+00  0.00000000000E+00  0.45593999997E+02  0.45594000000E+02  0.51100000000E-03 0. -1.
         11   -1    0    0    0    0 -0.00000000000E+00 -0.00000000000E+00 -0.45593999997E+02  0.45594000000E+02  0.51100000000E-03 0.  1.
    9900012    2    1    2    0    0  0.37390130483E+02 -0.38429328296E+01 -0.15504052003E+02  0.50528860575E+02  0.30000002203E+02 0.  0.
         12    1    1    2    0    0 -0.37390130483E+02  0.38429328296E+01  0.15504052003E+02  0.40659139425E+02  0.00000000000E+00 0. -1.
         11    1    3    3    0    0  0.12363338558E+02 -0.41048091660E+00 -0.15557287377E+01  0.12467595079E+02  0.51100000000E-03 0. -1.
        -11    1    3    3    0    0  0.21468331908E+02  0.81736030228E+01 -0.67266705079E+01  0.23936272844E+02  0.51100000000E-03 0.  1.
        -12    1    3    3    0    0  0.35584600174E+01 -0.11606054936E+02 -0.72216527572E+01  0.14124992652E+02  0.00000000000E+00 0.  1.
</event>
<event>
 7    1  0.3004200E-011  0.5052887E+02  0.7816164E-02  0.1300439E+00
        -11   -1    0    0    0    0  0.00000000000E+00  0.00000000000E+00  0.45593999997E+02  0.45594000000E+02  0.51100000000E-03 0.  1.
         11   -1    0    0    0    0 -0.00000000000E+00 -0.00000000000E+00 -0.45593999997E+02  0.45594000000E+02  0.51100000000E-03 0. -1.
    9900012    2    1    2    0    0  0.43029467963E+01 -0.35915931895E+02 -0.18565964882E+02  0.50528873509E+02  0.30000041517E+02 0.  0.
         12    1    1    2    0    0 -0.43029467963E+01  0.35915931895E+02  0.18565964882E+02  0.40659126491E+02  0.00000000000E+00 0. -1.
         11    1    3    3    0    0  0.91560069780E+01 -0.63489099956E+01 -0.63427413716E+01  0.12820744529E+02  0.51100000000E-03 0. -1.
        -11    1    3    3    0    0 -0.31409744552E+01 -0.27678122124E+02 -0.28578665144E+01  0.28001992181E+02  0.51100000000E-03 0.  1.
        -12    1    3    3    0    0 -0.17120857264E+01 -0.18888997758E+01 -0.93653569958E+01  0.97061367988E+01  0.00000000000E+00 0.  1.
</event>
<event>
 7    1  0.3004200E-011  0.5052884E+02  0.7816164E-02  0.1300439E+00
        -11   -1    0    0    0    0  0.00000000000E+00  0.00000000000E+00  0.45593999997E+02  0.45594000000E+02  0.51100000000E-03 0.  1.
         11   -1    0    0    0    0 -0.00000000000E+00 -0.00000000000E+00 -0.45593999997E+02  0.45594000000E+02  0.51100000000E-03 0. -1.
    9900012    2    1    2    0    0 -0.20716321874E+02  0.19852426986E+02  0.28807674710E+02  0.50528843941E+02  0.29999951643E+02 0.  0.
         12    1    1    2    0    0  0.20716321874E+02 -0.19852426986E+02 -0.28807674710E+02  0.40659156059E+02  0.00000000000E+00 0. -1.
         11    1    3    3    0    0 -0.11068165821E+02  0.41605691167E+01  0.26023800576E+02  0.28584135927E+02  0.51100000000E-03 0. -1.
        -11    1    3    3    0    0 -0.65528905163E+01  0.77730430618E+01 -0.41425605018E+01  0.10978223004E+02  0.51100000000E-03 0.  1.
         12    1    3    3    0    0 -0.30952655366E+01  0.79188148073E+01  0.69264346361E+01  0.10966485009E+02  0.00000000000E+00 0. -1.
</event>
<event>
 7    1  0.3004200E-011  0.5052886E+02  0.7816164E-02  0.1300439E+00
        -11   -1    0    0    0    0  0.00000000000E+00  0.00000000000E+00  0.45593999997E+02  0.45594000000E+02  0.51100000000E-03 0.  1.
         11   -1    0    0    0    0 -0.00000000000E+00 -0.00000000000E+00 -0.45593999997E+02  0.45594000000E+02  0.51100000000E-03 0. -1.
    9900012    2    1    2    0    0  0.16237120715E+02  0.98367902739E+01  0.35954962148E+02  0.50528857915E+02  0.29999994119E+02 0.  0.
         12    1    1    2    0    0 -0.16237120715E+02 -0.98367902739E+01 -0.35954962148E+02  0.40659142085E+02  0.00000000000E+00 0. -1.
         11    1    3    3    0    0  0.14577860103E+02  0.50164146244E+01  0.28769712696E+01  0.15682964797E+02  0.51100000000E-03 0. -1.
        -11    1    3    3    0    0  0.24499727504E+01  0.59491491124E+01  0.32818863871E+02  0.33443572890E+02  0.51100000000E-03 0.  1.
        -12    1    3    3    0    0 -0.79071213849E+00 -0.11287734629E+01  0.25912700788E+00  0.14023202283E+01  0.00000000000E+00 0.  1.
</event>
<event>
 7    1  0.3004200E-011  0.5052886E+02  0.7816164E-02  0.1300439E+00
        -11   -1    0    0    0    0  0.00000000000E+00  0.00000000000E+00  0.45593999997E+02  0.45594000000E+02  0.51100000000E-03 0. -1.
         11   -1    0    0    0    0 -0.00000000000E+00 -0.00000000000E+00 -0.45593999997E+02  0.45594000000E+02  0.51100000000E-03 0.  1.
    9900012    2    1    2    0    0 -0.27867426254E+02  0.26505754728E+02 -0.13191566955E+02  0.50528856890E+02  0.29999991001E+02 0.  0.
         12    1    1    2    0    0  0.27867426254E+02 -0.26505754728E+02  0.13191566955E+02  0.40659143110E+02  0.00000000000E+00 0. -1.
         11    1    3    3    0    0  0.28265500377E+01 -0.60422121031E+00 -0.63138537832E+01  0.69440059219E+01  0.51100000000E-03 0. -1.
        -11    1    3    3    0    0 -0.30700371906E+02  0.28356253978E+02 -0.66531875819E+01  0.42318493358E+02  0.51100000000E-03 0.  1.
        -12    1    3    3    0    0  0.63956137877E-02 -0.12462780394E+01 -0.22452558981E+00  0.12663576098E+01  0.00000000000E+00 0.  1.
</event>
<event>
 7    1  0.3004200E-011  0.5052886E+02  0.7816164E-02  0.1300439E+00
        -11   -1    0    0    0    0  0.00000000000E+00  0.00000000000E+00  0.45593999997E+02  0.45594000000E+02  0.51100000000E-03 0.  1.
         11   -1    0    0    0    0 -0.00000000000E+00 -0.00000000000E+00 -0.45593999997E+02  0.45594000000E+02  0.51100000000E-03 0. -1.
    9900012    2    1    2    0    0  0.21260130563E+02 -0.22635697236E+02  0.26244950052E+02  0.50528863953E+02  0.30000012471E+02 0.  0.
         12    1    1    2    0    0 -0.21260130563E+02  0.22635697236E+02 -0.26244950052E+02  0.40659136047E+02  0.00000000000E+00 0. -1.
         11    1    3    3    0    0  0.14268568938E+01 -0.17826186255E+01 -0.27623254493E+01  0.35838654981E+01  0.51100000000E-03 0. -1.
        -11    1    3    3    0    0  0.17045039963E+02 -0.10820346288E+02  0.30343736318E+02  0.36446613219E+02  0.51100000000E-03 0.  1.
        -12    1    3    3    0    0  0.27882337061E+01 -0.10032732322E+02 -0.13364608169E+01  0.10498385236E+02  0.00000000000E+00 0.  1.
</event>
<event>
 7    1  0.3004200E-011  0.5052886E+02  0.7816164E-02  0.1300439E+00
        -11   -1    0    0    0    0  0.00000000000E+00  0.00000000000E+00  0.45593999997E+02  0.45594000000E+02  0.51100000000E-03 0.  1.
         11   -1    0    0    0    0 -0.00000000000E+00 -0.00000000000E+00 -0.45593999997E+02  0.45594000000E+02  0.51100000000E-03 0. -1.
    9900012    2    1    2    0    0 -0.16640623727E+02  0.35296367828E+02 -0.11420231253E+02  0.50528860538E+02  0.30000002092E+02 0.  0.
         12    1    1    2    0    0  0.16640623727E+02 -0.35296367828E+02  0.11420231253E+02  0.40659139462E+02  0.00000000000E+00 0. -1.
         11    1    3    3    0    0 -0.11836046648E+02 -0.93728882224E+00 -0.42637377466E+00  0.11880753572E+02  0.51100000000E-03 0. -1.
        -11    1    3    3    0    0 -0.58618336548E+01  0.22116468379E+02 -0.62627295551E+01  0.23721742118E+02  0.51100000000E-03 0.  1.
         12    1    3    3    0    0  0.10572565756E+01  0.14117188271E+02 -0.47311279235E+01  0.14926364848E+02  0.00000000000E+00 0. -1.
</event>
<event>
 7    1  0.3004200E-011  0.5052888E+02  0.7816164E-02  0.1300439E+00
        -11   -1    0    0    0    0  0.00000000000E+00  0.00000000000E+00  0.45593999997E+02  0.45594000000E+02  0.51100000000E-03 0. -1.
         11   -1    0    0    0    0 -0.00000000000E+00 -0.00000000000E+00 -0.45593999997E+02  0.45594000000E+02  0.51100000000E-03 0.  1.
    9900012    2    1    2    0    0 -0.52699996138E+01  0.55736865739E+00 -0.40312284706E+02  0.50528882278E+02  0.30000068172E+02 0.  0.
         12    1    1    2    0    0  0.52699996138E+01 -0.55736865739E+00  0.40312284706E+02  0.40659117722E+02  0.00000000000E+00 0. -1.
         11    1    3    3    0    0 -0.11246428668E+02 -0.12494489454E+01 -0.48266874875E+01  0.12302040189E+02  0.51100000000E-03 0. -1.
        -11    1    3    3    0    0  0.70432319541E+01  0.33906185273E+01 -0.10109999074E+02  0.12779494978E+02  0.51100000000E-03 0.  1.
         12    1    3    3    0    0 -0.10668028998E+01 -0.15838009244E+01 -0.25375598144E+02  0.25447347110E+02  0.00000000000E+00 0. -1.
</event>
<event>
 7    1  0.3004200E-011  0.5052889E+02  0.7816164E-02  0.1300439E+00
        -11   -1    0    0    0    0  0.00000000000E+00  0.00000000000E+00  0.45593999997E+02  0.45594000000E+02  0.51100000000E-03 0.  1.
         11   -1    0    0    0    0 -0.00000000000E+00 -0.00000000000E+00 -0.45593999997E+02  0.45594000000E+02  0.51100000000E-03 0. -1.
    9900012    2    1    2    0    0  0.12991580918E+02 -0.34916497603E+02  0.16285584970E+02  0.50528889614E+02  0.30000090471E+02 0.  0.
         12    1    1    2    0    0 -0.12991580918E+02  0.34916497603E+02 -0.16285584970E+02  0.40659110386E+02  0.00000000000E+00 0. -1.
         11    1    3    3    0    0  0.16721936658E+02 -0.66513569057E+01  0.74138223413E+01  0.19463516544E+02  0.51100000000E-03 0. -1.
        -11    1    3    3    0    0 -0.63870897818E+01 -0.20725791642E+02  0.75430631352E+01  0.22961950195E+02  0.51100000000E-03 0.  1.
         12    1    3    3    0    0  0.26567340415E+01 -0.75393490554E+01  0.13286994933E+01  0.81034228749E+01  0.00000000000E+00 0. -1.
</event>
<event>
 7    1  0.3004200E-011  0.5052886E+02  0.7816164E-02  0.1300439E+00
        -11   -1    0    0    0    0  0.00000000000E+00  0.00000000000E+00  0.45593999997E+02  0.45594000000E+02  0.51100000000E-03 0.  1.
         11   -1    0    0    0    0 -0.00000000000E+00 -0.00000000000E+00 -0.45593999997E+02  0.45594000000E+02  0.51100000000E-03 0. -1.
    9900012    2    1    2    0    0 -0.11260286598E+02 -0.26994553700E+02  0.28242971646E+02  0.50528862882E+02  0.30000009217E+02 0.  0.
         12    1    1    2    0    0  0.11260286598E+02  0.26994553700E+02 -0.28242971646E+02  0.40659137118E+02  0.00000000000E+00 0. -1.
         11    1    3    3    0    0 -0.93639163466E+01 -0.63110264704E+01  0.12719682209E+01  0.11363533248E+02  0.51100000000E-03 0.  1.
        -11    1    3    3    0    0  0.86447752883E+01 -0.69883821545E+01  0.10456857104E+02  0.15261568913E+02  0.51100000000E-03 0. -1.
        -12    1    3    3    0    0 -0.10541145540E+02 -0.13695145075E+02  0.16514146322E+02  0.23903760722E+02  0.00000000000E+00 0.  1.
</event>
<event>
 7    1  0.3004200E-011  0.5052886E+02  0.7816164E-02  0.1300439E+00
        -11   -1    0    0    0    0  0.00000000000E+00  0.00000000000E+00  0.45593999997E+02  0.45594000000E+02  0.51100000000E-03 0.  1.
         11   -1    0    0    0    0 -0.00000000000E+00 -0.00000000000E+00 -0.45593999997E+02  0.45594000000E+02  0.51100000000E-03 0. -1.
    9900012    2    1    2    0    0  0.74337077448E+01 -0.19908614700E+02  0.34663424326E+02  0.50528856673E+02  0.29999990343E+02 0.  0.
         12    1    1    2    0    0 -0.74337077448E+01  0.19908614700E+02 -0.34663424326E+02  0.40659143327E+02  0.00000000000E+00 0. -1.
         11    1    3    3    0    0 -0.53769936258E+01  0.48530737417E+01  0.27928056323E+01  0.77629986961E+01  0.51100000000E-03 0. -1.
        -11    1    3    3    0    0  0.12215218638E+02 -0.20868944703E+02  0.29594896004E+02  0.38217565192E+02  0.51100000000E-03 0.  1.
         12    1    3    3    0    0  0.59548273211E+00 -0.38927437390E+01  0.22757226891E+01  0.45482927852E+01  0.00000000000E+00 0. -1.
</event>
<event>
 7    1  0.3004200E-011  0.5052888E+02  0.7816164E-02  0.1300439E+00
        -11   -1    0    0    0    0  0.00000000000E+00  0.00000000000E+00  0.45593999997E+02  0.45594000000E+02  0.51100000000E-03 0.  1.
         11   -1    0    0    0    0 -0.00000000000E+00 -0.00000000000E+00 -0.45593999997E+02  0.45594000000E+02  0.51100000000E-03 0. -1.
    9900012    2    1    2    0    0 -0.12697243671E+02 -0.14840269125E+02  0.35661047961E+02  0.50528881389E+02  0.30000065470E+02 0.  0.
         12    1    1    2    0    0  0.12697243671E+02  0.14840269125E+02 -0.35661047961E+02  0.40659118611E+02  0.00000000000E+00 0. -1.
         11    1    3    3    0    0  0.34575050132E+01 -0.48075942408E+01  0.25309437574E+02  0.25992978549E+02  0.51100000000E-03 0. -1.
        -11    1    3    3    0    0 -0.14871056281E+02 -0.53278907936E+01  0.35906233347E+01  0.16199608372E+02  0.51100000000E-03 0.  1.
        -12    1    3    3    0    0 -0.12836924034E+01 -0.47047840902E+01  0.67609870527E+01  0.83362944675E+01  0.00000000000E+00 0.  1.
</event>
<event>
 7    1  0.3004200E-011  0.5052886E+02  0.7816164E-02  0.1300439E+00
        -11   -1    0    0    0    0  0.00000000000E+00  0.00000000000E+00  0.45593999997E+02  0.45594000000E+02  0.51100000000E-03 0.  1.
         11   -1    0    0    0    0 -0.00000000000E+00 -0.00000000000E+00 -0.45593999997E+02  0.45594000000E+02  0.51100000000E-03 0. -1.
    9900012    2    1    2    0    0  0.34563799278E+02  0.74117225005E+01  0.20089193164E+02  0.50528861631E+02  0.30000005414E+02 0.  0.
         12    1    1    2    0    0 -0.34563799278E+02 -0.74117225005E+01 -0.20089193164E+02  0.40659138369E+02  0.00000000000E+00 0. -1.
         11    1    3    3    0    0  0.23482407459E+02 -0.56979358319E+01  0.16841811501E+01  0.24222435864E+02  0.51100000000E-03 0. -1.
        -11    1    3    3    0    0  0.91742314168E+01  0.54101683816E+01  0.12472246121E+02  0.16401017272E+02  0.51100000000E-03 0.  1.
         12    1    3    3    0    0  0.19071604021E+01  0.76994899508E+01  0.59327658928E+01  0.99054084944E+01  0.00000000000E+00 0. -1.
</event>
<event>
 7    1  0.3004200E-011  0.5052886E+02  0.7816164E-02  0.1300439E+00
        -11   -1    0    0    0    0  0.00000000000E+00  0.00000000000E+00  0.45593999997E+02  0.45594000000E+02  0.51100000000E-03 0.  1.
         11   -1    0    0    0    0 -0.00000000000E+00 -0.00000000000E+00 -0.45593999997E+02  0.45594000000E+02  0.51100000000E-03 0. -1.
    9900012    2    1    2    0    0  0.23861533083E+02  0.32254345849E+02  0.65916863539E+01  0.50528856917E+02  0.29999991086E+02 0.  0.
         12    1    1    2    0    0 -0.23861533083E+02 -0.32254345849E+02 -0.65916863539E+01  0.40659143083E+02  0.00000000000E+00 0. -1.
         11    1    3    3    0    0 -0.40307948947E+01  0.54726970801E+00 -0.31809117445E+01  0.51638175223E+01  0.51100000000E-03 0. -1.
        -11    1    3    3    0    0  0.24781913730E+02  0.25100658660E+02  0.12711794141E+02  0.37493679785E+02  0.51100000000E-03 0.  1.
         12    1    3    3    0    0  0.31104142476E+01  0.66064174812E+01 -0.29391960430E+01  0.78713596098E+01  0.00000000000E+00 0. -1.
</event>
<event>
 7    1  0.3004200E-011  0.5052886E+02  0.7816164E-02  0.1300439E+00
        -11   -1    0    0    0    0  0.00000000000E+00  0.00000000000E+00  0.45593999997E+02  0.45594000000E+02  0.51100000000E-03 0.  1.
         11   -1    0    0    0    0 -0.00000000000E+00 -0.00000000000E+00 -0.45593999997E+02  0.45594000000E+02  0.51100000000E-03 0. -1.
    9900012    2    1    2    0    0 -0.32296618157E+02  0.15824624867E+02  0.18965105690E+02  0.50528861662E+02  0.30000005507E+02 0.  0.
         12    1    1    2    0    0  0.32296618157E+02 -0.15824624867E+02 -0.18965105690E+02  0.40659138338E+02  0.00000000000E+00 0. -1.
         11    1    3    3    0    0 -0.85448608518E+01  0.19689603694E+02  0.59553207872E+01  0.22274671413E+02  0.51100000000E-03 0. -1.
        -11    1    3    3    0    0 -0.91421499608E+01 -0.41132419041E+01  0.79386756677E+01  0.12787503137E+02  0.51100000000E-03 0.  1.
         12    1    3    3    0    0 -0.14609607345E+02  0.24826307652E+00  0.50711092354E+01  0.15466687111E+02  0.00000000000E+00 0. -1.
</event>
<event>
 7    1  0.3004200E-011  0.5052887E+02  0.7816164E-02  0.1300439E+00
        -11   -1    0    0    0    0  0.00000000000E+00  0.00000000000E+00  0.45593999997E+02  0.45594000000E+02  0.51100000000E-03 0. -1.
         11   -1    0    0    0    0 -0.00000000000E+00 -0.00000000000E+00 -0.45593999997E+02  0.45594000000E+02  0.51100000000E-03 0.  1.
    9900012    2    1    2    0    0  0.36913689524E+02 -0.74735673048E+01  0.15319612297E+02  0.50528865682E+02  0.30000017728E+02 0.  0.
         12    1    1    2    0    0 -0.36913689524E+02  0.74735673048E+01 -0.15319612297E+02  0.40659134318E+02  0.00000000000E+00 0. -1.
         11    1    3    3    0    0 -0.24043578621E+01 -0.10294384073E+00  0.55646217121E+01  0.60627179732E+01  0.51100000000E-03 0. -1.
        -11    1    3    3    0    0  0.27940726296E+02 -0.28799405394E+01 -0.11032044073E+01  0.28110412727E+02  0.51100000000E-03 0.  1.
         12    1    3    3    0    0  0.11377321090E+02 -0.44906829246E+01  0.10858194992E+02  0.16355734982E+02  0.00000000000E+00 0. -1.
</event>
<event>
 7    1  0.3004200E-011  0.5052886E+02  0.7816164E-02  0.1300439E+00
        -11   -1    0    0    0    0  0.00000000000E+00  0.00000000000E+00  0.45593999997E+02  0.45594000000E+02  0.51100000000E-03 0. -1.
         11   -1    0    0    0    0 -0.00000000000E+00 -0.00000000000E+00 -0.45593999997E+02  0.45594000000E+02  0.51100000000E-03 0.  1.
    9900012    2    1    2    0    0  0.38401637936E+02 -0.35495588762E+01 -0.12879466374E+02  0.50528858120E+02  0.29999994740E+02 0.  0.
         12    1    1    2    0    0 -0.38401637936E+02  0.35495588762E+01  0.12879466374E+02  0.40659141880E+02  0.00000000000E+00 0. -1.
         11    1    3    3    0    0  0.30366683504E+02 -0.12559537374E+02 -0.89484863121E+01  0.34058080592E+02  0.51100000000E-03 0. -1.
        -11    1    3    3    0    0  0.65018419153E+01  0.50884370513E+01 -0.73445840464E+01  0.11050296602E+02  0.51100000000E-03 0.  1.
         12    1    3    3    0    0  0.15331125164E+01  0.39215414463E+01  0.34136039840E+01  0.54204809254E+01  0.00000000000E+00 0. -1.
</event>
<event>
 7    1  0.4722882E-011  0.5052886E+02  0.7816164E-02  0.1300439E+00
        -11   -1    0    0    0    0  0.00000000000E+00  0.00000000000E+00  0.45593999997E+02  0.45594000000E+02  0.51100000000E-03 0.  1.
         11   -1    0    0    0    0 -0.00000000000E+00 -0.00000000000E+00 -0.45593999997E+02  0.45594000000E+02  0.51100000000E-03 0. -1.
    9900012    2    1    2    0    0  0.40591694788E+02  0.22511044641E+01 -0.64241310307E+00  0.50528857711E+02  0.29999993498E+02 0.  0.
         12    1    1    2    0    0 -0.40591694788E+02 -0.22511044641E+01  0.64241310307E+00  0.40659142289E+02  0.00000000000E+00 0. -1.
         11    1    3    3    0    0  0.87719874607E+00 -0.26320133777E+01 -0.41198996753E+01  0.49669453043E+01  0.51100000000E-03 0. -1.
        -11    1    3    3    0    0  0.28461093499E+02  0.13187000718E+02  0.11870694255E+01  0.31390125281E+02  0.51100000000E-03 0.  1.
        -12    1    3    3    0    0  0.11253402543E+02 -0.83038828760E+01  0.22904171467E+01  0.14171787125E+02  0.00000000000E+00 0.  1.
</event>
<event>
 7    1  0.3004200E-011  0.5052888E+02  0.7816164E-02  0.1300439E+00
        -11   -1    0    0    0    0  0.00000000000E+00  0.00000000000E+00  0.45593999997E+02  0.45594000000E+02  0.51100000000E-03 0.  1.
         11   -1    0    0    0    0 -0.00000000000E+00 -0.00000000000E+00 -0.45593999997E+02  0.45594000000E+02  0.51100000000E-03 0. -1.
    9900012    2    1    2    0    0  0.10340301328E+02 -0.28626949166E+02  0.26958121513E+02  0.50528875986E+02  0.30000049046E+02 0.  0.
         12    1    1    2    0    0 -0.10340301328E+02  0.28626949166E+02 -0.26958121513E+02  0.40659124014E+02  0.00000000000E+00 0. -1.
         11    1    3    3    0    0  0.16536310032E+01 -0.26179262189E+01  0.19717519777E+02  0.19959173820E+02  0.51100000000E-03 0. -1.
        -11    1    3    3    0    0 -0.17041552620E+01 -0.12366952507E+02  0.40693311560E+01  0.13130312859E+02  0.51100000000E-03 0.  1.
         12    1    3    3    0    0  0.10390825587E+02 -0.13642070440E+02  0.31712705805E+01  0.17439389306E+02  0.00000000000E+00 0. -1.
</event>
<event>
 7    1  0.3004200E-011  0.5052886E+02  0.7816164E-02  0.1300439E+00
        -11   -1    0    0    0    0  0.00000000000E+00  0.00000000000E+00  0.45593999997E+02  0.45594000000E+02  0.51100000000E-03 0.  1.
         11   -1    0    0    0    0 -0.00000000000E+00 -0.00000000000E+00 -0.45593999997E+02  0.45594000000E+02  0.51100000000E-03 0. -1.
    9900012    2    1    2    0    0 -0.12917210746E+02 -0.13524364565E+02  0.36102676715E+02  0.50528855441E+02  0.29999986597E+02 0.  0.
         12    1    1    2    0    0  0.12917210746E+02  0.13524364565E+02 -0.36102676715E+02  0.40659144559E+02  0.00000000000E+00 0. -1.
         11    1    3    3    0    0 -0.58128815463E+01 -0.53871812337E+00 -0.33370905772E+01  0.67242830747E+01  0.51100000000E-03 0. -1.
        -11    1    3    3    0    0 -0.19314067956E+01 -0.12788372885E+02  0.33586096402E+02  0.35990258196E+02  0.51100000000E-03 0.  1.
         12    1    3    3    0    0 -0.51729224043E+01 -0.19727355739E+00  0.58536708899E+01  0.78143141698E+01  0.00000000000E+00 0. -1.
</event>
<event>
 7    1  0.3004200E-011  0.5052886E+02  0.7816164E-02  0.1300439E+00
        -11   -1    0    0    0    0  0.00000000000E+00  0.00000000000E+00  0.45593999997E+02  0.45594000000E+02  0.51100000000E-03 0.  1.
         11   -1    0    0    0    0 -0.00000000000E+00 -0.00000000000E+00 -0.45593999997E+02  0.45594000000E+02  0.51100000000E-03 0. -1.
    9900012    2    1    2    0    0 -0.10539102323E+02  0.38647910379E+02  0.69592985222E+01  0.50528862154E+02  0.30000007005E+02 0.  0.
         12    1    1    2    0    0  0.10539102323E+02 -0.38647910379E+02 -0.69592985222E+01  0.40659137846E+02  0.00000000000E+00 0. -1.
         11    1    3    3    0    0  0.75825727158E+01  0.21636802098E+01  0.47833481491E+00  0.78997294572E+01  0.51100000000E-03 0. -1.
        -11    1    3    3    0    0 -0.15054339625E+02  0.20218500390E+02  0.11284057057E+01  0.25232800068E+02  0.51100000000E-03 0.  1.
         12    1    3    3    0    0 -0.30673354136E+01  0.16265729779E+02  0.53525580016E+01  0.17396332629E+02  0.00000000000E+00 0. -1.
</event>
<event>
 7    1  0.3004200E-011  0.5052887E+02  0.7816164E-02  0.1300439E+00
        -11   -1    0    0    0    0  0.00000000000E+00  0.00000000000E+00  0.45593999997E+02  0.45594000000E+02  0.51100000000E-03 0. -1.
         11   -1    0    0    0    0 -0.00000000000E+00 -0.00000000000E+00 -0.45593999997E+02  0.45594000000E+02  0.51100000000E-03 0.  1.
    9900012    2    1    2    0    0  0.94071042427E+01  0.34641691708E+02 -0.19095134177E+02  0.50528873548E+02  0.30000041636E+02 0.  0.
         12    1    1    2    0    0 -0.94071042427E+01 -0.34641691708E+02  0.19095134177E+02  0.40659126452E+02  0.00000000000E+00 0. -1.
         11    1    3    3    0    0  0.10880764557E+01  0.20769234732E+02 -0.13560439944E+02  0.24828019524E+02  0.51100000000E-03 0.  1.
        -11    1    3    3    0    0  0.81666530890E+01 -0.24772023679E+01 -0.32392348256E+00  0.85402389270E+01  0.51100000000E-03 0. -1.
         12    1    3    3    0    0  0.15237469793E+00  0.16349659343E+02 -0.52107707507E+01  0.17160615097E+02  0.00000000000E+00 0. -1.
</event>
<event>
 7    1  0.3004200E-011  0.5052885E+02  0.7816164E-02  0.1300439E+00
        -11   -1    0    0    0    0  0.00000000000E+00  0.00000000000E+00  0.45593999997E+02  0.45594000000E+02  0.51100000000E-03 0.  1.
         11   -1    0    0    0    0 -0.00000000000E+00 -0.00000000000E+00 -0.45593999997E+02  0.45594000000E+02  0.51100000000E-03 0. -1.
    9900012    2    1    2    0    0  0.68797983303E+01  0.23800178735E+02  0.32239519184E+02  0.50528846908E+02  0.29999960663E+02 0.  0.
         12    1    1    2    0    0 -0.68797983303E+01 -0.23800178735E+02 -0.32239519184E+02  0.40659153092E+02  0.00000000000E+00 0. -1.
         11    1    3    3    0    0  0.68371390476E+01  0.97047794696E+01  0.11452469603E+01  0.11926474993E+02  0.51100000000E-03 0. -1.
        -11    1    3    3    0    0  0.17408633794E+01  0.17544598444E+02  0.19037405298E+02  0.25947376372E+02  0.51100000000E-03 0.  1.
         12    1    3    3    0    0 -0.16982040967E+01 -0.34491991779E+01  0.12056866926E+02  0.12654995543E+02  0.00000000000E+00 0. -1.
</event>
<event>
 7    1  0.3004200E-011  0.5052886E+02  0.7816164E-02  0.1300439E+00
        -11   -1    0    0    0    0  0.00000000000E+00  0.00000000000E+00  0.45593999997E+02  0.45594000000E+02  0.51100000000E-03 0.  1.
         11   -1    0    0    0    0 -0.00000000000E+00 -0.00000000000E+00 -0.45593999997E+02  0.45594000000E+02  0.51100000000E-03 0. -1.
    9900012    2    1    2    0    0 -0.80928528066E+01 -0.37311860853E+02 -0.13982001771E+02  0.50528860801E+02  0.30000002890E+02 0.  0.
         12    1    1    2    0    0  0.80928528066E+01  0.37311860853E+02  0.13982001771E+02  0.40659139199E+02  0.00000000000E+00 0. -1.
         11    1    3    3    0    0 -0.72699714590E+01 -0.35120728239E+02 -0.19859075093E+02  0.40996352287E+02  0.51100000000E-03 0. -1.
        -11    1    3    3    0    0 -0.35423202089E+01 -0.27209600801E+01  0.23493938048E+01  0.50469107116E+01  0.51100000000E-03 0.  1.
         12    1    3    3    0    0  0.27194388613E+01  0.52982746551E+00  0.35276795174E+01  0.44855978020E+01  0.00000000000E+00 0. -1.
</event>
<event>
 7    1  0.3004200E-011  0.5052887E+02  0.7816164E-02  0.1300439E+00
        -11   -1    0    0    0    0  0.00000000000E+00  0.00000000000E+00  0.45593999997E+02  0.45594000000E+02  0.51100000000E-03 0. -1.
         11   -1    0    0    0    0 -0.00000000000E+00 -0.00000000000E+00 -0.45593999997E+02  0.45594000000E+02  0.51100000000E-03 0.  1.
    9900012    2    1    2    0    0  0.34865673897E+02  0.84729771271E+01  0.19124814931E+02  0.50528866908E+02  0.30000021452E+02 0.  0.
         12    1    1    2    0    0 -0.34865673897E+02 -0.84729771271E+01 -0.19124814931E+02  0.40659133092E+02  0.00000000000E+00 0. -1.
         11    1    3    3    0    0  0.21440584376E+02 -0.85340682905E+01  0.60517207152E+01  0.23856913125E+02  0.51100000000E-03 0.  1.
        -11    1    3    3    0    0  0.76552659966E+01  0.12727313162E+02  0.45676585204E+01  0.15538696935E+02  0.51100000000E-03 0. -1.
         12    1    3    3    0    0  0.57698235242E+01  0.42797322555E+01  0.85054356952E+01  0.11133256848E+02  0.00000000000E+00 0. -1.
</event>
<event>
 7    1  0.3004200E-011  0.5052889E+02  0.7816164E-02  0.1300439E+00
        -11   -1    0    0    0    0  0.00000000000E+00  0.00000000000E+00  0.45593999997E+02  0.45594000000E+02  0.51100000000E-03 0. -1.
         11   -1    0    0    0    0 -0.00000000000E+00 -0.00000000000E+00 -0.45593999997E+02  0.45594000000E+02  0.51100000000E-03 0.  1.
    9900012    2    1    2    0    0  0.36646934949E+02  0.13697504638E+02 -0.11069941678E+02  0.50528891756E+02  0.30000096982E+02 0.  0.
         12    1    1    2    0    0 -0.36646934949E+02 -0.13697504638E+02  0.11069941678E+02  0.40659108244E+02  0.00000000000E+00 0. -1.
         11    1    3    3    0    0  0.10419809441E+02 -0.30184687223E+01  0.76795919486E+01  0.13291339849E+02  0.51100000000E-03 0. -1.
        -11    1    3    3    0    0  0.17105574082E+02  0.80806941665E+01 -0.74169974527E+01  0.20320190313E+02  0.51100000000E-03 0.  1.
         12    1    3    3    0    0  0.91215514249E+01  0.86352791938E+01 -0.11332536174E+02  0.16917361594E+02  0.00000000000E+00 0. -1.
</event>
<event>
 7    1  0.3004200E-011  0.5052887E+02  0.7816164E-02  0.1300439E+00
        -11   -1    0    0    0    0  0.00000000000E+00  0.00000000000E+00  0.45593999997E+02  0.45594000000E+02  0.51100000000E-03 0.  1.
         11   -1    0    0    0    0 -0.00000000000E+00 -0.00000000000E+00 -0.45593999997E+02  0.45594000000E+02  0.51100000000E-03 0. -1.
    9900012    2    1    2    0    0  0.25198196226E+01  0.40552678832E+02 -0.15150495610E+01  0.50528872776E+02  0.30000039291E+02 0.  0.
         12    1    1    2    0    0 -0.25198196226E+01 -0.40552678832E+02  0.15150495610E+01  0.40659127224E+02  0.00000000000E+00 0. -1.
         11    1    3    3    0    0 -0.35681958002E+01  0.13222029944E+01 -0.43277078921E+01  0.57627508958E+01  0.51100000000E-03 0. -1.
        -11    1    3    3    0    0  0.10180470490E+02  0.30425578438E+02 -0.47835289154E+01  0.32438248286E+02  0.51100000000E-03 0.  1.
        -12    1    3    3    0    0 -0.40924550667E+01  0.88048973998E+01  0.75961872465E+01  0.12327873595E+02  0.00000000000E+00 0.  1.
</event>
<event>
 7    1  0.3004200E-011  0.5052889E+02  0.7816164E-02  0.1300439E+00
        -11   -1    0    0    0    0  0.00000000000E+00  0.00000000000E+00  0.45593999997E+02  0.45594000000E+02  0.51100000000E-03 0.  1.
         11   -1    0    0    0    0 -0.00000000000E+00 -0.00000000000E+00 -0.45593999997E+02  0.45594000000E+02  0.51100000000E-03 0. -1.
    9900012    2    1    2    0    0  0.20706071247E+02  0.32402819986E+02  0.13209048312E+02  0.50528891711E+02  0.30000096845E+02 0.  0.
         12    1    1    2    0    0 -0.20706071247E+02 -0.32402819986E+02 -0.13209048312E+02  0.40659108289E+02  0.00000000000E+00 0. -1.
         11    1    3    3    0    0 -0.46378325745E+01  0.93510069868E+01 -0.12144536062E+01  0.10508364310E+02  0.51100000000E-03 0. -1.
        -11    1    3    3    0    0  0.20958745280E+02  0.15862555007E+02  0.39476034776E+01  0.26579564115E+02  0.51100000000E-03 0.  1.
         12    1    3    3    0    0  0.43851585423E+01  0.71892579918E+01  0.10475898441E+02  0.13440963286E+02  0.00000000000E+00 0. -1.
</event>
<event>
 7    1  0.3004200E-011  0.5052885E+02  0.7816164E-02  0.1300439E+00
        -11   -1    0    0    0    0  0.00000000000E+00  0.00000000000E+00  0.45593999997E+02  0.45594000000E+02  0.51100000000E-03 0. -1.
         11   -1    0    0    0    0 -0.00000000000E+00 -0.00000000000E+00 -0.45593999997E+02  0.45594000000E+02  0.51100000000E-03 0.  1.
    9900012    2    1    2    0    0 -0.82672288907E+01 -0.94491785156E+01 -0.38672115023E+02  0.50528849388E+02  0.29999968199E+02 0.  0.
         12    1    1    2    0    0  0.82672288907E+01  0.94491785156E+01  0.38672115023E+02  0.40659150612E+02  0.00000000000E+00 0. -1.
         11    1    3    3    0    0 -0.31225017408E+01 -0.11098436086E+02 -0.10591423624E+02  0.15655783446E+02  0.51100000000E-03 0. -1.
        -11    1    3    3    0    0  0.72417611976E+01  0.31581737231E+01 -0.13863811713E+02  0.15956893243E+02  0.51100000000E-03 0.  1.
        -12    1    3    3    0    0 -0.12386488347E+02 -0.15089161527E+01 -0.14216879686E+02  0.18916172698E+02  0.00000000000E+00 0.  1.
</event>
<event>
 7    1  0.3004200E-011  0.5052886E+02  0.7816164E-02  0.1300439E+00
        -11   -1    0    0    0    0  0.00000000000E+00  0.00000000000E+00  0.45593999997E+02  0.45594000000E+02  0.51100000000E-03 0. -1.
         11   -1    0    0    0    0 -0.00000000000E+00 -0.00000000000E+00 -0.45593999997E+02  0.45594000000E+02  0.51100000000E-03 0.  1.
    9900012    2    1    2    0    0 -0.27366415875E+02 -0.48475409963E+01 -0.29677374619E+02  0.50528856676E+02  0.29999990352E+02 0.  0.
         12    1    1    2    0    0  0.27366415875E+02  0.48475409963E+01  0.29677374619E+02  0.40659143324E+02  0.00000000000E+00 0. -1.
         11    1    3    3    0    0 -0.13443877185E+02 -0.18143369380E+01  0.82636030156E+00  0.13590898568E+02  0.51100000000E-03 0. -1.
        -11    1    3    3    0    0 -0.45589705671E+01  0.26220550354E+01 -0.23191092514E+02  0.23779952849E+02  0.51100000000E-03 0.  1.
        -12    1    3    3    0    0 -0.93635681233E+01 -0.56552590937E+01 -0.73126424070E+01  0.13158005259E+02  0.00000000000E+00 0.  1.
</event>
<event>
 7    1  0.3004200E-011  0.5052886E+02  0.7816164E-02  0.1300439E+00
        -11   -1    0    0    0    0  0.00000000000E+00  0.00000000000E+00  0.45593999997E+02  0.45594000000E+02  0.51100000000E-03 0.  1.
         11   -1    0    0    0    0 -0.00000000000E+00 -0.00000000000E+00 -0.45593999997E+02  0.45594000000E+02  0.51100000000E-03 0. -1.
    9900012    2    1    2    0    0 -0.38190283835E+02 -0.10935025586E+02  0.86656214734E+01  0.50528861305E+02  0.30000004421E+02 0.  0.
         12    1    1    2    0    0  0.38190283835E+02  0.10935025586E+02 -0.86656214734E+01  0.40659138695E+02  0.00000000000E+00 0. -1.
         11    1    3    3    0    0 -0.20957666687E+02 -0.13199850886E+02 -0.71246170936E+01  0.25772466420E+02  0.51100000000E-03 0. -1.
        -11    1    3    3    0    0 -0.16313539134E+02  0.57926665262E+00  0.11244458800E+02  0.19821830463E+02  0.51100000000E-03 0.  1.
         12    1    3    3    0    0 -0.91907801427E+00  0.16855586473E+01  0.45457797666E+01  0.49345644221E+01  0.00000000000E+00 0. -1.
</event>
<event>
 7    1  0.3004200E-011  0.5052886E+02  0.7816164E-02  0.1300439E+00
        -11   -1    0    0    0    0  0.00000000000E+00  0.00000000000E+00  0.45593999997E+02  0.45594000000E+02  0.51100000000E-03 0. -1.
         11   -1    0    0    0    0 -0.00000000000E+00 -0.00000000000E+00 -0.45593999997E+02  0.45594000000E+02  0.51100000000E-03 0.  1.
    9900012    2    1    2    0    0 -0.13748853923E+02 -0.20368745519E+02 -0.32392115993E+02  0.50528856419E+02  0.29999989573E+02 0.  0.
         12    1    1    2    0    0  0.13748853923E+02  0.20368745519E+02  0.32392115993E+02  0.40659143581E+02  0.00000000000E+00 0. -1.
         11    1    3    3    0    0  0.71017798086E+01 -0.18579843428E+00 -0.22291728281E+01  0.74457376576E+01  0.51100000000E-03 0. -1.
        -11    1    3    3    0    0 -0.15259372037E+02 -0.14352880209E+02 -0.27515250549E+02  0.34582403304E+02  0.51100000000E-03 0.  1.
         12    1    3    3    0    0 -0.55912616945E+01 -0.58300668753E+01 -0.26476926165E+01  0.85007154581E+01  0.00000000000E+00 0. -1.
</event>
<event>
 7    1  0.3004200E-011  0.5052885E+02  0.7816164E-02  0.1300439E+00
        -11   -1    0    0    0    0  0.00000000000E+00  0.00000000000E+00  0.45593999997E+02  0.45594000000E+02  0.51100000000E-03 0.  1.
         11   -1    0    0    0    0 -0.00000000000E+00 -0.00000000000E+00 -0.45593999997E+02  0.45594000000E+02  0.51100000000E-03 0. -1.
    9900012    2    1    2    0    0  0.16093316168E+02 -0.67515998564E+01  0.36723122539E+02  0.50528847833E+02  0.29999963474E+02 0.  0.
         12    1    1    2    0    0 -0.16093316168E+02  0.67515998564E+01 -0.36723122539E+02  0.40659152167E+02  0.00000000000E+00 0. -1.
         11    1    3    3    0    0  0.44921779635E+01 -0.62659013442E+01  0.37422850040E+02  0.38208780246E+02  0.51100000000E-03 0. -1.
        -11    1    3    3    0    0  0.32665678134E+01  0.15985868078E+01  0.40022258794E+00  0.36587051593E+01  0.51100000000E-03 0.  1.
         12    1    3    3    0    0  0.83345703912E+01 -0.20842853199E+01 -0.10999500896E+01  0.86613624275E+01  0.00000000000E+00 0. -1.
</event>
<event>
 7    1  0.3004200E-011  0.5052889E+02  0.7816164E-02  0.1300439E+00
        -11   -1    0    0    0    0  0.00000000000E+00  0.00000000000E+00  0.45593999997E+02  0.45594000000E+02  0.51100000000E-03 0. -1.
         11   -1    0    0    0    0 -0.00000000000E+00 -0.00000000000E+00 -0.45593999997E+02  0.45594000000E+02  0.51100000000E-03 0.  1.
    9900012    2    1    2    0    0 -0.13383379946E+02  0.37846425435E+02  0.64573075983E+01  0.50528885420E+02  0.30000077723E+02 0.  0.
         12    1    1    2    0    0  0.13383379946E+02 -0.37846425435E+02 -0.64573075983E+01  0.40659114580E+02  0.00000000000E+00 0. -1.
         11    1    3    3    0    0  0.16752800066E+01 -0.31441049825E+01 -0.19500771100E-01  0.35626310197E+01  0.51100000000E-03 0. -1.
        -11    1    3    3    0    0 -0.83494184505E+01  0.30991466638E+02 -0.21270459039E+01  0.32166879198E+02  0.51100000000E-03 0.  1.
         12    1    3    3    0    0 -0.67092415023E+01  0.99990637798E+01  0.86038542733E+01  0.14799375202E+02  0.00000000000E+00 0. -1.
</event>
<event>
 7    1  0.3004200E-011  0.5052885E+02  0.7816164E-02  0.1300439E+00
        -11   -1    0    0    0    0  0.00000000000E+00  0.00000000000E+00  0.45593999997E+02  0.45594000000E+02  0.51100000000E-03 0. -1.
         11   -1    0    0    0    0 -0.00000000000E+00 -0.00000000000E+00 -0.45593999997E+02  0.45594000000E+02  0.51100000000E-03 0.  1.
    9900012    2    1    2    0    0  0.26405574410E+02 -0.29723910761E+02  0.85088725108E+01  0.50528854137E+02  0.29999982636E+02 0.  0.
         12    1    1    2    0    0 -0.26405574410E+02  0.29723910761E+02 -0.85088725108E+01  0.40659145863E+02  0.00000000000E+00 0. -1.
         11    1    3    3    0    0  0.66817004350E+01  0.34016412802E+01  0.41990488189E+01  0.85935030894E+01  0.51100000000E-03 0. -1.
        -11    1    3    3    0    0  0.19366565330E+02 -0.23363403387E+02 -0.18227671041E+01  0.30401232716E+02  0.51100000000E-03 0.  1.
         12    1    3    3    0    0  0.35730864528E+00 -0.97621486543E+01  0.61325907960E+01  0.11534118332E+02  0.00000000000E+00 0. -1.
</event>
<event>
 7    1  0.3004200E-011  0.5052886E+02  0.7816164E-02  0.1300439E+00
        -11   -1    0    0    0    0  0.00000000000E+00  0.00000000000E+00  0.45593999997E+02  0.45594000000E+02  0.51100000000E-03 0.  1.
         11   -1    0    0    0    0 -0.00000000000E+00 -0.00000000000E+00 -0.45593999997E+02  0.45594000000E+02  0.51100000000E-03 0. -1.
    9900012    2    1    2    0    0  0.16237841696E+01  0.15268666653E+02  0.37648332201E+02  0.50528858667E+02  0.29999996405E+02 0.  0.
         12    1    1    2    0    0 -0.16237841696E+01 -0.15268666653E+02 -0.37648332201E+02  0.40659141333E+02  0.00000000000E+00 0. -1.
         11    1    3    3    0    0 -0.62980601579E+01  0.23901401903E+01  0.31779832391E+02  0.32485936633E+02  0.51100000000E-03 0.  1.
        -11    1    3    3    0    0  0.17935759712E+01  0.36701171648E-01  0.30482995378E+01  0.35370032618E+01  0.51100000000E-03 0. -1.
         12    1    3    3    0    0  0.61282683563E+01  0.12841825291E+02  0.28202002721E+01  0.14505918772E+02  0.00000000000E+00 0. -1.
</event>
<event>
 7    1  0.3004200E-011  0.5052886E+02  0.7816164E-02  0.1300439E+00
        -11   -1    0    0    0    0  0.00000000000E+00  0.00000000000E+00  0.45593999997E+02  0.45594000000E+02  0.51100000000E-03 0.  1.
         11   -1    0    0    0    0 -0.00000000000E+00 -0.00000000000E+00 -0.45593999997E+02  0.45594000000E+02  0.51100000000E-03 0. -1.
    9900012    2    1    2    0    0 -0.29573225750E+02 -0.15667648922E+02  0.23089270482E+02  0.50528864306E+02  0.30000013543E+02 0.  0.
         12    1    1    2    0    0  0.29573225750E+02  0.15667648922E+02 -0.23089270482E+02  0.40659135694E+02  0.00000000000E+00 0. -1.
         11    1    3    3    0    0 -0.23365632915E+01 -0.18718503000E+01 -0.44000557441E+01  0.53220148791E+01  0.51100000000E-03 0. -1.
        -11    1    3    3    0    0 -0.28160310846E+02 -0.15933696180E+02  0.21678412654E+02  0.38946621886E+02  0.51100000000E-03 0.  1.
        -12    1    3    3    0    0  0.92364838736E+00  0.21378975579E+01  0.58109135722E+01  0.62602275402E+01  0.00000000000E+00 0.  1.
</event>
<event>
 7    1  0.3004200E-011  0.5052882E+02  0.7816164E-02  0.1300439E+00
        -11   -1    0    0    0    0  0.00000000000E+00  0.00000000000E+00  0.45593999997E+02  0.45594000000E+02  0.51100000000E-03 0.  1.
         11   -1    0    0    0    0 -0.00000000000E+00 -0.00000000000E+00 -0.45593999997E+02  0.45594000000E+02  0.51100000000E-03 0. -1.
    9900012    2    1    2    0    0  0.23016084086E+02 -0.31687481237E+02 -0.10923944650E+02  0.50528817021E+02  0.29999869817E+02 0.  0.
         12    1    1    2    0    0 -0.23016084086E+02  0.31687481237E+02  0.10923944650E+02  0.40659182979E+02  0.00000000000E+00 0. -1.
         11    1    3    3    0    0  0.74052105288E+00  0.50265126014E+01 -0.90279831456E-01  0.50815697447E+01  0.51100000000E-03 0. -1.
        -11    1    3    3    0    0  0.10689230049E+02 -0.17937868270E+02 -0.10520538024E+02  0.23381797999E+02  0.51100000000E-03 0.  1.
         12    1    3    3    0    0  0.11586332984E+02 -0.18776125569E+02 -0.31312679391E+00  0.22065449277E+02  0.00000000000E+00 0. -1.
</event>
<event>
 7    1  0.3004200E-011  0.5052888E+02  0.7816164E-02  0.1300439E+00
        -11   -1    0    0    0    0  0.00000000000E+00  0.00000000000E+00  0.45593999997E+02  0.45594000000E+02  0.51100000000E-03 0. -1.
         11   -1    0    0    0    0 -0.00000000000E+00 -0.00000000000E+00 -0.45593999997E+02  0.45594000000E+02  0.51100000000E-03 0.  1.
    9900012    2    1    2    0    0 -0.28495801198E+01  0.21628386163E+02 -0.34311182056E+02  0.50528875452E+02  0.30000047425E+02 0.  0.
         12    1    1    2    0    0  0.28495801198E+01 -0.21628386163E+02  0.34311182056E+02  0.40659124548E+02  0.00000000000E+00 0. -1.
         11    1    3    3    0    0  0.33594569910E+01  0.11656838608E+02 -0.75704184069E+01  0.14299617922E+02  0.51100000000E-03 0.  1.
        -11    1    3    3    0    0 -0.13443846020E+02  0.31434002785E+01 -0.11204239691E+02  0.17780690325E+02  0.51100000000E-03 0. -1.
        -12    1    3    3    0    0  0.72348089097E+01  0.68281472766E+01 -0.15536523959E+02  0.18448567205E+02  0.00000000000E+00 0.  1.
</event>
<event>
 7    1  0.3004200E-011  0.5052885E+02  0.7816164E-02  0.1300439E+00
        -11   -1    0    0    0    0  0.00000000000E+00  0.00000000000E+00  0.45593999997E+02  0.45594000000E+02  0.51100000000E-03 0. -1.
         11   -1    0    0    0    0 -0.00000000000E+00 -0.00000000000E+00 -0.45593999997E+02  0.45594000000E+02  0.51100000000E-03 0.  1.
    9900012    2    1    2    0    0  0.96371311432E+01 -0.39386117529E+02 -0.30043098972E+01  0.50528850616E+02  0.29999971931E+02 0.  0.
         12    1    1    2    0    0 -0.96371311432E+01  0.39386117529E+02  0.30043098972E+01  0.40659149384E+02  0.00000000000E+00 0. -1.
         11    1    3    3    0    0  0.12551887562E+02 -0.36072062582E+02 -0.44390358082E+00  0.38196081356E+02  0.51100000000E-03 0. -1.
        -11    1    3    3    0    0 -0.84688791944E+00  0.40808585753E+01  0.20120888859E+00  0.41726623561E+01  0.51100000000E-03 0.  1.
         12    1    3    3    0    0 -0.20678684993E+01 -0.73949135223E+01 -0.27616152050E+01  0.81601069033E+01  0.00000000000E+00 0. -1.
</event>
<event>
 7    1  0.3004200E-011  0.5052887E+02  0.7816164E-02  0.1300439E+00
        -11   -1    0    0    0    0  0.00000000000E+00  0.00000000000E+00  0.45593999997E+02  0.45594000000E+02  0.51100000000E-03 0.  1.
         11   -1    0    0    0    0 -0.00000000000E+00 -0.00000000000E+00 -0.45593999997E+02  0.45594000000E+02  0.51100000000E-03 0. -1.
    9900012    2    1    2    0    0 -0.22082876906E+02  0.30437371280E+01  0.34003639038E+02  0.50528865037E+02  0.30000015766E+02 0.  0.
         12    1    1    2    0    0  0.22082876906E+02 -0.30437371280E+01 -0.34003639038E+02  0.40659134963E+02  0.00000000000E+00 0. -1.
         11    1    3    3    0    0 -0.11121643816E+02  0.13483441883E+02  0.29067234982E+02  0.33917522256E+02  0.51100000000E-03 0. -1.
        -11    1    3    3    0    0 -0.40280838420E+00 -0.27776029985E+01  0.10850583067E+01  0.30091003309E+01  0.51100000000E-03 0.  1.
         12    1    3    3    0    0 -0.10558424705E+02 -0.76621017567E+01  0.38513457486E+01  0.13602242450E+02  0.00000000000E+00 0. -1.
</event>
<event>
 7    1  0.3004200E-011  0.5052887E+02  0.7816164E-02  0.1300439E+00
        -11   -1    0    0    0    0  0.00000000000E+00  0.00000000000E+00  0.45593999997E+02  0.45594000000E+02  0.51100000000E-03 0.  1.
         11   -1    0    0    0    0 -0.00000000000E+00 -0.00000000000E+00 -0.45593999997E+02  0.45594000000E+02  0.51100000000E-03 0. -1.
    9900012    2    1    2    0    0 -0.14644182754E+02 -0.10239382281E+02  0.36522152975E+02  0.50528871924E+02  0.30000036699E+02 0.  0.
         12    1    1    2    0    0  0.14644182754E+02  0.10239382281E+02 -0.36522152975E+02  0.40659128076E+02  0.00000000000E+00 0. -1.
         11    1    3    3    0    0  0.21051763722E+01  0.15207661937E+01  0.20676659636E+02  0.20839115896E+02  0.51100000000E-03 0.  1.
        -11    1    3    3    0    0 -0.53605405106E+01 -0.10448556720E+02  0.23392856262E+01  0.11974138365E+02  0.51100000000E-03 0. -1.
        -12    1    3    3    0    0 -0.11388818615E+02 -0.13115917551E+01  0.13506207713E+02  0.17715617663E+02  0.00000000000E+00 0.  1.
</event>
<event>
 7    1  0.3004200E-011  0.5052887E+02  0.7816164E-02  0.1300439E+00
        -11   -1    0    0    0    0  0.00000000000E+00  0.00000000000E+00  0.45593999997E+02  0.45594000000E+02  0.51100000000E-03 0.  1.
         11   -1    0    0    0    0 -0.00000000000E+00 -0.00000000000E+00 -0.45593999997E+02  0.45594000000E+02  0.51100000000E-03 0. -1.
    9900012    2    1    2    0    0  0.27017413251E+02  0.12640815032E+01  0.30358301882E+02  0.50528868012E+02  0.30000024811E+02 0.  0.
         12    1    1    2    0    0 -0.27017413251E+02 -0.12640815032E+01 -0.30358301882E+02  0.40659131988E+02  0.00000000000E+00 0. -1.
         11    1    3    3    0    0 -0.45446762643E+01  0.13408821391E+01  0.38575374506E+01  0.61100444108E+01  0.51100000000E-03 0. -1.
        -11    1    3    3    0    0  0.18594679941E+02  0.24492199360E+01  0.53889442316E+01  0.19514136429E+02  0.51100000000E-03 0.  1.
         12    1    3    3    0    0  0.12967409574E+02 -0.25260205719E+01  0.21111820200E+02  0.24904687172E+02  0.00000000000E+00 0. -1.
</event>
<event>
 7    1  0.3004200E-011  0.5052887E+02  0.7816164E-02  0.1300439E+00
        -11   -1    0    0    0    0  0.00000000000E+00  0.00000000000E+00  0.45593999997E+02  0.45594000000E+02  0.51100000000E-03 0.  1.
         11   -1    0    0    0    0 -0.00000000000E+00 -0.00000000000E+00 -0.45593999997E+02  0.45594000000E+02  0.51100000000E-03 0. -1.
    9900012    2    1    2    0    0 -0.29030275944E+00  0.20338336506E+02  0.35205576878E+02  0.50528870019E+02  0.30000030909E+02 0.  0.
         12    1    1    2    0    0  0.29030275944E+00 -0.20338336506E+02 -0.35205576878E+02  0.40659129981E+02  0.00000000000E+00 0. -1.
         11    1    3    3    0    0 -0.47968977723E+01  0.15273111294E+02  0.18822546868E+02  0.24709642403E+02  0.51100000000E-03 0.  1.
        -11    1    3    3    0    0 -0.33529645474E+01 -0.41185542764E+01 -0.18061029653E+00  0.53138950803E+01  0.51100000000E-03 0. -1.
        -12    1    3    3    0    0  0.78595595603E+01  0.91837794893E+01  0.16563640306E+02  0.20505332535E+02  0.00000000000E+00 0.  1.
</event>
<event>
 7    1  0.3004200E-011  0.5052886E+02  0.7816164E-02  0.1300439E+00
        -11   -1    0    0    0    0  0.00000000000E+00  0.00000000000E+00  0.45593999997E+02  0.45594000000E+02  0.51100000000E-03 0.  1.
         11   -1    0    0    0    0 -0.00000000000E+00 -0.00000000000E+00 -0.45593999997E+02  0.45594000000E+02  0.51100000000E-03 0. -1.
    9900012    2    1    2    0    0  0.25040245903E+02  0.15086636096E+02  0.28258547066E+02  0.50528856061E+02  0.29999988483E+02 0.  0.
         12    1    1    2    0    0 -0.25040245903E+02 -0.15086636096E+02 -0.28258547066E+02  0.40659143939E+02  0.00000000000E+00 0. -1.
         11    1    3    3    0    0  0.10473174583E+01  0.16993018862E+02  0.13944544824E+02  0.22007041930E+02  0.51100000000E-03 0. -1.
        -11    1    3    3    0    0  0.15586822533E+02 -0.18153877933E+01  0.63070166857E+01  0.16912218342E+02  0.51100000000E-03 0.  1.
         12    1    3    3    0    0  0.84061059110E+01 -0.90994972647E-01  0.80069855560E+01  0.11609595788E+02  0.00000000000E+00 0. -1.
</event>
<event>
 7    1  0.3004200E-011  0.5052885E+02  0.7816164E-02  0.1300439E+00
        -11   -1    0    0    0    0  0.00000000000E+00  0.00000000000E+00  0.45593999997E+02  0.45594000000E+02  0.51100000000E-03 0. -1.
         11   -1    0    0    0    0 -0.00000000000E+00 -0.00000000000E+00 -0.45593999997E+02  0.45594000000E+02  0.51100000000E-03 0.  1.
    9900012    2    1    2    0    0 -0.12403341629E+02  0.35088777304E+02  0.16373807142E+02  0.50528846829E+02  0.29999960422E+02 0.  0.
         12    1    1    2    0    0  0.12403341629E+02 -0.35088777304E+02 -0.16373807142E+02  0.40659153171E+02  0.00000000000E+00 0. -1.
         11    1    3    3    0    0 -0.31462058973E+00 -0.38780166154E+00  0.38513160002E+01  0.38835565450E+01  0.51100000000E-03 0. -1.
        -11    1    3    3    0    0 -0.13166410551E+02  0.29228210642E+02 -0.60951486050E+00  0.32062660102E+02  0.51100000000E-03 0.  1.
        -12    1    3    3    0    0  0.10776895119E+01  0.62483683227E+01  0.13132006003E+02  0.14582630182E+02  0.00000000000E+00 0.  1.
</event>
<event>
 7    1  0.3004200E-011  0.5052886E+02  0.7816164E-02  0.1300439E+00
        -11   -1    0    0    0    0  0.00000000000E+00  0.00000000000E+00  0.45593999997E+02  0.45594000000E+02  0.51100000000E-03 0. -1.
         11   -1    0    0    0    0 -0.00000000000E+00 -0.00000000000E+00 -0.45593999997E+02  0.45594000000E+02  0.51100000000E-03 0.  1.
    9900012    2    1    2    0    0 -0.26050285873E+02 -0.24519403723E+02 -0.19322184730E+02  0.50528863563E+02  0.30000011288E+02 0.  0.
         12    1    1    2    0    0  0.26050285873E+02  0.24519403723E+02  0.19322184730E+02  0.40659136437E+02  0.00000000000E+00 0. -1.
         11    1    3    3    0    0 -0.13763697025E+01  0.10883509843E+01  0.10333250505E+01  0.20363355186E+01  0.51100000000E-03 0. -1.
        -11    1    3    3    0    0 -0.12961554310E+02 -0.26426026801E+02 -0.21849391894E+02  0.36656959899E+02  0.51100000000E-03 0.  1.
        -12    1    3    3    0    0 -0.11712361861E+02  0.81827209303E+00  0.14938821139E+01  0.11835568146E+02  0.00000000000E+00 0.  1.
</event>
<event>
 7    1  0.3004200E-011  0.5052886E+02  0.7816164E-02  0.1300439E+00
        -11   -1    0    0    0    0  0.00000000000E+00  0.00000000000E+00  0.45593999997E+02  0.45594000000E+02  0.51100000000E-03 0.  1.
         11   -1    0    0    0    0 -0.00000000000E+00 -0.00000000000E+00 -0.45593999997E+02  0.45594000000E+02  0.51100000000E-03 0. -1.
    9900012    2    1    2    0    0 -0.17397984426E+02 -0.23512030331E+02  0.28242885117E+02  0.50528855984E+02  0.29999988248E+02 0.  0.
         12    1    1    2    0    0  0.17397984426E+02  0.23512030331E+02 -0.28242885117E+02  0.40659144016E+02  0.00000000000E+00 0. -1.
         11    1    3    3    0    0 -0.10756269613E+02 -0.27597853844E+01 -0.17721317145E+01  0.11245185744E+02  0.51100000000E-03 0. -1.
        -11    1    3    3    0    0 -0.76163341760E+01 -0.16792066267E+02  0.29990459855E+02  0.35205251290E+02  0.51100000000E-03 0.  1.
        -12    1    3    3    0    0  0.97461936244E+00 -0.39601786803E+01  0.24556976359E-01  0.40784189494E+01  0.00000000000E+00 0.  1.
</event>
<event>
 7    1  0.3004200E-011  0.5052886E+02  0.7816164E-02  0.1300439E+00
        -11   -1    0    0    0    0  0.00000000000E+00  0.00000000000E+00  0.45593999997E+02  0.45594000000E+02  0.51100000000E-03 0.  1.
         11   -1    0    0    0    0 -0.00000000000E+00 -0.00000000000E+00 -0.45593999997E+02  0.45594000000E+02  0.51100000000E-03 0. -1.
    9900012    2    1    2    0    0 -0.28984854127E+02  0.26186821879E+02  0.11282483682E+02  0.50528857769E+02  0.29999993676E+02 0.  0.
         12    1    1    2    0    0  0.28984854127E+02 -0.26186821879E+02 -0.11282483682E+02  0.40659142231E+02  0.00000000000E+00 0. -1.
         11    1    3    3    0    0 -0.79957992718E+01  0.23730173678E+02  0.52985569310E+01  0.25595481136E+02  0.51100000000E-03 0.  1.
        -11    1    3    3    0    0 -0.20380679588E+02  0.54924297362E+01  0.51534987485E+01  0.21727803259E+02  0.51100000000E-03 0. -1.
        -12    1    3    3    0    0 -0.60837526717E+00 -0.30357815345E+01  0.83042800298E+00  0.32055733744E+01  0.00000000000E+00 0.  1.
</event>
<event>
 7    1  0.3004200E-011  0.5052886E+02  0.7816164E-02  0.1300439E+00
        -11   -1    0    0    0    0  0.00000000000E+00  0.00000000000E+00  0.45593999997E+02  0.45594000000E+02  0.51100000000E-03 0. -1.
         11   -1    0    0    0    0 -0.00000000000E+00 -0.00000000000E+00 -0.45593999997E+02  0.45594000000E+02  0.51100000000E-03 0.  1.
    9900012    2    1    2    0    0  0.24878361349E+02  0.65831630522E+01 -0.31478476103E+02  0.50528863795E+02  0.30000011991E+02 0.  0.
         12    1    1    2    0    0 -0.24878361349E+02 -0.65831630522E+01  0.31478476103E+02  0.40659136205E+02  0.00000000000E+00 0. -1.
         11    1    3    3    0    0 -0.63466361971E+00  0.32288313283E+01 -0.17027297979E+02  0.17342347776E+02  0.51100000000E-03 0. -1.
        -11    1    3    3    0    0  0.19136679369E+02  0.84971940375E+01 -0.69018885700E+01  0.22046561407E+02  0.51100000000E-03 0.  1.
         12    1    3    3    0    0  0.63763455998E+01 -0.51428623135E+01 -0.75492895539E+01  0.11139954612E+02  0.00000000000E+00 0. -1.
</event>
<event>
 7    1  0.3004200E-011  0.5052886E+02  0.7816164E-02  0.1300439E+00
        -11   -1    0    0    0    0  0.00000000000E+00  0.00000000000E+00  0.45593999997E+02  0.45594000000E+02  0.51100000000E-03 0.  1.
         11   -1    0    0    0    0 -0.00000000000E+00 -0.00000000000E+00 -0.45593999997E+02  0.45594000000E+02  0.51100000000E-03 0. -1.
    9900012    2    1    2    0    0 -0.32105478075E+02 -0.24932613341E+02 -0.87692035005E+00  0.50528856874E+02  0.29999990954E+02 0.  0.
         12    1    1    2    0    0  0.32105478075E+02  0.24932613341E+02  0.87692035005E+00  0.40659143126E+02  0.00000000000E+00 0. -1.
         11    1    3    3    0    0 -0.31609377151E+02 -0.10984447341E+02  0.39798552471E+00  0.33465940895E+02  0.51100000000E-03 0. -1.
        -11    1    3    3    0    0 -0.17174292642E+01 -0.15076040283E+02 -0.38761323894E+00  0.15178497889E+02  0.51100000000E-03 0.  1.
         12    1    3    3    0    0  0.12213283406E+01  0.11278742826E+01 -0.88729263582E+00  0.18844180891E+01  0.00000000000E+00 0. -1.
</event>
<event>
 7    1  0.3004200E-011  0.5052886E+02  0.7816164E-02  0.1300439E+00
        -11   -1    0    0    0    0  0.00000000000E+00  0.00000000000E+00  0.45593999997E+02  0.45594000000E+02  0.51100000000E-03 0. -1.
         11   -1    0    0    0    0 -0.00000000000E+00 -0.00000000000E+00 -0.45593999997E+02  0.45594000000E+02  0.51100000000E-03 0.  1.
    9900012    2    1    2    0    0 -0.16658621809E+02 -0.34374206924E+02  0.13930889472E+02  0.50528862482E+02  0.30000007999E+02 0.  0.
         12    1    1    2    0    0  0.16658621809E+02  0.34374206924E+02 -0.13930889472E+02  0.40659137518E+02  0.00000000000E+00 0. -1.
         11    1    3    3    0    0 -0.29991777158E+01 -0.48956746694E+01 -0.85527586730E+01  0.10301086283E+02  0.51100000000E-03 0. -1.
        -11    1    3    3    0    0 -0.74366552001E+01 -0.23740650744E+02  0.16237333669E+02  0.29708135977E+02  0.51100000000E-03 0.  1.
        -12    1    3    3    0    0 -0.62227888934E+01 -0.57378815109E+01  0.62463144758E+01  0.10519640221E+02  0.00000000000E+00 0.  1.
</event>
<event>
 7    1  0.3004200E-011  0.5052888E+02  0.7816164E-02  0.1300439E+00
        -11   -1    0    0    0    0  0.00000000000E+00  0.00000000000E+00  0.45593999997E+02  0.45594000000E+02  0.51100000000E-03 0. -1.
         11   -1    0    0    0    0 -0.00000000000E+00 -0.00000000000E+00 -0.45593999997E+02  0.45594000000E+02  0.51100000000E-03 0.  1.
    9900012    2    1    2    0    0 -0.61021681167E+01 -0.24262677806E+02 -0.32050741135E+02  0.50528880514E+02  0.30000062812E+02 0.  0.
         12    1    1    2    0    0  0.61021681167E+01  0.24262677806E+02  0.32050741135E+02  0.40659119486E+02  0.00000000000E+00 0. -1.
         11    1    3    3    0    0 -0.12273668916E-01  0.20870368822E+01 -0.20371323089E+02  0.20477955910E+02  0.51100000000E-03 0. -1.
        -11    1    3    3    0    0 -0.54154840866E+01 -0.10530194853E+02 -0.54606770345E+01  0.13039611401E+02  0.51100000000E-03 0.  1.
        -12    1    3    3    0    0 -0.67441036113E+00 -0.15819519835E+02 -0.62187410108E+01  0.17011313203E+02  0.00000000000E+00 0.  1.
</event>
<event>
 7    1  0.3004200E-011  0.5052886E+02  0.7816164E-02  0.1300439E+00
        -11   -1    0    0    0    0  0.00000000000E+00  0.00000000000E+00  0.45593999997E+02  0.45594000000E+02  0.51100000000E-03 0.  1.
         11   -1    0    0    0    0 -0.00000000000E+00 -0.00000000000E+00 -0.45593999997E+02  0.45594000000E+02  0.51100000000E-03 0. -1.
    9900012    2    1    2    0    0  0.33425733522E+02 -0.84710537297E+00  0.23133708617E+02  0.50528859289E+02  0.29999998294E+02 0.  0.
         12    1    1    2    0    0 -0.33425733522E+02  0.84710537297E+00 -0.23133708617E+02  0.40659140711E+02  0.00000000000E+00 0. -1.
         11    1    3    3    0    0 -0.12953486195E+01 -0.23783703668E+01 -0.40765853592E+01  0.48941926914E+01  0.51100000000E-03 0. -1.
        -11    1    3    3    0    0  0.12406875230E+02  0.52420926222E+01  0.14055496453E+02  0.19467076535E+02  0.51100000000E-03 0.  1.
        -12    1    3    3    0    0  0.22314206912E+02 -0.37108276283E+01  0.13154797523E+02  0.26167590062E+02  0.00000000000E+00 0.  1.
</event>
<event>
 7    1  0.3004200E-011  0.5052886E+02  0.7816164E-02  0.1300439E+00
        -11   -1    0    0    0    0  0.00000000000E+00  0.00000000000E+00  0.45593999997E+02  0.45594000000E+02  0.51100000000E-03 0.  1.
         11   -1    0    0    0    0 -0.00000000000E+00 -0.00000000000E+00 -0.45593999997E+02  0.45594000000E+02  0.51100000000E-03 0. -1.
    9900012    2    1    2    0    0 -0.36223935917E+02 -0.10024279727E+02 -0.15508241441E+02  0.50528864864E+02  0.30000015242E+02 0.  0.
         12    1    1    2    0    0  0.36223935917E+02  0.10024279727E+02  0.15508241441E+02  0.40659135136E+02  0.00000000000E+00 0. -1.
         11    1    3    3    0    0  0.10306024117E+01 -0.62068681982E+00 -0.75181854931E+01  0.76138365381E+01  0.51100000000E-03 0. -1.
        -11    1    3    3    0    0 -0.35735377070E+02 -0.34785923890E+01 -0.55549146003E+01  0.36331458212E+02  0.51100000000E-03 0.  1.
        -12    1    3    3    0    0 -0.15191612592E+01 -0.59250005178E+01 -0.24351413479E+01  0.65835701144E+01  0.00000000000E+00 0.  1.
</event>
<event>
 7    1  0.3004200E-011  0.5052886E+02  0.7816164E-02  0.1300439E+00
        -11   -1    0    0    0    0  0.00000000000E+00  0.00000000000E+00  0.45593999997E+02  0.45594000000E+02  0.51100000000E-03 0.  1.
         11   -1    0    0    0    0 -0.00000000000E+00 -0.00000000000E+00 -0.45593999997E+02  0.45594000000E+02  0.51100000000E-03 0. -1.
    9900012    2    1    2    0    0  0.57644740724E+00 -0.40392147485E+02  0.46160183667E+01  0.50528862090E+02  0.30000006807E+02 0.  0.
         12    1    1    2    0    0 -0.57644740724E+00  0.40392147485E+02 -0.46160183667E+01  0.40659137910E+02  0.00000000000E+00 0. -1.
         11    1    3    3    0    0  0.94570868525E+01 -0.12210182434E+02  0.98275164511E+01  0.18305876834E+02  0.51100000000E-03 0. -1.
        -11    1    3    3    0    0 -0.31827117773E+01 -0.25085112096E+02 -0.36055885147E+01  0.25541980579E+02  0.51100000000E-03 0.  1.
         12    1    3    3    0    0 -0.56979276680E+01 -0.30968529551E+01 -0.16059095697E+01  0.66810046760E+01  0.00000000000E+00 0. -1.
</event>
<event>
 7    1  0.3004200E-011  0.5052887E+02  0.7816164E-02  0.1300439E+00
        -11   -1    0    0    0    0  0.00000000000E+00  0.00000000000E+00  0.45593999997E+02  0.45594000000E+02  0.51100000000E-03 0.  1.
         11   -1    0    0    0    0 -0.00000000000E+00 -0.00000000000E+00 -0.45593999997E+02  0.45594000000E+02  0.51100000000E-03 0. -1.
    9900012    2    1    2    0    0  0.77703905645E+01  0.38526072996E+02  0.10417649264E+02  0.50528872044E+02  0.30000037064E+02 0.  0.
         12    1    1    2    0    0 -0.77703905645E+01 -0.38526072996E+02 -0.10417649264E+02  0.40659127956E+02  0.00000000000E+00 0. -1.
         11    1    3    3    0    0  0.23351863127E+01  0.10210196538E+02  0.13854753168E+02  0.17368229445E+02  0.51100000000E-03 0.  1.
        -11    1    3    3    0    0 -0.64447321184E+00  0.10428471966E+02 -0.86477331209E+01  0.13562878074E+02  0.51100000000E-03 0. -1.
         12    1    3    3    0    0  0.60796774637E+01  0.17887404492E+02  0.52106292168E+01  0.19597764524E+02  0.00000000000E+00 0. -1.
</event>
<event>
 7    1  0.3004200E-011  0.5052886E+02  0.7816164E-02  0.1300439E+00
        -11   -1    0    0    0    0  0.00000000000E+00  0.00000000000E+00  0.45593999997E+02  0.45594000000E+02  0.51100000000E-03 0.  1.
         11   -1    0    0    0    0 -0.00000000000E+00 -0.00000000000E+00 -0.45593999997E+02  0.45594000000E+02  0.51100000000E-03 0. -1.
    9900012    2    1    2    0    0  0.28769240999E+02  0.95758724937E+01  0.27088726327E+02  0.50528860121E+02  0.30000000824E+02 0.  0.
         12    1    1    2    0    0 -0.28769240999E+02 -0.95758724937E+01 -0.27088726327E+02  0.40659139879E+02  0.00000000000E+00 0. -1.
         11    1    3    3    0    0 -0.35096539376E+01  0.75241610810E+01  0.92565813602E+01  0.12434426785E+02  0.51100000000E-03 0. -1.
        -11    1    3    3    0    0  0.27469566056E+02 -0.58586026808E+00  0.11689068886E+02  0.29858911956E+02  0.51100000000E-03 0.  1.
        -12    1    3    3    0    0  0.48093288813E+01  0.26375716808E+01  0.61430760810E+01  0.82355213797E+01  0.00000000000E+00 0.  1.
</event>
<event>
 7    1  0.3004200E-011  0.5052885E+02  0.7816164E-02  0.1300439E+00
        -11   -1    0    0    0    0  0.00000000000E+00  0.00000000000E+00  0.45593999997E+02  0.45594000000E+02  0.51100000000E-03 0.  1.
         11   -1    0    0    0    0 -0.00000000000E+00 -0.00000000000E+00 -0.45593999997E+02  0.45594000000E+02  0.51100000000E-03 0. -1.
    9900012    2    1    2    0    0 -0.12974455477E+02 -0.23344685560E+02  0.30657059773E+02  0.50528854009E+02  0.29999982244E+02 0.  0.
         12    1    1    2    0    0  0.12974455477E+02  0.23344685560E+02 -0.30657059773E+02  0.40659145991E+02  0.00000000000E+00 0. -1.
         11    1    3    3    0    0 -0.83400772265E+01 -0.11229036417E+02  0.66770494422E+00  0.14003355924E+02  0.51100000000E-03 0. -1.
        -11    1    3    3    0    0 -0.38097429021E+01 -0.86643762792E+01  0.31332872725E+02  0.32731246093E+02  0.51100000000E-03 0.  1.
        -12    1    3    3    0    0 -0.82463534865E+00 -0.34512728636E+01 -0.13435178963E+01  0.37942519915E+01  0.00000000000E+00 0.  1.
</event>
<event>
 7    1  0.3004200E-011  0.5052889E+02  0.7816164E-02  0.1300439E+00
        -11   -1    0    0    0    0  0.00000000000E+00  0.00000000000E+00  0.45593999997E+02  0.45594000000E+02  0.51100000000E-03 0.  1.
         11   -1    0    0    0    0 -0.00000000000E+00 -0.00000000000E+00 -0.45593999997E+02  0.45594000000E+02  0.51100000000E-03 0. -1.
    9900012    2    1    2    0    0 -0.32473518337E+02  0.18953529660E+02  0.15472479400E+02  0.50528889108E+02  0.30000088932E+02 0.  0.
         12    1    1    2    0    0  0.32473518337E+02 -0.18953529660E+02 -0.15472479400E+02  0.40659110892E+02  0.00000000000E+00 0. -1.
         11    1    3    3    0    0 -0.13471702484E+02  0.17926095624E+02  0.93994639067E+01  0.24314226168E+02  0.51100000000E-03 0. -1.
        -11    1    3    3    0    0  0.13512497387E+01 -0.22052662689E+01 -0.27696339349E+01  0.37894521461E+01  0.51100000000E-03 0.  1.
        -12    1    3    3    0    0 -0.20353065591E+02  0.32327003047E+01  0.88426494287E+01  0.22425210794E+02  0.00000000000E+00 0.  1.
</event>
<event>
 7    1  0.3004200E-011  0.5052886E+02  0.7816164E-02  0.1300439E+00
        -11   -1    0    0    0    0  0.00000000000E+00  0.00000000000E+00  0.45593999997E+02  0.45594000000E+02  0.51100000000E-03 0. -1.
         11   -1    0    0    0    0 -0.00000000000E+00 -0.00000000000E+00 -0.45593999997E+02  0.45594000000E+02  0.51100000000E-03 0.  1.
    9900012    2    1    2    0    0  0.30240562497E+02 -0.25897839798E+02 -0.82447402131E+01  0.50528862435E+02  0.30000007857E+02 0.  0.
         12    1    1    2    0    0 -0.30240562497E+02  0.25897839798E+02  0.82447402131E+01  0.40659137565E+02  0.00000000000E+00 0. -1.
         11    1    3    3    0    0  0.89012470883E+01 -0.11702737213E+02 -0.14673599761E+02  0.20772597050E+02  0.51100000000E-03 0.  1.
        -11    1    3    3    0    0  0.68352893142E+01  0.10390893792E+01  0.52638549725E+01  0.86895947074E+01  0.51100000000E-03 0. -1.
         12    1    3    3    0    0  0.14504026095E+02 -0.15234191964E+02  0.11650045755E+01  0.21066670677E+02  0.00000000000E+00 0. -1.
</event>
<event>
 7    1  0.3004200E-011  0.5052886E+02  0.7816164E-02  0.1300439E+00
        -11   -1    0    0    0    0  0.00000000000E+00  0.00000000000E+00  0.45593999997E+02  0.45594000000E+02  0.51100000000E-03 0.  1.
         11   -1    0    0    0    0 -0.00000000000E+00 -0.00000000000E+00 -0.45593999997E+02  0.45594000000E+02  0.51100000000E-03 0. -1.
    9900012    2    1    2    0    0 -0.14634685680E+02 -0.36297947438E+02 -0.11020475688E+02  0.50528857147E+02  0.29999991784E+02 0.  0.
         12    1    1    2    0    0  0.14634685680E+02  0.36297947438E+02  0.11020475688E+02  0.40659142853E+02  0.00000000000E+00 0. -1.
         11    1    3    3    0    0  0.13395038290E+01  0.12846031831E+00 -0.24796999896E+00  0.13683062314E+01  0.51100000000E-03 0. -1.
        -11    1    3    3    0    0  0.56440584143E+01 -0.19609306904E+02 -0.25518140748E+01  0.20564339716E+02  0.51100000000E-03 0.  1.
        -12    1    3    3    0    0 -0.21618247923E+02 -0.16817100852E+02 -0.82206916147E+01  0.28596211199E+02  0.00000000000E+00 0.  1.
</event>
<event>
 7    1  0.3004200E-011  0.5052886E+02  0.7816164E-02  0.1300439E+00
        -11   -1    0    0    0    0  0.00000000000E+00  0.00000000000E+00  0.45593999997E+02  0.45594000000E+02  0.51100000000E-03 0.  1.
         11   -1    0    0    0    0 -0.00000000000E+00 -0.00000000000E+00 -0.45593999997E+02  0.45594000000E+02  0.51100000000E-03 0. -1.
    9900012    2    1    2    0    0  0.25485269550E+02  0.23473061821E+02  0.21276331165E+02  0.50528857570E+02  0.29999993069E+02 0.  0.
         12    1    1    2    0    0 -0.25485269550E+02 -0.23473061821E+02 -0.21276331165E+02  0.40659142430E+02  0.00000000000E+00 0. -1.
         11    1    3    3    0    0  0.34654761201E+01 -0.60877370664E+01  0.79821454162E+01  0.10620014738E+02  0.51100000000E-03 0. -1.
        -11    1    3    3    0    0  0.17115617150E+02  0.16924924283E+02  0.88054728693E+01  0.25630719169E+02  0.51100000000E-03 0.  1.
         12    1    3    3    0    0  0.49041762802E+01  0.12635874605E+02  0.44887128794E+01  0.14278123663E+02  0.00000000000E+00 0. -1.
</event>
<event>
 7    1  0.3004200E-011  0.5052887E+02  0.7816164E-02  0.1300439E+00
        -11   -1    0    0    0    0  0.00000000000E+00  0.00000000000E+00  0.45593999997E+02  0.45594000000E+02  0.51100000000E-03 0. -1.
         11   -1    0    0    0    0 -0.00000000000E+00 -0.00000000000E+00 -0.45593999997E+02  0.45594000000E+02  0.51100000000E-03 0.  1.
    9900012    2    1    2    0    0 -0.22163949644E+02 -0.23147634317E+02  0.25022219859E+02  0.50528866648E+02  0.30000020664E+02 0.  0.
         12    1    1    2    0    0  0.22163949644E+02  0.23147634317E+02 -0.25022219859E+02  0.40659133352E+02  0.00000000000E+00 0. -1.
         11    1    3    3    0    0 -0.96937727959E+01 -0.11876248434E+01  0.50337056931E+01  0.10987168746E+02  0.51100000000E-03 0. -1.
        -11    1    3    3    0    0 -0.97752663688E+01 -0.21077289632E+02  0.24783437058E+02  0.33970968834E+02  0.51100000000E-03 0.  1.
        -12    1    3    3    0    0 -0.26949104792E+01 -0.88271984091E+00 -0.47949228926E+01  0.55707290685E+01  0.00000000000E+00 0.  1.
</event>
<event>
 7    1  0.3004200E-011  0.5052887E+02  0.7816164E-02  0.1300439E+00
        -11   -1    0    0    0    0  0.00000000000E+00  0.00000000000E+00  0.45593999997E+02  0.45594000000E+02  0.51100000000E-03 0.  1.
         11   -1    0    0    0    0 -0.00000000000E+00 -0.00000000000E+00 -0.45593999997E+02  0.45594000000E+02  0.51100000000E-03 0. -1.
    9900012    2    1    2    0    0  0.13506878535E+02  0.37773629310E+02  0.66243307687E+01  0.50528873138E+02  0.30000040391E+02 0.  0.
         12    1    1    2    0    0 -0.13506878535E+02 -0.37773629310E+02 -0.66243307687E+01  0.40659126862E+02  0.00000000000E+00 0. -1.
         11    1    3    3    0    0  0.12591168824E+02  0.35421499087E+01  0.51656242995E+01  0.14063002275E+02  0.51100000000E-03 0. -1.
        -11    1    3    3    0    0 -0.54120374982E+01  0.14707850799E+02  0.27088624821E+01  0.15904369249E+02  0.51100000000E-03 0.  1.
         12    1    3    3    0    0  0.63277472100E+01  0.19523628603E+02 -0.12501560129E+01  0.20561501614E+02  0.00000000000E+00 0. -1.
</event>
<event>
 7    1  0.3004200E-011  0.5052886E+02  0.7816164E-02  0.1300439E+00
        -11   -1    0    0    0    0  0.00000000000E+00  0.00000000000E+00  0.45593999997E+02  0.45594000000E+02  0.51100000000E-03 0.  1.
         11   -1    0    0    0    0 -0.00000000000E+00 -0.00000000000E+00 -0.45593999997E+02  0.45594000000E+02  0.51100000000E-03 0. -1.
    9900012    2    1    2    0    0 -0.22021489027E+02  0.97772190808E+01  0.32750969189E+02  0.50528856198E+02  0.29999988898E+02 0.  0.
         12    1    1    2    0    0  0.22021489027E+02 -0.97772190808E+01 -0.32750969189E+02  0.40659143802E+02  0.00000000000E+00 0. -1.
         11    1    3    3    0    0  0.78742600641E+00 -0.17325701201E+01  0.41514022309E+00  0.19478656531E+01  0.51100000000E-03 0. -1.
        -11    1    3    3    0    0 -0.22137071387E+02  0.80620755353E+01  0.93801341098E+01  0.25358113252E+02  0.51100000000E-03 0.  1.
        -12    1    3    3    0    0 -0.67184364649E+00  0.34477136656E+01  0.22955694856E+02  0.23222877292E+02  0.00000000000E+00 0.  1.
</event>
<event>
 7    1  0.3004200E-011  0.5052886E+02  0.7816164E-02  0.1300439E+00
        -11   -1    0    0    0    0  0.00000000000E+00  0.00000000000E+00  0.45593999997E+02  0.45594000000E+02  0.51100000000E-03 0. -1.
         11   -1    0    0    0    0 -0.00000000000E+00 -0.00000000000E+00 -0.45593999997E+02  0.45594000000E+02  0.51100000000E-03 0.  1.
    9900012    2    1    2    0    0  0.22893729454E+02 -0.33533564178E+02 -0.21313445705E+01  0.50528863211E+02  0.30000010215E+02 0.  0.
         12    1    1    2    0    0 -0.22893729454E+02  0.33533564178E+02  0.21313445705E+01  0.40659136789E+02  0.00000000000E+00 0. -1.
         11    1    3    3    0    0  0.67120416673E+01 -0.90572588318E+01  0.12039382833E+02  0.16493398078E+02  0.51100000000E-03 0. -1.
        -11    1    3    3    0    0  0.15653098260E+02 -0.20470978445E+02 -0.86262989665E+01  0.27175236481E+02  0.51100000000E-03 0.  1.
        -12    1    3    3    0    0  0.52858952585E+00 -0.40053269010E+01 -0.55444284370E+01  0.68602286524E+01  0.00000000000E+00 0.  1.
</event>
<event>
 7    1  0.3004200E-011  0.5052893E+02  0.7816164E-02  0.1300439E+00
        -11   -1    0    0    0    0  0.00000000000E+00  0.00000000000E+00  0.45593999997E+02  0.45594000000E+02  0.51100000000E-03 0.  1.
         11   -1    0    0    0    0 -0.00000000000E+00 -0.00000000000E+00 -0.45593999997E+02  0.45594000000E+02  0.51100000000E-03 0. -1.
    9900012    2    1    2    0    0  0.11228463422E+02 -0.19185198784E+02  0.34044236712E+02  0.50528926025E+02  0.30000201143E+02 0.  0.
         12    1    1    2    0    0 -0.11228463422E+02  0.19185198784E+02 -0.34044236712E+02  0.40659073975E+02  0.00000000000E+00 0. -1.
         11    1    3    3    0    0  0.23508027813E+01  0.71110865345E+00 -0.29714887807E+01  0.38550869081E+01  0.51100000000E-03 0. -1.
        -11    1    3    3    0    0  0.21136862553E+01 -0.21382960580E+02  0.28689187819E+02  0.35843662909E+02  0.51100000000E-03 0.  1.
         12    1    3    3    0    0  0.67639743855E+01  0.14866531420E+01  0.83265376741E+01  0.10830176208E+02  0.00000000000E+00 0. -1.
</event>
<event>
 7    1  0.3004200E-011  0.5052886E+02  0.7816164E-02  0.1300439E+00
        -11   -1    0    0    0    0  0.00000000000E+00  0.00000000000E+00  0.45593999997E+02  0.45594000000E+02  0.51100000000E-03 0.  1.
         11   -1    0    0    0    0 -0.00000000000E+00 -0.00000000000E+00 -0.45593999997E+02  0.45594000000E+02  0.51100000000E-03 0. -1.
    9900012    2    1    2    0    0  0.13613745146E+02  0.31502167824E+01  0.38182555602E+02  0.50528862344E+02  0.30000007580E+02 0.  0.
         12    1    1    2    0    0 -0.13613745146E+02 -0.31502167824E+01 -0.38182555602E+02  0.40659137656E+02  0.00000000000E+00 0. -1.
         11    1    3    3    0    0  0.11075902593E+02 -0.49845893091E+01  0.10052048639E+02  0.15765957977E+02  0.51100000000E-03 0. -1.
        -11    1    3    3    0    0  0.23334074085E+01  0.13537138462E+02  0.24974125230E+02  0.28502733889E+02  0.51100000000E-03 0.  1.
        -12    1    3    3    0    0  0.20443514500E+00 -0.54023323704E+01  0.31563817322E+01  0.62601704776E+01  0.00000000000E+00 0.  1.
</event>
<event>
 7    1  0.3004200E-011  0.5052884E+02  0.7816164E-02  0.1300439E+00
        -11   -1    0    0    0    0  0.00000000000E+00  0.00000000000E+00  0.45593999997E+02  0.45594000000E+02  0.51100000000E-03 0.  1.
         11   -1    0    0    0    0 -0.00000000000E+00 -0.00000000000E+00 -0.45593999997E+02  0.45594000000E+02  0.51100000000E-03 0. -1.
    9900012    2    1    2    0    0  0.29837734062E+02  0.17296005070E+02  0.21534270462E+02  0.50528843963E+02  0.29999951710E+02 0.  0.
         12    1    1    2    0    0 -0.29837734062E+02 -0.17296005070E+02 -0.21534270462E+02  0.40659156037E+02  0.00000000000E+00 0. -1.
         11    1    3    3    0    0 -0.28153408062E+01 -0.16046063513E+01  0.17084115136E+01  0.36632738853E+01  0.51100000000E-03 0. -1.
        -11    1    3    3    0    0  0.30103467182E+02  0.20146231101E+02  0.22763198040E+02  0.42781450995E+02  0.51100000000E-03 0.  1.
        -12    1    3    3    0    0  0.25496076862E+01 -0.12456196798E+01 -0.29373390920E+01  0.40841190827E+01  0.00000000000E+00 0.  1.
</event>
<event>
 7    1  0.3004200E-011  0.5052884E+02  0.7816164E-02  0.1300439E+00
        -11   -1    0    0    0    0  0.00000000000E+00  0.00000000000E+00  0.45593999997E+02  0.45594000000E+02  0.51100000000E-03 0. -1.
         11   -1    0    0    0    0 -0.00000000000E+00 -0.00000000000E+00 -0.45593999997E+02  0.45594000000E+02  0.51100000000E-03 0.  1.
    9900012    2    1    2    0    0  0.15360489362E+02 -0.29374059601E+02  0.23545423297E+02  0.50528843970E+02  0.29999951730E+02 0.  0.
         12    1    1    2    0    0 -0.15360489362E+02  0.29374059601E+02 -0.23545423297E+02  0.40659156030E+02  0.00000000000E+00 0. -1.
         11    1    3    3    0    0  0.87241356720E+01 -0.13827769512E+01  0.14107990703E+02  0.16645059846E+02  0.51100000000E-03 0. -1.
        -11    1    3    3    0    0 -0.19315432900E+01 -0.21184731453E+02  0.84763435503E+01  0.22899172616E+02  0.51100000000E-03 0.  1.
        -12    1    3    3    0    0  0.85678969795E+01 -0.68065511961E+01  0.96108904377E+00  0.10984611508E+02  0.00000000000E+00 0.  1.
</event>
<event>
 7    1  0.3004200E-011  0.5052886E+02  0.7816164E-02  0.1300439E+00
        -11   -1    0    0    0    0  0.00000000000E+00  0.00000000000E+00  0.45593999997E+02  0.45594000000E+02  0.51100000000E-03 0.  1.
         11   -1    0    0    0    0 -0.00000000000E+00 -0.00000000000E+00 -0.45593999997E+02  0.45594000000E+02  0.51100000000E-03 0. -1.
    9900012    2    1    2    0    0 -0.32843849716E+02 -0.93006116380E+01 -0.22089503167E+02  0.50528855995E+02  0.29999988283E+02 0.  0.
         12    1    1    2    0    0  0.32843849716E+02  0.93006116380E+01  0.22089503167E+02  0.40659144005E+02  0.00000000000E+00 0. -1.
         11    1    3    3    0    0  0.12383553501E+01 -0.51216535784E+01  0.38967809723E+01  0.65536067595E+01  0.51100000000E-03 0. -1.
        -11    1    3    3    0    0 -0.18043506126E+02 -0.63961505053E+01 -0.16021666689E+02  0.24963426415E+02  0.51100000000E-03 0.  1.
         12    1    3    3    0    0 -0.16038698940E+02  0.22171924457E+01 -0.99646174505E+01  0.19011822821E+02  0.00000000000E+00 0. -1.
</event>
<event>
 7    1  0.3004200E-011  0.5052885E+02  0.7816164E-02  0.1300439E+00
        -11   -1    0    0    0    0  0.00000000000E+00  0.00000000000E+00  0.45593999997E+02  0.45594000000E+02  0.51100000000E-03 0.  1.
         11   -1    0    0    0    0 -0.00000000000E+00 -0.00000000000E+00 -0.45593999997E+02  0.45594000000E+02  0.51100000000E-03 0. -1.
    9900012    2    1    2    0    0  0.40521670500E+01 -0.33485737290E+02  0.22703557876E+02  0.50528853429E+02  0.29999980483E+02 0.  0.
         12    1    1    2    0    0 -0.40521670500E+01  0.33485737290E+02 -0.22703557876E+02  0.40659146571E+02  0.00000000000E+00 0. -1.
         11    1    3    3    0    0 -0.39594768466E+01  0.12267148898E+01  0.92641310760E+01  0.10149207416E+02  0.51100000000E-03 0. -1.
        -11    1    3    3    0    0  0.11091550149E+02 -0.18867052689E+02  0.87522089015E+01  0.23570942340E+02  0.51100000000E-03 0.  1.
        -12    1    3    3    0    0 -0.30799062524E+01 -0.15845399490E+02  0.46872178987E+01  0.16808703673E+02  0.00000000000E+00 0.  1.
</event>
<event>
 7    1  0.3004200E-011  0.5052888E+02  0.7816164E-02  0.1300439E+00
        -11   -1    0    0    0    0  0.00000000000E+00  0.00000000000E+00  0.45593999997E+02  0.45594000000E+02  0.51100000000E-03 0.  1.
         11   -1    0    0    0    0 -0.00000000000E+00 -0.00000000000E+00 -0.45593999997E+02  0.45594000000E+02  0.51100000000E-03 0. -1.
    9900012    2    1    2    0    0 -0.10018696910E+02  0.38032506137E+02  0.10311078395E+02  0.50528878656E+02  0.30000057162E+02 0.  0.
         12    1    1    2    0    0  0.10018696910E+02 -0.38032506137E+02 -0.10311078395E+02  0.40659121344E+02  0.00000000000E+00 0. -1.
         11    1    3    3    0    0 -0.15396394335E+02  0.10620575189E+02  0.52358698235E+01  0.19423179681E+02  0.51100000000E-03 0. -1.
        -11    1    3    3    0    0 -0.33749746808E+00  0.22598862671E+02  0.64602253568E+01  0.23506531231E+02  0.51100000000E-03 0.  1.
         12    1    3    3    0    0  0.57151948933E+01  0.48130682764E+01 -0.13850167853E+01  0.75991677437E+01  0.00000000000E+00 0. -1.
</event>
<event>
 7    1  0.3004200E-011  0.5052885E+02  0.7816164E-02  0.1300439E+00
        -11   -1    0    0    0    0  0.00000000000E+00  0.00000000000E+00  0.45593999997E+02  0.45594000000E+02  0.51100000000E-03 0. -1.
         11   -1    0    0    0    0 -0.00000000000E+00 -0.00000000000E+00 -0.45593999997E+02  0.45594000000E+02  0.51100000000E-03 0.  1.
    9900012    2    1    2    0    0 -0.11003491301E+02 -0.56515806258E+01 -0.38731762302E+02  0.50528848566E+02  0.29999965700E+02 0.  0.
         12    1    1    2    0    0  0.11003491301E+02  0.56515806258E+01  0.38731762302E+02  0.40659151434E+02  0.00000000000E+00 0. -1.
         11    1    3    3    0    0 -0.79549634794E+01  0.38631230169E+01 -0.13739050105E+01  0.89494568908E+01  0.51100000000E-03 0. -1.
        -11    1    3    3    0    0 -0.72024496592E+01 -0.54656218134E+01 -0.33285876719E+02  0.34491997508E+02  0.51100000000E-03 0.  1.
        -12    1    3    3    0    0  0.41539218375E+01 -0.40490818293E+01 -0.40719805724E+01  0.70873941667E+01  0.00000000000E+00 0.  1.
</event>
<event>
 7    1  0.3004200E-011  0.5052887E+02  0.7816164E-02  0.1300439E+00
        -11   -1    0    0    0    0  0.00000000000E+00  0.00000000000E+00  0.45593999997E+02  0.45594000000E+02  0.51100000000E-03 0.  1.
         11   -1    0    0    0    0 -0.00000000000E+00 -0.00000000000E+00 -0.45593999997E+02  0.45594000000E+02  0.51100000000E-03 0. -1.
    9900012    2    1    2    0    0  0.26376947444E+02 -0.20947406583E+01  0.30871246933E+02  0.50528865945E+02  0.30000018526E+02 0.  0.
         12    1    1    2    0    0 -0.26376947444E+02  0.20947406583E+01 -0.30871246933E+02  0.40659134055E+02  0.00000000000E+00 0. -1.
         11    1    3    3    0    0  0.17806146877E+01 -0.57237805203E+01  0.15127402682E+02  0.16271772007E+02  0.51100000000E-03 0. -1.
        -11    1    3    3    0    0  0.17361252498E+02  0.35030584270E+01  0.88890924925E+00  0.17733433581E+02  0.51100000000E-03 0.  1.
        -12    1    3    3    0    0  0.72350802584E+01  0.12598143497E+00  0.14854935002E+02  0.16523660357E+02  0.00000000000E+00 0.  1.
</event>
<event>
 7    1  0.3004200E-011  0.5052888E+02  0.7816164E-02  0.1300439E+00
        -11   -1    0    0    0    0  0.00000000000E+00  0.00000000000E+00  0.45593999997E+02  0.45594000000E+02  0.51100000000E-03 0.  1.
         11   -1    0    0    0    0 -0.00000000000E+00 -0.00000000000E+00 -0.45593999997E+02  0.45594000000E+02  0.51100000000E-03 0. -1.
    9900012    2    1    2    0    0 -0.70094504102E+01  0.43572317952E+01  0.39812641665E+02  0.50528876789E+02  0.30000051487E+02 0.  0.
         12    1    1    2    0    0  0.70094504102E+01 -0.43572317952E+01 -0.39812641665E+02  0.40659123211E+02  0.00000000000E+00 0. -1.
         11    1    3    3    0    0 -0.45504272156E+01 -0.80821263982E+01  0.24683181781E+01  0.95979034091E+01  0.51100000000E-03 0. -1.
        -11    1    3    3    0    0  0.19084028749E+01  0.12166443043E+02  0.29063339594E+02  0.31564886289E+02  0.51100000000E-03 0.  1.
        -12    1    3    3    0    0 -0.43674260694E+01  0.27291515077E+00  0.82809838932E+01  0.93660870907E+01  0.00000000000E+00 0.  1.
</event>
<event>
 7    1  0.3004200E-011  0.5052886E+02  0.7816164E-02  0.1300439E+00
        -11   -1    0    0    0    0  0.00000000000E+00  0.00000000000E+00  0.45593999997E+02  0.45594000000E+02  0.51100000000E-03 0.  1.
         11   -1    0    0    0    0 -0.00000000000E+00 -0.00000000000E+00 -0.45593999997E+02  0.45594000000E+02  0.51100000000E-03 0. -1.
    9900012    2    1    2    0    0 -0.13040975370E+02  0.13563111702E+02  0.36043593314E+02  0.50528860110E+02  0.30000000789E+02 0.  0.
         12    1    1    2    0    0  0.13040975370E+02 -0.13563111702E+02 -0.36043593314E+02  0.40659139890E+02  0.00000000000E+00 0. -1.
         11    1    3    3    0    0  0.68254431853E+00 -0.28695408670E-01 -0.22876775811E-01  0.68353038062E+00  0.51100000000E-03 0. -1.
        -11    1    3    3    0    0 -0.57952862177E+00  0.66948639460E+01 -0.35067283465E+01  0.75798549219E+01  0.51100000000E-03 0.  1.
        -12    1    3    3    0    0 -0.13143991067E+02  0.68969431648E+01  0.39573198436E+02  0.42265474807E+02  0.00000000000E+00 0.  1.
</event>
<event>
 7    1  0.3004200E-011  0.5052886E+02  0.7816164E-02  0.1300439E+00
        -11   -1    0    0    0    0  0.00000000000E+00  0.00000000000E+00  0.45593999997E+02  0.45594000000E+02  0.51100000000E-03 0.  1.
         11   -1    0    0    0    0 -0.00000000000E+00 -0.00000000000E+00 -0.45593999997E+02  0.45594000000E+02  0.51100000000E-03 0. -1.
    9900012    2    1    2    0    0  0.30432024202E+02  0.24658775207E+02  0.10908825416E+02  0.50528858793E+02  0.29999996787E+02 0.  0.
         12    1    1    2    0    0 -0.30432024202E+02 -0.24658775207E+02 -0.10908825416E+02  0.40659141207E+02  0.00000000000E+00 0. -1.
         11    1    3    3    0    0  0.15038404304E+02  0.89890006918E+01 -0.71210817147E+01  0.18912047549E+02  0.51100000000E-03 0. -1.
        -11    1    3    3    0    0  0.16764132512E+02  0.13733429201E+02  0.19216723892E+02  0.28964214022E+02  0.51100000000E-03 0.  1.
        -12    1    3    3    0    0 -0.13705126131E+01  0.19363453145E+01 -0.11868167616E+01  0.26525972226E+01  0.00000000000E+00 0.  1.
</event>
<event>
 7    1  0.3004200E-011  0.5052887E+02  0.7816164E-02  0.1300439E+00
        -11   -1    0    0    0    0  0.00000000000E+00  0.00000000000E+00  0.45593999997E+02  0.45594000000E+02  0.51100000000E-03 0. -1.
         11   -1    0    0    0    0 -0.00000000000E+00 -0.00000000000E+00 -0.45593999997E+02  0.45594000000E+02  0.51100000000E-03 0.  1.
    9900012    2    1    2    0    0 -0.25758198622E+02 -0.17832516265E+02 -0.25916822991E+02  0.50528866382E+02  0.30000019855E+02 0.  0.
         12    1    1    2    0    0  0.25758198622E+02  0.17832516265E+02  0.25916822991E+02  0.40659133618E+02  0.00000000000E+00 0. -1.
         11    1    3    3    0    0 -0.13988260360E+02 -0.75332414174E+01  0.16499574278E+01  0.15973212386E+02  0.51100000000E-03 0. -1.
        -11    1    3    3    0    0  0.24303186550E+01 -0.49139081162E+01 -0.54806910866E+01  0.77518331243E+01  0.51100000000E-03 0.  1.
        -12    1    3    3    0    0 -0.14200256917E+02 -0.53853667313E+01 -0.22086089332E+02  0.26803820872E+02  0.00000000000E+00 0.  1.
</event>
<event>
 7    1  0.3004200E-011  0.5052886E+02  0.7816164E-02  0.1300439E+00
        -11   -1    0    0    0    0  0.00000000000E+00  0.00000000000E+00  0.45593999997E+02  0.45594000000E+02  0.51100000000E-03 0. -1.
         11   -1    0    0    0    0 -0.00000000000E+00 -0.00000000000E+00 -0.45593999997E+02  0.45594000000E+02  0.51100000000E-03 0.  1.
    9900012    2    1    2    0    0 -0.99716226333E+01  0.83413834751E+01 -0.38524713747E+02  0.50528861968E+02  0.30000006437E+02 0.  0.
         12    1    1    2    0    0  0.99716226333E+01 -0.83413834751E+01  0.38524713747E+02  0.40659138032E+02  0.00000000000E+00 0. -1.
         11    1    3    3    0    0 -0.13785985515E+01 -0.60073120659E+01 -0.37741263848E+00  0.61750119663E+01  0.51100000000E-03 0. -1.
        -11    1    3    3    0    0 -0.85646246867E+01  0.16067967911E+02 -0.24116993037E+02  0.30218566184E+02  0.51100000000E-03 0.  1.
         12    1    3    3    0    0 -0.28399395117E-01 -0.17192723703E+01 -0.14030308072E+02  0.14135283818E+02  0.00000000000E+00 0. -1.
</event>
<event>
 7    1  0.3004200E-011  0.5052886E+02  0.7816164E-02  0.1300439E+00
        -11   -1    0    0    0    0  0.00000000000E+00  0.00000000000E+00  0.45593999997E+02  0.45594000000E+02  0.51100000000E-03 0.  1.
         11   -1    0    0    0    0 -0.00000000000E+00 -0.00000000000E+00 -0.45593999997E+02  0.45594000000E+02  0.51100000000E-03 0. -1.
    9900012    2    1    2    0    0 -0.14009060352E+02  0.19101916825E+02  0.33045852591E+02  0.50528863612E+02  0.30000011436E+02 0.  0.
         12    1    1    2    0    0  0.14009060352E+02 -0.19101916825E+02 -0.33045852591E+02  0.40659136388E+02  0.00000000000E+00 0. -1.
         11    1    3    3    0    0 -0.38570068743E+01 -0.50718860900E+01  0.32289985461E+01  0.71433159255E+01  0.51100000000E-03 0. -1.
        -11    1    3    3    0    0 -0.31172374458E+01  0.24172450674E+02  0.21579058626E+02  0.32552731258E+02  0.51100000000E-03 0.  1.
        -12    1    3    3    0    0 -0.70348160320E+01  0.13522413825E-02  0.82377954185E+01  0.10832816429E+02  0.00000000000E+00 0.  1.
</event>
<event>
 7    1  0.3004200E-011  0.5052884E+02  0.7816164E-02  0.1300439E+00
        -11   -1    0    0    0    0  0.00000000000E+00  0.00000000000E+00  0.45593999997E+02  0.45594000000E+02  0.51100000000E-03 0.  1.
         11   -1    0    0    0    0 -0.00000000000E+00 -0.00000000000E+00 -0.45593999997E+02  0.45594000000E+02  0.51100000000E-03 0. -1.
    9900012    2    1    2    0    0 -0.32026882721E+02  0.24628070701E+02  0.45720884480E+01  0.50528842654E+02  0.29999947731E+02 0.  0.
         12    1    1    2    0    0  0.32026882721E+02 -0.24628070701E+02 -0.45720884480E+01  0.40659157346E+02  0.00000000000E+00 0. -1.
         11    1    3    3    0    0 -0.57523231715E+01  0.12601254419E+02 -0.32041470665E+01  0.14217854743E+02  0.51100000000E-03 0. -1.
        -11    1    3    3    0    0 -0.24319458679E+02  0.14352825456E+02  0.12348737407E+02  0.30820950421E+02  0.51100000000E-03 0.  1.
        -12    1    3    3    0    0 -0.19551008706E+01 -0.23260091737E+01 -0.45725018926E+01  0.54900374906E+01  0.00000000000E+00 0.  1.
</event>
<event>
 7    1  0.3004200E-011  0.5052885E+02  0.7816164E-02  0.1300439E+00
        -11   -1    0    0    0    0  0.00000000000E+00  0.00000000000E+00  0.45593999997E+02  0.45594000000E+02  0.51100000000E-03 0.  1.
         11   -1    0    0    0    0 -0.00000000000E+00 -0.00000000000E+00 -0.45593999997E+02  0.45594000000E+02  0.51100000000E-03 0. -1.
    9900012    2    1    2    0    0  0.54741262343E+01 -0.39761094793E+02  0.65004344509E+01  0.50528851396E+02  0.29999974303E+02 0.  0.
         12    1    1    2    0    0 -0.54741262343E+01  0.39761094793E+02 -0.65004344509E+01  0.40659148604E+02  0.00000000000E+00 0. -1.
         11    1    3    3    0    0 -0.19064694974E+01  0.10799553907E+00 -0.19673954026E+01  0.27417027396E+01  0.51100000000E-03 0. -1.
        -11    1    3    3    0    0 -0.13472863226E+01 -0.38083232210E+02  0.73369888197E+01  0.38806947332E+02  0.51100000000E-03 0.  1.
        -12    1    3    3    0    0  0.87278820542E+01 -0.17858581218E+01  0.11308410338E+01  0.89802013244E+01  0.00000000000E+00 0.  1.
</event>
<event>
 7    1  0.3004200E-011  0.5052886E+02  0.7816164E-02  0.1300439E+00
        -11   -1    0    0    0    0  0.00000000000E+00  0.00000000000E+00  0.45593999997E+02  0.45594000000E+02  0.51100000000E-03 0. -1.
         11   -1    0    0    0    0 -0.00000000000E+00 -0.00000000000E+00 -0.45593999997E+02  0.45594000000E+02  0.51100000000E-03 0.  1.
    9900012    2    1    2    0    0 -0.33908040779E+02 -0.22434897980E+02  0.29330837229E+00  0.50528857035E+02  0.29999991443E+02 0.  0.
         12    1    1    2    0    0  0.33908040779E+02  0.22434897980E+02 -0.29330837229E+00  0.40659142965E+02  0.00000000000E+00 0. -1.
         11    1    3    3    0    0 -0.88304613092E+01 -0.17219556762E+02 -0.71028990332E+01  0.20614105776E+02  0.51100000000E-03 0. -1.
        -11    1    3    3    0    0 -0.25519194831E+02 -0.75272496713E+01  0.71371606866E+01  0.27546830223E+02  0.51100000000E-03 0.  1.
        -12    1    3    3    0    0  0.44161536036E+00  0.23119084540E+01  0.25904671895E+00  0.23679210352E+01  0.00000000000E+00 0.  1.
</event>
<event>
 7    1  0.3004200E-011  0.5052887E+02  0.7816164E-02  0.1300439E+00
        -11   -1    0    0    0    0  0.00000000000E+00  0.00000000000E+00  0.45593999997E+02  0.45594000000E+02  0.51100000000E-03 0. -1.
         11   -1    0    0    0    0 -0.00000000000E+00 -0.00000000000E+00 -0.45593999997E+02  0.45594000000E+02  0.51100000000E-03 0.  1.
    9900012    2    1    2    0    0 -0.13543518505E+02  0.26802450497E+02 -0.27411064567E+02  0.50528871789E+02  0.30000036290E+02 0.  0.
         12    1    1    2    0    0  0.13543518505E+02 -0.26802450497E+02  0.27411064567E+02  0.40659128211E+02  0.00000000000E+00 0. -1.
         11    1    3    3    0    0 -0.34307353202E+01  0.89412918082E+00 -0.96844372611E+01  0.10312988760E+02  0.51100000000E-03 0. -1.
        -11    1    3    3    0    0 -0.50536017436E+01  0.11509066551E+02  0.44160799735E+01  0.13322885050E+02  0.51100000000E-03 0.  1.
        -12    1    3    3    0    0 -0.50591814415E+01  0.14399254766E+02 -0.22142707279E+02  0.26892997979E+02  0.00000000000E+00 0.  1.
</event>
<event>
 7    1  0.3004200E-011  0.5052887E+02  0.7816164E-02  0.1300439E+00
        -11   -1    0    0    0    0  0.00000000000E+00  0.00000000000E+00  0.45593999997E+02  0.45594000000E+02  0.51100000000E-03 0.  1.
         11   -1    0    0    0    0 -0.00000000000E+00 -0.00000000000E+00 -0.45593999997E+02  0.45594000000E+02  0.51100000000E-03 0. -1.
    9900012    2    1    2    0    0 -0.99165522159E+01 -0.38491217136E+02  0.85588004361E+01  0.50528869791E+02  0.30000030215E+02 0.  0.
         12    1    1    2    0    0  0.99165522159E+01  0.38491217136E+02 -0.85588004361E+01  0.40659130209E+02  0.00000000000E+00 0. -1.
         11    1    3    3    0    0 -0.95305532842E+01 -0.27039522411E+02 -0.41016041160E+01  0.28961877956E+02  0.51100000000E-03 0. -1.
        -11    1    3    3    0    0 -0.46123051456E+01 -0.11247979061E+02  0.12341964958E+02  0.17323812831E+02  0.51100000000E-03 0.  1.
         12    1    3    3    0    0  0.42263062140E+01 -0.20371566432E+00  0.31843959388E+00  0.42431790041E+01  0.00000000000E+00 0. -1.
</event>
<event>
 7    1  0.3004200E-011  0.5052887E+02  0.7816164E-02  0.1300439E+00
        -11   -1    0    0    0    0  0.00000000000E+00  0.00000000000E+00  0.45593999997E+02  0.45594000000E+02  0.51100000000E-03 0.  1.
         11   -1    0    0    0    0 -0.00000000000E+00 -0.00000000000E+00 -0.45593999997E+02  0.45594000000E+02  0.51100000000E-03 0. -1.
    9900012    2    1    2    0    0 -0.87638517131E+01  0.15867029425E+02  0.36395010567E+02  0.50528874163E+02  0.30000043507E+02 0.  0.
         12    1    1    2    0    0  0.87638517131E+01 -0.15867029425E+02 -0.36395010567E+02  0.40659125837E+02  0.00000000000E+00 0. -1.
         11    1    3    3    0    0 -0.41144024233E+01 -0.70666885737E+01  0.16265186591E+02  0.18205018258E+02  0.51100000000E-03 0. -1.
        -11    1    3    3    0    0 -0.29274544875E+01  0.20147023387E+02  0.12176032887E+02  0.23721895334E+02  0.51100000000E-03 0.  1.
        -12    1    3    3    0    0 -0.17219948024E+01  0.27866946121E+01  0.79537910897E+01  0.86019605706E+01  0.00000000000E+00 0.  1.
</event>
<event>
 7    1  0.3004200E-011  0.5052884E+02  0.7816164E-02  0.1300439E+00
        -11   -1    0    0    0    0  0.00000000000E+00  0.00000000000E+00  0.45593999997E+02  0.45594000000E+02  0.51100000000E-03 0.  1.
         11   -1    0    0    0    0 -0.00000000000E+00 -0.00000000000E+00 -0.45593999997E+02  0.45594000000E+02  0.51100000000E-03 0. -1.
    9900012    2    1    2    0    0  0.15458062726E+02  0.14711515990E+02  0.34609054504E+02  0.50528842856E+02  0.29999948346E+02 0.  0.
         12    1    1    2    0    0 -0.15458062726E+02 -0.14711515990E+02 -0.34609054504E+02  0.40659157144E+02  0.00000000000E+00 0. -1.
         11    1    3    3    0    0  0.16366400652E+01  0.12869555485E+02  0.17984199988E+02  0.22175109888E+02  0.51100000000E-03 0. -1.
        -11    1    3    3    0    0  0.13314423615E+02  0.17328774551E+01  0.18312285683E+01  0.13551019844E+02  0.51100000000E-03 0.  1.
        -12    1    3    3    0    0  0.50699904550E+00  0.10908304989E+00  0.14793625948E+02  0.14802713124E+02  0.00000000000E+00 0.  1.
</event>
<event>
 7    1  0.3004200E-011  0.5052886E+02  0.7816164E-02  0.1300439E+00
        -11   -1    0    0    0    0  0.00000000000E+00  0.00000000000E+00  0.45593999997E+02  0.45594000000E+02  0.51100000000E-03 0.  1.
         11   -1    0    0    0    0 -0.00000000000E+00 -0.00000000000E+00 -0.45593999997E+02  0.45594000000E+02  0.51100000000E-03 0. -1.
    9900012    2    1    2    0    0 -0.43707298504E+01 -0.37476319156E+02 -0.15152157992E+02  0.50528859961E+02  0.30000000337E+02 0.  0.
         12    1    1    2    0    0  0.43707298504E+01  0.37476319156E+02  0.15152157992E+02  0.40659140039E+02  0.00000000000E+00 0. -1.
         11    1    3    3    0    0 -0.79530552834E+01 -0.14555700979E+02 -0.11602159609E+02  0.20241779249E+02  0.51100000000E-03 0. -1.
        -11    1    3    3    0    0  0.96105522002E+01 -0.12392439712E+02  0.37551032257E+01  0.16125634130E+02  0.51100000000E-03 0.  1.
        -12    1    3    3    0    0 -0.60282267671E+01 -0.10528178466E+02 -0.73051016087E+01  0.14161446581E+02  0.00000000000E+00 0.  1.
</event>
<event>
 7    1  0.3004200E-011  0.5052886E+02  0.7816164E-02  0.1300439E+00
        -11   -1    0    0    0    0  0.00000000000E+00  0.00000000000E+00  0.45593999997E+02  0.45594000000E+02  0.51100000000E-03 0. -1.
         11   -1    0    0    0    0 -0.00000000000E+00 -0.00000000000E+00 -0.45593999997E+02  0.45594000000E+02  0.51100000000E-03 0.  1.
    9900012    2    1    2    0    0 -0.34585026155E+02  0.14202424316E+02 -0.15979126903E+02  0.50528863423E+02  0.30000010860E+02 0.  0.
         12    1    1    2    0    0  0.34585026155E+02 -0.14202424316E+02  0.15979126903E+02  0.40659136577E+02  0.00000000000E+00 0. -1.
         11    1    3    3    0    0 -0.24490583559E+02  0.15777826834E+02 -0.30976956930E+00  0.29134592156E+02  0.51100000000E-03 0. -1.
        -11    1    3    3    0    0 -0.72526803227E+01  0.55907453295E+00 -0.16239952933E+02  0.17794662338E+02  0.51100000000E-03 0.  1.
        -12    1    3    3    0    0 -0.28417622741E+01 -0.21344770509E+01  0.57059559938E+00  0.35996089290E+01  0.00000000000E+00 0.  1.
</event>
<event>
 7    1  0.3004200E-011  0.5052887E+02  0.7816164E-02  0.1300439E+00
        -11   -1    0    0    0    0  0.00000000000E+00  0.00000000000E+00  0.45593999997E+02  0.45594000000E+02  0.51100000000E-03 0.  1.
         11   -1    0    0    0    0 -0.00000000000E+00 -0.00000000000E+00 -0.45593999997E+02  0.45594000000E+02  0.51100000000E-03 0. -1.
    9900012    2    1    2    0    0  0.15452667436E+02 -0.33706528735E+02  0.16680821204E+02  0.50528870566E+02  0.30000032574E+02 0.  0.
         12    1    1    2    0    0 -0.15452667436E+02  0.33706528735E+02 -0.16680821204E+02  0.40659129434E+02  0.00000000000E+00 0. -1.
         11    1    3    3    0    0  0.21550199176E+01 -0.16991643430E+02 -0.47121274845E+01  0.17764126857E+02  0.51100000000E-03 0. -1.
        -11    1    3    3    0    0  0.42222636724E+01 -0.12242771597E+02  0.17833042404E+02  0.22039291471E+02  0.51100000000E-03 0.  1.
         12    1    3    3    0    0  0.90753838456E+01 -0.44721137081E+01  0.35599062846E+01  0.10725452238E+02  0.00000000000E+00 0. -1.
</event>
<event>
 7    1  0.3004200E-011  0.5052886E+02  0.7816164E-02  0.1300439E+00
        -11   -1    0    0    0    0  0.00000000000E+00  0.00000000000E+00  0.45593999997E+02  0.45594000000E+02  0.51100000000E-03 0.  1.
         11   -1    0    0    0    0 -0.00000000000E+00 -0.00000000000E+00 -0.45593999997E+02  0.45594000000E+02  0.51100000000E-03 0. -1.
    9900012    2    1    2    0    0  0.15202909118E+02 -0.85017546828E+01  0.36739043503E+02  0.50528860856E+02  0.30000003059E+02 0.  0.
         12    1    1    2    0    0 -0.15202909118E+02  0.85017546828E+01 -0.36739043503E+02  0.40659139144E+02  0.00000000000E+00 0. -1.
         11    1    3    3    0    0 -0.62987922682E+01  0.43713892389E+01  0.11821634356E+02  0.14090240134E+02  0.51100000000E-03 0. -1.
        -11    1    3    3    0    0  0.17934815486E+02 -0.98080599773E+01  0.14661428306E+02  0.25155777214E+02  0.51100000000E-03 0.  1.
         12    1    3    3    0    0  0.35668859009E+01 -0.30650839444E+01  0.10255980842E+02  0.11282843509E+02  0.00000000000E+00 0. -1.
</event>
<event>
 7    1  0.3004200E-011  0.5052886E+02  0.7816164E-02  0.1300439E+00
        -11   -1    0    0    0    0  0.00000000000E+00  0.00000000000E+00  0.45593999997E+02  0.45594000000E+02  0.51100000000E-03 0.  1.
         11   -1    0    0    0    0 -0.00000000000E+00 -0.00000000000E+00 -0.45593999997E+02  0.45594000000E+02  0.51100000000E-03 0. -1.
    9900012    2    1    2    0    0  0.23217045334E+02 -0.13536827710E+02  0.30510475197E+02  0.50528855945E+02  0.29999988131E+02 0.  0.
         12    1    1    2    0    0 -0.23217045334E+02  0.13536827710E+02 -0.30510475197E+02  0.40659144055E+02  0.00000000000E+00 0. -1.
         11    1    3    3    0    0 -0.40801064419E+01 -0.63591862030E+01  0.30978702133E+01  0.81659854189E+01  0.51100000000E-03 0. -1.
        -11    1    3    3    0    0  0.21976026192E+02 -0.10182172874E+02  0.26950454570E+02  0.36234643277E+02  0.51100000000E-03 0.  1.
         12    1    3    3    0    0  0.53211255835E+01  0.30045313675E+01  0.46215041440E+00  0.61282272493E+01  0.00000000000E+00 0. -1.
</event>
<event>
 7    1  0.3004200E-011  0.5052884E+02  0.7816164E-02  0.1300439E+00
        -11   -1    0    0    0    0  0.00000000000E+00  0.00000000000E+00  0.45593999997E+02  0.45594000000E+02  0.51100000000E-03 0.  1.
         11   -1    0    0    0    0 -0.00000000000E+00 -0.00000000000E+00 -0.45593999997E+02  0.45594000000E+02  0.51100000000E-03 0. -1.
    9900012    2    1    2    0    0  0.17813372629E+02 -0.31965066784E+01  0.36409251782E+02  0.50528837261E+02  0.29999931338E+02 0.  0.
         12    1    1    2    0    0 -0.17813372629E+02  0.31965066784E+01 -0.36409251782E+02  0.40659162739E+02  0.00000000000E+00 0. -1.
         11    1    3    3    0    0  0.22632155514E+02  0.20108108482E+01  0.29373243870E+02  0.37135498909E+02  0.51100000000E-03 0. -1.
        -11    1    3    3    0    0  0.20671409107E+01 -0.37654410857E+01  0.33731486209E+01  0.54616618345E+01  0.51100000000E-03 0.  1.
         12    1    3    3    0    0 -0.68859237963E+01 -0.14418764410E+01  0.36628592908E+01  0.79316765178E+01  0.00000000000E+00 0. -1.
</event>
<event>
 7    1  0.3004200E-011  0.5052885E+02  0.7816164E-02  0.1300439E+00
        -11   -1    0    0    0    0  0.00000000000E+00  0.00000000000E+00  0.45593999997E+02  0.45594000000E+02  0.51100000000E-03 0.  1.
         11   -1    0    0    0    0 -0.00000000000E+00 -0.00000000000E+00 -0.45593999997E+02  0.45594000000E+02  0.51100000000E-03 0. -1.
    9900012    2    1    2    0    0 -0.22746301950E+02  0.30288686933E+02  0.14777281542E+02  0.50528845332E+02  0.29999955872E+02 0.  0.
         12    1    1    2    0    0  0.22746301950E+02 -0.30288686933E+02 -0.14777281542E+02  0.40659154668E+02  0.00000000000E+00 0. -1.
         11    1    3    3    0    0 -0.12816899819E+02  0.18775143288E+02 -0.61081946052E+01  0.23539094461E+02  0.51100000000E-03 0. -1.
        -11    1    3    3    0    0 -0.70894454505E+01  0.10077695126E+02  0.10700985826E+02  0.16319659119E+02  0.51100000000E-03 0.  1.
         12    1    3    3    0    0 -0.28399566800E+01  0.14358485201E+01  0.10184490321E+02  0.10670091752E+02  0.00000000000E+00 0. -1.
</event>
<event>
 7    1  0.3004200E-011  0.5052887E+02  0.7816164E-02  0.1300439E+00
        -11   -1    0    0    0    0  0.00000000000E+00  0.00000000000E+00  0.45593999997E+02  0.45594000000E+02  0.51100000000E-03 0.  1.
         11   -1    0    0    0    0 -0.00000000000E+00 -0.00000000000E+00 -0.45593999997E+02  0.45594000000E+02  0.51100000000E-03 0. -1.
    9900012    2    1    2    0    0  0.80804542730E+01  0.39818721166E+02 -0.15299861896E+01  0.50528866287E+02  0.30000019565E+02 0.  0.
         12    1    1    2    0    0 -0.80804542730E+01 -0.39818721166E+02  0.15299861896E+01  0.40659133713E+02  0.00000000000E+00 0. -1.
         11    1    3    3    0    0 -0.74431326629E+01  0.15738400228E+02 -0.72787212219E+01  0.18870009233E+02  0.51100000000E-03 0. -1.
        -11    1    3    3    0    0  0.46184394544E+01  0.10205402245E+02  0.81441960994E+01  0.13849481880E+02  0.51100000000E-03 0.  1.
         12    1    3    3    0    0  0.10905147481E+02  0.13874918693E+02 -0.23954610671E+01  0.17809375173E+02  0.00000000000E+00 0. -1.
</event>
<event>
 7    1  0.3004200E-011  0.5052887E+02  0.7816164E-02  0.1300439E+00
        -11   -1    0    0    0    0  0.00000000000E+00  0.00000000000E+00  0.45593999997E+02  0.45594000000E+02  0.51100000000E-03 0.  1.
         11   -1    0    0    0    0 -0.00000000000E+00 -0.00000000000E+00 -0.45593999997E+02  0.45594000000E+02  0.51100000000E-03 0. -1.
    9900012    2    1    2    0    0 -0.22157265575E+02 -0.33544459066E+02  0.60818907383E+01  0.50528873758E+02  0.30000042275E+02 0.  0.
         12    1    1    2    0    0  0.22157265575E+02  0.33544459066E+02 -0.60818907383E+01  0.40659126242E+02  0.00000000000E+00 0. -1.
         11    1    3    3    0    0  0.27308720803E+00 -0.99201803680E+01  0.17100578095E+01  0.10070196281E+02  0.51100000000E-03 0. -1.
        -11    1    3    3    0    0 -0.26166828977E+02 -0.19622523907E+02 -0.10900663684E+01  0.32725137557E+02  0.51100000000E-03 0.  1.
        -12    1    3    3    0    0  0.37364761945E+01 -0.40017547916E+01  0.54618992971E+01  0.77335399201E+01  0.00000000000E+00 0.  1.
</event>
<event>
 7    1  0.3004200E-011  0.5052888E+02  0.7816164E-02  0.1300439E+00
        -11   -1    0    0    0    0  0.00000000000E+00  0.00000000000E+00  0.45593999997E+02  0.45594000000E+02  0.51100000000E-03 0. -1.
         11   -1    0    0    0    0 -0.00000000000E+00 -0.00000000000E+00 -0.45593999997E+02  0.45594000000E+02  0.51100000000E-03 0.  1.
    9900012    2    1    2    0    0 -0.22192108865E+02  0.20337851364E+02 -0.27332150813E+02  0.50528876029E+02  0.30000049178E+02 0.  0.
         12    1    1    2    0    0  0.22192108865E+02 -0.20337851364E+02  0.27332150813E+02  0.40659123971E+02  0.00000000000E+00 0. -1.
         11    1    3    3    0    0 -0.26017167433E+02  0.88931626759E+01 -0.15789860497E+02  0.31706482593E+02  0.51100000000E-03 0. -1.
        -11    1    3    3    0    0  0.62766107232E+00 -0.11047638756E+01 -0.31340990781E+01  0.33818691481E+01  0.51100000000E-03 0.  1.
         12    1    3    3    0    0  0.31973974954E+01  0.12549452564E+02 -0.84081912382E+01  0.15440524288E+02  0.00000000000E+00 0. -1.
</event>
<event>
 7    1  0.3004200E-011  0.5052886E+02  0.7816164E-02  0.1300439E+00
        -11   -1    0    0    0    0  0.00000000000E+00  0.00000000000E+00  0.45593999997E+02  0.45594000000E+02  0.51100000000E-03 0.  1.
         11   -1    0    0    0    0 -0.00000000000E+00 -0.00000000000E+00 -0.45593999997E+02  0.45594000000E+02  0.51100000000E-03 0. -1.
    9900012    2    1    2    0    0  0.26075663051E+01  0.38028720315E+02  0.14148579850E+02  0.50528864709E+02  0.30000014770E+02 0.  0.
         12    1    1    2    0    0 -0.26075663051E+01 -0.38028720315E+02 -0.14148579850E+02  0.40659135291E+02  0.00000000000E+00 0. -1.
         11    1    3    3    0    0  0.16152035926E+01 -0.96759582872E+00  0.20699932416E+01  0.27982131110E+01  0.51100000000E-03 0. -1.
        -11    1    3    3    0    0  0.13174797318E+01  0.42504061263E+02  0.12083239962E+02  0.44207868813E+02  0.51100000000E-03 0.  1.
        -12    1    3    3    0    0 -0.32511701932E+00 -0.35077451198E+01 -0.46533533194E-02  0.35227827857E+01  0.00000000000E+00 0.  1.
</event>
<event>
 7    1  0.3004200E-011  0.5052887E+02  0.7816164E-02  0.1300439E+00
        -11   -1    0    0    0    0  0.00000000000E+00  0.00000000000E+00  0.45593999997E+02  0.45594000000E+02  0.51100000000E-03 0.  1.
         11   -1    0    0    0    0 -0.00000000000E+00 -0.00000000000E+00 -0.45593999997E+02  0.45594000000E+02  0.51100000000E-03 0. -1.
    9900012    2    1    2    0    0  0.15177260219E+02  0.24551849948E+02  0.28636032284E+02  0.50528869308E+02  0.30000028749E+02 0.  0.
         12    1    1    2    0    0 -0.15177260219E+02 -0.24551849948E+02 -0.28636032284E+02  0.40659130692E+02  0.00000000000E+00 0. -1.
         11    1    3    3    0    0 -0.21359601714E+01 -0.11566150946E+01  0.21072745627E+01  0.32156944312E+01  0.51100000000E-03 0. -1.
        -11    1    3    3    0    0  0.16370480777E+02  0.27784898298E+02  0.15010193611E+02  0.35571043375E+02  0.51100000000E-03 0.  1.
        -12    1    3    3    0    0  0.94273961412E+00 -0.20764332551E+01  0.11518564110E+02  0.11742131502E+02  0.00000000000E+00 0.  1.
</event>
<event>
 7    1  0.3004200E-011  0.5052883E+02  0.7816164E-02  0.1300439E+00
        -11   -1    0    0    0    0  0.00000000000E+00  0.00000000000E+00  0.45593999997E+02  0.45594000000E+02  0.51100000000E-03 0. -1.
         11   -1    0    0    0    0 -0.00000000000E+00 -0.00000000000E+00 -0.45593999997E+02  0.45594000000E+02  0.51100000000E-03 0.  1.
    9900012    2    1    2    0    0  0.31197352427E+02  0.21784984943E+02 -0.14328562589E+02  0.50528830391E+02  0.29999910458E+02 0.  0.
         12    1    1    2    0    0 -0.31197352427E+02 -0.21784984943E+02  0.14328562589E+02  0.40659169609E+02  0.00000000000E+00 0. -1.
         11    1    3    3    0    0  0.13147225970E+02  0.18410007980E+02  0.17093668202E+01  0.22686998032E+02  0.51100000000E-03 0. -1.
        -11    1    3    3    0    0  0.14608529425E+02  0.49771527516E+01 -0.17882405042E+02  0.23621210634E+02  0.51100000000E-03 0.  1.
         12    1    3    3    0    0  0.34415970320E+01 -0.16021757886E+01  0.18444756329E+01  0.42206217253E+01  0.00000000000E+00 0. -1.
</event>
<event>
 7    1  0.3004200E-011  0.5052886E+02  0.7816164E-02  0.1300439E+00
        -11   -1    0    0    0    0  0.00000000000E+00  0.00000000000E+00  0.45593999997E+02  0.45594000000E+02  0.51100000000E-03 0.  1.
         11   -1    0    0    0    0 -0.00000000000E+00 -0.00000000000E+00 -0.45593999997E+02  0.45594000000E+02  0.51100000000E-03 0. -1.
    9900012    2    1    2    0    0  0.35931615565E+02  0.18709373155E+02  0.34704778685E+01  0.50528857638E+02  0.29999993276E+02 0.  0.
         12    1    1    2    0    0 -0.35931615565E+02 -0.18709373155E+02 -0.34704778685E+01  0.40659142362E+02  0.00000000000E+00 0. -1.
         11    1    3    3    0    0 -0.16627433807E+01  0.80101410780E+01 -0.52991339100E+01  0.97471993976E+01  0.51100000000E-03 0. -1.
        -11    1    3    3    0    0  0.91867862599E+01 -0.50575386445E+00  0.31936814985E+01  0.97392212487E+01  0.51100000000E-03 0.  1.
         12    1    3    3    0    0  0.28407572686E+02  0.11204985942E+02  0.55759302800E+01  0.31042436991E+02  0.00000000000E+00 0. -1.
</event>
<event>
 7    1  0.3004200E-011  0.5052888E+02  0.7816164E-02  0.1300439E+00
        -11   -1    0    0    0    0  0.00000000000E+00  0.00000000000E+00  0.45593999997E+02  0.45594000000E+02  0.51100000000E-03 0. -1.
         11   -1    0    0    0    0 -0.00000000000E+00 -0.00000000000E+00 -0.45593999997E+02  0.45594000000E+02  0.51100000000E-03 0.  1.
    9900012    2    1    2    0    0  0.59926598386E+01  0.33381006622E+02  0.22426772745E+02  0.50528884039E+02  0.30000073524E+02 0.  0.
         12    1    1    2    0    0 -0.59926598386E+01 -0.33381006622E+02 -0.22426772745E+02  0.40659115961E+02  0.00000000000E+00 0. -1.
         11    1    3    3    0    0  0.63856100739E+01  0.14962052993E+02  0.26008255818E+02  0.30676838441E+02  0.51100000000E-03 0. -1.
        -11    1    3    3    0    0 -0.13970509644E+01  0.16174439380E+02 -0.96772080457E+00  0.16263478240E+02  0.51100000000E-03 0.  1.
        -12    1    3    3    0    0  0.10041007291E+01  0.22445142487E+01 -0.26137622682E+01  0.35885673578E+01  0.00000000000E+00 0.  1.
</event>
<event>
 7    1  0.3004200E-011  0.5052886E+02  0.7816164E-02  0.1300439E+00
        -11   -1    0    0    0    0  0.00000000000E+00  0.00000000000E+00  0.45593999997E+02  0.45594000000E+02  0.51100000000E-03 0.  1.
         11   -1    0    0    0    0 -0.00000000000E+00 -0.00000000000E+00 -0.45593999997E+02  0.45594000000E+02  0.51100000000E-03 0. -1.
    9900012    2    1    2    0    0  0.29850110219E+02 -0.18695918181E+02  0.20312540319E+02  0.50528859196E+02  0.29999998012E+02 0.  0.
         12    1    1    2    0    0 -0.29850110219E+02  0.18695918181E+02 -0.20312540319E+02  0.40659140804E+02  0.00000000000E+00 0. -1.
         11    1    3    3    0    0 -0.46358411075E+01 -0.85356616980E+01  0.35863446944E+01  0.10354246082E+02  0.51100000000E-03 0. -1.
        -11    1    3    3    0    0  0.10778649806E+02 -0.41380970971E+01  0.86114295723E+01  0.14403466901E+02  0.51100000000E-03 0.  1.
         12    1    3    3    0    0  0.23707301520E+02 -0.60221593858E+01  0.81147660528E+01  0.25771146213E+02  0.00000000000E+00 0. -1.
</event>
<event>
 7    1  0.3004200E-011  0.5052886E+02  0.7816164E-02  0.1300439E+00
        -11   -1    0    0    0    0  0.00000000000E+00  0.00000000000E+00  0.45593999997E+02  0.45594000000E+02  0.51100000000E-03 0.  1.
         11   -1    0    0    0    0 -0.00000000000E+00 -0.00000000000E+00 -0.45593999997E+02  0.45594000000E+02  0.51100000000E-03 0. -1.
    9900012    2    1    2    0    0  0.46928972886E+01 -0.15142171139E+02  0.37441386197E+02  0.50528855492E+02  0.29999986753E+02 0.  0.
         12    1    1    2    0    0 -0.46928972886E+01  0.15142171139E+02 -0.37441386197E+02  0.40659144508E+02  0.00000000000E+00 0. -1.
         11    1    3    3    0    0 -0.75365886802E+01 -0.72883409737E+01  0.78213269024E+01  0.13080261383E+02  0.51100000000E-03 0. -1.
        -11    1    3    3    0    0  0.48454457921E+01  0.33314383062E+01  0.20272596472E+02  0.21108173633E+02  0.51100000000E-03 0.  1.
        -12    1    3    3    0    0  0.73840401768E+01 -0.11185268471E+02  0.93474628225E+01  0.16340420476E+02  0.00000000000E+00 0.  1.
</event>
<event>
 7    1  0.3004200E-011  0.5052886E+02  0.7816164E-02  0.1300439E+00
        -11   -1    0    0    0    0  0.00000000000E+00  0.00000000000E+00  0.45593999997E+02  0.45594000000E+02  0.51100000000E-03 0.  1.
         11   -1    0    0    0    0 -0.00000000000E+00 -0.00000000000E+00 -0.45593999997E+02  0.45594000000E+02  0.51100000000E-03 0. -1.
    9900012    2    1    2    0    0  0.19444214359E+02  0.60245333149E+01  0.35196492696E+02  0.50528861153E+02  0.30000003959E+02 0.  0.
         12    1    1    2    0    0 -0.19444214359E+02 -0.60245333149E+01 -0.35196492696E+02  0.40659138847E+02  0.00000000000E+00 0. -1.
         11    1    3    3    0    0  0.12140107328E+02 -0.14706675285E+00  0.10893033205E+02  0.16311407273E+02  0.51100000000E-03 0. -1.
        -11    1    3    3    0    0  0.19835084137E+01  0.90782989922E+01  0.26252882827E+02  0.27848943879E+02  0.51100000000E-03 0.  1.
        -12    1    3    3    0    0  0.53205986174E+01 -0.29066989245E+01 -0.19494233353E+01  0.63685100004E+01  0.00000000000E+00 0.  1.
</event>
<event>
 7    1  0.3004200E-011  0.5052886E+02  0.7816164E-02  0.1300439E+00
        -11   -1    0    0    0    0  0.00000000000E+00  0.00000000000E+00  0.45593999997E+02  0.45594000000E+02  0.51100000000E-03 0.  1.
         11   -1    0    0    0    0 -0.00000000000E+00 -0.00000000000E+00 -0.45593999997E+02  0.45594000000E+02  0.51100000000E-03 0. -1.
    9900012    2    1    2    0    0  0.76137294941E+01  0.28962042832E+02  0.27502668021E+02  0.50528861419E+02  0.30000004770E+02 0.  0.
         12    1    1    2    0    0 -0.76137294941E+01 -0.28962042832E+02 -0.27502668021E+02  0.40659138581E+02  0.00000000000E+00 0. -1.
         11    1    3    3    0    0 -0.24587073055E+01  0.27439498140E+01 -0.40028744353E+00  0.37060400017E+01  0.51100000000E-03 0. -1.
        -11    1    3    3    0    0  0.23351055668E+01  0.27447993176E+02  0.27581369753E+02  0.38981752207E+02  0.51100000000E-03 0.  1.
        -12    1    3    3    0    0  0.77373312328E+01 -0.12299001576E+01  0.32158571192E+00  0.78410692111E+01  0.00000000000E+00 0.  1.
</event>
<event>
 7    1  0.3004200E-011  0.5052886E+02  0.7816164E-02  0.1300439E+00
        -11   -1    0    0    0    0  0.00000000000E+00  0.00000000000E+00  0.45593999997E+02  0.45594000000E+02  0.51100000000E-03 0. -1.
         11   -1    0    0    0    0 -0.00000000000E+00 -0.00000000000E+00 -0.45593999997E+02  0.45594000000E+02  0.51100000000E-03 0.  1.
    9900012    2    1    2    0    0  0.18344489143E+02  0.33209801971E+02 -0.14620355932E+02  0.50528855439E+02  0.29999986592E+02 0.  0.
         12    1    1    2    0    0 -0.18344489143E+02 -0.33209801971E+02  0.14620355932E+02  0.40659144561E+02  0.00000000000E+00 0. -1.
         11    1    3    3    0    0  0.92546800190E+01  0.22143451255E+02  0.53373529418E+01  0.24585948678E+02  0.51100000000E-03 0. -1.
        -11    1    3    3    0    0  0.91019246268E+01  0.11754787540E+02 -0.15669781159E+02  0.21600048701E+02  0.51100000000E-03 0.  1.
         12    1    3    3    0    0 -0.12115502423E-01 -0.68843682434E+00 -0.42879277142E+01  0.43428580600E+01  0.00000000000E+00 0. -1.
</event>
<event>
 7    1  0.3004200E-011  0.5052887E+02  0.7816164E-02  0.1300439E+00
        -11   -1    0    0    0    0  0.00000000000E+00  0.00000000000E+00  0.45593999997E+02  0.45594000000E+02  0.51100000000E-03 0.  1.
         11   -1    0    0    0    0 -0.00000000000E+00 -0.00000000000E+00 -0.45593999997E+02  0.45594000000E+02  0.51100000000E-03 0. -1.
    9900012    2    1    2    0    0 -0.23394156946E+02 -0.29813146328E+02 -0.14732762373E+02  0.50528873591E+02  0.30000041767E+02 0.  0.
         12    1    1    2    0    0  0.23394156946E+02  0.29813146328E+02  0.14732762373E+02  0.40659126409E+02  0.00000000000E+00 0. -1.
         11    1    3    3    0    0 -0.32581215699E+01 -0.49371264496E+00 -0.16511370977E+01  0.36858326490E+01  0.51100000000E-03 0. -1.
        -11    1    3    3    0    0 -0.61806104675E+01 -0.11167259527E+02 -0.19280259795E+02  0.23122198190E+02  0.51100000000E-03 0.  1.
        -12    1    3    3    0    0 -0.13955424908E+02 -0.18152174156E+02  0.61986345196E+01  0.23720842752E+02  0.00000000000E+00 0.  1.
</event>
<event>
 7    1  0.3004200E-011  0.5052885E+02  0.7816164E-02  0.1300439E+00
        -11   -1    0    0    0    0  0.00000000000E+00  0.00000000000E+00  0.45593999997E+02  0.45594000000E+02  0.51100000000E-03 0.  1.
         11   -1    0    0    0    0 -0.00000000000E+00 -0.00000000000E+00 -0.45593999997E+02  0.45594000000E+02  0.51100000000E-03 0. -1.
    9900012    2    1    2    0    0 -0.33356524670E+02 -0.15691499115E+02  0.17154758819E+02  0.50528848107E+02  0.29999964304E+02 0.  0.
         12    1    1    2    0    0  0.33356524670E+02  0.15691499115E+02 -0.17154758819E+02  0.40659151893E+02  0.00000000000E+00 0. -1.
         11    1    3    3    0    0 -0.20197031992E+02 -0.46537048997E+01 -0.51309377205E+01  0.21351899043E+02  0.51100000000E-03 0. -1.
        -11    1    3    3    0    0 -0.22091569816E+01 -0.10763696054E+01  0.88522565709E+01  0.91870230627E+01  0.51100000000E-03 0.  1.
         12    1    3    3    0    0 -0.10950335696E+02 -0.99614246098E+01  0.13433439969E+02  0.19989926001E+02  0.00000000000E+00 0. -1.
</event>
<event>
 7    1  0.3004200E-011  0.5052887E+02  0.7816164E-02  0.1300439E+00
        -11   -1    0    0    0    0  0.00000000000E+00  0.00000000000E+00  0.45593999997E+02  0.45594000000E+02  0.51100000000E-03 0.  1.
         11   -1    0    0    0    0 -0.00000000000E+00 -0.00000000000E+00 -0.45593999997E+02  0.45594000000E+02  0.51100000000E-03 0. -1.
    9900012    2    1    2    0    0 -0.12122219878E+01  0.22589312505E+02  0.33784887098E+02  0.50528866736E+02  0.30000020930E+02 0.  0.
         12    1    1    2    0    0  0.12122219878E+01 -0.22589312505E+02 -0.33784887098E+02  0.40659133264E+02  0.00000000000E+00 0. -1.
         11    1    3    3    0    0  0.95908100368E+01  0.14439920213E+02  0.98674533864E+01  0.19946467595E+02  0.51100000000E-03 0. -1.
        -11    1    3    3    0    0 -0.41962545999E+01 -0.36262799324E+01  0.74273706189E+01  0.92695357698E+01  0.51100000000E-03 0.  1.
        -12    1    3    3    0    0 -0.66067774247E+01  0.11775672224E+02  0.16490063093E+02  0.21312863371E+02  0.00000000000E+00 0.  1.
</event>
<event>
 7    1  0.3004200E-011  0.5052885E+02  0.7816164E-02  0.1300439E+00
        -11   -1    0    0    0    0  0.00000000000E+00  0.00000000000E+00  0.45593999997E+02  0.45594000000E+02  0.51100000000E-03 0.  1.
         11   -1    0    0    0    0 -0.00000000000E+00 -0.00000000000E+00 -0.45593999997E+02  0.45594000000E+02  0.51100000000E-03 0. -1.
    9900012    2    1    2    0    0 -0.20408059619E+02 -0.18972177114E+02  0.29609692354E+02  0.50528852405E+02  0.29999977370E+02 0.  0.
         12    1    1    2    0    0  0.20408059619E+02  0.18972177114E+02 -0.29609692354E+02  0.40659147595E+02  0.00000000000E+00 0. -1.
         11    1    3    3    0    0 -0.20607959139E+01 -0.13208925969E+02  0.23705142197E+00  0.13370818924E+02  0.51100000000E-03 0. -1.
        -11    1    3    3    0    0 -0.88072255599E+01 -0.64268612149E+01  0.23576798323E+02  0.25975703774E+02  0.51100000000E-03 0.  1.
        -12    1    3    3    0    0 -0.95400381450E+01  0.66361006936E+00  0.57958426090E+01  0.11182329707E+02  0.00000000000E+00 0.  1.
</event>
<event>
 7    1  0.3004200E-011  0.5052886E+02  0.7816164E-02  0.1300439E+00
        -11   -1    0    0    0    0  0.00000000000E+00  0.00000000000E+00  0.45593999997E+02  0.45594000000E+02  0.51100000000E-03 0.  1.
         11   -1    0    0    0    0 -0.00000000000E+00 -0.00000000000E+00 -0.45593999997E+02  0.45594000000E+02  0.51100000000E-03 0. -1.
    9900012    2    1    2    0    0 -0.89478016727E+00 -0.40538050448E+02 -0.30052640702E+01  0.50528858619E+02  0.29999996258E+02 0.  0.
         12    1    1    2    0    0  0.89478016727E+00  0.40538050448E+02  0.30052640702E+01  0.40659141381E+02  0.00000000000E+00 0. -1.
         11    1    3    3    0    0 -0.10420625670E+02 -0.14325066154E+02  0.46741440785E+01  0.18320605415E+02  0.51100000000E-03 0. -1.
        -11    1    3    3    0    0  0.54532943938E+01 -0.25200658033E+02 -0.30561072832E+01  0.25964425221E+02  0.51100000000E-03 0.  1.
         12    1    3    3    0    0  0.40725511085E+01 -0.10123262618E+01 -0.46233008655E+01  0.62438279833E+01  0.00000000000E+00 0. -1.
</event>
<event>
 7    1  0.3004200E-011  0.5052885E+02  0.7816164E-02  0.1300439E+00
        -11   -1    0    0    0    0  0.00000000000E+00  0.00000000000E+00  0.45593999997E+02  0.45594000000E+02  0.51100000000E-03 0. -1.
         11   -1    0    0    0    0 -0.00000000000E+00 -0.00000000000E+00 -0.45593999997E+02  0.45594000000E+02  0.51100000000E-03 0.  1.
    9900012    2    1    2    0    0 -0.31825240579E+02  0.24068817379E+02  0.78110421753E+01  0.50528852348E+02  0.29999977197E+02 0.  0.
         12    1    1    2    0    0  0.31825240579E+02 -0.24068817379E+02 -0.78110421753E+01  0.40659147652E+02  0.00000000000E+00 0. -1.
         11    1    3    3    0    0  0.29192189257E+01  0.13849885790E+01 -0.34926474272E+01  0.47580057600E+01  0.51100000000E-03 0. -1.
        -11    1    3    3    0    0 -0.30312209642E+02  0.23654486303E+02  0.62072961952E+01  0.38947340114E+02  0.51100000000E-03 0.  1.
         12    1    3    3    0    0 -0.44322498633E+01 -0.97065750343E+00  0.50963934073E+01  0.68235064740E+01  0.00000000000E+00 0. -1.
</event>
<event>
 7    1  0.3004200E-011  0.5052886E+02  0.7816164E-02  0.1300439E+00
        -11   -1    0    0    0    0  0.00000000000E+00  0.00000000000E+00  0.45593999997E+02  0.45594000000E+02  0.51100000000E-03 0.  1.
         11   -1    0    0    0    0 -0.00000000000E+00 -0.00000000000E+00 -0.45593999997E+02  0.45594000000E+02  0.51100000000E-03 0. -1.
    9900012    2    1    2    0    0  0.93834561008E+01 -0.14382809666E+02  0.36854454871E+02  0.50528864420E+02  0.30000013890E+02 0.  0.
         12    1    1    2    0    0 -0.93834561008E+01  0.14382809666E+02 -0.36854454871E+02  0.40659135580E+02  0.00000000000E+00 0. -1.
         11    1    3    3    0    0  0.54184841424E+01 -0.15180562447E+02  0.95176204760E+01  0.18718828660E+02  0.51100000000E-03 0.  1.
        -11    1    3    3    0    0  0.52577354554E+01  0.58642806142E+01  0.24756465766E+02  0.25979148691E+02  0.51100000000E-03 0. -1.
         12    1    3    3    0    0 -0.12927634970E+01 -0.50665278333E+01  0.25803686292E+01  0.58308870686E+01  0.00000000000E+00 0. -1.
</event>
<event>
 7    1  0.3004200E-011  0.5052886E+02  0.7816164E-02  0.1300439E+00
        -11   -1    0    0    0    0  0.00000000000E+00  0.00000000000E+00  0.45593999997E+02  0.45594000000E+02  0.51100000000E-03 0.  1.
         11   -1    0    0    0    0 -0.00000000000E+00 -0.00000000000E+00 -0.45593999997E+02  0.45594000000E+02  0.51100000000E-03 0. -1.
    9900012    2    1    2    0    0 -0.13340511764E+02 -0.54781501044E+01  0.38015602793E+02  0.50528862793E+02  0.30000008945E+02 0.  0.
         12    1    1    2    0    0  0.13340511764E+02  0.54781501044E+01 -0.38015602793E+02  0.40659137207E+02  0.00000000000E+00 0. -1.
         11    1    3    3    0    0 -0.93045104907E+01 -0.12695901753E+02  0.73685520009E+01  0.17379740955E+02  0.51100000000E-03 0. -1.
        -11    1    3    3    0    0  0.30047635572E+01  0.20489599691E+01  0.12347748813E+02  0.12872208125E+02  0.51100000000E-03 0.  1.
         12    1    3    3    0    0 -0.70407648306E+01  0.51687916798E+01  0.18299301979E+02  0.20276913713E+02  0.00000000000E+00 0. -1.
</event>
<event>
 7    1  0.3004200E-011  0.5052887E+02  0.7816164E-02  0.1300439E+00
        -11   -1    0    0    0    0  0.00000000000E+00  0.00000000000E+00  0.45593999997E+02  0.45594000000E+02  0.51100000000E-03 0.  1.
         11   -1    0    0    0    0 -0.00000000000E+00 -0.00000000000E+00 -0.45593999997E+02  0.45594000000E+02  0.51100000000E-03 0. -1.
    9900012    2    1    2    0    0 -0.34848689685E+02  0.17431277480E+02 -0.11613984619E+02  0.50528865158E+02  0.30000016135E+02 0.  0.
         12    1    1    2    0    0  0.34848689685E+02 -0.17431277480E+02  0.11613984619E+02  0.40659134842E+02  0.00000000000E+00 0. -1.
         11    1    3    3    0    0 -0.24913124236E+02  0.11458562461E+02 -0.19331494625E+02  0.33550992498E+02  0.51100000000E-03 0. -1.
        -11    1    3    3    0    0 -0.11817442604E+02  0.43322590333E+01  0.59704676752E+01  0.13930789732E+02  0.51100000000E-03 0.  1.
         12    1    3    3    0    0  0.18818771550E+01  0.16404559858E+01  0.17470423314E+01  0.30470829289E+01  0.00000000000E+00 0. -1.
</event>
<event>
 7    1  0.3004200E-011  0.5052887E+02  0.7816164E-02  0.1300439E+00
        -11   -1    0    0    0    0  0.00000000000E+00  0.00000000000E+00  0.45593999997E+02  0.45594000000E+02  0.51100000000E-03 0.  1.
         11   -1    0    0    0    0 -0.00000000000E+00 -0.00000000000E+00 -0.45593999997E+02  0.45594000000E+02  0.51100000000E-03 0. -1.
    9900012    2    1    2    0    0  0.83676253031E+01 -0.42454194339E+01  0.39561650006E+02  0.50528869530E+02  0.30000029423E+02 0.  0.
         12    1    1    2    0    0 -0.83676253031E+01  0.42454194339E+01 -0.39561650006E+02  0.40659130470E+02  0.00000000000E+00 0. -1.
         11    1    3    3    0    0 -0.13140357410E+01 -0.60946847947E+01  0.17247874085E-01  0.62347550413E+01  0.51100000000E-03 0. -1.
        -11    1    3    3    0    0  0.13227206502E+02 -0.32248005066E+01  0.24553590326E+02  0.28075561051E+02  0.51100000000E-03 0.  1.
        -12    1    3    3    0    0 -0.35455454579E+01  0.50740658674E+01  0.14990811806E+02  0.16218553438E+02  0.00000000000E+00 0.  1.
</event>
<event>
 7    1  0.3004200E-011  0.5052885E+02  0.7816164E-02  0.1300439E+00
        -11   -1    0    0    0    0  0.00000000000E+00  0.00000000000E+00  0.45593999997E+02  0.45594000000E+02  0.51100000000E-03 0.  1.
         11   -1    0    0    0    0 -0.00000000000E+00 -0.00000000000E+00 -0.45593999997E+02  0.45594000000E+02  0.51100000000E-03 0. -1.
    9900012    2    1    2    0    0 -0.36333276261E+02 -0.75880421646E+00  0.18234125725E+02  0.50528854797E+02  0.29999984640E+02 0.  0.
         12    1    1    2    0    0  0.36333276261E+02  0.75880421646E+00 -0.18234125725E+02  0.40659145203E+02  0.00000000000E+00 0. -1.
         11    1    3    3    0    0 -0.86297507398E+01 -0.27560635731E+01 -0.35929382514E+01  0.97456497879E+01  0.51100000000E-03 0. -1.
        -11    1    3    3    0    0 -0.19221513296E+02  0.10440166313E+02  0.17652497643E+02  0.28108260696E+02  0.51100000000E-03 0.  1.
        -12    1    3    3    0    0 -0.84820122252E+01 -0.84429069567E+01  0.41745663332E+01  0.12674944313E+02  0.00000000000E+00 0.  1.
</event>
<event>
 7    1  0.3004200E-011  0.5052885E+02  0.7816164E-02  0.1300439E+00
        -11   -1    0    0    0    0  0.00000000000E+00  0.00000000000E+00  0.45593999997E+02  0.45594000000E+02  0.51100000000E-03 0.  1.
         11   -1    0    0    0    0 -0.00000000000E+00 -0.00000000000E+00 -0.45593999997E+02  0.45594000000E+02  0.51100000000E-03 0. -1.
    9900012    2    1    2    0    0  0.30459952599E+02 -0.25273665020E+02  0.93058941507E+01  0.50528849470E+02  0.29999968449E+02 0.  0.
         12    1    1    2    0    0 -0.30459952599E+02  0.25273665020E+02 -0.93058941507E+01  0.40659150530E+02  0.00000000000E+00 0. -1.
         11    1    3    3    0    0  0.33343418601E-01 -0.77369480515E+01 -0.10874149691E+01  0.78130626845E+01  0.51100000000E-03 0. -1.
        -11    1    3    3    0    0  0.26444879367E+02 -0.58189380960E+01  0.85533944669E+00  0.27091018644E+02  0.51100000000E-03 0.  1.
        -12    1    3    3    0    0  0.39817298132E+01 -0.11717778872E+02  0.95379696731E+01  0.15624768142E+02  0.00000000000E+00 0.  1.
</event>
<event>
 7    1  0.3004200E-011  0.5052886E+02  0.7816164E-02  0.1300439E+00
        -11   -1    0    0    0    0  0.00000000000E+00  0.00000000000E+00  0.45593999997E+02  0.45594000000E+02  0.51100000000E-03 0. -1.
         11   -1    0    0    0    0 -0.00000000000E+00 -0.00000000000E+00 -0.45593999997E+02  0.45594000000E+02  0.51100000000E-03 0.  1.
    9900012    2    1    2    0    0  0.36499613864E+02  0.15513043961E+02 -0.89604321352E+01  0.50528859709E+02  0.29999999572E+02 0.  0.
         12    1    1    2    0    0 -0.36499613864E+02 -0.15513043961E+02  0.89604321352E+01  0.40659140291E+02  0.00000000000E+00 0. -1.
         11    1    3    3    0    0  0.41038998101E+01  0.12948698051E+02 -0.13932041662E+01  0.13654735186E+02  0.51100000000E-03 0. -1.
        -11    1    3    3    0    0  0.15525290255E+02 -0.23663698045E+01  0.35185152141E+01  0.16093921000E+02  0.51100000000E-03 0.  1.
         12    1    3    3    0    0  0.16870423798E+02  0.49307157144E+01 -0.11085743183E+02  0.20780203524E+02  0.00000000000E+00 0. -1.
</event>
<event>
 7    1  0.3004200E-011  0.5052886E+02  0.7816164E-02  0.1300439E+00
        -11   -1    0    0    0    0  0.00000000000E+00  0.00000000000E+00  0.45593999997E+02  0.45594000000E+02  0.51100000000E-03 0.  1.
         11   -1    0    0    0    0 -0.00000000000E+00 -0.00000000000E+00 -0.45593999997E+02  0.45594000000E+02  0.51100000000E-03 0. -1.
    9900012    2    1    2    0    0 -0.22942319886E+02 -0.29114452723E+02  0.16708213126E+02  0.50528858531E+02  0.29999995991E+02 0.  0.
         12    1    1    2    0    0  0.22942319886E+02  0.29114452723E+02 -0.16708213126E+02  0.40659141469E+02  0.00000000000E+00 0. -1.
         11    1    3    3    0    0 -0.20510343592E+02 -0.14379991528E+02  0.10075837582E+02  0.26999645440E+02  0.51100000000E-03 0. -1.
        -11    1    3    3    0    0  0.10457247013E+01  0.17594409256E+01  0.63484953739E+01  0.66702748291E+01  0.51100000000E-03 0.  1.
         12    1    3    3    0    0 -0.34777009949E+01 -0.16493902121E+02  0.28388016973E+00  0.16858938263E+02  0.00000000000E+00 0. -1.
</event>
<event>
 7    1  0.3004200E-011  0.5052886E+02  0.7816164E-02  0.1300439E+00
        -11   -1    0    0    0    0  0.00000000000E+00  0.00000000000E+00  0.45593999997E+02  0.45594000000E+02  0.51100000000E-03 0. -1.
         11   -1    0    0    0    0 -0.00000000000E+00 -0.00000000000E+00 -0.45593999997E+02  0.45594000000E+02  0.51100000000E-03 0.  1.
    9900012    2    1    2    0    0  0.26221575697E+01  0.27546954654E+02 -0.29790184378E+02  0.50528861958E+02  0.30000006408E+02 0.  0.
         12    1    1    2    0    0 -0.26221575697E+01 -0.27546954654E+02  0.29790184378E+02  0.40659138042E+02  0.00000000000E+00 0. -1.
         11    1    3    3    0    0  0.11798209736E+01  0.13171726756E+02 -0.50034694760E+00  0.13233922722E+02  0.51100000000E-03 0. -1.
        -11    1    3    3    0    0  0.50857808367E+00 -0.23045732065E+01 -0.15369147749E+02  0.15549289763E+02  0.51100000000E-03 0.  1.
         12    1    3    3    0    0  0.93375851240E+00  0.16679801104E+02 -0.13920689682E+02  0.21745649474E+02  0.00000000000E+00 0. -1.
</event>
<event>
 7    1  0.3004200E-011  0.5052887E+02  0.7816164E-02  0.1300439E+00
        -11   -1    0    0    0    0  0.00000000000E+00  0.00000000000E+00  0.45593999997E+02  0.45594000000E+02  0.51100000000E-03 0.  1.
         11   -1    0    0    0    0 -0.00000000000E+00 -0.00000000000E+00 -0.45593999997E+02  0.45594000000E+02  0.51100000000E-03 0. -1.
    9900012    2    1    2    0    0 -0.90252522627E+01 -0.39405586342E+02 -0.43485252457E+01  0.50528867137E+02  0.30000022149E+02 0.  0.
         12    1    1    2    0    0  0.90252522627E+01  0.39405586342E+02  0.43485252457E+01  0.40659132863E+02  0.00000000000E+00 0. -1.
         11    1    3    3    0    0 -0.19526334249E+01 -0.68854705415E+01 -0.64593784679E+01  0.96408532985E+01  0.51100000000E-03 0. -1.
        -11    1    3    3    0    0 -0.11348578950E+02 -0.29699287692E+02  0.82948373008E+01  0.32857910154E+02  0.51100000000E-03 0.  1.
        -12    1    3    3    0    0  0.42759601120E+01 -0.28208281087E+01 -0.61839840786E+01  0.80301036844E+01  0.00000000000E+00 0.  1.
</event>
<event>
 7    1  0.3004200E-011  0.5052886E+02  0.7816164E-02  0.1300439E+00
        -11   -1    0    0    0    0  0.00000000000E+00  0.00000000000E+00  0.45593999997E+02  0.45594000000E+02  0.51100000000E-03 0. -1.
         11   -1    0    0    0    0 -0.00000000000E+00 -0.00000000000E+00 -0.45593999997E+02  0.45594000000E+02  0.51100000000E-03 0.  1.
    9900012    2    1    2    0    0  0.31732842277E+02  0.81789105139E+01 -0.24068612570E+02  0.50528856290E+02  0.29999989179E+02 0.  0.
         12    1    1    2    0    0 -0.31732842277E+02 -0.81789105139E+01  0.24068612570E+02  0.40659143710E+02  0.00000000000E+00 0. -1.
         11    1    3    3    0    0 -0.90689394146E+00  0.43283469468E+01  0.48134284829E+01  0.65365233828E+01  0.51100000000E-03 0. -1.
        -11    1    3    3    0    0  0.81876374106E+01  0.11039496746E+01 -0.10031695850E+02  0.12995808291E+02  0.51100000000E-03 0.  1.
         12    1    3    3    0    0  0.24452098808E+02  0.27466138925E+01 -0.18850345203E+02  0.30996524616E+02  0.00000000000E+00 0. -1.
</event>
<event>
 7    1  0.3004200E-011  0.5052886E+02  0.7816164E-02  0.1300439E+00
        -11   -1    0    0    0    0  0.00000000000E+00  0.00000000000E+00  0.45593999997E+02  0.45594000000E+02  0.51100000000E-03 0.  1.
         11   -1    0    0    0    0 -0.00000000000E+00 -0.00000000000E+00 -0.45593999997E+02  0.45594000000E+02  0.51100000000E-03 0. -1.
    9900012    2    1    2    0    0  0.15956922784E+01  0.27145104651E+02  0.30228513427E+02  0.50528856325E+02  0.29999989285E+02 0.  0.
         12    1    1    2    0    0 -0.15956922784E+01 -0.27145104651E+02 -0.30228513427E+02  0.40659143675E+02  0.00000000000E+00 0. -1.
         11    1    3    3    0    0 -0.35669063946E+01  0.24216694259E+02  0.19282813891E+02  0.31160841033E+02  0.51100000000E-03 0. -1.
        -11    1    3    3    0    0  0.89596664611E+01  0.46335883926E+01  0.11351868561E+02  0.15185871215E+02  0.51100000000E-03 0.  1.
         12    1    3    3    0    0 -0.37970677882E+01 -0.17051780002E+01 -0.40616902511E+00  0.41821440766E+01  0.00000000000E+00 0. -1.
</event>
<event>
 7    1  0.3004200E-011  0.5052886E+02  0.7816164E-02  0.1300439E+00
        -11   -1    0    0    0    0  0.00000000000E+00  0.00000000000E+00  0.45593999997E+02  0.45594000000E+02  0.51100000000E-03 0.  1.
         11   -1    0    0    0    0 -0.00000000000E+00 -0.00000000000E+00 -0.45593999997E+02  0.45594000000E+02  0.51100000000E-03 0. -1.
    9900012    2    1    2    0    0 -0.24337811925E+02 -0.30899547515E+02 -0.10298279417E+02  0.50528859762E+02  0.29999999732E+02 0.  0.
         12    1    1    2    0    0  0.24337811925E+02  0.30899547515E+02  0.10298279417E+02  0.40659140238E+02  0.00000000000E+00 0. -1.
         11    1    3    3    0    0 -0.18270714599E+02 -0.96565672402E+01 -0.27156271897E+01  0.20843294704E+02  0.51100000000E-03 0. -1.
        -11    1    3    3    0    0  0.52264762182E+01 -0.99293255384E+01  0.14664960109E+01  0.11316278987E+02  0.51100000000E-03 0.  1.
         12    1    3    3    0    0 -0.11293573545E+02 -0.11313654737E+02 -0.90491482378E+01  0.18369286071E+02  0.00000000000E+00 0. -1.
</event>
<event>
 7    1  0.3004200E-011  0.5052883E+02  0.7816164E-02  0.1300439E+00
        -11   -1    0    0    0    0  0.00000000000E+00  0.00000000000E+00  0.45593999997E+02  0.45594000000E+02  0.51100000000E-03 0.  1.
         11   -1    0    0    0    0 -0.00000000000E+00 -0.00000000000E+00 -0.45593999997E+02  0.45594000000E+02  0.51100000000E-03 0. -1.
    9900012    2    1    2    0    0 -0.26282889935E+02 -0.30424453520E+02  0.60605885504E+01  0.50528826264E+02  0.29999897911E+02 0.  0.
         12    1    1    2    0    0  0.26282889935E+02  0.30424453520E+02 -0.60605885504E+01  0.40659173736E+02  0.00000000000E+00 0. -1.
         11    1    3    3    0    0  0.33805004277E+00  0.25638019952E+00  0.50432957142E+01  0.50611106054E+01  0.51100000000E-03 0. -1.
        -11    1    3    3    0    0 -0.18338007615E+02 -0.93180005687E+01 -0.61349229141E+01  0.21464970005E+02  0.51100000000E-03 0.  1.
        -12    1    3    3    0    0 -0.82829323626E+01 -0.21362833151E+02  0.71522157503E+01  0.24002745653E+02  0.00000000000E+00 0.  1.
</event>
<event>
 7    1  0.3004200E-011  0.5052882E+02  0.7816164E-02  0.1300439E+00
        -11   -1    0    0    0    0  0.00000000000E+00  0.00000000000E+00  0.45593999997E+02  0.45594000000E+02  0.51100000000E-03 0.  1.
         11   -1    0    0    0    0 -0.00000000000E+00 -0.00000000000E+00 -0.45593999997E+02  0.45594000000E+02  0.51100000000E-03 0. -1.
    9900012    2    1    2    0    0 -0.37030180337E+02  0.15470668196E+02  0.65263411098E+01  0.50528819506E+02  0.29999877370E+02 0.  0.
         12    1    1    2    0    0  0.37030180337E+02 -0.15470668196E+02 -0.65263411098E+01  0.40659180494E+02  0.00000000000E+00 0. -1.
         11    1    3    3    0    0 -0.14854859379E+02 -0.33730070931E+01  0.35317346682E+01  0.15637044927E+02  0.51100000000E-03 0. -1.
        -11    1    3    3    0    0 -0.13233935681E+02  0.21560441366E+02  0.34688859339E+01  0.25534738209E+02  0.51100000000E-03 0.  1.
        -12    1    3    3    0    0 -0.89413852768E+01 -0.27167660777E+01 -0.47427949234E+00  0.93570363698E+01  0.00000000000E+00 0.  1.
</event>
<event>
 7    1  0.3004200E-011  0.5052886E+02  0.7816164E-02  0.1300439E+00
        -11   -1    0    0    0    0  0.00000000000E+00  0.00000000000E+00  0.45593999997E+02  0.45594000000E+02  0.51100000000E-03 0.  1.
         11   -1    0    0    0    0 -0.00000000000E+00 -0.00000000000E+00 -0.45593999997E+02  0.45594000000E+02  0.51100000000E-03 0. -1.
    9900012    2    1    2    0    0 -0.99956412966E+01 -0.56113387590E+01  0.39009820205E+02  0.50528855395E+02  0.29999986459E+02 0.  0.
         12    1    1    2    0    0  0.99956412966E+01  0.56113387590E+01 -0.39009820205E+02  0.40659144605E+02  0.00000000000E+00 0. -1.
         11    1    3    3    0    0 -0.71291926609E+01  0.76237573154E+01  0.30554039998E+01  0.10875778476E+02  0.51100000000E-03 0. -1.
        -11    1    3    3    0    0 -0.47140072253E+01 -0.78868121838E+01  0.12427646638E+02  0.15455422083E+02  0.51100000000E-03 0.  1.
        -12    1    3    3    0    0  0.18475585896E+01 -0.53482838906E+01  0.23526769567E+02  0.24197654836E+02  0.00000000000E+00 0.  1.
</event>
<event>
 7    1  0.3004200E-011  0.5052886E+02  0.7816164E-02  0.1300439E+00
        -11   -1    0    0    0    0  0.00000000000E+00  0.00000000000E+00  0.45593999997E+02  0.45594000000E+02  0.51100000000E-03 0.  1.
         11   -1    0    0    0    0 -0.00000000000E+00 -0.00000000000E+00 -0.45593999997E+02  0.45594000000E+02  0.51100000000E-03 0. -1.
    9900012    2    1    2    0    0 -0.11204000170E+02 -0.39071763274E+02  0.10164268778E+01  0.50528862912E+02  0.30000009307E+02 0.  0.
         12    1    1    2    0    0  0.11204000170E+02  0.39071763274E+02 -0.10164268778E+01  0.40659137088E+02  0.00000000000E+00 0. -1.
         11    1    3    3    0    0 -0.28876761130E+01 -0.28432837029E+02  0.13440443382E+02  0.31581805101E+02  0.51100000000E-03 0. -1.
        -11    1    3    3    0    0 -0.44800382579E+01 -0.38466023688E+01 -0.81128320222E+01  0.10034198337E+02  0.51100000000E-03 0.  1.
         12    1    3    3    0    0 -0.38362857994E+01 -0.67923238763E+01 -0.43111844821E+01  0.89128594746E+01  0.00000000000E+00 0. -1.
</event>
<event>
 7    1  0.3004200E-011  0.5052886E+02  0.7816164E-02  0.1300439E+00
        -11   -1    0    0    0    0  0.00000000000E+00  0.00000000000E+00  0.45593999997E+02  0.45594000000E+02  0.51100000000E-03 0. -1.
         11   -1    0    0    0    0 -0.00000000000E+00 -0.00000000000E+00 -0.45593999997E+02  0.45594000000E+02  0.51100000000E-03 0.  1.
    9900012    2    1    2    0    0  0.31834956244E+02  0.25223311220E+02 -0.18671050836E+01  0.50528856510E+02  0.29999989846E+02 0.  0.
         12    1    1    2    0    0 -0.31834956244E+02 -0.25223311220E+02  0.18671050836E+01  0.40659143490E+02  0.00000000000E+00 0. -1.
         11    1    3    3    0    0  0.31203960360E+01  0.18573918105E+02  0.55661279328E+01  0.19639477732E+02  0.51100000000E-03 0. -1.
        -11    1    3    3    0    0  0.17669579478E+02  0.55149123243E+01 -0.69623240119E+01  0.19776305337E+02  0.51100000000E-03 0.  1.
        -12    1    3    3    0    0  0.11044980730E+02  0.11344807915E+01 -0.47090900459E+00  0.11113073440E+02  0.00000000000E+00 0.  1.
</event>
<event>
 7    1  0.3004200E-011  0.5052886E+02  0.7816164E-02  0.1300439E+00
        -11   -1    0    0    0    0  0.00000000000E+00  0.00000000000E+00  0.45593999997E+02  0.45594000000E+02  0.51100000000E-03 0.  1.
         11   -1    0    0    0    0 -0.00000000000E+00 -0.00000000000E+00 -0.45593999997E+02  0.45594000000E+02  0.51100000000E-03 0. -1.
    9900012    2    1    2    0    0 -0.32017119220E+02 -0.96196012099E+01  0.23141590821E+02  0.50528857408E+02  0.29999992578E+02 0.  0.
         12    1    1    2    0    0  0.32017119220E+02  0.96196012099E+01 -0.23141590821E+02  0.40659142592E+02  0.00000000000E+00 0. -1.
         11    1    3    3    0    0 -0.14872072996E+02 -0.16664726880E+02  0.47274313348E+01  0.22830687341E+02  0.51100000000E-03 0. -1.
        -11    1    3    3    0    0 -0.16471299489E+02  0.67586120079E+01  0.12536055491E+02  0.21774646511E+02  0.51100000000E-03 0.  1.
         12    1    3    3    0    0 -0.67374673447E+00  0.28651366221E+00  0.58781039948E+01  0.59235235557E+01  0.00000000000E+00 0. -1.
</event>
<event>
 7    1  0.3004200E-011  0.5052886E+02  0.7816164E-02  0.1300439E+00
        -11   -1    0    0    0    0  0.00000000000E+00  0.00000000000E+00  0.45593999997E+02  0.45594000000E+02  0.51100000000E-03 0.  1.
         11   -1    0    0    0    0 -0.00000000000E+00 -0.00000000000E+00 -0.45593999997E+02  0.45594000000E+02  0.51100000000E-03 0. -1.
    9900012    2    1    2    0    0 -0.31855736373E+02 -0.89100973997E+01  0.23642928462E+02  0.50528857833E+02  0.29999993868E+02 0.  0.
         12    1    1    2    0    0  0.31855736373E+02  0.89100973997E+01 -0.23642928462E+02  0.40659142167E+02  0.00000000000E+00 0. -1.
         11    1    3    3    0    0 -0.18416759550E+02 -0.51259675199E+01  0.23104348913E+02  0.29987722726E+02  0.51100000000E-03 0.  1.
        -11    1    3    3    0    0 -0.56683106961E+01 -0.76194407938E+01 -0.45089325163E+01  0.10512663642E+02  0.51100000000E-03 0. -1.
        -12    1    3    3    0    0 -0.77706661266E+01  0.38353109140E+01  0.50475120655E+01  0.10028471464E+02  0.00000000000E+00 0.  1.
</event>
<event>
 7    1  0.3004200E-011  0.5052885E+02  0.7816164E-02  0.1300439E+00
        -11   -1    0    0    0    0  0.00000000000E+00  0.00000000000E+00  0.45593999997E+02  0.45594000000E+02  0.51100000000E-03 0.  1.
         11   -1    0    0    0    0 -0.00000000000E+00 -0.00000000000E+00 -0.45593999997E+02  0.45594000000E+02  0.51100000000E-03 0. -1.
    9900012    2    1    2    0    0 -0.35089988442E+02  0.14633834850E+02  0.14412146013E+02  0.50528851411E+02  0.29999974349E+02 0.  0.
         12    1    1    2    0    0  0.35089988442E+02 -0.14633834850E+02 -0.14412146013E+02  0.40659148589E+02  0.00000000000E+00 0. -1.
         11    1    3    3    0    0 -0.22638543820E+02 -0.88368768082E+00  0.18334133376E+02  0.29144896931E+02  0.51100000000E-03 0.  1.
        -11    1    3    3    0    0 -0.13200024045E+02  0.14534598834E+02 -0.30448233116E+01  0.19868722841E+02  0.51100000000E-03 0. -1.
         12    1    3    3    0    0  0.74857942342E+00  0.98292369683E+00 -0.87716405182E+00  0.15152316393E+01  0.00000000000E+00 0. -1.
</event>
<event>
 7    1  0.3004200E-011  0.5052886E+02  0.7816164E-02  0.1300439E+00
        -11   -1    0    0    0    0  0.00000000000E+00  0.00000000000E+00  0.45593999997E+02  0.45594000000E+02  0.51100000000E-03 0. -1.
         11   -1    0    0    0    0 -0.00000000000E+00 -0.00000000000E+00 -0.45593999997E+02  0.45594000000E+02  0.51100000000E-03 0.  1.
    9900012    2    1    2    0    0  0.40263161698E+02  0.56499028018E+01 -0.34903948319E+00  0.50528863017E+02  0.30000009627E+02 0.  0.
         12    1    1    2    0    0 -0.40263161698E+02 -0.56499028018E+01  0.34903948319E+00  0.40659136983E+02  0.00000000000E+00 0. -1.
         11    1    3    3    0    0  0.24549758203E+02 -0.67699179910E+01 -0.53263354289E+01  0.26017153318E+02  0.51100000000E-03 0. -1.
        -11    1    3    3    0    0  0.14502601723E+02  0.10879965531E+02  0.88477448897E+01  0.20173787364E+02  0.51100000000E-03 0.  1.
         12    1    3    3    0    0  0.12108017721E+01  0.15398552616E+01 -0.38704489440E+01  0.43379223352E+01  0.00000000000E+00 0. -1.
</event>
<event>
 7    1  0.3004200E-011  0.5052890E+02  0.7816164E-02  0.1300439E+00
        -11   -1    0    0    0    0  0.00000000000E+00  0.00000000000E+00  0.45593999997E+02  0.45594000000E+02  0.51100000000E-03 0.  1.
         11   -1    0    0    0    0 -0.00000000000E+00 -0.00000000000E+00 -0.45593999997E+02  0.45594000000E+02  0.51100000000E-03 0. -1.
    9900012    2    1    2    0    0  0.81575179315E+00  0.11210259122E+02  0.39074639131E+02  0.50528895437E+02  0.30000108172E+02 0.  0.
         12    1    1    2    0    0 -0.81575179315E+00 -0.11210259122E+02 -0.39074639131E+02  0.40659104563E+02  0.00000000000E+00 0. -1.
         11    1    3    3    0    0  0.26323431251E+01 -0.65969712550E+01  0.94850112876E+01  0.11849670858E+02  0.51100000000E-03 0. -1.
        -11    1    3    3    0    0  0.59947273558E+01  0.11482129975E+02  0.90162945416E+01  0.15781940070E+02  0.51100000000E-03 0.  1.
        -12    1    3    3    0    0 -0.78113186878E+01  0.63251004021E+01  0.20573333302E+02  0.22897284509E+02  0.00000000000E+00 0.  1.
</event>
<event>
 7    1  0.3004200E-011  0.5052886E+02  0.7816164E-02  0.1300439E+00
        -11   -1    0    0    0    0  0.00000000000E+00  0.00000000000E+00  0.45593999997E+02  0.45594000000E+02  0.51100000000E-03 0.  1.
         11   -1    0    0    0    0 -0.00000000000E+00 -0.00000000000E+00 -0.45593999997E+02  0.45594000000E+02  0.51100000000E-03 0. -1.
    9900012    2    1    2    0    0  0.34702259140E+02  0.20378618522E+02  0.57992134405E+01  0.50528858853E+02  0.29999996969E+02 0.  0.
         12    1    1    2    0    0 -0.34702259140E+02 -0.20378618522E+02 -0.57992134405E+01  0.40659141147E+02  0.00000000000E+00 0. -1.
         11    1    3    3    0    0  0.17588995326E+02  0.60556056462E+01 -0.11013440059E+02  0.21618024390E+02  0.51100000000E-03 0. -1.
        -11    1    3    3    0    0  0.14395228560E+02  0.13806271530E+02  0.11771600422E+02  0.23160447224E+02  0.51100000000E-03 0.  1.
         12    1    3    3    0    0  0.27180352541E+01  0.51674134526E+00  0.50410530781E+01  0.57503872388E+01  0.00000000000E+00 0. -1.
</event>
<event>
 7    1  0.3004200E-011  0.5052887E+02  0.7816164E-02  0.1300439E+00
        -11   -1    0    0    0    0  0.00000000000E+00  0.00000000000E+00  0.45593999997E+02  0.45594000000E+02  0.51100000000E-03 0. -1.
         11   -1    0    0    0    0 -0.00000000000E+00 -0.00000000000E+00 -0.45593999997E+02  0.45594000000E+02  0.51100000000E-03 0.  1.
    9900012    2    1    2    0    0  0.39548931671E+02 -0.16009998455E+01 -0.92996688007E+01  0.50528867734E+02  0.30000023964E+02 0.  0.
         12    1    1    2    0    0 -0.39548931671E+02  0.16009998455E+01  0.92996688007E+01  0.40659132266E+02  0.00000000000E+00 0. -1.
         11    1    3    3    0    0  0.69276908218E+01  0.47981393097E+01  0.28220467009E+01  0.88870123664E+01  0.51100000000E-03 0. -1.
        -11    1    3    3    0    0  0.70058498033E+01  0.73429635624E+00 -0.13273428943E+02  0.15026810666E+02  0.51100000000E-03 0.  1.
        -12    1    3    3    0    0  0.25615391046E+02 -0.71334355114E+01  0.11517134417E+01  0.26615044702E+02  0.00000000000E+00 0.  1.
</event>
<event>
 7    1  0.3004200E-011  0.5052887E+02  0.7816164E-02  0.1300439E+00
        -11   -1    0    0    0    0  0.00000000000E+00  0.00000000000E+00  0.45593999997E+02  0.45594000000E+02  0.51100000000E-03 0.  1.
         11   -1    0    0    0    0 -0.00000000000E+00 -0.00000000000E+00 -0.45593999997E+02  0.45594000000E+02  0.51100000000E-03 0. -1.
    9900012    2    1    2    0    0  0.27055573273E+02 -0.29261474122E+02  0.80577351045E+01  0.50528868087E+02  0.30000025037E+02 0.  0.
         12    1    1    2    0    0 -0.27055573273E+02  0.29261474122E+02 -0.80577351045E+01  0.40659131913E+02  0.00000000000E+00 0. -1.
         11    1    3    3    0    0 -0.15530550728E+01  0.11802670704E+01 -0.35243723615E+00  0.19822266982E+01  0.51100000000E-03 0. -1.
        -11    1    3    3    0    0  0.18854615899E+02 -0.31994247041E+02  0.10193362702E+02  0.38510167850E+02  0.51100000000E-03 0.  1.
        -12    1    3    3    0    0  0.97540124471E+01  0.15525058483E+01 -0.17831903616E+01  0.10036473539E+02  0.00000000000E+00 0.  1.
</event>
<event>
 7    1  0.3004200E-011  0.5052886E+02  0.7816164E-02  0.1300439E+00
        -11   -1    0    0    0    0  0.00000000000E+00  0.00000000000E+00  0.45593999997E+02  0.45594000000E+02  0.51100000000E-03 0. -1.
         11   -1    0    0    0    0 -0.00000000000E+00 -0.00000000000E+00 -0.45593999997E+02  0.45594000000E+02  0.51100000000E-03 0.  1.
    9900012    2    1    2    0    0 -0.20115669655E+02  0.32668656706E+02 -0.13464200015E+02  0.50528856149E+02  0.29999988751E+02 0.  0.
         12    1    1    2    0    0  0.20115669655E+02 -0.32668656706E+02  0.13464200015E+02  0.40659143851E+02  0.00000000000E+00 0. -1.
         11    1    3    3    0    0 -0.17280049115E+02  0.18619453119E+02 -0.14445374322E+02  0.29222473739E+02  0.51100000000E-03 0. -1.
        -11    1    3    3    0    0  0.47483021159E+01  0.65350952733E+00 -0.26689066078E+01  0.54860286572E+01  0.51100000000E-03 0.  1.
         12    1    3    3    0    0 -0.75839226554E+01  0.13395694060E+02  0.36500809148E+01  0.15820353753E+02  0.00000000000E+00 0. -1.
</event>
<event>
 7    1  0.3004200E-011  0.5052886E+02  0.7816164E-02  0.1300439E+00
        -11   -1    0    0    0    0  0.00000000000E+00  0.00000000000E+00  0.45593999997E+02  0.45594000000E+02  0.51100000000E-03 0. -1.
         11   -1    0    0    0    0 -0.00000000000E+00 -0.00000000000E+00 -0.45593999997E+02  0.45594000000E+02  0.51100000000E-03 0.  1.
    9900012    2    1    2    0    0 -0.38399321905E+02  0.11967076788E+02  0.59537250840E+01  0.50528859675E+02  0.29999999468E+02 0.  0.
         12    1    1    2    0    0  0.38399321905E+02 -0.11967076788E+02 -0.59537250840E+01  0.40659140325E+02  0.00000000000E+00 0. -1.
         11    1    3    3    0    0 -0.32526415580E+01  0.93384642512E+00  0.70119235007E+01  0.77858087371E+01  0.51100000000E-03 0. -1.
        -11    1    3    3    0    0 -0.24961907286E+02  0.17609847587E+02  0.24721235135E+00  0.30549380707E+02  0.51100000000E-03 0.  1.
         12    1    3    3    0    0 -0.10184773061E+02 -0.65766172245E+01 -0.13054107681E+01  0.12193670231E+02  0.00000000000E+00 0. -1.
</event>
<event>
 7    1  0.3004200E-011  0.5052886E+02  0.7816164E-02  0.1300439E+00
        -11   -1    0    0    0    0  0.00000000000E+00  0.00000000000E+00  0.45593999997E+02  0.45594000000E+02  0.51100000000E-03 0.  1.
         11   -1    0    0    0    0 -0.00000000000E+00 -0.00000000000E+00 -0.45593999997E+02  0.45594000000E+02  0.51100000000E-03 0. -1.
    9900012    2    1    2    0    0  0.74139954681E+01  0.74129098686E+01  0.39284179331E+02  0.50528864406E+02  0.30000013849E+02 0.  0.
         12    1    1    2    0    0 -0.74139954681E+01 -0.74129098686E+01 -0.39284179331E+02  0.40659135594E+02  0.00000000000E+00 0. -1.
         11    1    3    3    0    0 -0.63931569454E+01  0.10312759716E+02  0.25040209116E+02  0.27825124286E+02  0.51100000000E-03 0. -1.
        -11    1    3    3    0    0  0.10666596635E+02  0.22728400248E+01  0.59099026276E+01  0.12404395789E+02  0.51100000000E-03 0.  1.
         12    1    3    3    0    0  0.31405557786E+01 -0.51726898722E+01  0.83340675875E+01  0.10299344332E+02  0.00000000000E+00 0. -1.
</event>
<event>
 7    1  0.3004200E-011  0.5052887E+02  0.7816164E-02  0.1300439E+00
        -11   -1    0    0    0    0  0.00000000000E+00  0.00000000000E+00  0.45593999997E+02  0.45594000000E+02  0.51100000000E-03 0. -1.
         11   -1    0    0    0    0 -0.00000000000E+00 -0.00000000000E+00 -0.45593999997E+02  0.45594000000E+02  0.51100000000E-03 0.  1.
    9900012    2    1    2    0    0  0.46215928416E+01 -0.18058331689E+02 -0.36134500154E+02  0.50528873532E+02  0.30000041587E+02 0.  0.
         12    1    1    2    0    0 -0.46215928416E+01  0.18058331689E+02  0.36134500154E+02  0.40659126468E+02  0.00000000000E+00 0. -1.
         11    1    3    3    0    0  0.13218718493E+02 -0.54569206373E+01 -0.15056285625E+02  0.20765457821E+02  0.51100000000E-03 0. -1.
        -11    1    3    3    0    0 -0.97231466287E+01 -0.13174560179E+02 -0.22521838001E+02  0.27844960109E+02  0.51100000000E-03 0.  1.
         12    1    3    3    0    0  0.11260209773E+01  0.57314912801E+00  0.14436234720E+01  0.19184556010E+01  0.00000000000E+00 0. -1.
</event>
<event>
 7    1  0.3004200E-011  0.5052886E+02  0.7816164E-02  0.1300439E+00
        -11   -1    0    0    0    0  0.00000000000E+00  0.00000000000E+00  0.45593999997E+02  0.45594000000E+02  0.51100000000E-03 0.  1.
         11   -1    0    0    0    0 -0.00000000000E+00 -0.00000000000E+00 -0.45593999997E+02  0.45594000000E+02  0.51100000000E-03 0. -1.
    9900012    2    1    2    0    0  0.27623118541E+02  0.18655150820E+02  0.23283352966E+02  0.50528857666E+02  0.29999993360E+02 0.  0.
         12    1    1    2    0    0 -0.27623118541E+02 -0.18655150820E+02 -0.23283352966E+02  0.40659142334E+02  0.00000000000E+00 0. -1.
         11    1    3    3    0    0  0.81719455877E+01  0.29719911846E+01  0.23130307233E+01  0.89979740874E+01  0.51100000000E-03 0. -1.
        -11    1    3    3    0    0  0.56217726776E+01 -0.12821560662E+01  0.18649341230E+02  0.19520404217E+02  0.51100000000E-03 0.  1.
        -12    1    3    3    0    0  0.13829400275E+02  0.16965315702E+02  0.23209810125E+01  0.22010479361E+02  0.00000000000E+00 0.  1.
</event>
<event>
 7    1  0.3004200E-011  0.5052886E+02  0.7816164E-02  0.1300439E+00
        -11   -1    0    0    0    0  0.00000000000E+00  0.00000000000E+00  0.45593999997E+02  0.45594000000E+02  0.51100000000E-03 0. -1.
         11   -1    0    0    0    0 -0.00000000000E+00 -0.00000000000E+00 -0.45593999997E+02  0.45594000000E+02  0.51100000000E-03 0.  1.
    9900012    2    1    2    0    0 -0.33312632700E+02  0.73542668564E+01  0.22121237101E+02  0.50528857495E+02  0.29999992841E+02 0.  0.
         12    1    1    2    0    0  0.33312632700E+02 -0.73542668564E+01 -0.22121237101E+02  0.40659142505E+02  0.00000000000E+00 0. -1.
         11    1    3    3    0    0 -0.21472409148E+02 -0.13585557698E+01  0.17550937183E+02  0.27765903995E+02  0.51100000000E-03 0.  1.
        -11    1    3    3    0    0  0.16894409883E+01 -0.18675480119E+01 -0.30649626338E+01  0.39668555100E+01  0.51100000000E-03 0. -1.
        -12    1    3    3    0    0 -0.13529664539E+02  0.10580370638E+02  0.76352625518E+01  0.18796097989E+02  0.00000000000E+00 0.  1.
</event>
<event>
 7    1  0.3004200E-011  0.5052887E+02  0.7816164E-02  0.1300439E+00
        -11   -1    0    0    0    0  0.00000000000E+00  0.00000000000E+00  0.45593999997E+02  0.45594000000E+02  0.51100000000E-03 0.  1.
         11   -1    0    0    0    0 -0.00000000000E+00 -0.00000000000E+00 -0.45593999997E+02  0.45594000000E+02  0.51100000000E-03 0. -1.
    9900012    2    1    2    0    0  0.23027928677E+02 -0.26064569698E+01  0.33407866056E+02  0.50528872716E+02  0.30000039107E+02 0.  0.
         12    1    1    2    0    0 -0.23027928677E+02  0.26064569698E+01 -0.33407866056E+02  0.40659127284E+02  0.00000000000E+00 0. -1.
         11    1    3    3    0    0  0.15214420286E+02 -0.96523843418E+01  0.59720842949E+01  0.18981909788E+02  0.51100000000E-03 0. -1.
        -11    1    3    3    0    0  0.80361472845E+01  0.35900642474E+01  0.26552217330E+02  0.27972995368E+02  0.51100000000E-03 0.  1.
         12    1    3    3    0    0 -0.22263889352E+00  0.34558631246E+01  0.88356443178E+00  0.35739675598E+01  0.00000000000E+00 0. -1.
</event>
<event>
 7    1  0.3004200E-011  0.5052885E+02  0.7816164E-02  0.1300439E+00
        -11   -1    0    0    0    0  0.00000000000E+00  0.00000000000E+00  0.45593999997E+02  0.45594000000E+02  0.51100000000E-03 0.  1.
         11   -1    0    0    0    0 -0.00000000000E+00 -0.00000000000E+00 -0.45593999997E+02  0.45594000000E+02  0.51100000000E-03 0. -1.
    9900012    2    1    2    0    0 -0.25317299247E+02 -0.21773502086E+02  0.23197316608E+02  0.50528849344E+02  0.29999968066E+02 0.  0.
         12    1    1    2    0    0  0.25317299247E+02  0.21773502086E+02 -0.23197316608E+02  0.40659150656E+02  0.00000000000E+00 0. -1.
         11    1    3    3    0    0 -0.58183027184E+01  0.29248735842E+01  0.40832058760E+01  0.76863582074E+01  0.51100000000E-03 0. -1.
        -11    1    3    3    0    0  0.18950733164E+01 -0.14331887117E+02  0.56522367339E+01  0.15522308835E+02  0.51100000000E-03 0.  1.
        -12    1    3    3    0    0 -0.21394069845E+02 -0.10366488554E+02  0.13461873998E+02  0.27320182302E+02  0.00000000000E+00 0.  1.
</event>
<event>
 7    1  0.3004200E-011  0.5052886E+02  0.7816164E-02  0.1300439E+00
        -11   -1    0    0    0    0  0.00000000000E+00  0.00000000000E+00  0.45593999997E+02  0.45594000000E+02  0.51100000000E-03 0. -1.
         11   -1    0    0    0    0 -0.00000000000E+00 -0.00000000000E+00 -0.45593999997E+02  0.45594000000E+02  0.51100000000E-03 0.  1.
    9900012    2    1    2    0    0  0.24029671624E+02  0.24809702417E+02  0.21452714150E+02  0.50528863305E+02  0.30000010502E+02 0.  0.
         12    1    1    2    0    0 -0.24029671624E+02 -0.24809702417E+02 -0.21452714150E+02  0.40659136695E+02  0.00000000000E+00 0. -1.
         11    1    3    3    0    0 -0.48063345896E+01  0.58703612997E+01  0.21723522383E+01  0.78918380929E+01  0.51100000000E-03 0. -1.
        -11    1    3    3    0    0  0.11891573916E+02  0.12674880016E+02  0.17560587750E+01  0.17468424551E+02  0.51100000000E-03 0.  1.
         12    1    3    3    0    0  0.16944432298E+02  0.62644611008E+01  0.17524303137E+02  0.25168600661E+02  0.00000000000E+00 0. -1.
</event>
<event>
 7    1  0.3004200E-011  0.5052886E+02  0.7816164E-02  0.1300439E+00
        -11   -1    0    0    0    0  0.00000000000E+00  0.00000000000E+00  0.45593999997E+02  0.45594000000E+02  0.51100000000E-03 0.  1.
         11   -1    0    0    0    0 -0.00000000000E+00 -0.00000000000E+00 -0.45593999997E+02  0.45594000000E+02  0.51100000000E-03 0. -1.
    9900012    2    1    2    0    0 -0.34682653305E+02  0.21100014780E+02 -0.22513752116E+01  0.50528858908E+02  0.29999997136E+02 0.  0.
         12    1    1    2    0    0  0.34682653305E+02 -0.21100014780E+02  0.22513752116E+01  0.40659141092E+02  0.00000000000E+00 0. -1.
         11    1    3    3    0    0 -0.19406037874E+01  0.51724977892E+01 -0.10207674014E+02  0.11606777566E+02  0.51100000000E-03 0. -1.
        -11    1    3    3    0    0 -0.11330733134E+02  0.10170647069E+02 -0.39147092102E+00  0.15230916745E+02  0.51100000000E-03 0.  1.
         12    1    3    3    0    0 -0.21411316384E+02  0.57568699213E+01  0.83477697230E+01  0.23691164597E+02  0.00000000000E+00 0. -1.
</event>
<event>
 7    1  0.3004200E-011  0.5052887E+02  0.7816164E-02  0.1300439E+00
        -11   -1    0    0    0    0  0.00000000000E+00  0.00000000000E+00  0.45593999997E+02  0.45594000000E+02  0.51100000000E-03 0. -1.
         11   -1    0    0    0    0 -0.00000000000E+00 -0.00000000000E+00 -0.45593999997E+02  0.45594000000E+02  0.51100000000E-03 0.  1.
    9900012    2    1    2    0    0  0.62946698055E+01  0.35043178643E+02 -0.19634611582E+02  0.50528865610E+02  0.30000017507E+02 0.  0.
         12    1    1    2    0    0 -0.62946698055E+01 -0.35043178643E+02  0.19634611582E+02  0.40659134390E+02  0.00000000000E+00 0. -1.
         11    1    3    3    0    0  0.54527103086E+01  0.13224825765E+01 -0.74411914982E+01  0.93194603410E+01  0.51100000000E-03 0. -1.
        -11    1    3    3    0    0 -0.14526220255E+01  0.35165815611E+02 -0.78051316284E+01  0.36050863766E+02  0.51100000000E-03 0.  1.
        -12    1    3    3    0    0  0.22945815224E+01 -0.14451195439E+01 -0.43882884559E+01  0.51585415023E+01  0.00000000000E+00 0.  1.
</event>
<event>
 7    1  0.3004200E-011  0.5052888E+02  0.7816164E-02  0.1300439E+00
        -11   -1    0    0    0    0  0.00000000000E+00  0.00000000000E+00  0.45593999997E+02  0.45594000000E+02  0.51100000000E-03 0. -1.
         11   -1    0    0    0    0 -0.00000000000E+00 -0.00000000000E+00 -0.45593999997E+02  0.45594000000E+02  0.51100000000E-03 0.  1.
    9900012    2    1    2    0    0 -0.32425599383E+02 -0.24299063907E+02  0.33615354085E+01  0.50528881436E+02  0.30000065613E+02 0.  0.
         12    1    1    2    0    0  0.32425599383E+02  0.24299063907E+02 -0.33615354085E+01  0.40659118564E+02  0.00000000000E+00 0. -1.
         11    1    3    3    0    0 -0.17806975702E+02 -0.15906075890E+02  0.16418114585E+02  0.28976647851E+02  0.51100000000E-03 0. -1.
        -11    1    3    3    0    0 -0.29211429040E+01 -0.29506722294E+01 -0.41820776317E+01  0.58931584104E+01  0.51100000000E-03 0.  1.
         12    1    3    3    0    0 -0.11697480777E+02 -0.54423157874E+01 -0.88745015449E+01  0.15659075175E+02  0.00000000000E+00 0. -1.
</event>
<event>
 7    1  0.3004200E-011  0.5052886E+02  0.7816164E-02  0.1300439E+00
        -11   -1    0    0    0    0  0.00000000000E+00  0.00000000000E+00  0.45593999997E+02  0.45594000000E+02  0.51100000000E-03 0.  1.
         11   -1    0    0    0    0 -0.00000000000E+00 -0.00000000000E+00 -0.45593999997E+02  0.45594000000E+02  0.51100000000E-03 0. -1.
    9900012    2    1    2    0    0 -0.29853471224E+02 -0.78562324550E+01  0.26461580456E+02  0.50528863601E+02  0.30000011401E+02 0.  0.
         12    1    1    2    0    0  0.29853471224E+02  0.78562324550E+01 -0.26461580456E+02  0.40659136399E+02  0.00000000000E+00 0. -1.
         11    1    3    3    0    0 -0.42566092621E+01  0.69817597735E+01  0.14391418927E+02  0.16552239453E+02  0.51100000000E-03 0. -1.
        -11    1    3    3    0    0 -0.81256476724E+01 -0.91543880746E+00 -0.76350888206E+00  0.82126198244E+01  0.51100000000E-03 0.  1.
         12    1    3    3    0    0 -0.17471214290E+02 -0.13922553421E+02  0.12833670411E+02  0.25764004323E+02  0.00000000000E+00 0. -1.
</event>
<event>
 7    1  0.3004200E-011  0.5052886E+02  0.7816164E-02  0.1300439E+00
        -11   -1    0    0    0    0  0.00000000000E+00  0.00000000000E+00  0.45593999997E+02  0.45594000000E+02  0.51100000000E-03 0.  1.
         11   -1    0    0    0    0 -0.00000000000E+00 -0.00000000000E+00 -0.45593999997E+02  0.45594000000E+02  0.51100000000E-03 0. -1.
    9900012    2    1    2    0    0 -0.38546072182E+02 -0.24621941747E+01  0.12700547710E+02  0.50528855973E+02  0.29999988217E+02 0.  0.
         12    1    1    2    0    0  0.38546072182E+02  0.24621941747E+01 -0.12700547710E+02  0.40659144027E+02  0.00000000000E+00 0. -1.
         11    1    3    3    0    0 -0.15619897544E+02  0.11364285348E+02  0.12162575392E+01  0.19354778826E+02  0.51100000000E-03 0. -1.
        -11    1    3    3    0    0 -0.11841412879E+02 -0.32206773280E+01  0.45571459554E+00  0.12280044686E+02  0.51100000000E-03 0.  1.
         12    1    3    3    0    0 -0.11084761759E+02 -0.10605802194E+02  0.11028575575E+02  0.18894032462E+02  0.00000000000E+00 0. -1.
</event>
<event>
 7    1  0.3004200E-011  0.5052886E+02  0.7816164E-02  0.1300439E+00
        -11   -1    0    0    0    0  0.00000000000E+00  0.00000000000E+00  0.45593999997E+02  0.45594000000E+02  0.51100000000E-03 0.  1.
         11   -1    0    0    0    0 -0.00000000000E+00 -0.00000000000E+00 -0.45593999997E+02  0.45594000000E+02  0.51100000000E-03 0. -1.
    9900012    2    1    2    0    0 -0.37120445121E+02  0.33969154102E+00  0.16586837556E+02  0.50528855685E+02  0.29999987339E+02 0.  0.
         12    1    1    2    0    0  0.37120445121E+02 -0.33969154102E+00 -0.16586837556E+02  0.40659144315E+02  0.00000000000E+00 0. -1.
         11    1    3    3    0    0 -0.92178160336E+01  0.57766295362E+00  0.49749526713E+01  0.10490566298E+02  0.51100000000E-03 0.  1.
        -11    1    3    3    0    0 -0.20649610309E+01 -0.86741911125E+01  0.91033811516E+01  0.12742731425E+02  0.51100000000E-03 0. -1.
        -12    1    3    3    0    0 -0.25837668057E+02  0.84362196999E+01  0.25085037330E+01  0.27295557961E+02  0.00000000000E+00 0.  1.
</event>
<event>
 7    1  0.3004200E-011  0.5052886E+02  0.7816164E-02  0.1300439E+00
        -11   -1    0    0    0    0  0.00000000000E+00  0.00000000000E+00  0.45593999997E+02  0.45594000000E+02  0.51100000000E-03 0.  1.
         11   -1    0    0    0    0 -0.00000000000E+00 -0.00000000000E+00 -0.45593999997E+02  0.45594000000E+02  0.51100000000E-03 0. -1.
    9900012    2    1    2    0    0  0.15035724923E+01 -0.33876813020E+02  0.22433598422E+02  0.50528861681E+02  0.30000005567E+02 0.  0.
         12    1    1    2    0    0 -0.15035724923E+01  0.33876813020E+02 -0.22433598422E+02  0.40659138319E+02  0.00000000000E+00 0. -1.
         11    1    3    3    0    0 -0.61962992654E+01 -0.18398188381E+02  0.19041242726E+02  0.27192947341E+02  0.51100000000E-03 0. -1.
        -11    1    3    3    0    0  0.91204384872E+01 -0.17437755332E+02  0.51540654193E+01  0.20342617821E+02  0.51100000000E-03 0.  1.
         12    1    3    3    0    0 -0.14205667295E+01  0.19591306926E+01 -0.17617097230E+01  0.29932965192E+01  0.00000000000E+00 0. -1.
</event>
<event>
 7    1  0.3004200E-011  0.5052886E+02  0.7816164E-02  0.1300439E+00
        -11   -1    0    0    0    0  0.00000000000E+00  0.00000000000E+00  0.45593999997E+02  0.45594000000E+02  0.51100000000E-03 0. -1.
         11   -1    0    0    0    0 -0.00000000000E+00 -0.00000000000E+00 -0.45593999997E+02  0.45594000000E+02  0.51100000000E-03 0.  1.
    9900012    2    1    2    0    0  0.38494660241E+02 -0.11455356744E+02 -0.63326044366E+01  0.50528856573E+02  0.29999990040E+02 0.  0.
         12    1    1    2    0    0 -0.38494660241E+02  0.11455356744E+02  0.63326044366E+01  0.40659143427E+02  0.00000000000E+00 0. -1.
         11    1    3    3    0    0  0.12804843782E+02  0.38555082072E+01  0.28331025393E+01  0.13669507602E+02  0.51100000000E-03 0. -1.
        -11    1    3    3    0    0  0.26346183774E+02 -0.16530448643E+02 -0.38191166047E+01  0.31336285416E+02  0.51100000000E-03 0.  1.
        -12    1    3    3    0    0 -0.65636731495E+00  0.12195836911E+01 -0.53465903713E+01  0.55230635548E+01  0.00000000000E+00 0.  1.
</event>
<event>
 7    1  0.3004200E-011  0.5052886E+02  0.7816164E-02  0.1300439E+00
        -11   -1    0    0    0    0  0.00000000000E+00  0.00000000000E+00  0.45593999997E+02  0.45594000000E+02  0.51100000000E-03 0.  1.
         11   -1    0    0    0    0 -0.00000000000E+00 -0.00000000000E+00 -0.45593999997E+02  0.45594000000E+02  0.51100000000E-03 0. -1.
    9900012    2    1    2    0    0 -0.62905923555E+01  0.31128885710E+02  0.25388713871E+02  0.50528857489E+02  0.29999992823E+02 0.  0.
         12    1    1    2    0    0  0.62905923555E+01 -0.31128885710E+02 -0.25388713871E+02  0.40659142511E+02  0.00000000000E+00 0. -1.
         11    1    3    3    0    0 -0.16240483075E+02  0.15819314485E+02  0.11953360353E+02  0.25629803457E+02  0.51100000000E-03 0. -1.
        -11    1    3    3    0    0  0.11038141032E+02  0.14535518501E+02  0.91625083953E+01  0.20422375373E+02  0.51100000000E-03 0.  1.
        -12    1    3    3    0    0 -0.10882503127E+01  0.77405272393E+00  0.42728451233E+01  0.44766786584E+01  0.00000000000E+00 0.  1.
</event>
<event>
 7    1  0.3004200E-011  0.5052886E+02  0.7816164E-02  0.1300439E+00
        -11   -1    0    0    0    0  0.00000000000E+00  0.00000000000E+00  0.45593999997E+02  0.45594000000E+02  0.51100000000E-03 0.  1.
         11   -1    0    0    0    0 -0.00000000000E+00 -0.00000000000E+00 -0.45593999997E+02  0.45594000000E+02  0.51100000000E-03 0. -1.
    9900012    2    1    2    0    0  0.10769783439E+02 -0.30396606041E+02  0.24763348644E+02  0.50528864124E+02  0.30000012992E+02 0.  0.
         12    1    1    2    0    0 -0.10769783439E+02  0.30396606041E+02 -0.24763348644E+02  0.40659135876E+02  0.00000000000E+00 0. -1.
         11    1    3    3    0    0  0.56784997599E+01 -0.71432390579E+01  0.15077538579E+02  0.17623943759E+02  0.51100000000E-03 0. -1.
        -11    1    3    3    0    0 -0.67784729054E+01 -0.83694190277E+01 -0.14225380022E+01  0.10863631272E+02  0.51100000000E-03 0.  1.
        -12    1    3    3    0    0  0.11869756584E+02 -0.14883947955E+02  0.11108348067E+02  0.22041289093E+02  0.00000000000E+00 0.  1.
</event>
<event>
 7    1  0.3004200E-011  0.5052887E+02  0.7816164E-02  0.1300439E+00
        -11   -1    0    0    0    0  0.00000000000E+00  0.00000000000E+00  0.45593999997E+02  0.45594000000E+02  0.51100000000E-03 0. -1.
         11   -1    0    0    0    0 -0.00000000000E+00 -0.00000000000E+00 -0.45593999997E+02  0.45594000000E+02  0.51100000000E-03 0.  1.
    9900012    2    1    2    0    0 -0.36151449899E+02 -0.18600398043E+02 -0.51282674322E+00  0.50528866605E+02  0.30000020533E+02 0.  0.
         12    1    1    2    0    0  0.36151449899E+02  0.18600398043E+02  0.51282674322E+00  0.40659133395E+02  0.00000000000E+00 0. -1.
         11    1    3    3    0    0  0.48242619374E+00 -0.33308212445E+01  0.34120268597E+01  0.47926018766E+01  0.51100000000E-03 0. -1.
        -11    1    3    3    0    0 -0.31403432278E+02 -0.55415066899E+01 -0.96217321964E+01  0.33308581266E+02  0.51100000000E-03 0.  1.
        -12    1    3    3    0    0 -0.52304438146E+01 -0.97280701088E+01  0.56968785935E+01  0.12427683463E+02  0.00000000000E+00 0.  1.
</event>
<event>
 7    1  0.3004200E-011  0.5052886E+02  0.7816164E-02  0.1300439E+00
        -11   -1    0    0    0    0  0.00000000000E+00  0.00000000000E+00  0.45593999997E+02  0.45594000000E+02  0.51100000000E-03 0. -1.
         11   -1    0    0    0    0 -0.00000000000E+00 -0.00000000000E+00 -0.45593999997E+02  0.45594000000E+02  0.51100000000E-03 0.  1.
    9900012    2    1    2    0    0 -0.17778193756E+02 -0.34477782926E+01 -0.36403493703E+02  0.50528859549E+02  0.29999999087E+02 0.  0.
         12    1    1    2    0    0  0.17778193756E+02  0.34477782926E+01  0.36403493703E+02  0.40659140451E+02  0.00000000000E+00 0. -1.
         11    1    3    3    0    0  0.38346703335E+01  0.19143970266E+01 -0.88163883705E+01  0.98029748905E+01  0.51100000000E-03 0. -1.
        -11    1    3    3    0    0 -0.90675775974E+01 -0.11934099961E+02 -0.94662736281E+01  0.17727211908E+02  0.51100000000E-03 0.  1.
        -12    1    3    3    0    0 -0.12545286492E+02  0.65719246414E+01 -0.18120831704E+02  0.22998672751E+02  0.00000000000E+00 0.  1.
</event>
<event>
 7    1  0.3004200E-011  0.5052886E+02  0.7816164E-02  0.1300439E+00
        -11   -1    0    0    0    0  0.00000000000E+00  0.00000000000E+00  0.45593999997E+02  0.45594000000E+02  0.51100000000E-03 0.  1.
         11   -1    0    0    0    0 -0.00000000000E+00 -0.00000000000E+00 -0.45593999997E+02  0.45594000000E+02  0.51100000000E-03 0. -1.
    9900012    2    1    2    0    0  0.33114003190E+02 -0.12589838974E+02  0.19953052733E+02  0.50528861224E+02  0.30000004177E+02 0.  0.
         12    1    1    2    0    0 -0.33114003190E+02  0.12589838974E+02 -0.19953052733E+02  0.40659138776E+02  0.00000000000E+00 0. -1.
         11    1    3    3    0    0  0.33534098135E+01 -0.34852030829E+01 -0.22578694493E+01  0.53375998930E+01  0.51100000000E-03 0. -1.
        -11    1    3    3    0    0  0.22215789691E+02  0.52409194885E+00  0.24136166462E+02  0.32808086133E+02  0.51100000000E-03 0.  1.
        -12    1    3    3    0    0  0.75448036846E+01 -0.96287278396E+01 -0.19252442790E+01  0.12383175198E+02  0.00000000000E+00 0.  1.
</event>
<event>
 7    1  0.3004200E-011  0.5052886E+02  0.7816164E-02  0.1300439E+00
        -11   -1    0    0    0    0  0.00000000000E+00  0.00000000000E+00  0.45593999997E+02  0.45594000000E+02  0.51100000000E-03 0.  1.
         11   -1    0    0    0    0 -0.00000000000E+00 -0.00000000000E+00 -0.45593999997E+02  0.45594000000E+02  0.51100000000E-03 0. -1.
    9900012    2    1    2    0    0  0.25196717762E+02 -0.19242083256E+02  0.25456501163E+02  0.50528858279E+02  0.29999995226E+02 0.  0.
         12    1    1    2    0    0 -0.25196717762E+02  0.19242083256E+02 -0.25456501163E+02  0.40659141721E+02  0.00000000000E+00 0. -1.
         11    1    3    3    0    0 -0.57445450822E+00 -0.12480208754E+01  0.16181189240E+02  0.16239410075E+02  0.51100000000E-03 0. -1.
        -11    1    3    3    0    0  0.17148621324E+02 -0.58574601551E+01  0.49054599584E+01  0.18773614208E+02  0.51100000000E-03 0.  1.
         12    1    3    3    0    0  0.86225509462E+01 -0.12136602226E+02  0.43698519640E+01  0.15515833996E+02  0.00000000000E+00 0. -1.
</event>
<event>
 7    1  0.3004200E-011  0.5052887E+02  0.7816164E-02  0.1300439E+00
        -11   -1    0    0    0    0  0.00000000000E+00  0.00000000000E+00  0.45593999997E+02  0.45594000000E+02  0.51100000000E-03 0.  1.
         11   -1    0    0    0    0 -0.00000000000E+00 -0.00000000000E+00 -0.45593999997E+02  0.45594000000E+02  0.51100000000E-03 0. -1.
    9900012    2    1    2    0    0 -0.12202283371E+02 -0.26222624683E+02  0.28576971848E+02  0.50528867142E+02  0.30000022166E+02 0.  0.
         12    1    1    2    0    0  0.12202283371E+02  0.26222624683E+02 -0.28576971848E+02  0.40659132858E+02  0.00000000000E+00 0. -1.
         11    1    3    3    0    0  0.60694585849E+01 -0.61654109516E+00  0.35842938163E+01  0.70757058206E+01  0.51100000000E-03 0. -1.
        -11    1    3    3    0    0 -0.12934804312E+02 -0.20027150459E+02  0.26436279409E+02  0.35598775082E+02  0.51100000000E-03 0.  1.
         12    1    3    3    0    0 -0.53369376440E+01 -0.55789331287E+01 -0.14436013770E+01  0.78543862399E+01  0.00000000000E+00 0. -1.
</event>
<event>
 7    1  0.3004200E-011  0.5052886E+02  0.7816164E-02  0.1300439E+00
        -11   -1    0    0    0    0  0.00000000000E+00  0.00000000000E+00  0.45593999997E+02  0.45594000000E+02  0.51100000000E-03 0. -1.
         11   -1    0    0    0    0 -0.00000000000E+00 -0.00000000000E+00 -0.45593999997E+02  0.45594000000E+02  0.51100000000E-03 0.  1.
    9900012    2    1    2    0    0 -0.32504037721E+02  0.24306507511E+02  0.24180342938E+01  0.50528860002E+02  0.30000000461E+02 0.  0.
         12    1    1    2    0    0  0.32504037721E+02 -0.24306507511E+02 -0.24180342938E+01  0.40659139998E+02  0.00000000000E+00 0. -1.
         11    1    3    3    0    0 -0.65331513966E-01  0.14487929436E+02  0.72529030847E+01  0.16202128594E+02  0.51100000000E-03 0. -1.
        -11    1    3    3    0    0 -0.14698921705E+02  0.54252957590E+01 -0.30689665765E+01  0.15965922756E+02  0.51100000000E-03 0.  1.
         12    1    3    3    0    0 -0.17739784503E+02  0.43932823162E+01 -0.17659022144E+01  0.18360808652E+02  0.00000000000E+00 0. -1.
</event>
<event>
 7    1  0.3004200E-011  0.5052886E+02  0.7816164E-02  0.1300439E+00
        -11   -1    0    0    0    0  0.00000000000E+00  0.00000000000E+00  0.45593999997E+02  0.45594000000E+02  0.51100000000E-03 0. -1.
         11   -1    0    0    0    0 -0.00000000000E+00 -0.00000000000E+00 -0.45593999997E+02  0.45594000000E+02  0.51100000000E-03 0.  1.
    9900012    2    1    2    0    0 -0.38662539947E+02  0.11650696417E+01 -0.12530613723E+02  0.50528860035E+02  0.30000000563E+02 0.  0.
         12    1    1    2    0    0  0.38662539947E+02 -0.11650696417E+01  0.12530613723E+02  0.40659139965E+02  0.00000000000E+00 0. -1.
         11    1    3    3    0    0 -0.25256893682E+01  0.62873190958E+01  0.17976393340E+01  0.70100638823E+01  0.51100000000E-03 0. -1.
        -11    1    3    3    0    0 -0.27042330084E+02 -0.11107893712E+02 -0.14492947609E+02  0.32630023747E+02  0.51100000000E-03 0.  1.
         12    1    3    3    0    0 -0.90945204942E+01  0.59856442578E+01  0.16469455116E+00  0.10888772405E+02  0.00000000000E+00 0. -1.
</event>
<event>
 7    1  0.3004200E-011  0.5052890E+02  0.7816164E-02  0.1300439E+00
        -11   -1    0    0    0    0  0.00000000000E+00  0.00000000000E+00  0.45593999997E+02  0.45594000000E+02  0.51100000000E-03 0.  1.
         11   -1    0    0    0    0 -0.00000000000E+00 -0.00000000000E+00 -0.45593999997E+02  0.45594000000E+02  0.51100000000E-03 0. -1.
    9900012    2    1    2    0    0  0.16046086935E+02 -0.16619263915E+02  0.33458710266E+02  0.50528903457E+02  0.30000132549E+02 0.  0.
         12    1    1    2    0    0 -0.16046086935E+02  0.16619263915E+02 -0.33458710266E+02  0.40659096543E+02  0.00000000000E+00 0. -1.
         11    1    3    3    0    0  0.48315411506E+01  0.55333772830E+01  0.15155243798E+01  0.75005912069E+01  0.51100000000E-03 0. -1.
        -11    1    3    3    0    0  0.11994483635E+02 -0.21038101144E+02  0.33255101154E+02  0.41138438113E+02  0.51100000000E-03 0.  1.
         12    1    3    3    0    0 -0.77993785121E+00 -0.11145400549E+01 -0.13119152676E+01  0.18898741373E+01  0.00000000000E+00 0. -1.
</event>
<event>
 7    1  0.3004200E-011  0.5052885E+02  0.7816164E-02  0.1300439E+00
        -11   -1    0    0    0    0  0.00000000000E+00  0.00000000000E+00  0.45593999997E+02  0.45594000000E+02  0.51100000000E-03 0. -1.
         11   -1    0    0    0    0 -0.00000000000E+00 -0.00000000000E+00 -0.45593999997E+02  0.45594000000E+02  0.51100000000E-03 0.  1.
    9900012    2    1    2    0    0 -0.12019346529E+01 -0.16227030362E+02 -0.37261307359E+02  0.50528853583E+02  0.29999980950E+02 0.  0.
         12    1    1    2    0    0  0.12019346529E+01  0.16227030362E+02  0.37261307359E+02  0.40659146417E+02  0.00000000000E+00 0. -1.
         11    1    3    3    0    0 -0.29817131575E+01  0.69431345387E+00 -0.24905054591E+01  0.39465557425E+01  0.51100000000E-03 0. -1.
        -11    1    3    3    0    0 -0.86923932866E-01 -0.18118066083E+02 -0.81459215800E+01  0.19865243844E+02  0.51100000000E-03 0.  1.
        -12    1    3    3    0    0  0.18667024375E+01  0.11967222664E+01 -0.26624880320E+02  0.26717053996E+02  0.00000000000E+00 0.  1.
</event>
<event>
 7    1  0.3004200E-011  0.5052886E+02  0.7816164E-02  0.1300439E+00
        -11   -1    0    0    0    0  0.00000000000E+00  0.00000000000E+00  0.45593999997E+02  0.45594000000E+02  0.51100000000E-03 0.  1.
         11   -1    0    0    0    0 -0.00000000000E+00 -0.00000000000E+00 -0.45593999997E+02  0.45594000000E+02  0.51100000000E-03 0. -1.
    9900012    2    1    2    0    0 -0.25699440632E+02  0.27947052444E+02 -0.14548757435E+02  0.50528864101E+02  0.30000012922E+02 0.  0.
         12    1    1    2    0    0  0.25699440632E+02 -0.27947052444E+02  0.14548757435E+02  0.40659135899E+02  0.00000000000E+00 0. -1.
         11    1    3    3    0    0 -0.10693415211E+02 -0.81965583324E+00 -0.12533084761E+02  0.16495429016E+02  0.51100000000E-03 0. -1.
        -11    1    3    3    0    0 -0.10363947340E+02  0.20052878965E+02 -0.60474067645E+01  0.23368793038E+02  0.51100000000E-03 0.  1.
         12    1    3    3    0    0 -0.46420780813E+01  0.87138293131E+01  0.40317340897E+01  0.10664642047E+02  0.00000000000E+00 0. -1.
</event>
<event>
 7    1  0.3004200E-011  0.5052886E+02  0.7816164E-02  0.1300439E+00
        -11   -1    0    0    0    0  0.00000000000E+00  0.00000000000E+00  0.45593999997E+02  0.45594000000E+02  0.51100000000E-03 0.  1.
         11   -1    0    0    0    0 -0.00000000000E+00 -0.00000000000E+00 -0.45593999997E+02  0.45594000000E+02  0.51100000000E-03 0. -1.
    9900012    2    1    2    0    0 -0.24879954572E+02 -0.13721798657E+02  0.29083769861E+02  0.50528861209E+02  0.30000004130E+02 0.  0.
         12    1    1    2    0    0  0.24879954572E+02  0.13721798657E+02 -0.29083769861E+02  0.40659138791E+02  0.00000000000E+00 0. -1.
         11    1    3    3    0    0 -0.12735719699E+01  0.17345518679E+01 -0.26316359427E+01  0.33994357974E+01  0.51100000000E-03 0. -1.
        -11    1    3    3    0    0 -0.13382125123E+02 -0.15969050564E+02  0.30333263218E+02  0.36799438942E+02  0.51100000000E-03 0.  1.
        -12    1    3    3    0    0 -0.10224257479E+02  0.51270003876E+00  0.13821425855E+01  0.10329986469E+02  0.00000000000E+00 0.  1.
</event>
<event>
 7    1  0.3004200E-011  0.5052886E+02  0.7816164E-02  0.1300439E+00
        -11   -1    0    0    0    0  0.00000000000E+00  0.00000000000E+00  0.45593999997E+02  0.45594000000E+02  0.51100000000E-03 0.  1.
         11   -1    0    0    0    0 -0.00000000000E+00 -0.00000000000E+00 -0.45593999997E+02  0.45594000000E+02  0.51100000000E-03 0. -1.
    9900012    2    1    2    0    0 -0.55741816584E+00 -0.27035092771E+02  0.30363776522E+02  0.50528857353E+02  0.29999992409E+02 0.  0.
         12    1    1    2    0    0  0.55741816584E+00  0.27035092771E+02 -0.30363776522E+02  0.40659142647E+02  0.00000000000E+00 0. -1.
         11    1    3    3    0    0 -0.14506487375E+01 -0.65770710917E+01  0.21799490352E+02  0.22816222864E+02  0.51100000000E-03 0.  1.
        -11    1    3    3    0    0  0.38454447862E+01 -0.22515249720E+01 -0.35058841167E+01  0.56699236330E+01  0.51100000000E-03 0. -1.
        -12    1    3    3    0    0 -0.29522142145E+01 -0.18206496707E+02  0.12070170286E+02  0.22042710855E+02  0.00000000000E+00 0.  1.
</event>
<event>
 7    1  0.3004200E-011  0.5052889E+02  0.7816164E-02  0.1300439E+00
        -11   -1    0    0    0    0  0.00000000000E+00  0.00000000000E+00  0.45593999997E+02  0.45594000000E+02  0.51100000000E-03 0.  1.
         11   -1    0    0    0    0 -0.00000000000E+00 -0.00000000000E+00 -0.45593999997E+02  0.45594000000E+02  0.51100000000E-03 0. -1.
    9900012    2    1    2    0    0 -0.16605320843E+02  0.73883819558E+01  0.36370849228E+02  0.50528886117E+02  0.30000079841E+02 0.  0.
         12    1    1    2    0    0  0.16605320843E+02 -0.73883819558E+01 -0.36370849228E+02  0.40659113883E+02  0.00000000000E+00 0. -1.
         11    1    3    3    0    0  0.37970022326E+01 -0.38884668629E+01  0.49298582473E+01  0.73376360701E+01  0.51100000000E-03 0. -1.
        -11    1    3    3    0    0 -0.96077076586E+01  0.13410284034E+02  0.26300971631E+02  0.31046495347E+02  0.51100000000E-03 0.  1.
         12    1    3    3    0    0 -0.10794615417E+02 -0.21334352155E+01  0.51400193499E+01  0.12144754700E+02  0.00000000000E+00 0. -1.
</event>
<event>
 7    1  0.3004200E-011  0.5052886E+02  0.7816164E-02  0.1300439E+00
        -11   -1    0    0    0    0  0.00000000000E+00  0.00000000000E+00  0.45593999997E+02  0.45594000000E+02  0.51100000000E-03 0.  1.
         11   -1    0    0    0    0 -0.00000000000E+00 -0.00000000000E+00 -0.45593999997E+02  0.45594000000E+02  0.51100000000E-03 0. -1.
    9900012    2    1    2    0    0 -0.14171981923E+01 -0.14750629122E+01  0.40607651407E+02  0.50528860632E+02  0.30000002378E+02 0.  0.
         12    1    1    2    0    0  0.14171981923E+01  0.14750629122E+01 -0.40607651407E+02  0.40659139368E+02  0.00000000000E+00 0. -1.
         11    1    3    3    0    0 -0.69745474085E+01 -0.48162871267E+01 -0.74704815814E+00  0.85087610410E+01  0.51100000000E-03 0. -1.
        -11    1    3    3    0    0  0.50171473404E+01  0.40965868745E+01  0.34497475141E+02  0.35100278957E+02  0.51100000000E-03 0.  1.
         12    1    3    3    0    0  0.54020187586E+00 -0.75536266008E+00  0.68572244240E+01  0.69198206347E+01  0.00000000000E+00 0. -1.
</event>
<event>
 7    1  0.3004200E-011  0.5052885E+02  0.7816164E-02  0.1300439E+00
        -11   -1    0    0    0    0  0.00000000000E+00  0.00000000000E+00  0.45593999997E+02  0.45594000000E+02  0.51100000000E-03 0. -1.
         11   -1    0    0    0    0 -0.00000000000E+00 -0.00000000000E+00 -0.45593999997E+02  0.45594000000E+02  0.51100000000E-03 0.  1.
    9900012    2    1    2    0    0  0.20354259362E+02 -0.33556244407E+02 -0.10623041990E+02  0.50528850550E+02  0.29999971730E+02 0.  0.
         12    1    1    2    0    0 -0.20354259362E+02  0.33556244407E+02  0.10623041990E+02  0.40659149450E+02  0.00000000000E+00 0. -1.
         11    1    3    3    0    0  0.52763422932E+01 -0.28295925007E+01  0.35266170257E+01  0.69486264558E+01  0.51100000000E-03 0. -1.
        -11    1    3    3    0    0 -0.54979036028E+00 -0.24042762491E+02 -0.63146061343E+01  0.24864250412E+02  0.51100000000E-03 0.  1.
        -12    1    3    3    0    0  0.15627707429E+02 -0.66838894156E+01 -0.78350528815E+01  0.18715973682E+02  0.00000000000E+00 0.  1.
</event>
<event>
 7    1  0.3004200E-011  0.5052886E+02  0.7816164E-02  0.1300439E+00
        -11   -1    0    0    0    0  0.00000000000E+00  0.00000000000E+00  0.45593999997E+02  0.45594000000E+02  0.51100000000E-03 0. -1.
         11   -1    0    0    0    0 -0.00000000000E+00 -0.00000000000E+00 -0.45593999997E+02  0.45594000000E+02  0.51100000000E-03 0.  1.
    9900012    2    1    2    0    0  0.42816001307E+01  0.27592420940E+02 -0.29554897415E+02  0.50528858910E+02  0.29999997142E+02 0.  0.
         12    1    1    2    0    0 -0.42816001307E+01 -0.27592420940E+02  0.29554897415E+02  0.40659141090E+02  0.00000000000E+00 0. -1.
         11    1    3    3    0    0 -0.72836415914E+01  0.18559486258E+02 -0.13507274143E+02  0.24082201312E+02  0.51100000000E-03 0. -1.
        -11    1    3    3    0    0  0.11656314051E+02  0.67709714124E+01 -0.18640882645E+02  0.23004308665E+02  0.51100000000E-03 0.  1.
        -12    1    3    3    0    0 -0.91072328412E-01  0.22619632691E+01  0.25932593729E+01  0.34423489328E+01  0.00000000000E+00 0.  1.
</event>
<event>
 7    1  0.3004200E-011  0.5052887E+02  0.7816164E-02  0.1300439E+00
        -11   -1    0    0    0    0  0.00000000000E+00  0.00000000000E+00  0.45593999997E+02  0.45594000000E+02  0.51100000000E-03 0. -1.
         11   -1    0    0    0    0 -0.00000000000E+00 -0.00000000000E+00 -0.45593999997E+02  0.45594000000E+02  0.51100000000E-03 0.  1.
    9900012    2    1    2    0    0  0.10223098561E+02  0.29922919479E+02  0.25559183678E+02  0.50528871570E+02  0.30000035625E+02 0.  0.
         12    1    1    2    0    0 -0.10223098561E+02 -0.29922919479E+02 -0.25559183678E+02  0.40659128430E+02  0.00000000000E+00 0. -1.
         11    1    3    3    0    0 -0.33587394711E+01  0.49177113350E+01  0.10201563838E+02  0.11812574681E+02  0.51100000000E-03 0.  1.
        -11    1    3    3    0    0  0.16168862141E+02  0.12883958596E+02  0.16240930830E+02  0.26290612897E+02  0.51100000000E-03 0. -1.
        -12    1    3    3    0    0 -0.25870241082E+01  0.12121249549E+02 -0.88331098919E+00  0.12425683992E+02  0.00000000000E+00 0.  1.
</event>
<event>
 7    1  0.3004200E-011  0.5052886E+02  0.7816164E-02  0.1300439E+00
        -11   -1    0    0    0    0  0.00000000000E+00  0.00000000000E+00  0.45593999997E+02  0.45594000000E+02  0.51100000000E-03 0.  1.
         11   -1    0    0    0    0 -0.00000000000E+00 -0.00000000000E+00 -0.45593999997E+02  0.45594000000E+02  0.51100000000E-03 0. -1.
    9900012    2    1    2    0    0  0.33816014292E+02  0.15905125251E+02  0.16020929776E+02  0.50528855607E+02  0.29999987104E+02 0.  0.
         12    1    1    2    0    0 -0.33816014292E+02 -0.15905125251E+02 -0.16020929776E+02  0.40659144393E+02  0.00000000000E+00 0. -1.
         11    1    3    3    0    0  0.59611364750E+00 -0.10380949971E+01 -0.55972215063E+01  0.57237995733E+01  0.51100000000E-03 0. -1.
        -11    1    3    3    0    0  0.16131262479E+02  0.62029085270E+01  0.33970882211E+01  0.17613458264E+02  0.51100000000E-03 0.  1.
         12    1    3    3    0    0  0.17088638166E+02  0.10740311721E+02  0.18221063061E+02  0.27191597770E+02  0.00000000000E+00 0. -1.
</event>
<event>
 7    1  0.3004200E-011  0.5052886E+02  0.7816164E-02  0.1300439E+00
        -11   -1    0    0    0    0  0.00000000000E+00  0.00000000000E+00  0.45593999997E+02  0.45594000000E+02  0.51100000000E-03 0. -1.
         11   -1    0    0    0    0 -0.00000000000E+00 -0.00000000000E+00 -0.45593999997E+02  0.45594000000E+02  0.51100000000E-03 0.  1.
    9900012    2    1    2    0    0  0.38213602151E+02 -0.13104514878E+02 -0.45997557805E+01  0.50528862616E+02  0.30000008407E+02 0.  0.
         12    1    1    2    0    0 -0.38213602151E+02  0.13104514878E+02  0.45997557805E+01  0.40659137384E+02  0.00000000000E+00 0. -1.
         11    1    3    3    0    0  0.19554680672E+02 -0.41557310793E-01  0.10174018709E+02  0.22043092346E+02  0.51100000000E-03 0. -1.
        -11    1    3    3    0    0  0.91523212265E+01 -0.88515990504E+01 -0.36196425755E+01  0.13236978591E+02  0.51100000000E-03 0.  1.
         12    1    3    3    0    0  0.95066002529E+01 -0.42113585169E+01 -0.11154131914E+02  0.15248791679E+02  0.00000000000E+00 0. -1.
</event>
<event>
 7    1  0.3004200E-011  0.5052885E+02  0.7816164E-02  0.1300439E+00
        -11   -1    0    0    0    0  0.00000000000E+00  0.00000000000E+00  0.45593999997E+02  0.45594000000E+02  0.51100000000E-03 0.  1.
         11   -1    0    0    0    0 -0.00000000000E+00 -0.00000000000E+00 -0.45593999997E+02  0.45594000000E+02  0.51100000000E-03 0. -1.
    9900012    2    1    2    0    0 -0.83095822252E+01  0.35685726689E+02  0.17625148027E+02  0.50528854792E+02  0.29999984625E+02 0.  0.
         12    1    1    2    0    0  0.83095822252E+01 -0.35685726689E+02 -0.17625148027E+02  0.40659145208E+02  0.00000000000E+00 0. -1.
         11    1    3    3    0    0 -0.33459034548E+01 -0.23235336753E+01 -0.35693589905E+01  0.54161058458E+01  0.51100000000E-03 0. -1.
        -11    1    3    3    0    0 -0.65623184616E+01  0.27049421803E+02  0.19313336387E+02  0.33878314688E+02  0.51100000000E-03 0.  1.
        -12    1    3    3    0    0  0.15986396912E+01  0.10959838561E+02  0.18811706311E+01  0.11234434258E+02  0.00000000000E+00 0.  1.
</event>
<event>
 7    1  0.3004200E-011  0.5052886E+02  0.7816164E-02  0.1300439E+00
        -11   -1    0    0    0    0  0.00000000000E+00  0.00000000000E+00  0.45593999997E+02  0.45594000000E+02  0.51100000000E-03 0.  1.
         11   -1    0    0    0    0 -0.00000000000E+00 -0.00000000000E+00 -0.45593999997E+02  0.45594000000E+02  0.51100000000E-03 0. -1.
    9900012    2    1    2    0    0 -0.17916820982E+02 -0.35812422997E+02  0.70444185305E+01  0.50528856533E+02  0.29999989918E+02 0.  0.
         12    1    1    2    0    0  0.17916820982E+02  0.35812422997E+02 -0.70444185305E+01  0.40659143467E+02  0.00000000000E+00 0. -1.
         11    1    3    3    0    0  0.39349697204E+01 -0.76973267916E+01  0.59066260951E+01  0.10470007570E+02  0.51100000000E-03 0. -1.
        -11    1    3    3    0    0 -0.13576448595E+02 -0.84928375267E+01 -0.67100376524E+01  0.17362973572E+02  0.51100000000E-03 0.  1.
        -12    1    3    3    0    0 -0.82753421073E+01 -0.19622258679E+02  0.78478300877E+01  0.22695875390E+02  0.00000000000E+00 0.  1.
</event>
<event>
 7    1  0.3004200E-011  0.5052886E+02  0.7816164E-02  0.1300439E+00
        -11   -1    0    0    0    0  0.00000000000E+00  0.00000000000E+00  0.45593999997E+02  0.45594000000E+02  0.51100000000E-03 0.  1.
         11   -1    0    0    0    0 -0.00000000000E+00 -0.00000000000E+00 -0.45593999997E+02  0.45594000000E+02  0.51100000000E-03 0. -1.
    9900012    2    1    2    0    0  0.74793026822E+01  0.34393833225E+02  0.20354109433E+02  0.50528861994E+02  0.30000006518E+02 0.  0.
         12    1    1    2    0    0 -0.74793026822E+01 -0.34393833225E+02 -0.20354109433E+02  0.40659138006E+02  0.00000000000E+00 0. -1.
         11    1    3    3    0    0 -0.48355095390E+01  0.21849877769E+02  0.98989574597E+01  0.24470158767E+02  0.51100000000E-03 0.  1.
        -11    1    3    3    0    0  0.89293261884E+01  0.26877300577E+01  0.12341059769E+02  0.15467983564E+02  0.51100000000E-03 0. -1.
        -12    1    3    3    0    0  0.33854860328E+01  0.98562253988E+01 -0.18859077954E+01  0.10590719664E+02  0.00000000000E+00 0.  1.
</event>
<event>
 7    1  0.3004200E-011  0.5052887E+02  0.7816164E-02  0.1300439E+00
        -11   -1    0    0    0    0  0.00000000000E+00  0.00000000000E+00  0.45593999997E+02  0.45594000000E+02  0.51100000000E-03 0.  1.
         11   -1    0    0    0    0 -0.00000000000E+00 -0.00000000000E+00 -0.45593999997E+02  0.45594000000E+02  0.51100000000E-03 0. -1.
    9900012    2    1    2    0    0  0.38846160787E+02 -0.77403506678E+01  0.91775802808E+01  0.50528865526E+02  0.30000017253E+02 0.  0.
         12    1    1    2    0    0 -0.38846160787E+02  0.77403506678E+01 -0.91775802808E+01  0.40659134474E+02  0.00000000000E+00 0. -1.
         11    1    3    3    0    0  0.11492177694E+02  0.24003269408E+01 -0.56087553459E+01  0.13011143469E+02  0.51100000000E-03 0. -1.
        -11    1    3    3    0    0  0.25689072891E+02 -0.14707183028E+02  0.12257306561E+02  0.32038590216E+02  0.51100000000E-03 0.  1.
        -12    1    3    3    0    0  0.16649102019E+01  0.45665054191E+01  0.25290290655E+01  0.54791318415E+01  0.00000000000E+00 0.  1.
</event>
<event>
 7    1  0.3004200E-011  0.5052886E+02  0.7816164E-02  0.1300439E+00
        -11   -1    0    0    0    0  0.00000000000E+00  0.00000000000E+00  0.45593999997E+02  0.45594000000E+02  0.51100000000E-03 0.  1.
         11   -1    0    0    0    0 -0.00000000000E+00 -0.00000000000E+00 -0.45593999997E+02  0.45594000000E+02  0.51100000000E-03 0. -1.
    9900012    2    1    2    0    0 -0.22223257778E+02  0.22261485170E+02  0.25762733514E+02  0.50528863925E+02  0.30000012387E+02 0.  0.
         12    1    1    2    0    0  0.22223257778E+02 -0.22261485170E+02 -0.25762733514E+02  0.40659136075E+02  0.00000000000E+00 0. -1.
         11    1    3    3    0    0 -0.21878323055E+00  0.17607258500E+02  0.64781726470E+01  0.18762466232E+02  0.51100000000E-03 0. -1.
        -11    1    3    3    0    0 -0.13291836174E+02  0.83639717310E+01  0.10879772551E+02  0.19104930856E+02  0.51100000000E-03 0.  1.
         12    1    3    3    0    0 -0.87126383729E+01 -0.37097450610E+01  0.84047883158E+01  0.12661466837E+02  0.00000000000E+00 0. -1.
</event>
<event>
 7    1  0.3004200E-011  0.5052887E+02  0.7816164E-02  0.1300439E+00
        -11   -1    0    0    0    0  0.00000000000E+00  0.00000000000E+00  0.45593999997E+02  0.45594000000E+02  0.51100000000E-03 0. -1.
         11   -1    0    0    0    0 -0.00000000000E+00 -0.00000000000E+00 -0.45593999997E+02  0.45594000000E+02  0.51100000000E-03 0.  1.
    9900012    2    1    2    0    0  0.79117633931E+01 -0.38625039321E+02 -0.99335416212E+01  0.50528869271E+02  0.30000028635E+02 0.  0.
         12    1    1    2    0    0 -0.79117633931E+01  0.38625039321E+02  0.99335416212E+01  0.40659130729E+02  0.00000000000E+00 0. -1.
         11    1    3    3    0    0 -0.22781133072E+01  0.66480335787E+00  0.30682001956E+01  0.38788679337E+01  0.51100000000E-03 0. -1.
        -11    1    3    3    0    0  0.14481851322E+02 -0.19345674738E+02 -0.46662542296E+01  0.24612051470E+02  0.51100000000E-03 0.  1.
        -12    1    3    3    0    0 -0.42919746217E+01 -0.19944167941E+02 -0.83354875872E+01  0.22037949867E+02  0.00000000000E+00 0.  1.
</event>
<event>
 7    1  0.3004200E-011  0.5052886E+02  0.7816164E-02  0.1300439E+00
        -11   -1    0    0    0    0  0.00000000000E+00  0.00000000000E+00  0.45593999997E+02  0.45594000000E+02  0.51100000000E-03 0. -1.
         11   -1    0    0    0    0 -0.00000000000E+00 -0.00000000000E+00 -0.45593999997E+02  0.45594000000E+02  0.51100000000E-03 0.  1.
    9900012    2    1    2    0    0 -0.42861268369E+01 -0.89015218289E+01 -0.39440563272E+02  0.50528855821E+02  0.29999987753E+02 0.  0.
         12    1    1    2    0    0  0.42861268369E+01  0.89015218289E+01  0.39440563272E+02  0.40659144179E+02  0.00000000000E+00 0. -1.
         11    1    3    3    0    0 -0.12232476835E+01  0.66946181594E+01 -0.25459940531E+02  0.26353800851E+02  0.51100000000E-03 0.  1.
        -11    1    3    3    0    0 -0.27017007207E+01 -0.34435244904E+00  0.89519180399E+00  0.28669032108E+01  0.51100000000E-03 0. -1.
         12    1    3    3    0    0 -0.36117843277E+00 -0.15251787539E+02 -0.14875814546E+02  0.21308151759E+02  0.00000000000E+00 0. -1.
</event>
<event>
 7    1  0.3004200E-011  0.5052885E+02  0.7816164E-02  0.1300439E+00
        -11   -1    0    0    0    0  0.00000000000E+00  0.00000000000E+00  0.45593999997E+02  0.45594000000E+02  0.51100000000E-03 0.  1.
         11   -1    0    0    0    0 -0.00000000000E+00 -0.00000000000E+00 -0.45593999997E+02  0.45594000000E+02  0.51100000000E-03 0. -1.
    9900012    2    1    2    0    0  0.27792327005E+02  0.86338721366E+01  0.28393818609E+02  0.50528854366E+02  0.29999983332E+02 0.  0.
         12    1    1    2    0    0 -0.27792327005E+02 -0.86338721366E+01 -0.28393818609E+02  0.40659145634E+02  0.00000000000E+00 0. -1.
         11    1    3    3    0    0  0.63639491193E+01  0.12568529150E+02  0.13945423174E+02  0.19822779854E+02  0.51100000000E-03 0.  1.
        -11    1    3    3    0    0  0.21813062686E+02  0.45607884124E+00  0.14672896840E+02  0.26292805358E+02  0.51100000000E-03 0. -1.
         12    1    3    3    0    0 -0.38468480008E+00 -0.43907358550E+01 -0.22450140471E+00  0.44132691539E+01  0.00000000000E+00 0. -1.
</event>
<event>
 7    1  0.3004200E-011  0.5052886E+02  0.7816164E-02  0.1300439E+00
        -11   -1    0    0    0    0  0.00000000000E+00  0.00000000000E+00  0.45593999997E+02  0.45594000000E+02  0.51100000000E-03 0.  1.
         11   -1    0    0    0    0 -0.00000000000E+00 -0.00000000000E+00 -0.45593999997E+02  0.45594000000E+02  0.51100000000E-03 0. -1.
    9900012    2    1    2    0    0  0.39369387180E+02 -0.38082472299E+01  0.94188085654E+01  0.50528863897E+02  0.30000012300E+02 0.  0.
         12    1    1    2    0    0 -0.39369387180E+02  0.38082472299E+01 -0.94188085654E+01  0.40659136103E+02  0.00000000000E+00 0. -1.
         11    1    3    3    0    0  0.75645572447E+01  0.32968543220E+01  0.13440805461E+02  0.15771716027E+02  0.51100000000E-03 0.  1.
        -11    1    3    3    0    0  0.18145293426E+02  0.17625042012E+01 -0.24852056244E+01  0.18399302754E+02  0.51100000000E-03 0. -1.
         12    1    3    3    0    0  0.13659536509E+02 -0.88676057532E+01 -0.15367912710E+01  0.16357845117E+02  0.00000000000E+00 0. -1.
</event>
<event>
 7    1  0.3004200E-011  0.5052886E+02  0.7816164E-02  0.1300439E+00
        -11   -1    0    0    0    0  0.00000000000E+00  0.00000000000E+00  0.45593999997E+02  0.45594000000E+02  0.51100000000E-03 0. -1.
         11   -1    0    0    0    0 -0.00000000000E+00 -0.00000000000E+00 -0.45593999997E+02  0.45594000000E+02  0.51100000000E-03 0.  1.
    9900012    2    1    2    0    0  0.50095738348E-01  0.19886905104E+02 -0.35463701962E+02  0.50528860055E+02  0.30000000623E+02 0.  0.
         12    1    1    2    0    0 -0.50095738348E-01 -0.19886905104E+02  0.35463701962E+02  0.40659139945E+02  0.00000000000E+00 0. -1.
         11    1    3    3    0    0 -0.68851318776E+01  0.23141044668E+02 -0.33304471412E+02  0.41135152918E+02  0.51100000000E-03 0. -1.
        -11    1    3    3    0    0  0.32916671872E+01  0.83417935484E+00 -0.19448072215E+01  0.39132088441E+01  0.51100000000E-03 0.  1.
         12    1    3    3    0    0  0.36435604287E+01 -0.40883189181E+01 -0.21442332834E+00  0.54804982929E+01  0.00000000000E+00 0. -1.
</event>
<event>
 7    1  0.3004200E-011  0.5052887E+02  0.7816164E-02  0.1300439E+00
        -11   -1    0    0    0    0  0.00000000000E+00  0.00000000000E+00  0.45593999997E+02  0.45594000000E+02  0.51100000000E-03 0.  1.
         11   -1    0    0    0    0 -0.00000000000E+00 -0.00000000000E+00 -0.45593999997E+02  0.45594000000E+02  0.51100000000E-03 0. -1.
    9900012    2    1    2    0    0 -0.85535665561E-01  0.77772387107E+01  0.39908300717E+02  0.50528865424E+02  0.30000016944E+02 0.  0.
         12    1    1    2    0    0  0.85535665561E-01 -0.77772387107E+01 -0.39908300717E+02  0.40659134576E+02  0.00000000000E+00 0. -1.
         11    1    3    3    0    0 -0.44197655022E+01  0.86287577351E+01  0.11794486421E+02  0.15267602869E+02  0.51100000000E-03 0. -1.
        -11    1    3    3    0    0  0.11224855250E+02 -0.58215289691E+01  0.14781329512E+02  0.19451870792E+02  0.51100000000E-03 0.  1.
        -12    1    3    3    0    0 -0.68906254130E+01  0.49700099448E+01  0.13332484783E+02  0.15809391763E+02  0.00000000000E+00 0.  1.
</event>
<event>
 7    1  0.3004200E-011  0.5052885E+02  0.7816164E-02  0.1300439E+00
        -11   -1    0    0    0    0  0.00000000000E+00  0.00000000000E+00  0.45593999997E+02  0.45594000000E+02  0.51100000000E-03 0.  1.
         11   -1    0    0    0    0 -0.00000000000E+00 -0.00000000000E+00 -0.45593999997E+02  0.45594000000E+02  0.51100000000E-03 0. -1.
    9900012    2    1    2    0    0 -0.19231516030E+01  0.24132444698E+02  0.32666395107E+02  0.50528846437E+02  0.29999959228E+02 0.  0.
         12    1    1    2    0    0  0.19231516030E+01 -0.24132444698E+02 -0.32666395107E+02  0.40659153563E+02  0.00000000000E+00 0. -1.
         11    1    3    3    0    0 -0.93603518037E+01  0.98227170399E+01  0.40920788298E+01  0.14172052263E+02  0.51100000000E-03 0. -1.
        -11    1    3    3    0    0  0.84489259648E+01  0.12817270673E+02  0.30232747162E+02  0.33907016659E+02  0.51100000000E-03 0.  1.
        -12    1    3    3    0    0 -0.10117257642E+01  0.14924569852E+01 -0.16584308844E+01  0.24497775150E+01  0.00000000000E+00 0.  1.
</event>
<event>
 7    1  0.3004200E-011  0.5052887E+02  0.7816164E-02  0.1300439E+00
        -11   -1    0    0    0    0  0.00000000000E+00  0.00000000000E+00  0.45593999997E+02  0.45594000000E+02  0.51100000000E-03 0.  1.
         11   -1    0    0    0    0 -0.00000000000E+00 -0.00000000000E+00 -0.45593999997E+02  0.45594000000E+02  0.51100000000E-03 0. -1.
    9900012    2    1    2    0    0 -0.11062108753E+02 -0.34837076148E+02  0.17809350576E+02  0.50528867046E+02  0.30000021874E+02 0.  0.
         12    1    1    2    0    0  0.11062108753E+02  0.34837076148E+02 -0.17809350576E+02  0.40659132954E+02  0.00000000000E+00 0. -1.
         11    1    3    3    0    0 -0.12990261920E+02 -0.19524328097E+02  0.12850860368E+02  0.26741183685E+02  0.51100000000E-03 0. -1.
        -11    1    3    3    0    0  0.92238872095E+01 -0.91347717573E+01  0.57433716689E+01  0.14195438306E+02  0.51100000000E-03 0.  1.
        -12    1    3    3    0    0 -0.72957340422E+01 -0.61779762933E+01 -0.78488146103E+00  0.95922450554E+01  0.00000000000E+00 0.  1.
</event>
<event>
 7    1  0.3004200E-011  0.5052887E+02  0.7816164E-02  0.1300439E+00
        -11   -1    0    0    0    0  0.00000000000E+00  0.00000000000E+00  0.45593999997E+02  0.45594000000E+02  0.51100000000E-03 0. -1.
         11   -1    0    0    0    0 -0.00000000000E+00 -0.00000000000E+00 -0.45593999997E+02  0.45594000000E+02  0.51100000000E-03 0.  1.
    9900012    2    1    2    0    0 -0.38146288152E+02 -0.11234495321E+02 -0.84741725777E+01  0.50528870819E+02  0.30000033341E+02 0.  0.
         12    1    1    2    0    0  0.38146288152E+02  0.11234495321E+02  0.84741725777E+01  0.40659129181E+02  0.00000000000E+00 0. -1.
         11    1    3    3    0    0 -0.16891942674E+02  0.22739122505E+01 -0.96406334609E+01  0.19581884945E+02  0.51100000000E-03 0.  1.
        -11    1    3    3    0    0 -0.21117814668E+02 -0.16804486397E+02 -0.98934094523E+00  0.27006141064E+02  0.51100000000E-03 0. -1.
        -12    1    3    3    0    0 -0.13653081042E+00  0.32960788256E+01  0.21558018284E+01  0.39408448092E+01  0.00000000000E+00 0.  1.
</event>
<event>
 7    1  0.3004200E-011  0.5052892E+02  0.7816164E-02  0.1300439E+00
        -11   -1    0    0    0    0  0.00000000000E+00  0.00000000000E+00  0.45593999997E+02  0.45594000000E+02  0.51100000000E-03 0.  1.
         11   -1    0    0    0    0 -0.00000000000E+00 -0.00000000000E+00 -0.45593999997E+02  0.45594000000E+02  0.51100000000E-03 0. -1.
    9900012    2    1    2    0    0  0.39384769020E+02  0.35395239140E+01  0.94589939094E+01  0.50528919513E+02  0.30000181350E+02 0.  0.
         12    1    1    2    0    0 -0.39384769020E+02 -0.35395239140E+01 -0.94589939094E+01  0.40659080487E+02  0.00000000000E+00 0. -1.
         11    1    3    3    0    0  0.33971699198E+02 -0.68492079767E+00  0.80946042507E+00  0.33988243399E+02  0.51100000000E-03 0. -1.
        -11    1    3    3    0    0  0.68161981807E+01 -0.18647318685E+00  0.96393624252E+01  0.11807312908E+02  0.51100000000E-03 0.  1.
         12    1    3    3    0    0 -0.14031283590E+01  0.44109178985E+01 -0.98982894082E+00  0.47333632051E+01  0.00000000000E+00 0. -1.
</event>
<event>
 7    1  0.3004200E-011  0.5052886E+02  0.7816164E-02  0.1300439E+00
        -11   -1    0    0    0    0  0.00000000000E+00  0.00000000000E+00  0.45593999997E+02  0.45594000000E+02  0.51100000000E-03 0.  1.
         11   -1    0    0    0    0 -0.00000000000E+00 -0.00000000000E+00 -0.45593999997E+02  0.45594000000E+02  0.51100000000E-03 0. -1.
    9900012    2    1    2    0    0 -0.34208879263E+02 -0.17213760890E+01  0.21907883523E+02  0.50528856914E+02  0.29999991075E+02 0.  0.
         12    1    1    2    0    0  0.34208879263E+02  0.17213760890E+01 -0.21907883523E+02  0.40659143086E+02  0.00000000000E+00 0. -1.
         11    1    3    3    0    0 -0.16988561070E+02  0.11852008595E+02  0.49924422479E+01  0.21307411735E+02  0.51100000000E-03 0. -1.
        -11    1    3    3    0    0 -0.13477798940E+02 -0.63108910180E+01  0.14310125312E+02  0.20646018900E+02  0.51100000000E-03 0.  1.
         12    1    3    3    0    0 -0.37425192524E+01 -0.72624936659E+01  0.26053159632E+01  0.85754262792E+01  0.00000000000E+00 0. -1.
</event>
<event>
 7    1  0.3004200E-011  0.5052886E+02  0.7816164E-02  0.1300439E+00
        -11   -1    0    0    0    0  0.00000000000E+00  0.00000000000E+00  0.45593999997E+02  0.45594000000E+02  0.51100000000E-03 0. -1.
         11   -1    0    0    0    0 -0.00000000000E+00 -0.00000000000E+00 -0.45593999997E+02  0.45594000000E+02  0.51100000000E-03 0.  1.
    9900012    2    1    2    0    0 -0.48606175179E+01 -0.57776207842E+01 -0.39951955975E+02  0.50528864608E+02  0.30000014463E+02 0.  0.
         12    1    1    2    0    0  0.48606175179E+01  0.57776207842E+01  0.39951955975E+02  0.40659135392E+02  0.00000000000E+00 0. -1.
         11    1    3    3    0    0 -0.25935707186E+01  0.39314903299E+01  0.64430704276E+00  0.47537729345E+01  0.51100000000E-03 0. -1.
        -11    1    3    3    0    0 -0.83511316471E+00 -0.55731866884E+00 -0.34870991135E+02  0.34885441678E+02  0.51100000000E-03 0.  1.
        -12    1    3    3    0    0 -0.14319336346E+01 -0.91517924452E+01 -0.57252718832E+01  0.10889649996E+02  0.00000000000E+00 0.  1.
</event>
<event>
 7    1  0.3004200E-011  0.5052886E+02  0.7816164E-02  0.1300439E+00
        -11   -1    0    0    0    0  0.00000000000E+00  0.00000000000E+00  0.45593999997E+02  0.45594000000E+02  0.51100000000E-03 0.  1.
         11   -1    0    0    0    0 -0.00000000000E+00 -0.00000000000E+00 -0.45593999997E+02  0.45594000000E+02  0.51100000000E-03 0. -1.
    9900012    2    1    2    0    0 -0.24443123979E+02 -0.64095683222E+01  0.31853055222E+02  0.50528855852E+02  0.29999987847E+02 0.  0.
         12    1    1    2    0    0  0.24443123979E+02  0.64095683222E+01 -0.31853055222E+02  0.40659144148E+02  0.00000000000E+00 0. -1.
         11    1    3    3    0    0 -0.15218687957E+02 -0.13084204976E+02  0.89601139328E+01  0.21979274896E+02  0.51100000000E-03 0. -1.
        -11    1    3    3    0    0 -0.70851155425E+01  0.84557359768E+01  0.85992031445E+01  0.13987302390E+02  0.51100000000E-03 0.  1.
        -12    1    3    3    0    0 -0.21393204786E+01 -0.17810993233E+01  0.14293738144E+02  0.14562278566E+02  0.00000000000E+00 0.  1.
</event>
<event>
 7    1  0.3004200E-011  0.5052884E+02  0.7816164E-02  0.1300439E+00
        -11   -1    0    0    0    0  0.00000000000E+00  0.00000000000E+00  0.45593999997E+02  0.45594000000E+02  0.51100000000E-03 0. -1.
         11   -1    0    0    0    0 -0.00000000000E+00 -0.00000000000E+00 -0.45593999997E+02  0.45594000000E+02  0.51100000000E-03 0.  1.
    9900012    2    1    2    0    0  0.18884744617E+02 -0.29645349887E+02 -0.20437394454E+02  0.50528838164E+02  0.29999934082E+02 0.  0.
         12    1    1    2    0    0 -0.18884744617E+02  0.29645349887E+02  0.20437394454E+02  0.40659161836E+02  0.00000000000E+00 0. -1.
         11    1    3    3    0    0  0.66404573589E+01  0.38291324591E+01 -0.12183581129E+01  0.77615930115E+01  0.51100000000E-03 0. -1.
        -11    1    3    3    0    0  0.12924308362E+02 -0.34358554610E+02 -0.19567794613E+02  0.41598637091E+02  0.51100000000E-03 0.  1.
        -12    1    3    3    0    0 -0.68002110384E+00  0.88407226358E+00  0.34875827238E+00  0.11686080615E+01  0.00000000000E+00 0.  1.
</event>
<event>
 7    1  0.3004200E-011  0.5052885E+02  0.7816164E-02  0.1300439E+00
        -11   -1    0    0    0    0  0.00000000000E+00  0.00000000000E+00  0.45593999997E+02  0.45594000000E+02  0.51100000000E-03 0.  1.
         11   -1    0    0    0    0 -0.00000000000E+00 -0.00000000000E+00 -0.45593999997E+02  0.45594000000E+02  0.51100000000E-03 0. -1.
    9900012    2    1    2    0    0  0.82728200785E+01 -0.32695829404E+02  0.22709235584E+02  0.50528853510E+02  0.29999980729E+02 0.  0.
         12    1    1    2    0    0 -0.82728200785E+01  0.32695829404E+02 -0.22709235584E+02  0.40659146490E+02  0.00000000000E+00 0. -1.
         11    1    3    3    0    0  0.16314071402E+01 -0.13788216008E+02 -0.23580908803E+01  0.14083216351E+02  0.51100000000E-03 0. -1.
        -11    1    3    3    0    0  0.13855610662E+01 -0.20564695077E+02  0.21966313808E+02  0.30122174650E+02  0.51100000000E-03 0.  1.
        -12    1    3    3    0    0  0.52558518721E+01  0.16570816809E+01  0.31010126566E+01  0.63234625084E+01  0.00000000000E+00 0.  1.
</event>
<event>
 7    1  0.3004200E-011  0.5052888E+02  0.7816164E-02  0.1300439E+00
        -11   -1    0    0    0    0  0.00000000000E+00  0.00000000000E+00  0.45593999997E+02  0.45594000000E+02  0.51100000000E-03 0. -1.
         11   -1    0    0    0    0 -0.00000000000E+00 -0.00000000000E+00 -0.45593999997E+02  0.45594000000E+02  0.51100000000E-03 0.  1.
    9900012    2    1    2    0    0 -0.39397362091E+02 -0.68907463664E+01  0.73163718653E+01  0.50528882665E+02  0.30000069347E+02 0.  0.
         12    1    1    2    0    0  0.39397362091E+02  0.68907463664E+01 -0.73163718653E+01  0.40659117335E+02  0.00000000000E+00 0. -1.
         11    1    3    3    0    0 -0.96308233502E-01 -0.25269779061E+01  0.68511184731E+01  0.73029252500E+01  0.51100000000E-03 0. -1.
        -11    1    3    3    0    0 -0.21350773680E+02 -0.52420802255E+01 -0.79544621154E+01  0.23379658031E+02  0.51100000000E-03 0.  1.
        -12    1    3    3    0    0 -0.17950280178E+02  0.87831176517E+00  0.84197155076E+01  0.19846299384E+02  0.00000000000E+00 0.  1.
</event>
<event>
 7    1  0.3004200E-011  0.5052886E+02  0.7816164E-02  0.1300439E+00
        -11   -1    0    0    0    0  0.00000000000E+00  0.00000000000E+00  0.45593999997E+02  0.45594000000E+02  0.51100000000E-03 0.  1.
         11   -1    0    0    0    0 -0.00000000000E+00 -0.00000000000E+00 -0.45593999997E+02  0.45594000000E+02  0.51100000000E-03 0. -1.
    9900012    2    1    2    0    0  0.17412304717E+02 -0.34255657266E+02  0.13286351198E+02  0.50528861563E+02  0.30000005206E+02 0.  0.
         12    1    1    2    0    0 -0.17412304717E+02  0.34255657266E+02 -0.13286351198E+02  0.40659138437E+02  0.00000000000E+00 0. -1.
         11    1    3    3    0    0 -0.50039686845E+01 -0.14398782734E+01 -0.34819119065E+01  0.62639175301E+01  0.51100000000E-03 0. -1.
        -11    1    3    3    0    0  0.89392816460E+01 -0.18461165497E+02  0.12804687742E+02  0.24180269152E+02  0.51100000000E-03 0.  1.
         12    1    3    3    0    0  0.13476991755E+02 -0.14354613496E+02  0.39635753627E+01  0.20084674881E+02  0.00000000000E+00 0. -1.
</event>
<event>
 7    1  0.3004200E-011  0.5052886E+02  0.7816164E-02  0.1300439E+00
        -11   -1    0    0    0    0  0.00000000000E+00  0.00000000000E+00  0.45593999997E+02  0.45594000000E+02  0.51100000000E-03 0. -1.
         11   -1    0    0    0    0 -0.00000000000E+00 -0.00000000000E+00 -0.45593999997E+02  0.45594000000E+02  0.51100000000E-03 0.  1.
    9900012    2    1    2    0    0 -0.20234961264E+02  0.14453510322E+02 -0.32168429566E+02  0.50528862298E+02  0.30000007440E+02 0.  0.
         12    1    1    2    0    0  0.20234961264E+02 -0.14453510322E+02  0.32168429566E+02  0.40659137702E+02  0.00000000000E+00 0. -1.
         11    1    3    3    0    0 -0.10481993146E+02  0.19308646101E+02 -0.11886971865E+02  0.24979913830E+02  0.51100000000E-03 0. -1.
        -11    1    3    3    0    0 -0.10790882630E+02 -0.90029109147E+00 -0.17583544838E+02  0.20650295914E+02  0.51100000000E-03 0.  1.
         12    1    3    3    0    0  0.10379145128E+01 -0.39548446869E+01 -0.26979128621E+01  0.48986525540E+01  0.00000000000E+00 0. -1.
</event>
<event>
 7    1  0.3004200E-011  0.5052887E+02  0.7816164E-02  0.1300439E+00
        -11   -1    0    0    0    0  0.00000000000E+00  0.00000000000E+00  0.45593999997E+02  0.45594000000E+02  0.51100000000E-03 0.  1.
         11   -1    0    0    0    0 -0.00000000000E+00 -0.00000000000E+00 -0.45593999997E+02  0.45594000000E+02  0.51100000000E-03 0. -1.
    9900012    2    1    2    0    0  0.65174698086E+01 -0.22315506082E+02  0.33357247461E+02  0.50528865939E+02  0.30000018507E+02 0.  0.
         12    1    1    2    0    0 -0.65174698086E+01  0.22315506082E+02 -0.33357247461E+02  0.40659134061E+02  0.00000000000E+00 0. -1.
         11    1    3    3    0    0 -0.10458042713E+01 -0.19786929691E+02  0.75237414218E+01  0.21194880949E+02  0.51100000000E-03 0. -1.
        -11    1    3    3    0    0  0.25104231818E+01  0.44323539727E+01  0.72980894817E+01  0.89000054289E+01  0.51100000000E-03 0.  1.
         12    1    3    3    0    0  0.50528508980E+01 -0.69609303639E+01  0.18535416558E+02  0.20433979561E+02  0.00000000000E+00 0. -1.
</event>
<event>
 7    1  0.3004200E-011  0.5052886E+02  0.7816164E-02  0.1300439E+00
        -11   -1    0    0    0    0  0.00000000000E+00  0.00000000000E+00  0.45593999997E+02  0.45594000000E+02  0.51100000000E-03 0. -1.
         11   -1    0    0    0    0 -0.00000000000E+00 -0.00000000000E+00 -0.45593999997E+02  0.45594000000E+02  0.51100000000E-03 0.  1.
    9900012    2    1    2    0    0 -0.29527604847E+02  0.16718883942E+02 -0.22400115123E+02  0.50528859752E+02  0.29999999701E+02 0.  0.
         12    1    1    2    0    0  0.29527604847E+02 -0.16718883942E+02  0.22400115123E+02  0.40659140248E+02  0.00000000000E+00 0. -1.
         11    1    3    3    0    0 -0.15318611685E+02  0.77482280122E+01 -0.21608890380E+02  0.27597808699E+02  0.51100000000E-03 0. -1.
        -11    1    3    3    0    0 -0.12889164171E+02  0.11716625863E+02 -0.46364176288E+01  0.18025155848E+02  0.51100000000E-03 0.  1.
         12    1    3    3    0    0 -0.13198289907E+01 -0.27459699329E+01  0.38451928857E+01  0.49058952053E+01  0.00000000000E+00 0. -1.
</event>
<event>
 7    1  0.3004200E-011  0.5052888E+02  0.7816164E-02  0.1300439E+00
        -11   -1    0    0    0    0  0.00000000000E+00  0.00000000000E+00  0.45593999997E+02  0.45594000000E+02  0.51100000000E-03 0.  1.
         11   -1    0    0    0    0 -0.00000000000E+00 -0.00000000000E+00 -0.45593999997E+02  0.45594000000E+02  0.51100000000E-03 0. -1.
    9900012    2    1    2    0    0 -0.13197216711E+02  0.16930732538E+02  0.34530384322E+02  0.50528884483E+02  0.30000074875E+02 0.  0.
         12    1    1    2    0    0  0.13197216711E+02 -0.16930732538E+02 -0.34530384322E+02  0.40659115517E+02  0.00000000000E+00 0. -1.
         11    1    3    3    0    0 -0.16625052504E+02  0.31668942560E+01  0.15236450705E+02  0.22772154495E+02  0.51100000000E-03 0. -1.
        -11    1    3    3    0    0 -0.16608166907E+01  0.13738085997E+02  0.17610169446E+02  0.22396682502E+02  0.51100000000E-03 0.  1.
         12    1    3    3    0    0  0.50886524832E+01  0.25752285458E-01  0.16837641712E+01  0.53600474866E+01  0.00000000000E+00 0. -1.
</event>
<event>
 7    1  0.3004200E-011  0.5052886E+02  0.7816164E-02  0.1300439E+00
        -11   -1    0    0    0    0  0.00000000000E+00  0.00000000000E+00  0.45593999997E+02  0.45594000000E+02  0.51100000000E-03 0. -1.
         11   -1    0    0    0    0 -0.00000000000E+00 -0.00000000000E+00 -0.45593999997E+02  0.45594000000E+02  0.51100000000E-03 0.  1.
    9900012    2    1    2    0    0 -0.19767435178E+02  0.86705527952E+00 -0.35519883730E+02  0.50528863037E+02  0.30000009688E+02 0.  0.
         12    1    1    2    0    0  0.19767435178E+02 -0.86705527952E+00  0.35519883730E+02  0.40659136963E+02  0.00000000000E+00 0. -1.
         11    1    3    3    0    0 -0.81762194884E+01  0.12384312086E+02 -0.16871335448E+02  0.22469172460E+02  0.51100000000E-03 0. -1.
        -11    1    3    3    0    0 -0.43249505362E+01 -0.12695481610E+02 -0.13808883139E+02  0.19250083227E+02  0.51100000000E-03 0.  1.
        -12    1    3    3    0    0 -0.72662651534E+01  0.11782248038E+01 -0.48396651431E+01  0.88096073502E+01  0.00000000000E+00 0.  1.
</event>
<event>
 7    1  0.3004200E-011  0.5052886E+02  0.7816164E-02  0.1300439E+00
        -11   -1    0    0    0    0  0.00000000000E+00  0.00000000000E+00  0.45593999997E+02  0.45594000000E+02  0.51100000000E-03 0.  1.
         11   -1    0    0    0    0 -0.00000000000E+00 -0.00000000000E+00 -0.45593999997E+02  0.45594000000E+02  0.51100000000E-03 0. -1.
    9900012    2    1    2    0    0 -0.29230403609E+01  0.36975390856E+02  0.16656585132E+02  0.50528861763E+02  0.30000005815E+02 0.  0.
         12    1    1    2    0    0  0.29230403609E+01 -0.36975390856E+02 -0.16656585132E+02  0.40659138237E+02  0.00000000000E+00 0. -1.
         11    1    3    3    0    0  0.58059152174E+01  0.45767182672E+01  0.21009123757E+01  0.76856251977E+01  0.51100000000E-03 0. -1.
        -11    1    3    3    0    0 -0.15094788171E+02  0.29116097356E+02  0.13999605052E+02  0.35659342353E+02  0.51100000000E-03 0.  1.
        -12    1    3    3    0    0  0.63658325932E+01  0.32825752333E+01  0.55606770355E+00  0.71838942126E+01  0.00000000000E+00 0.  1.
</event>
<event>
 7    1  0.3004200E-011  0.5052881E+02  0.7816164E-02  0.1300439E+00
        -11   -1    0    0    0    0  0.00000000000E+00  0.00000000000E+00  0.45593999997E+02  0.45594000000E+02  0.51100000000E-03 0.  1.
         11   -1    0    0    0    0 -0.00000000000E+00 -0.00000000000E+00 -0.45593999997E+02  0.45594000000E+02  0.51100000000E-03 0. -1.
    9900012    2    1    2    0    0  0.39803343029E+02  0.60133214875E+01  0.57186901731E+01  0.50528811999E+02  0.29999854551E+02 0.  0.
         12    1    1    2    0    0 -0.39803343029E+02 -0.60133214875E+01 -0.57186901731E+01  0.40659188001E+02  0.00000000000E+00 0. -1.
         11    1    3    3    0    0  0.53613862847E+01  0.57957553760E+01 -0.90754195159E+01  0.12029068248E+02  0.51100000000E-03 0. -1.
        -11    1    3    3    0    0  0.31066467551E+02 -0.25525589461E+01  0.13207602796E+02  0.33853828959E+02  0.51100000000E-03 0.  1.
        -12    1    3    3    0    0  0.33754891934E+01  0.27701250576E+01  0.15865068928E+01  0.46459147915E+01  0.00000000000E+00 0.  1.
</event>
<event>
 7    1  0.3004200E-011  0.5052886E+02  0.7816164E-02  0.1300439E+00
        -11   -1    0    0    0    0  0.00000000000E+00  0.00000000000E+00  0.45593999997E+02  0.45594000000E+02  0.51100000000E-03 0. -1.
         11   -1    0    0    0    0 -0.00000000000E+00 -0.00000000000E+00 -0.45593999997E+02  0.45594000000E+02  0.51100000000E-03 0.  1.
    9900012    2    1    2    0    0 -0.33603258920E+02  0.19892332019E+01 -0.22804152904E+02  0.50528862670E+02  0.30000008571E+02 0.  0.
         12    1    1    2    0    0  0.33603258920E+02 -0.19892332019E+01  0.22804152904E+02  0.40659137330E+02  0.00000000000E+00 0. -1.
         11    1    3    3    0    0 -0.24892146847E+02 -0.82377943798E+01 -0.28011050117E+01  0.26369042843E+02  0.51100000000E-03 0. -1.
        -11    1    3    3    0    0 -0.56522428703E+01  0.53748580859E+01 -0.10994556234E+02  0.13480252815E+02  0.51100000000E-03 0.  1.
         12    1    3    3    0    0 -0.30588692026E+01  0.48521694957E+01 -0.90084916582E+01  0.10679567012E+02  0.00000000000E+00 0. -1.
</event>
<event>
 7    1  0.3004200E-011  0.5052887E+02  0.7816164E-02  0.1300439E+00
        -11   -1    0    0    0    0  0.00000000000E+00  0.00000000000E+00  0.45593999997E+02  0.45594000000E+02  0.51100000000E-03 0. -1.
         11   -1    0    0    0    0 -0.00000000000E+00 -0.00000000000E+00 -0.45593999997E+02  0.45594000000E+02  0.51100000000E-03 0.  1.
    9900012    2    1    2    0    0 -0.25530729135E+02 -0.30651977871E+02  0.78614650124E+01  0.50528874213E+02  0.30000043659E+02 0.  0.
         12    1    1    2    0    0  0.25530729135E+02  0.30651977871E+02 -0.78614650124E+01  0.40659125787E+02  0.00000000000E+00 0. -1.
         11    1    3    3    0    0 -0.14749584590E+02 -0.14604139547E+02  0.10327090006E+02  0.23183613302E+02  0.51100000000E-03 0. -1.
        -11    1    3    3    0    0 -0.98502011432E+01 -0.17950536957E+02 -0.75611201719E+01  0.21827019451E+02  0.51100000000E-03 0.  1.
        -12    1    3    3    0    0 -0.93094340228E+00  0.19026986325E+01  0.50954951782E+01  0.55182414604E+01  0.00000000000E+00 0.  1.
</event>
<event>
 7    1  0.3004200E-011  0.5052886E+02  0.7816164E-02  0.1300439E+00
        -11   -1    0    0    0    0  0.00000000000E+00  0.00000000000E+00  0.45593999997E+02  0.45594000000E+02  0.51100000000E-03 0. -1.
         11   -1    0    0    0    0 -0.00000000000E+00 -0.00000000000E+00 -0.45593999997E+02  0.45594000000E+02  0.51100000000E-03 0.  1.
    9900012    2    1    2    0    0 -0.35828296252E+02  0.43756261439E+00 -0.19217374697E+02  0.50528858794E+02  0.29999996790E+02 0.  0.
         12    1    1    2    0    0  0.35828296252E+02 -0.43756261439E+00  0.19217374697E+02  0.40659141206E+02  0.00000000000E+00 0. -1.
         11    1    3    3    0    0  0.60508049431E+00 -0.60398475783E+01  0.25344945525E+01  0.65779589594E+01  0.51100000000E-03 0. -1.
        -11    1    3    3    0    0 -0.33419635914E+02  0.38562651870E+01 -0.16842401941E+02  0.37621926442E+02  0.51100000000E-03 0.  1.
         12    1    3    3    0    0 -0.30137408324E+01  0.26211450057E+01 -0.49094673085E+01  0.63289733922E+01  0.00000000000E+00 0. -1.
</event>
<event>
 7    1  0.3004200E-011  0.5052886E+02  0.7816164E-02  0.1300439E+00
        -11   -1    0    0    0    0  0.00000000000E+00  0.00000000000E+00  0.45593999997E+02  0.45594000000E+02  0.51100000000E-03 0.  1.
         11   -1    0    0    0    0 -0.00000000000E+00 -0.00000000000E+00 -0.45593999997E+02  0.45594000000E+02  0.51100000000E-03 0. -1.
    9900012    2    1    2    0    0  0.30108034815E+02 -0.19915488705E+02  0.18709498612E+02  0.50528858481E+02  0.29999995839E+02 0.  0.
         12    1    1    2    0    0 -0.30108034815E+02  0.19915488705E+02 -0.18709498612E+02  0.40659141519E+02  0.00000000000E+00 0. -1.
         11    1    3    3    0    0  0.10893305792E+02 -0.21930554332E+00  0.15926395953E+02  0.19296691279E+02  0.51100000000E-03 0. -1.
        -11    1    3    3    0    0  0.13498973779E+02 -0.20542137393E+02 -0.50184281054E+00  0.24585637031E+02  0.51100000000E-03 0.  1.
        -12    1    3    3    0    0  0.57157552442E+01  0.84595423206E+00  0.32849454696E+01  0.66465301709E+01  0.00000000000E+00 0.  1.
</event>
<event>
 7    1  0.3004200E-011  0.5052886E+02  0.7816164E-02  0.1300439E+00
        -11   -1    0    0    0    0  0.00000000000E+00  0.00000000000E+00  0.45593999997E+02  0.45594000000E+02  0.51100000000E-03 0. -1.
         11   -1    0    0    0    0 -0.00000000000E+00 -0.00000000000E+00 -0.45593999997E+02  0.45594000000E+02  0.51100000000E-03 0.  1.
    9900012    2    1    2    0    0 -0.28663600080E+02  0.24115958359E+02 -0.15810897630E+02  0.50528857105E+02  0.29999991656E+02 0.  0.
         12    1    1    2    0    0  0.28663600080E+02 -0.24115958359E+02  0.15810897630E+02  0.40659142895E+02  0.00000000000E+00 0. -1.
         11    1    3    3    0    0 -0.51200720309E+01 -0.51073744401E+01 -0.78066675071E+01  0.10641638459E+02  0.51100000000E-03 0. -1.
        -11    1    3    3    0    0 -0.20790928589E+02  0.19606217363E+02 -0.30957779510E+01  0.28744570136E+02  0.51100000000E-03 0.  1.
         12    1    3    3    0    0 -0.27525994594E+01  0.96171154355E+01 -0.49084521724E+01  0.11142648510E+02  0.00000000000E+00 0. -1.
</event>
<event>
 7    1  0.3004200E-011  0.5052885E+02  0.7816164E-02  0.1300439E+00
        -11   -1    0    0    0    0  0.00000000000E+00  0.00000000000E+00  0.45593999997E+02  0.45594000000E+02  0.51100000000E-03 0. -1.
         11   -1    0    0    0    0 -0.00000000000E+00 -0.00000000000E+00 -0.45593999997E+02  0.45594000000E+02  0.51100000000E-03 0.  1.
    9900012    2    1    2    0    0 -0.16145241152E+02 -0.21666159831E+02 -0.30382151434E+02  0.50528850729E+02  0.29999972275E+02 0.  0.
         12    1    1    2    0    0  0.16145241152E+02  0.21666159831E+02  0.30382151434E+02  0.40659149271E+02  0.00000000000E+00 0. -1.
         11    1    3    3    0    0 -0.22874350998E+02 -0.12596669143E+02 -0.26839010028E+02  0.37446554803E+02  0.51100000000E-03 0. -1.
        -11    1    3    3    0    0  0.20687415794E+01 -0.60835379165E+01  0.15171935384E+00  0.64274523979E+01  0.51100000000E-03 0.  1.
         12    1    3    3    0    0  0.46603682668E+01 -0.29859527717E+01 -0.36948607603E+01  0.66548435275E+01  0.00000000000E+00 0. -1.
</event>
<event>
 7    1  0.3004200E-011  0.5052889E+02  0.7816164E-02  0.1300439E+00
        -11   -1    0    0    0    0  0.00000000000E+00  0.00000000000E+00  0.45593999997E+02  0.45594000000E+02  0.51100000000E-03 0.  1.
         11   -1    0    0    0    0 -0.00000000000E+00 -0.00000000000E+00 -0.45593999997E+02  0.45594000000E+02  0.51100000000E-03 0. -1.
    9900012    2    1    2    0    0  0.23086068870E+02  0.25650438854E+02  0.21500034185E+02  0.50528892051E+02  0.30000097877E+02 0.  0.
         12    1    1    2    0    0 -0.23086068870E+02 -0.25650438854E+02 -0.21500034185E+02  0.40659107949E+02  0.00000000000E+00 0. -1.
         11    1    3    3    0    0  0.15018396735E+02  0.11157247169E+02  0.41133287458E+00  0.18713781015E+02  0.51100000000E-03 0. -1.
        -11    1    3    3    0    0 -0.49168633540E-01  0.15425780019E+02  0.11645759728E+02  0.19328239098E+02  0.51100000000E-03 0.  1.
        -12    1    3    3    0    0  0.81168407683E+01 -0.93258833356E+00  0.94429415820E+01  0.12486871937E+02  0.00000000000E+00 0.  1.
</event>
<event>
 7    1  0.3004200E-011  0.5052887E+02  0.7816164E-02  0.1300439E+00
        -11   -1    0    0    0    0  0.00000000000E+00  0.00000000000E+00  0.45593999997E+02  0.45594000000E+02  0.51100000000E-03 0.  1.
         11   -1    0    0    0    0 -0.00000000000E+00 -0.00000000000E+00 -0.45593999997E+02  0.45594000000E+02  0.51100000000E-03 0. -1.
    9900012    2    1    2    0    0 -0.18747068768E+02  0.35448720821E+02  0.67156741003E+01  0.50528872196E+02  0.30000037526E+02 0.  0.
         12    1    1    2    0    0  0.18747068768E+02 -0.35448720821E+02 -0.67156741003E+01  0.40659127804E+02  0.00000000000E+00 0. -1.
         11    1    3    3    0    0 -0.11301549090E+02  0.34011260174E-01  0.35820811508E+01  0.11855693747E+02  0.51100000000E-03 0. -1.
        -11    1    3    3    0    0 -0.98389459520E+00  0.14955710698E+02 -0.48918805209E+01  0.15766160799E+02  0.51100000000E-03 0.  1.
        -12    1    3    3    0    0 -0.64616250830E+01  0.20458998863E+02  0.80254734704E+01  0.22907017649E+02  0.00000000000E+00 0.  1.
</event>
<event>
 7    1  0.3004200E-011  0.5052886E+02  0.7816164E-02  0.1300439E+00
        -11   -1    0    0    0    0  0.00000000000E+00  0.00000000000E+00  0.45593999997E+02  0.45594000000E+02  0.51100000000E-03 0. -1.
         11   -1    0    0    0    0 -0.00000000000E+00 -0.00000000000E+00 -0.45593999997E+02  0.45594000000E+02  0.51100000000E-03 0.  1.
    9900012    2    1    2    0    0 -0.15570991259E+02 -0.10429389569E+02 -0.36082375665E+02  0.50528858725E+02  0.29999996580E+02 0.  0.
         12    1    1    2    0    0  0.15570991259E+02  0.10429389569E+02  0.36082375665E+02  0.40659141275E+02  0.00000000000E+00 0. -1.
         11    1    3    3    0    0 -0.84438993094E+01  0.60427630374E+01 -0.14614291857E+02  0.17927407716E+02  0.51100000000E-03 0. -1.
        -11    1    3    3    0    0 -0.62479028054E+01 -0.95987700013E+01 -0.22827917031E+02  0.25539899594E+02  0.51100000000E-03 0.  1.
         12    1    3    3    0    0 -0.87918914462E+00 -0.68733826052E+01  0.13598332231E+01  0.70615514148E+01  0.00000000000E+00 0. -1.
</event>
<event>
 7    1  0.3004200E-011  0.5052886E+02  0.7816164E-02  0.1300439E+00
        -11   -1    0    0    0    0  0.00000000000E+00  0.00000000000E+00  0.45593999997E+02  0.45594000000E+02  0.51100000000E-03 0. -1.
         11   -1    0    0    0    0 -0.00000000000E+00 -0.00000000000E+00 -0.45593999997E+02  0.45594000000E+02  0.51100000000E-03 0.  1.
    9900012    2    1    2    0    0  0.18650360711E+02 -0.13601268393E+02 -0.33471406031E+02  0.50528862304E+02  0.30000007458E+02 0.  0.
         12    1    1    2    0    0 -0.18650360711E+02  0.13601268393E+02  0.33471406031E+02  0.40659137696E+02  0.00000000000E+00 0. -1.
         11    1    3    3    0    0  0.99951526307E+01 -0.17257262374E+02 -0.16115698548E+02  0.25640435268E+02  0.51100000000E-03 0. -1.
        -11    1    3    3    0    0  0.20955452482E+01  0.95780681791E-01  0.27404001332E+01  0.34511269141E+01  0.51100000000E-03 0.  1.
        -12    1    3    3    0    0  0.65596628317E+01  0.35602132997E+01 -0.20096107615E+02  0.21437300121E+02  0.00000000000E+00 0.  1.
</event>
<event>
 7    1  0.3004200E-011  0.5052890E+02  0.7816164E-02  0.1300439E+00
        -11   -1    0    0    0    0  0.00000000000E+00  0.00000000000E+00  0.45593999997E+02  0.45594000000E+02  0.51100000000E-03 0.  1.
         11   -1    0    0    0    0 -0.00000000000E+00 -0.00000000000E+00 -0.45593999997E+02  0.45594000000E+02  0.51100000000E-03 0. -1.
    9900012    2    1    2    0    0 -0.16963974532E+02  0.23341579145E-02  0.36951132298E+02  0.50528897508E+02  0.30000114465E+02 0.  0.
         12    1    1    2    0    0  0.16963974532E+02 -0.23341579145E-02 -0.36951132298E+02  0.40659102492E+02  0.00000000000E+00 0. -1.
         11    1    3    3    0    0 -0.38431941047E+01  0.91419898934E+01  0.72850544605E+01  0.12305207795E+02  0.51100000000E-03 0.  1.
        -11    1    3    3    0    0 -0.29862762458E+01 -0.12930226355E+02  0.16955433084E+02  0.21531263565E+02  0.51100000000E-03 0. -1.
         12    1    3    3    0    0 -0.10134504181E+02  0.37905706193E+01  0.12710644754E+02  0.16692426147E+02  0.00000000000E+00 0. -1.
</event>
<event>
 7    1  0.3004200E-011  0.5052886E+02  0.7816164E-02  0.1300439E+00
        -11   -1    0    0    0    0  0.00000000000E+00  0.00000000000E+00  0.45593999997E+02  0.45594000000E+02  0.51100000000E-03 0.  1.
         11   -1    0    0    0    0 -0.00000000000E+00 -0.00000000000E+00 -0.45593999997E+02  0.45594000000E+02  0.51100000000E-03 0. -1.
    9900012    2    1    2    0    0  0.16596935202E+02  0.96932649237E+01  0.35829427552E+02  0.50528861770E+02  0.30000005835E+02 0.  0.
         12    1    1    2    0    0 -0.16596935202E+02 -0.96932649237E+01 -0.35829427552E+02  0.40659138230E+02  0.00000000000E+00 0. -1.
         11    1    3    3    0    0 -0.23117972056E+01 -0.28508667980E+01  0.18983292301E+02  0.19334870950E+02  0.51100000000E-03 0. -1.
        -11    1    3    3    0    0  0.17107983350E+02  0.11689668466E+02  0.81387950923E+01  0.22261433668E+02  0.51100000000E-03 0.  1.
        -12    1    3    3    0    0  0.18007490575E+01  0.85446325529E+00  0.87073401584E+01  0.89325571510E+01  0.00000000000E+00 0.  1.
</event>
<event>
 7    1  0.3004200E-011  0.5052886E+02  0.7816164E-02  0.1300439E+00
        -11   -1    0    0    0    0  0.00000000000E+00  0.00000000000E+00  0.45593999997E+02  0.45594000000E+02  0.51100000000E-03 0. -1.
         11   -1    0    0    0    0 -0.00000000000E+00 -0.00000000000E+00 -0.45593999997E+02  0.45594000000E+02  0.51100000000E-03 0.  1.
    9900012    2    1    2    0    0 -0.19490628729E+02  0.34456240600E+02  0.92762466247E+01  0.50528857412E+02  0.29999992589E+02 0.  0.
         12    1    1    2    0    0  0.19490628729E+02 -0.34456240600E+02 -0.92762466247E+01  0.40659142588E+02  0.00000000000E+00 0. -1.
         11    1    3    3    0    0 -0.13112338969E+02  0.73066659615E+01  0.35893516280E+01  0.15433866854E+02  0.51100000000E-03 0. -1.
        -11    1    3    3    0    0 -0.10915777200E+02  0.27778675754E+02  0.36054889741E+01  0.30063409146E+02  0.51100000000E-03 0.  1.
        -12    1    3    3    0    0  0.45374874388E+01 -0.62910111497E+00  0.20814060227E+01  0.50315814115E+01  0.00000000000E+00 0.  1.
</event>
<event>
 7    1  0.3004200E-011  0.5052886E+02  0.7816164E-02  0.1300439E+00
        -11   -1    0    0    0    0  0.00000000000E+00  0.00000000000E+00  0.45593999997E+02  0.45594000000E+02  0.51100000000E-03 0.  1.
         11   -1    0    0    0    0 -0.00000000000E+00 -0.00000000000E+00 -0.45593999997E+02  0.45594000000E+02  0.51100000000E-03 0. -1.
    9900012    2    1    2    0    0 -0.93420815024E+01  0.89556355293E+01  0.38544625531E+02  0.50528855250E+02  0.29999986017E+02 0.  0.
         12    1    1    2    0    0  0.93420815024E+01 -0.89556355293E+01 -0.38544625531E+02  0.40659144750E+02  0.00000000000E+00 0. -1.
         11    1    3    3    0    0 -0.14962867899E+01  0.45283956606E+01 -0.13819968107E+01  0.49653959422E+01  0.51100000000E-03 0. -1.
        -11    1    3    3    0    0 -0.82116024780E+01  0.10742753661E+02  0.35075061877E+02  0.37591184304E+02  0.51100000000E-03 0.  1.
        -12    1    3    3    0    0  0.36580776546E+00 -0.63155137925E+01  0.48515604647E+01  0.79722750032E+01  0.00000000000E+00 0.  1.
</event>
<event>
 7    1  0.3004200E-011  0.5052885E+02  0.7816164E-02  0.1300439E+00
        -11   -1    0    0    0    0  0.00000000000E+00  0.00000000000E+00  0.45593999997E+02  0.45594000000E+02  0.51100000000E-03 0.  1.
         11   -1    0    0    0    0 -0.00000000000E+00 -0.00000000000E+00 -0.45593999997E+02  0.45594000000E+02  0.51100000000E-03 0. -1.
    9900012    2    1    2    0    0 -0.35505551872E+01  0.40499514631E+02 -0.59087849560E+00  0.50528852629E+02  0.29999978052E+02 0.  0.
         12    1    1    2    0    0  0.35505551872E+01 -0.40499514631E+02  0.59087849560E+00  0.40659147371E+02  0.00000000000E+00 0. -1.
         11    1    3    3    0    0 -0.11854249448E+01  0.10577210979E+02 -0.79052304574E+01  0.13258027502E+02  0.51100000000E-03 0. -1.
        -11    1    3    3    0    0 -0.19219635756E+01  0.32986359638E+02  0.82118071582E+01  0.34047432256E+02  0.51100000000E-03 0.  1.
        -12    1    3    3    0    0 -0.44316666679E+00 -0.30640559854E+01 -0.89745519639E+00  0.32233928718E+01  0.00000000000E+00 0.  1.
</event>
<event>
 7    1  0.3004200E-011  0.5052882E+02  0.7816164E-02  0.1300439E+00
        -11   -1    0    0    0    0  0.00000000000E+00  0.00000000000E+00  0.45593999997E+02  0.45594000000E+02  0.51100000000E-03 0. -1.
         11   -1    0    0    0    0 -0.00000000000E+00 -0.00000000000E+00 -0.45593999997E+02  0.45594000000E+02  0.51100000000E-03 0.  1.
    9900012    2    1    2    0    0  0.22664514720E+02 -0.16070094450E+02 -0.29685694099E+02  0.50528823948E+02  0.29999890873E+02 0.  0.
         12    1    1    2    0    0 -0.22664514720E+02  0.16070094450E+02  0.29685694099E+02  0.40659176052E+02  0.00000000000E+00 0. -1.
         11    1    3    3    0    0  0.46527266010E+01  0.84606125322E+01 -0.86657313188E+01  0.12974002035E+02  0.51100000000E-03 0. -1.
        -11    1    3    3    0    0  0.53153689297E+01 -0.12542056458E+02 -0.83051832201E+01  0.15954071444E+02  0.51100000000E-03 0.  1.
         12    1    3    3    0    0  0.12696419189E+02 -0.11988650524E+02 -0.12714779560E+02  0.21600750470E+02  0.00000000000E+00 0. -1.
</event>
<event>
 7    1  0.3004200E-011  0.5052886E+02  0.7816164E-02  0.1300439E+00
        -11   -1    0    0    0    0  0.00000000000E+00  0.00000000000E+00  0.45593999997E+02  0.45594000000E+02  0.51100000000E-03 0.  1.
         11   -1    0    0    0    0 -0.00000000000E+00 -0.00000000000E+00 -0.45593999997E+02  0.45594000000E+02  0.51100000000E-03 0. -1.
    9900012    2    1    2    0    0 -0.37915715273E+02 -0.66523859710E+01 -0.13088531966E+02  0.50528863600E+02  0.30000011397E+02 0.  0.
         12    1    1    2    0    0  0.37915715273E+02  0.66523859710E+01  0.13088531966E+02  0.40659136400E+02  0.00000000000E+00 0. -1.
         11    1    3    3    0    0  0.15108208119E+01  0.10477912254E+01  0.27164577948E+01  0.32801812739E+01  0.51100000000E-03 0. -1.
        -11    1    3    3    0    0 -0.35952006456E+02  0.86975697642E-01 -0.11904270964E+02  0.37871704482E+02  0.51100000000E-03 0.  1.
        -12    1    3    3    0    0 -0.34745296298E+01 -0.77871528941E+01 -0.39007187964E+01  0.93769778433E+01  0.00000000000E+00 0.  1.
</event>
<event>
 7    1  0.3004200E-011  0.5052886E+02  0.7816164E-02  0.1300439E+00
        -11   -1    0    0    0    0  0.00000000000E+00  0.00000000000E+00  0.45593999997E+02  0.45594000000E+02  0.51100000000E-03 0.  1.
         11   -1    0    0    0    0 -0.00000000000E+00 -0.00000000000E+00 -0.45593999997E+02  0.45594000000E+02  0.51100000000E-03 0. -1.
    9900012    2    1    2    0    0 -0.19542354465E+02 -0.33965024491E+02  0.10846174475E+02  0.50528855796E+02  0.29999987677E+02 0.  0.
         12    1    1    2    0    0  0.19542354465E+02  0.33965024491E+02 -0.10846174475E+02  0.40659144204E+02  0.00000000000E+00 0. -1.
         11    1    3    3    0    0 -0.22413693842E+01 -0.14498944367E+02  0.10898077428E+02  0.18275973746E+02  0.51100000000E-03 0.  1.
        -11    1    3    3    0    0 -0.11643317918E+02 -0.14470938887E+02 -0.89229951065E+01  0.20605697424E+02  0.51100000000E-03 0. -1.
        -12    1    3    3    0    0 -0.56576671629E+01 -0.49951412361E+01  0.88710921536E+01  0.11647184625E+02  0.00000000000E+00 0.  1.
</event>
<event>
 7    1  0.3004200E-011  0.5052886E+02  0.7816164E-02  0.1300439E+00
        -11   -1    0    0    0    0  0.00000000000E+00  0.00000000000E+00  0.45593999997E+02  0.45594000000E+02  0.51100000000E-03 0.  1.
         11   -1    0    0    0    0 -0.00000000000E+00 -0.00000000000E+00 -0.45593999997E+02  0.45594000000E+02  0.51100000000E-03 0. -1.
    9900012    2    1    2    0    0  0.30544821584E+02  0.26746306564E+02  0.21943167178E+01  0.50528855072E+02  0.29999985476E+02 0.  0.
         12    1    1    2    0    0 -0.30544821584E+02 -0.26746306564E+02 -0.21943167178E+01  0.40659144928E+02  0.00000000000E+00 0. -1.
         11    1    3    3    0    0  0.17384692760E+02  0.84493411273E+01 -0.97165940192E+01  0.21634026612E+02  0.51100000000E-03 0. -1.
        -11    1    3    3    0    0 -0.19904618009E+01  0.32527509339E+01  0.53277569074E+01  0.65518944394E+01  0.51100000000E-03 0.  1.
         12    1    3    3    0    0  0.15150590625E+02  0.15044214503E+02  0.65831538295E+01  0.22342934021E+02  0.00000000000E+00 0. -1.
</event>
<event>
 7    1  0.3004200E-011  0.5052883E+02  0.7816164E-02  0.1300439E+00
        -11   -1    0    0    0    0  0.00000000000E+00  0.00000000000E+00  0.45593999997E+02  0.45594000000E+02  0.51100000000E-03 0.  1.
         11   -1    0    0    0    0 -0.00000000000E+00 -0.00000000000E+00 -0.45593999997E+02  0.45594000000E+02  0.51100000000E-03 0. -1.
    9900012    2    1    2    0    0 -0.20931089612E+02 -0.27870906376E+02  0.20934901412E+02  0.50528830903E+02  0.29999912011E+02 0.  0.
         12    1    1    2    0    0  0.20931089612E+02  0.27870906376E+02 -0.20934901412E+02  0.40659169097E+02  0.00000000000E+00 0. -1.
         11    1    3    3    0    0  0.56294812936E+01 -0.69095397456E+01  0.14770857851E+01  0.90340789131E+01  0.51100000000E-03 0. -1.
        -11    1    3    3    0    0 -0.20411808394E+02 -0.19867102144E+02  0.10054845479E+02  0.30206681171E+02  0.51100000000E-03 0.  1.
         12    1    3    3    0    0 -0.61487625122E+01 -0.10942644860E+01  0.94029701477E+01  0.11288070818E+02  0.00000000000E+00 0. -1.
</event>
<event>
 7    1  0.3004200E-011  0.5052886E+02  0.7816164E-02  0.1300439E+00
        -11   -1    0    0    0    0  0.00000000000E+00  0.00000000000E+00  0.45593999997E+02  0.45594000000E+02  0.51100000000E-03 0. -1.
         11   -1    0    0    0    0 -0.00000000000E+00 -0.00000000000E+00 -0.45593999997E+02  0.45594000000E+02  0.51100000000E-03 0.  1.
    9900012    2    1    2    0    0  0.26657573972E+01  0.39038140354E+02 -0.11049107030E+02  0.50528862885E+02  0.30000009225E+02 0.  0.
         12    1    1    2    0    0 -0.26657573972E+01 -0.39038140354E+02  0.11049107030E+02  0.40659137115E+02  0.00000000000E+00 0. -1.
         11    1    3    3    0    0 -0.40716309274E+01  0.33665829840E+02  0.50572705894E+00  0.33914923520E+02  0.51100000000E-03 0. -1.
        -11    1    3    3    0    0  0.31478747145E+01 -0.10281315981E+01 -0.75720702974E+01  0.82645277331E+01  0.51100000000E-03 0.  1.
        -12    1    3    3    0    0  0.35895136102E+01  0.64004421116E+01 -0.39827637918E+01  0.83494116321E+01  0.00000000000E+00 0.  1.
</event>
<event>
 7    1  0.3004200E-011  0.5052886E+02  0.7816164E-02  0.1300439E+00
        -11   -1    0    0    0    0  0.00000000000E+00  0.00000000000E+00  0.45593999997E+02  0.45594000000E+02  0.51100000000E-03 0. -1.
         11   -1    0    0    0    0 -0.00000000000E+00 -0.00000000000E+00 -0.45593999997E+02  0.45594000000E+02  0.51100000000E-03 0.  1.
    9900012    2    1    2    0    0 -0.35726253566E+02 -0.11880054812E+01 -0.19374963525E+02  0.50528858808E+02  0.29999996832E+02 0.  0.
         12    1    1    2    0    0  0.35726253566E+02  0.11880054812E+01  0.19374963525E+02  0.40659141192E+02  0.00000000000E+00 0. -1.
         11    1    3    3    0    0 -0.23657390619E+02  0.41021956390E+01 -0.14388851258E+02  0.27991769875E+02  0.51100000000E-03 0.  1.
        -11    1    3    3    0    0  0.11214431682E+01 -0.69783484410E+01  0.22249894521E+01  0.74098286125E+01  0.51100000000E-03 0. -1.
         12    1    3    3    0    0 -0.13190306116E+02  0.16881473208E+01 -0.72111017186E+01  0.15127260321E+02  0.00000000000E+00 0. -1.
</event>
<event>
 7    1  0.3004200E-011  0.5052885E+02  0.7816164E-02  0.1300439E+00
        -11   -1    0    0    0    0  0.00000000000E+00  0.00000000000E+00  0.45593999997E+02  0.45594000000E+02  0.51100000000E-03 0.  1.
         11   -1    0    0    0    0 -0.00000000000E+00 -0.00000000000E+00 -0.45593999997E+02  0.45594000000E+02  0.51100000000E-03 0. -1.
    9900012    2    1    2    0    0  0.23853641781E+02  0.71720276485E+00  0.32918923634E+02  0.50528854175E+02  0.29999982751E+02 0.  0.
         12    1    1    2    0    0 -0.23853641781E+02 -0.71720276485E+00 -0.32918923634E+02  0.40659145825E+02  0.00000000000E+00 0. -1.
         11    1    3    3    0    0  0.12737102486E+02  0.11254796110E+02  0.21539270760E+02  0.27438010138E+02  0.51100000000E-03 0. -1.
        -11    1    3    3    0    0  0.68862966207E+01 -0.13139826949E+02  0.10148133076E+02  0.17973890469E+02  0.51100000000E-03 0.  1.
        -12    1    3    3    0    0  0.42302426736E+01  0.26022336036E+01  0.12315197977E+01  0.51169535680E+01  0.00000000000E+00 0.  1.
</event>
<event>
 7    1  0.3004200E-011  0.5052886E+02  0.7816164E-02  0.1300439E+00
        -11   -1    0    0    0    0  0.00000000000E+00  0.00000000000E+00  0.45593999997E+02  0.45594000000E+02  0.51100000000E-03 0. -1.
         11   -1    0    0    0    0 -0.00000000000E+00 -0.00000000000E+00 -0.45593999997E+02  0.45594000000E+02  0.51100000000E-03 0.  1.
    9900012    2    1    2    0    0  0.39763654138E+02 -0.67886222422E+01 -0.50923597527E+01  0.50528859451E+02  0.29999998786E+02 0.  0.
         12    1    1    2    0    0 -0.39763654138E+02  0.67886222422E+01  0.50923597527E+01  0.40659140549E+02  0.00000000000E+00 0. -1.
         11    1    3    3    0    0  0.18232435540E+02 -0.27581769848E+01  0.42028391887E+01  0.18912776198E+02  0.51100000000E-03 0.  1.
        -11    1    3    3    0    0  0.29301212218E+01 -0.30547901872E+01 -0.12063729933E+02  0.12784793062E+02  0.51100000000E-03 0. -1.
         12    1    3    3    0    0  0.18601097376E+02 -0.97565507018E+00  0.27685309919E+01  0.18831290191E+02  0.00000000000E+00 0. -1.
</event>
<event>
 7    1  0.3004200E-011  0.5052888E+02  0.7816164E-02  0.1300439E+00
        -11   -1    0    0    0    0  0.00000000000E+00  0.00000000000E+00  0.45593999997E+02  0.45594000000E+02  0.51100000000E-03 0.  1.
         11   -1    0    0    0    0 -0.00000000000E+00 -0.00000000000E+00 -0.45593999997E+02  0.45594000000E+02  0.51100000000E-03 0. -1.
    9900012    2    1    2    0    0 -0.26284074070E+02  0.79511400362E+01  0.29984848133E+02  0.50528876852E+02  0.30000051679E+02 0.  0.
         12    1    1    2    0    0  0.26284074070E+02 -0.79511400362E+01 -0.29984848133E+02  0.40659123148E+02  0.00000000000E+00 0. -1.
         11    1    3    3    0    0 -0.25406791103E+01  0.46521510519E+00 -0.20813937212E+01  0.33171788494E+01  0.51100000000E-03 0. -1.
        -11    1    3    3    0    0 -0.26966588231E+01  0.78765934553E+01  0.22686999245E+02  0.24166353226E+02  0.51100000000E-03 0.  1.
        -12    1    3    3    0    0 -0.21046736137E+02 -0.39066852425E+00  0.93792426097E+01  0.23045344776E+02  0.00000000000E+00 0.  1.
</event>
<event>
 7    1  0.3004200E-011  0.5052886E+02  0.7816164E-02  0.1300439E+00
        -11   -1    0    0    0    0  0.00000000000E+00  0.00000000000E+00  0.45593999997E+02  0.45594000000E+02  0.51100000000E-03 0.  1.
         11   -1    0    0    0    0 -0.00000000000E+00 -0.00000000000E+00 -0.45593999997E+02  0.45594000000E+02  0.51100000000E-03 0. -1.
    9900012    2    1    2    0    0  0.19146538900E+02  0.21202395196E+02  0.28931543125E+02  0.50528859558E+02  0.29999999112E+02 0.  0.
         12    1    1    2    0    0 -0.19146538900E+02 -0.21202395196E+02 -0.28931543125E+02  0.40659140442E+02  0.00000000000E+00 0. -1.
         11    1    3    3    0    0  0.12546570997E+02  0.47618921387E+01  0.51234940435E+01  0.14364618059E+02  0.51100000000E-03 0. -1.
        -11    1    3    3    0    0 -0.57854915247E+01  0.68339527780E+01  0.16709581139E+02  0.18957450379E+02  0.51100000000E-03 0.  1.
        -12    1    3    3    0    0  0.12385459428E+02  0.96065502790E+01  0.70984679427E+01  0.17206791120E+02  0.00000000000E+00 0.  1.
</event>
<event>
 7    1  0.3004200E-011  0.5052886E+02  0.7816164E-02  0.1300439E+00
        -11   -1    0    0    0    0  0.00000000000E+00  0.00000000000E+00  0.45593999997E+02  0.45594000000E+02  0.51100000000E-03 0. -1.
         11   -1    0    0    0    0 -0.00000000000E+00 -0.00000000000E+00 -0.45593999997E+02  0.45594000000E+02  0.51100000000E-03 0.  1.
    9900012    2    1    2    0    0 -0.49753927806E+01  0.15123191100E+02 -0.37412567718E+02  0.50528859999E+02  0.30000000453E+02 0.  0.
         12    1    1    2    0    0  0.49753927806E+01 -0.15123191100E+02  0.37412567718E+02  0.40659140001E+02  0.00000000000E+00 0. -1.
         11    1    3    3    0    0 -0.12822709257E+02  0.30980462387E+01 -0.52524795837E+01  0.14198883943E+02  0.51100000000E-03 0. -1.
        -11    1    3    3    0    0  0.85615077426E+01  0.10052780125E+02 -0.31459658610E+02  0.34118439636E+02  0.51100000000E-03 0.  1.
        -12    1    3    3    0    0 -0.71419126666E+00  0.19723647371E+01 -0.70042952384E+00  0.22115364206E+01  0.00000000000E+00 0.  1.
</event>
<event>
 7    1  0.3004200E-011  0.5052889E+02  0.7816164E-02  0.1300439E+00
        -11   -1    0    0    0    0  0.00000000000E+00  0.00000000000E+00  0.45593999997E+02  0.45594000000E+02  0.51100000000E-03 0.  1.
         11   -1    0    0    0    0 -0.00000000000E+00 -0.00000000000E+00 -0.45593999997E+02  0.45594000000E+02  0.51100000000E-03 0. -1.
    9900012    2    1    2    0    0 -0.19889266068E+01 -0.37040477131E+02 -0.16649643805E+02  0.50528887688E+02  0.30000084616E+02 0.  0.
         12    1    1    2    0    0  0.19889266068E+01  0.37040477131E+02  0.16649643805E+02  0.40659112312E+02  0.00000000000E+00 0. -1.
         11    1    3    3    0    0  0.78393435161E+01 -0.12387555853E+02 -0.14118621574E+02  0.20352943821E+02  0.51100000000E-03 0. -1.
        -11    1    3    3    0    0  0.22306550337E+01 -0.52118059896E+01  0.33100069691E+01  0.65646698279E+01  0.51100000000E-03 0.  1.
         12    1    3    3    0    0 -0.12058925157E+02 -0.19441115289E+02 -0.58410292000E+01  0.23611274039E+02  0.00000000000E+00 0. -1.
</event>
<event>
 7    1  0.3004200E-011  0.5052883E+02  0.7816164E-02  0.1300439E+00
        -11   -1    0    0    0    0  0.00000000000E+00  0.00000000000E+00  0.45593999997E+02  0.45594000000E+02  0.51100000000E-03 0.  1.
         11   -1    0    0    0    0 -0.00000000000E+00 -0.00000000000E+00 -0.45593999997E+02  0.45594000000E+02  0.51100000000E-03 0. -1.
    9900012    2    1    2    0    0 -0.24011427648E+02 -0.27828243643E+02  0.17384141454E+02  0.50528829127E+02  0.29999906615E+02 0.  0.
         12    1    1    2    0    0  0.24011427648E+02  0.27828243643E+02 -0.17384141454E+02  0.40659170873E+02  0.00000000000E+00 0. -1.
         11    1    3    3    0    0 -0.38196456150E+01  0.11631531201E+01  0.98158559324E+00  0.41117062569E+01  0.51100000000E-03 0. -1.
        -11    1    3    3    0    0 -0.12771125812E+02 -0.17692849421E+02  0.22715488905E+02  0.31498127113E+02  0.51100000000E-03 0.  1.
        -12    1    3    3    0    0 -0.74206562209E+01 -0.11298547342E+02 -0.63129330443E+01  0.14918995758E+02  0.00000000000E+00 0.  1.
</event>
<event>
 7    1  0.3004200E-011  0.5052886E+02  0.7816164E-02  0.1300439E+00
        -11   -1    0    0    0    0  0.00000000000E+00  0.00000000000E+00  0.45593999997E+02  0.45594000000E+02  0.51100000000E-03 0.  1.
         11   -1    0    0    0    0 -0.00000000000E+00 -0.00000000000E+00 -0.45593999997E+02  0.45594000000E+02  0.51100000000E-03 0. -1.
    9900012    2    1    2    0    0  0.12586471951E+02 -0.25019611324E+02  0.29474831242E+02  0.50528857071E+02  0.29999991553E+02 0.  0.
         12    1    1    2    0    0 -0.12586471951E+02  0.25019611324E+02 -0.29474831242E+02  0.40659142929E+02  0.00000000000E+00 0. -1.
         11    1    3    3    0    0  0.13773360270E+02 -0.13940869266E+02  0.63038362112E+01  0.20586200239E+02  0.51100000000E-03 0. -1.
        -11    1    3    3    0    0 -0.58071596612E+01 -0.12585795506E+02  0.19120987041E+02  0.23616466660E+02  0.51100000000E-03 0.  1.
         12    1    3    3    0    0  0.46202713416E+01  0.15070534485E+01  0.40500079905E+01  0.63261901718E+01  0.00000000000E+00 0. -1.
</event>
<event>
 7    1  0.3004200E-011  0.5052893E+02  0.7816164E-02  0.1300439E+00
        -11   -1    0    0    0    0  0.00000000000E+00  0.00000000000E+00  0.45593999997E+02  0.45594000000E+02  0.51100000000E-03 0. -1.
         11   -1    0    0    0    0 -0.00000000000E+00 -0.00000000000E+00 -0.45593999997E+02  0.45594000000E+02  0.51100000000E-03 0.  1.
    9900012    2    1    2    0    0 -0.16129317047E+02 -0.19435084119E+02 -0.31863499486E+02  0.50528930131E+02  0.30000213625E+02 0.  0.
         12    1    1    2    0    0  0.16129317047E+02  0.19435084119E+02  0.31863499486E+02  0.40659069869E+02  0.00000000000E+00 0. -1.
         11    1    3    3    0    0 -0.82609886240E+01 -0.28487259668E+01  0.39632549818E+01  0.95951322550E+01  0.51100000000E-03 0. -1.
        -11    1    3    3    0    0 -0.59391069121E+01 -0.80957583073E+01 -0.25623043960E+02  0.27520077680E+02  0.51100000000E-03 0.  1.
        -12    1    3    3    0    0 -0.19292215113E+01 -0.84905998450E+01 -0.10203710507E+02  0.13413720195E+02  0.00000000000E+00 0.  1.
</event>
<event>
 7    1  0.3004200E-011  0.5052885E+02  0.7816164E-02  0.1300439E+00
        -11   -1    0    0    0    0  0.00000000000E+00  0.00000000000E+00  0.45593999997E+02  0.45594000000E+02  0.51100000000E-03 0. -1.
         11   -1    0    0    0    0 -0.00000000000E+00 -0.00000000000E+00 -0.45593999997E+02  0.45594000000E+02  0.51100000000E-03 0.  1.
    9900012    2    1    2    0    0  0.33678001113E+02  0.89441160689E+01 -0.20951411930E+02  0.50528848102E+02  0.29999964291E+02 0.  0.
         12    1    1    2    0    0 -0.33678001113E+02 -0.89441160689E+01  0.20951411930E+02  0.40659151898E+02  0.00000000000E+00 0. -1.
         11    1    3    3    0    0  0.63855877746E+01 -0.90307113407E+01 -0.58671742010E+01  0.12520112296E+02  0.51100000000E-03 0. -1.
        -11    1    3    3    0    0  0.27791932726E+02  0.18483813292E+02 -0.13023561531E+02  0.35828145831E+02  0.51100000000E-03 0.  1.
        -12    1    3    3    0    0 -0.49951938748E+00 -0.50898588273E+00 -0.20606761977E+01  0.21805899750E+01  0.00000000000E+00 0.  1.
</event>
<event>
 7    1  0.3004200E-011  0.5052886E+02  0.7816164E-02  0.1300439E+00
        -11   -1    0    0    0    0  0.00000000000E+00  0.00000000000E+00  0.45593999997E+02  0.45594000000E+02  0.51100000000E-03 0. -1.
         11   -1    0    0    0    0 -0.00000000000E+00 -0.00000000000E+00 -0.45593999997E+02  0.45594000000E+02  0.51100000000E-03 0.  1.
    9900012    2    1    2    0    0  0.15081345803E+02 -0.37320276732E+02 -0.57371944911E+01  0.50528862685E+02  0.30000008616E+02 0.  0.
         12    1    1    2    0    0 -0.15081345803E+02  0.37320276732E+02  0.57371944911E+01  0.40659137315E+02  0.00000000000E+00 0. -1.
         11    1    3    3    0    0  0.75395320785E+01 -0.41066738430E+01  0.41596476928E+01  0.95400200841E+01  0.51100000000E-03 0. -1.
        -11    1    3    3    0    0 -0.56126078965E+01 -0.17843088090E+02 -0.89494597433E+01  0.20735717734E+02  0.51100000000E-03 0.  1.
        -12    1    3    3    0    0  0.13154421621E+02 -0.15370514799E+02 -0.94738244061E+00  0.20253124866E+02  0.00000000000E+00 0.  1.
</event>
<event>
 7    1  0.3004200E-011  0.5052885E+02  0.7816164E-02  0.1300439E+00
        -11   -1    0    0    0    0  0.00000000000E+00  0.00000000000E+00  0.45593999997E+02  0.45594000000E+02  0.51100000000E-03 0. -1.
         11   -1    0    0    0    0 -0.00000000000E+00 -0.00000000000E+00 -0.45593999997E+02  0.45594000000E+02  0.51100000000E-03 0.  1.
    9900012    2    1    2    0    0 -0.20151278869E+02  0.57932305044E+01 -0.34835769773E+02  0.50528850779E+02  0.29999972427E+02 0.  0.
         12    1    1    2    0    0  0.20151278869E+02 -0.57932305044E+01  0.34835769773E+02  0.40659149221E+02  0.00000000000E+00 0. -1.
         11    1    3    3    0    0 -0.22254974717E+01 -0.67837125660E+01 -0.69171454225E+01  0.99407492791E+01  0.51100000000E-03 0. -1.
        -11    1    3    3    0    0 -0.14461389133E+02  0.11485230852E+02 -0.76376098906E+01  0.19984378612E+02  0.51100000000E-03 0.  1.
        -12    1    3    3    0    0 -0.34643922643E+01  0.10917122181E+01 -0.20281014460E+02  0.20603722888E+02  0.00000000000E+00 0.  1.
</event>
<event>
 7    1  0.3004200E-011  0.5052887E+02  0.7816164E-02  0.1300439E+00
        -11   -1    0    0    0    0  0.00000000000E+00  0.00000000000E+00  0.45593999997E+02  0.45594000000E+02  0.51100000000E-03 0. -1.
         11   -1    0    0    0    0 -0.00000000000E+00 -0.00000000000E+00 -0.45593999997E+02  0.45594000000E+02  0.51100000000E-03 0.  1.
    9900012    2    1    2    0    0 -0.12348262779E+02 -0.19711889208E+00 -0.38738179597E+02  0.50528868086E+02  0.30000025033E+02 0.  0.
         12    1    1    2    0    0  0.12348262779E+02  0.19711889208E+00  0.38738179597E+02  0.40659131914E+02  0.00000000000E+00 0. -1.
         11    1    3    3    0    0 -0.21176097811E+02  0.20007531620E+01 -0.20152067978E+02  0.29300784559E+02  0.51100000000E-03 0. -1.
        -11    1    3    3    0    0  0.14868014510E+01  0.12322892072E+01 -0.55767015538E+01  0.59015858654E+01  0.51100000000E-03 0.  1.
         12    1    3    3    0    0  0.73410335808E+01 -0.34301612613E+01 -0.13009410066E+02  0.15326497661E+02  0.00000000000E+00 0. -1.
</event>
<event>
 7    1  0.3004200E-011  0.5052886E+02  0.7816164E-02  0.1300439E+00
        -11   -1    0    0    0    0  0.00000000000E+00  0.00000000000E+00  0.45593999997E+02  0.45594000000E+02  0.51100000000E-03 0.  1.
         11   -1    0    0    0    0 -0.00000000000E+00 -0.00000000000E+00 -0.45593999997E+02  0.45594000000E+02  0.51100000000E-03 0. -1.
    9900012    2    1    2    0    0 -0.30483194571E+01 -0.39370267281E+02 -0.96879046366E+01  0.50528859655E+02  0.29999999408E+02 0.  0.
         12    1    1    2    0    0  0.30483194571E+01  0.39370267281E+02  0.96879046366E+01  0.40659140345E+02  0.00000000000E+00 0. -1.
         11    1    3    3    0    0  0.90168913527E+01 -0.28737171622E+02 -0.31176756522E+00  0.30120201888E+02  0.51100000000E-03 0.  1.
        -11    1    3    3    0    0 -0.35421946874E+01  0.57828062059E+00 -0.18957689199E+00  0.35940911701E+01  0.51100000000E-03 0. -1.
         12    1    3    3    0    0 -0.85230161225E+01 -0.11211376280E+02 -0.91865601794E+01  0.16814566597E+02  0.00000000000E+00 0. -1.
</event>
<event>
 7    1  0.3004200E-011  0.5052885E+02  0.7816164E-02  0.1300439E+00
        -11   -1    0    0    0    0  0.00000000000E+00  0.00000000000E+00  0.45593999997E+02  0.45594000000E+02  0.51100000000E-03 0.  1.
         11   -1    0    0    0    0 -0.00000000000E+00 -0.00000000000E+00 -0.45593999997E+02  0.45594000000E+02  0.51100000000E-03 0. -1.
    9900012    2    1    2    0    0  0.31777323637E+02  0.23647959170E+02 -0.91728991244E+01  0.50528851597E+02  0.29999974916E+02 0.  0.
         12    1    1    2    0    0 -0.31777323637E+02 -0.23647959170E+02  0.91728991244E+01  0.40659148403E+02  0.00000000000E+00 0. -1.
         11    1    3    3    0    0  0.11314275655E+02  0.35760259097E+01 -0.15897249338E+02  0.19837422506E+02  0.51100000000E-03 0. -1.
        -11    1    3    3    0    0  0.82269149824E+01  0.69624077989E+01 -0.16439128113E+01  0.10902279673E+02  0.51100000000E-03 0.  1.
         12    1    3    3    0    0  0.12236133000E+02  0.13109525462E+02  0.83682630251E+01  0.19789149418E+02  0.00000000000E+00 0. -1.
</event>
<event>
 7    1  0.3004200E-011  0.5052886E+02  0.7816164E-02  0.1300439E+00
        -11   -1    0    0    0    0  0.00000000000E+00  0.00000000000E+00  0.45593999997E+02  0.45594000000E+02  0.51100000000E-03 0.  1.
         11   -1    0    0    0    0 -0.00000000000E+00 -0.00000000000E+00 -0.45593999997E+02  0.45594000000E+02  0.51100000000E-03 0. -1.
    9900012    2    1    2    0    0 -0.71938550076E+01 -0.18400477869E+02  0.35536410945E+02  0.50528860332E+02  0.30000001466E+02 0.  0.
         12    1    1    2    0    0  0.71938550076E+01  0.18400477869E+02 -0.35536410945E+02  0.40659139668E+02  0.00000000000E+00 0. -1.
         11    1    3    3    0    0  0.32354271507E+01  0.52312257437E+01  0.10292766942E+02  0.11990611461E+02  0.51100000000E-03 0. -1.
        -11    1    3    3    0    0 -0.10542901600E+02 -0.23875723063E+02  0.18986272648E+02  0.32275090631E+02  0.51100000000E-03 0.  1.
        -12    1    3    3    0    0  0.11361944135E+00  0.24401945077E+00  0.62573713546E+01  0.62631582400E+01  0.00000000000E+00 0.  1.
</event>
<event>
 7    1  0.3004200E-011  0.5052887E+02  0.7816164E-02  0.1300439E+00
        -11   -1    0    0    0    0  0.00000000000E+00  0.00000000000E+00  0.45593999997E+02  0.45594000000E+02  0.51100000000E-03 0.  1.
         11   -1    0    0    0    0 -0.00000000000E+00 -0.00000000000E+00 -0.45593999997E+02  0.45594000000E+02  0.51100000000E-03 0. -1.
    9900012    2    1    2    0    0 -0.12809027598E+02 -0.32548760951E+02  0.20728526616E+02  0.50528870114E+02  0.30000031198E+02 0.  0.
         12    1    1    2    0    0  0.12809027598E+02  0.32548760951E+02 -0.20728526616E+02  0.40659129886E+02  0.00000000000E+00 0. -1.
         11    1    3    3    0    0 -0.54422949546E+01  0.42671977693E+01 -0.89820827603E-01  0.69163298950E+01  0.51100000000E-03 0. -1.
        -11    1    3    3    0    0 -0.50151248038E+01 -0.34942470398E+02  0.18840296735E+02  0.40013553899E+02  0.51100000000E-03 0.  1.
         12    1    3    3    0    0 -0.23516078394E+01 -0.18734883216E+01  0.19780507091E+01  0.35989863197E+01  0.00000000000E+00 0. -1.
</event>
<event>
 7    1  0.3004200E-011  0.5052886E+02  0.7816164E-02  0.1300439E+00
        -11   -1    0    0    0    0  0.00000000000E+00  0.00000000000E+00  0.45593999997E+02  0.45594000000E+02  0.51100000000E-03 0.  1.
         11   -1    0    0    0    0 -0.00000000000E+00 -0.00000000000E+00 -0.45593999997E+02  0.45594000000E+02  0.51100000000E-03 0. -1.
    9900012    2    1    2    0    0 -0.15950822838E+02 -0.26473508278E+02  0.26417609780E+02  0.50528862082E+02  0.30000006783E+02 0.  0.
         12    1    1    2    0    0  0.15950822838E+02  0.26473508278E+02 -0.26417609780E+02  0.40659137918E+02  0.00000000000E+00 0. -1.
         11    1    3    3    0    0  0.10436436929E+01 -0.24392212032E+02  0.18450224101E+02  0.30601960225E+02  0.51100000000E-03 0. -1.
        -11    1    3    3    0    0 -0.91627701803E+01  0.19096964069E+01  0.29906751012E+01  0.98258554623E+01  0.51100000000E-03 0.  1.
         12    1    3    3    0    0 -0.78316963504E+01 -0.39909926528E+01  0.49767105787E+01  0.10101046394E+02  0.00000000000E+00 0. -1.
</event>
<event>
 7    1  0.3004200E-011  0.5052887E+02  0.7816164E-02  0.1300439E+00
        -11   -1    0    0    0    0  0.00000000000E+00  0.00000000000E+00  0.45593999997E+02  0.45594000000E+02  0.51100000000E-03 0.  1.
         11   -1    0    0    0    0 -0.00000000000E+00 -0.00000000000E+00 -0.45593999997E+02  0.45594000000E+02  0.51100000000E-03 0. -1.
    9900012    2    1    2    0    0  0.27851727174E+02 -0.21584825470E+02  0.20286478015E+02  0.50528873258E+02  0.30000040754E+02 0.  0.
         12    1    1    2    0    0 -0.27851727174E+02  0.21584825470E+02 -0.20286478015E+02  0.40659126742E+02  0.00000000000E+00 0. -1.
         11    1    3    3    0    0  0.11078784972E+02 -0.34137406567E+01 -0.24319255038E+01  0.11845140929E+02  0.51100000000E-03 0. -1.
        -11    1    3    3    0    0 -0.31996573025E+01 -0.59772561684E+01  0.99092697804E+01  0.12006624255E+02  0.51100000000E-03 0.  1.
         12    1    3    3    0    0  0.19972599505E+02 -0.12193828645E+02  0.12809133739E+02  0.26677108073E+02  0.00000000000E+00 0. -1.
</event>
<event>
 7    1  0.3004200E-011  0.5052885E+02  0.7816164E-02  0.1300439E+00
        -11   -1    0    0    0    0  0.00000000000E+00  0.00000000000E+00  0.45593999997E+02  0.45594000000E+02  0.51100000000E-03 0.  1.
         11   -1    0    0    0    0 -0.00000000000E+00 -0.00000000000E+00 -0.45593999997E+02  0.45594000000E+02  0.51100000000E-03 0. -1.
    9900012    2    1    2    0    0  0.36862651946E+02 -0.12639080240E+01  0.17108894046E+02  0.50528845712E+02  0.29999957026E+02 0.  0.
         12    1    1    2    0    0 -0.36862651946E+02  0.12639080240E+01 -0.17108894046E+02  0.40659154288E+02  0.00000000000E+00 0. -1.
         11    1    3    3    0    0  0.16491201609E+02 -0.82946945428E+01  0.16449161483E+02  0.24725221977E+02  0.51100000000E-03 0.  1.
        -11    1    3    3    0    0  0.18250522085E+02  0.10073955640E+02  0.34918886770E+01  0.21136684352E+02  0.51100000000E-03 0. -1.
        -12    1    3    3    0    0  0.21209282519E+01 -0.30431691209E+01 -0.28321561140E+01  0.46669393828E+01  0.00000000000E+00 0.  1.
</event>
<event>
 7    1  0.3004200E-011  0.5052886E+02  0.7816164E-02  0.1300439E+00
        -11   -1    0    0    0    0  0.00000000000E+00  0.00000000000E+00  0.45593999997E+02  0.45594000000E+02  0.51100000000E-03 0.  1.
         11   -1    0    0    0    0 -0.00000000000E+00 -0.00000000000E+00 -0.45593999997E+02  0.45594000000E+02  0.51100000000E-03 0. -1.
    9900012    2    1    2    0    0 -0.39548303145E+01 -0.24087137030E+02  0.32516687716E+02  0.50528857939E+02  0.29999994192E+02 0.  0.
         12    1    1    2    0    0  0.39548303145E+01  0.24087137030E+02 -0.32516687716E+02  0.40659142061E+02  0.00000000000E+00 0. -1.
         11    1    3    3    0    0  0.64619215597E+01 -0.23666117974E+00  0.97921584155E+01  0.11734513431E+02  0.51100000000E-03 0. -1.
        -11    1    3    3    0    0 -0.14351895371E+02 -0.11293614418E+02  0.13893495437E+02  0.22946717479E+02  0.51100000000E-03 0.  1.
         12    1    3    3    0    0  0.39351434967E+01 -0.12556861432E+02  0.88310338639E+01  0.15847627029E+02  0.00000000000E+00 0. -1.
</event>
<event>
 7    1  0.3004200E-011  0.5052885E+02  0.7816164E-02  0.1300439E+00
        -11   -1    0    0    0    0  0.00000000000E+00  0.00000000000E+00  0.45593999997E+02  0.45594000000E+02  0.51100000000E-03 0. -1.
         11   -1    0    0    0    0 -0.00000000000E+00 -0.00000000000E+00 -0.45593999997E+02  0.45594000000E+02  0.51100000000E-03 0.  1.
    9900012    2    1    2    0    0 -0.16309724572E+02  0.36683180883E+02 -0.64423012528E+01  0.50528854403E+02  0.29999983442E+02 0.  0.
         12    1    1    2    0    0  0.16309724572E+02 -0.36683180883E+02  0.64423012528E+01  0.40659145597E+02  0.00000000000E+00 0. -1.
         11    1    3    3    0    0 -0.54213277901E+01 -0.21986335646E+01 -0.91847630931E+00  0.59218564278E+01  0.51100000000E-03 0. -1.
        -11    1    3    3    0    0 -0.84723443080E+01  0.34762320234E+02  0.18433364281E+01  0.35827327776E+02  0.51100000000E-03 0.  1.
        -12    1    3    3    0    0 -0.24160524737E+01  0.41194942135E+01 -0.73671613716E+01  0.87796701991E+01  0.00000000000E+00 0.  1.
</event>
<event>
 7    1  0.3004200E-011  0.5052886E+02  0.7816164E-02  0.1300439E+00
        -11   -1    0    0    0    0  0.00000000000E+00  0.00000000000E+00  0.45593999997E+02  0.45594000000E+02  0.51100000000E-03 0. -1.
         11   -1    0    0    0    0 -0.00000000000E+00 -0.00000000000E+00 -0.45593999997E+02  0.45594000000E+02  0.51100000000E-03 0.  1.
    9900012    2    1    2    0    0 -0.18191197820E+01  0.40259859857E+02 -0.53851918214E+01  0.50528858304E+02  0.29999995302E+02 0.  0.
         12    1    1    2    0    0  0.18191197820E+01 -0.40259859857E+02  0.53851918214E+01  0.40659141696E+02  0.00000000000E+00 0. -1.
         11    1    3    3    0    0  0.22335200956E+00  0.31160245541E+01 -0.37642681720E+01  0.48917492038E+01  0.51100000000E-03 0. -1.
        -11    1    3    3    0    0  0.98666382145E+00  0.39745539710E+02  0.25797658887E+01  0.39841393357E+02  0.51100000000E-03 0.  1.
        -12    1    3    3    0    0 -0.30291356130E+01 -0.26017044072E+01 -0.42006895381E+01  0.57957157436E+01  0.00000000000E+00 0.  1.
</event>
<event>
 7    1  0.3004200E-011  0.5052886E+02  0.7816164E-02  0.1300439E+00
        -11   -1    0    0    0    0  0.00000000000E+00  0.00000000000E+00  0.45593999997E+02  0.45594000000E+02  0.51100000000E-03 0.  1.
         11   -1    0    0    0    0 -0.00000000000E+00 -0.00000000000E+00 -0.45593999997E+02  0.45594000000E+02  0.51100000000E-03 0. -1.
    9900012    2    1    2    0    0 -0.75944939506E+01  0.37885363757E+02  0.12656576458E+02  0.50528855235E+02  0.29999985973E+02 0.  0.
         12    1    1    2    0    0  0.75944939506E+01 -0.37885363757E+02 -0.12656576458E+02  0.40659144765E+02  0.00000000000E+00 0. -1.
         11    1    3    3    0    0 -0.33189711331E+01  0.31712994952E+01  0.11488751621E+02  0.12371908662E+02  0.51100000000E-03 0. -1.
        -11    1    3    3    0    0 -0.26469722894E+01  0.35844814707E+02  0.20195796059E+01  0.35999109791E+02  0.51100000000E-03 0.  1.
        -12    1    3    3    0    0 -0.16285505281E+01 -0.11307504453E+01 -0.85175476901E+00  0.21578367822E+01  0.00000000000E+00 0.  1.
</event>
<event>
 7    1  0.3004200E-011  0.5052886E+02  0.7816164E-02  0.1300439E+00
        -11   -1    0    0    0    0  0.00000000000E+00  0.00000000000E+00  0.45593999997E+02  0.45594000000E+02  0.51100000000E-03 0. -1.
         11   -1    0    0    0    0 -0.00000000000E+00 -0.00000000000E+00 -0.45593999997E+02  0.45594000000E+02  0.51100000000E-03 0.  1.
    9900012    2    1    2    0    0 -0.12486094857E+02 -0.37442363902E+02 -0.97638535189E+01  0.50528855704E+02  0.29999987398E+02 0.  0.
         12    1    1    2    0    0  0.12486094857E+02  0.37442363902E+02  0.97638535189E+01  0.40659144296E+02  0.00000000000E+00 0. -1.
         11    1    3    3    0    0 -0.15563483524E+02 -0.27073970258E+02 -0.15620409378E+02  0.34917317685E+02  0.51100000000E-03 0.  1.
        -11    1    3    3    0    0  0.25565503576E+01 -0.12251236553E+02  0.51678476315E+01  0.13540140184E+02  0.51100000000E-03 0. -1.
        -12    1    3    3    0    0  0.52083830922E+00  0.18828429092E+01  0.68870822767E+00  0.20713978343E+01  0.00000000000E+00 0.  1.
</event>
<event>
 7    1  0.3004200E-011  0.5052886E+02  0.7816164E-02  0.1300439E+00
        -11   -1    0    0    0    0  0.00000000000E+00  0.00000000000E+00  0.45593999997E+02  0.45594000000E+02  0.51100000000E-03 0.  1.
         11   -1    0    0    0    0 -0.00000000000E+00 -0.00000000000E+00 -0.45593999997E+02  0.45594000000E+02  0.51100000000E-03 0. -1.
    9900012    2    1    2    0    0  0.39393095826E+02 -0.92222639378E+01  0.40372644352E+01  0.50528860130E+02  0.30000000851E+02 0.  0.
         12    1    1    2    0    0 -0.39393095826E+02  0.92222639378E+01 -0.40372644352E+01  0.40659139870E+02  0.00000000000E+00 0. -1.
         11    1    3    3    0    0  0.13907911819E+02  0.62505916775E+01 -0.62132885068E+01  0.16465262276E+02  0.51100000000E-03 0. -1.
        -11    1    3    3    0    0  0.65897983624E+01 -0.74254719860E+01  0.91422120678E+01  0.13496040843E+02  0.51100000000E-03 0.  1.
         12    1    3    3    0    0  0.18895385644E+02 -0.80473836293E+01  0.11083408743E+01  0.20567557011E+02  0.00000000000E+00 0. -1.
</event>
<event>
 7    1  0.3004200E-011  0.5052890E+02  0.7816164E-02  0.1300439E+00
        -11   -1    0    0    0    0  0.00000000000E+00  0.00000000000E+00  0.45593999997E+02  0.45594000000E+02  0.51100000000E-03 0.  1.
         11   -1    0    0    0    0 -0.00000000000E+00 -0.00000000000E+00 -0.45593999997E+02  0.45594000000E+02  0.51100000000E-03 0. -1.
    9900012    2    1    2    0    0 -0.39324448495E+02  0.65663667245E+01 -0.79770345493E+01  0.50528898908E+02  0.30000118721E+02 0.  0.
         12    1    1    2    0    0  0.39324448495E+02 -0.65663667245E+01  0.79770345493E+01  0.40659101092E+02  0.00000000000E+00 0. -1.
         11    1    3    3    0    0 -0.81562497757E+01 -0.94767546410E+01  0.25186375770E+00  0.12505867605E+02  0.51100000000E-03 0. -1.
        -11    1    3    3    0    0 -0.30900676312E+02  0.12455752516E+02 -0.85941021958E+01  0.34407210874E+02  0.51100000000E-03 0.  1.
        -12    1    3    3    0    0 -0.26752240730E+00  0.35873688495E+01  0.36520388880E+00  0.36158204299E+01  0.00000000000E+00 0.  1.
</event>
<event>
 7    1  0.3004200E-011  0.5052887E+02  0.7816164E-02  0.1300439E+00
        -11   -1    0    0    0    0  0.00000000000E+00  0.00000000000E+00  0.45593999997E+02  0.45594000000E+02  0.51100000000E-03 0.  1.
         11   -1    0    0    0    0 -0.00000000000E+00 -0.00000000000E+00 -0.45593999997E+02  0.45594000000E+02  0.51100000000E-03 0. -1.
    9900012    2    1    2    0    0  0.21197218788E+02 -0.24674262682E+02  0.24393111537E+02  0.50528865556E+02  0.30000017345E+02 0.  0.
         12    1    1    2    0    0 -0.21197218788E+02  0.24674262682E+02 -0.24393111537E+02  0.40659134444E+02  0.00000000000E+00 0. -1.
         11    1    3    3    0    0  0.47341782735E+01 -0.19743765847E+02  0.86456247117E+00  0.20321815920E+02  0.51100000000E-03 0. -1.
        -11    1    3    3    0    0  0.49827224208E+01 -0.31947212227E+01  0.13954962988E+02  0.15158323082E+02  0.51100000000E-03 0.  1.
         12    1    3    3    0    0  0.11480318093E+02 -0.17357756119E+01  0.95735860780E+01  0.15048726554E+02  0.00000000000E+00 0. -1.
</event>
<event>
 7    1  0.3004200E-011  0.5052885E+02  0.7816164E-02  0.1300439E+00
        -11   -1    0    0    0    0  0.00000000000E+00  0.00000000000E+00  0.45593999997E+02  0.45594000000E+02  0.51100000000E-03 0.  1.
         11   -1    0    0    0    0 -0.00000000000E+00 -0.00000000000E+00 -0.45593999997E+02  0.45594000000E+02  0.51100000000E-03 0. -1.
    9900012    2    1    2    0    0  0.30187692521E+02  0.96831003654E+01  0.25457946288E+02  0.50528852916E+02  0.29999978923E+02 0.  0.
         12    1    1    2    0    0 -0.30187692521E+02 -0.96831003654E+01 -0.25457946288E+02  0.40659147084E+02  0.00000000000E+00 0. -1.
         11    1    3    3    0    0  0.15041385124E+02  0.46447434474E+01  0.79775309238E+00  0.15762402050E+02  0.51100000000E-03 0. -1.
        -11    1    3    3    0    0  0.18688191741E+02  0.12535248489E+01  0.22148171871E+02  0.29006229548E+02  0.51100000000E-03 0.  1.
        -12    1    3    3    0    0 -0.35418843441E+01  0.37848320691E+01  0.25120213245E+01  0.57602213180E+01  0.00000000000E+00 0.  1.
</event>
<event>
 7    1  0.3004200E-011  0.5052886E+02  0.7816164E-02  0.1300439E+00
        -11   -1    0    0    0    0  0.00000000000E+00  0.00000000000E+00  0.45593999997E+02  0.45594000000E+02  0.51100000000E-03 0. -1.
         11   -1    0    0    0    0 -0.00000000000E+00 -0.00000000000E+00 -0.45593999997E+02  0.45594000000E+02  0.51100000000E-03 0.  1.
    9900012    2    1    2    0    0 -0.12237220091E+02 -0.13214110636E+02 -0.36452753219E+02  0.50528862126E+02  0.30000006917E+02 0.  0.
         12    1    1    2    0    0  0.12237220091E+02  0.13214110636E+02  0.36452753219E+02  0.40659137874E+02  0.00000000000E+00 0. -1.
         11    1    3    3    0    0  0.68161243622E+00  0.16141138897E+01  0.20427974325E+00  0.17639981964E+01  0.51100000000E-03 0. -1.
        -11    1    3    3    0    0 -0.18841440275E+02 -0.51556601464E+01 -0.29407472590E+02  0.35304109500E+02  0.51100000000E-03 0.  1.
        -12    1    3    3    0    0  0.59226077482E+01 -0.96725643796E+01 -0.72495603720E+01  0.13460754429E+02  0.00000000000E+00 0.  1.
</event>
<event>
 7    1  0.3004200E-011  0.5052881E+02  0.7816164E-02  0.1300439E+00
        -11   -1    0    0    0    0  0.00000000000E+00  0.00000000000E+00  0.45593999997E+02  0.45594000000E+02  0.51100000000E-03 0.  1.
         11   -1    0    0    0    0 -0.00000000000E+00 -0.00000000000E+00 -0.45593999997E+02  0.45594000000E+02  0.51100000000E-03 0. -1.
    9900012    2    1    2    0    0  0.13891136997E+02  0.17408117823E+02  0.34017104267E+02  0.50528811175E+02  0.29999852047E+02 0.  0.
         12    1    1    2    0    0 -0.13891136997E+02 -0.17408117823E+02 -0.34017104267E+02  0.40659188825E+02  0.00000000000E+00 0. -1.
         11    1    3    3    0    0  0.75593859333E+01  0.83442197097E+01  0.49290634541E+01  0.12290890328E+02  0.51100000000E-03 0. -1.
        -11    1    3    3    0    0  0.84107056434E+01 -0.48957921669E+01  0.17298197715E+02  0.19847830985E+02  0.51100000000E-03 0.  1.
        -12    1    3    3    0    0 -0.20789545800E+01  0.13959690280E+02  0.11789843098E+02  0.18390089862E+02  0.00000000000E+00 0.  1.
</event>
<event>
 7    1  0.3004200E-011  0.5052886E+02  0.7816164E-02  0.1300439E+00
        -11   -1    0    0    0    0  0.00000000000E+00  0.00000000000E+00  0.45593999997E+02  0.45594000000E+02  0.51100000000E-03 0.  1.
         11   -1    0    0    0    0 -0.00000000000E+00 -0.00000000000E+00 -0.45593999997E+02  0.45594000000E+02  0.51100000000E-03 0. -1.
    9900012    2    1    2    0    0  0.17581107364E+02  0.23943344428E+02  0.27763048269E+02  0.50528856776E+02  0.29999990656E+02 0.  0.
         12    1    1    2    0    0 -0.17581107364E+02 -0.23943344428E+02 -0.27763048269E+02  0.40659143224E+02  0.00000000000E+00 0. -1.
         11    1    3    3    0    0 -0.10066451481E-01  0.13413652980E+02  0.26941275564E+01  0.13681539064E+02  0.51100000000E-03 0. -1.
        -11    1    3    3    0    0  0.19870589614E+02  0.11306416492E+02  0.17176204774E+02  0.28595408656E+02  0.51100000000E-03 0.  1.
        -12    1    3    3    0    0 -0.22794157991E+01 -0.77672504453E+00  0.78927159382E+01  0.82519090555E+01  0.00000000000E+00 0.  1.
</event>
<event>
 7    1  0.3004200E-011  0.5052887E+02  0.7816164E-02  0.1300439E+00
        -11   -1    0    0    0    0  0.00000000000E+00  0.00000000000E+00  0.45593999997E+02  0.45594000000E+02  0.51100000000E-03 0. -1.
         11   -1    0    0    0    0 -0.00000000000E+00 -0.00000000000E+00 -0.45593999997E+02  0.45594000000E+02  0.51100000000E-03 0.  1.
    9900012    2    1    2    0    0  0.21859833737E+02  0.34062608693E+02  0.38796208204E+01  0.50528866958E+02  0.30000021606E+02 0.  0.
         12    1    1    2    0    0 -0.21859833737E+02 -0.34062608693E+02 -0.38796208204E+01  0.40659133042E+02  0.00000000000E+00 0. -1.
         11    1    3    3    0    0  0.19526723675E+02  0.24211703878E+02  0.13783146913E+02  0.34021679578E+02  0.51100000000E-03 0. -1.
        -11    1    3    3    0    0  0.33977401782E+01  0.59331009227E+01 -0.10369490949E+02  0.12420654881E+02  0.51100000000E-03 0.  1.
        -12    1    3    3    0    0 -0.10646301164E+01  0.39178038920E+01  0.46596485642E+00  0.40865324994E+01  0.00000000000E+00 0.  1.
</event>
<event>
 7    1  0.3004200E-011  0.5052888E+02  0.7816164E-02  0.1300439E+00
        -11   -1    0    0    0    0  0.00000000000E+00  0.00000000000E+00  0.45593999997E+02  0.45594000000E+02  0.51100000000E-03 0. -1.
         11   -1    0    0    0    0 -0.00000000000E+00 -0.00000000000E+00 -0.45593999997E+02  0.45594000000E+02  0.51100000000E-03 0.  1.
    9900012    2    1    2    0    0 -0.81305493252E+01  0.32680813244E+02 -0.22782071630E+02  0.50528878337E+02  0.30000056194E+02 0.  0.
         12    1    1    2    0    0  0.81305493252E+01 -0.32680813244E+02  0.22782071630E+02  0.40659121663E+02  0.00000000000E+00 0. -1.
         11    1    3    3    0    0 -0.17984333883E+01  0.14863525800E+01 -0.57069037938E+01  0.61654162729E+01  0.51100000000E-03 0. -1.
        -11    1    3    3    0    0 -0.77549054306E+01  0.14274534510E+02  0.45486872346E+01  0.16869838456E+02  0.51100000000E-03 0.  1.
        -12    1    3    3    0    0  0.14227894938E+01  0.16919926154E+02 -0.21623855070E+02  0.27493623608E+02  0.00000000000E+00 0.  1.
</event>
<event>
 7    1  0.3004200E-011  0.5052887E+02  0.7816164E-02  0.1300439E+00
        -11   -1    0    0    0    0  0.00000000000E+00  0.00000000000E+00  0.45593999997E+02  0.45594000000E+02  0.51100000000E-03 0. -1.
         11   -1    0    0    0    0 -0.00000000000E+00 -0.00000000000E+00 -0.45593999997E+02  0.45594000000E+02  0.51100000000E-03 0.  1.
    9900012    2    1    2    0    0  0.82504222449E+01  0.19368021661E+02 -0.34784698523E+02  0.50528868411E+02  0.30000026022E+02 0.  0.
         12    1    1    2    0    0 -0.82504222449E+01 -0.19368021661E+02  0.34784698523E+02  0.40659131589E+02  0.00000000000E+00 0. -1.
         11    1    3    3    0    0  0.24296329835E+00 -0.34195450520E+01  0.31967825418E+01  0.46874020958E+01  0.51100000000E-03 0. -1.
        -11    1    3    3    0    0  0.89918554987E+01  0.16455417832E+02 -0.31920641246E+02  0.37021096406E+02  0.51100000000E-03 0.  1.
         12    1    3    3    0    0 -0.98439655214E+00  0.63321488810E+01 -0.60608398188E+01  0.88203699090E+01  0.00000000000E+00 0. -1.
</event>
<event>
 7    1  0.3004200E-011  0.5052887E+02  0.7816164E-02  0.1300439E+00
        -11   -1    0    0    0    0  0.00000000000E+00  0.00000000000E+00  0.45593999997E+02  0.45594000000E+02  0.51100000000E-03 0. -1.
         11   -1    0    0    0    0 -0.00000000000E+00 -0.00000000000E+00 -0.45593999997E+02  0.45594000000E+02  0.51100000000E-03 0.  1.
    9900012    2    1    2    0    0 -0.39361753717E+02 -0.10069408587E+02  0.15570076975E+01  0.50528869193E+02  0.30000028400E+02 0.  0.
         12    1    1    2    0    0  0.39361753717E+02  0.10069408587E+02 -0.15570076975E+01  0.40659130807E+02  0.00000000000E+00 0. -1.
         11    1    3    3    0    0  0.51655277764E+00 -0.49777585025E+01 -0.20134997811E+01  0.53943570618E+01  0.51100000000E-03 0. -1.
        -11    1    3    3    0    0 -0.34469916004E+02  0.34634367038E+01  0.46570039282E+01  0.34955088170E+02  0.51100000000E-03 0.  1.
        -12    1    3    3    0    0 -0.54083904915E+01 -0.85550867879E+01 -0.10864964496E+01  0.10179423962E+02  0.00000000000E+00 0.  1.
</event>
<event>
 7    1  0.3004200E-011  0.5052886E+02  0.7816164E-02  0.1300439E+00
        -11   -1    0    0    0    0  0.00000000000E+00  0.00000000000E+00  0.45593999997E+02  0.45594000000E+02  0.51100000000E-03 0.  1.
         11   -1    0    0    0    0 -0.00000000000E+00 -0.00000000000E+00 -0.45593999997E+02  0.45594000000E+02  0.51100000000E-03 0. -1.
    9900012    2    1    2    0    0 -0.46533466408E+01 -0.18783803078E+02  0.35758650544E+02  0.50528856112E+02  0.29999988637E+02 0.  0.
         12    1    1    2    0    0  0.46533466408E+01  0.18783803078E+02 -0.35758650544E+02  0.40659143888E+02  0.00000000000E+00 0. -1.
         11    1    3    3    0    0 -0.14043065998E+02 -0.73666142428E+00  0.10449471304E+02  0.17519755234E+02  0.51100000000E-03 0. -1.
        -11    1    3    3    0    0  0.15968417748E+01 -0.71823978055E+01  0.12430329217E+02  0.14444716217E+02  0.51100000000E-03 0.  1.
         12    1    3    3    0    0  0.77928775825E+01 -0.10864743848E+02  0.12878850023E+02  0.18564384660E+02  0.00000000000E+00 0. -1.
</event>
<event>
 7    1  0.3004200E-011  0.5052886E+02  0.7816164E-02  0.1300439E+00
        -11   -1    0    0    0    0  0.00000000000E+00  0.00000000000E+00  0.45593999997E+02  0.45594000000E+02  0.51100000000E-03 0. -1.
         11   -1    0    0    0    0 -0.00000000000E+00 -0.00000000000E+00 -0.45593999997E+02  0.45594000000E+02  0.51100000000E-03 0.  1.
    9900012    2    1    2    0    0  0.12641499005E+02  0.25779557793E+02 -0.28788411875E+02  0.50528858895E+02  0.29999997098E+02 0.  0.
         12    1    1    2    0    0 -0.12641499005E+02 -0.25779557793E+02  0.28788411875E+02  0.40659141105E+02  0.00000000000E+00 0. -1.
         11    1    3    3    0    0 -0.11609156795E+01 -0.68353092064E+00  0.34990784863E+01  0.37494653284E+01  0.51100000000E-03 0. -1.
        -11    1    3    3    0    0  0.72765228871E+01  0.26268136896E+02 -0.27147071919E+02  0.38469810441E+02  0.51100000000E-03 0.  1.
         12    1    3    3    0    0  0.65258917975E+01  0.19495181707E+00 -0.51404184418E+01  0.83095831255E+01  0.00000000000E+00 0. -1.
</event>
<event>
 7    1  0.3004200E-011  0.5052886E+02  0.7816164E-02  0.1300439E+00
        -11   -1    0    0    0    0  0.00000000000E+00  0.00000000000E+00  0.45593999997E+02  0.45594000000E+02  0.51100000000E-03 0.  1.
         11   -1    0    0    0    0 -0.00000000000E+00 -0.00000000000E+00 -0.45593999997E+02  0.45594000000E+02  0.51100000000E-03 0. -1.
    9900012    2    1    2    0    0  0.14693307162E+02  0.34862525628E+02  0.14895535751E+02  0.50528856455E+02  0.29999989681E+02 0.  0.
         12    1    1    2    0    0 -0.14693307162E+02 -0.34862525628E+02 -0.14895535751E+02  0.40659143545E+02  0.00000000000E+00 0. -1.
         11    1    3    3    0    0  0.17241475017E+02  0.16758562786E+02  0.10552611625E+02  0.26257865485E+02  0.51100000000E-03 0.  1.
        -11    1    3    3    0    0  0.25758459230E+00  0.12895051090E+02 -0.44751765278E+01  0.13651955818E+02  0.51100000000E-03 0. -1.
         12    1    3    3    0    0 -0.28057524479E+01  0.52089117519E+01  0.88181006539E+01  0.10619035153E+02  0.00000000000E+00 0. -1.
</event>
<event>
 7    1  0.3004200E-011  0.5052886E+02  0.7816164E-02  0.1300439E+00
        -11   -1    0    0    0    0  0.00000000000E+00  0.00000000000E+00  0.45593999997E+02  0.45594000000E+02  0.51100000000E-03 0. -1.
         11   -1    0    0    0    0 -0.00000000000E+00 -0.00000000000E+00 -0.45593999997E+02  0.45594000000E+02  0.51100000000E-03 0.  1.
    9900012    2    1    2    0    0  0.26914260806E+01  0.12624682025E+02 -0.38555659951E+02  0.50528864681E+02  0.30000014685E+02 0.  0.
         12    1    1    2    0    0 -0.26914260806E+01 -0.12624682025E+02  0.38555659951E+02  0.40659135319E+02  0.00000000000E+00 0. -1.
         11    1    3    3    0    0 -0.53524257963E+01  0.11612256464E+02 -0.32295737232E+02  0.34734818349E+02  0.51100000000E-03 0. -1.
        -11    1    3    3    0    0  0.65174926151E+01  0.42220653397E+01 -0.85623828262E+01  0.11559322889E+02  0.51100000000E-03 0.  1.
         12    1    3    3    0    0  0.15263592619E+01 -0.32096397785E+01  0.23024601069E+01  0.42347234441E+01  0.00000000000E+00 0. -1.
</event>
<event>
 7    1  0.3004200E-011  0.5052886E+02  0.7816164E-02  0.1300439E+00
        -11   -1    0    0    0    0  0.00000000000E+00  0.00000000000E+00  0.45593999997E+02  0.45594000000E+02  0.51100000000E-03 0.  1.
         11   -1    0    0    0    0 -0.00000000000E+00 -0.00000000000E+00 -0.45593999997E+02  0.45594000000E+02  0.51100000000E-03 0. -1.
    9900012    2    1    2    0    0  0.20850636194E+02 -0.18771823571E+02 -0.29428479367E+02  0.50528858498E+02  0.29999995889E+02 0.  0.
         12    1    1    2    0    0 -0.20850636194E+02  0.18771823571E+02  0.29428479367E+02  0.40659141502E+02  0.00000000000E+00 0. -1.
         11    1    3    3    0    0  0.12100670644E+01 -0.40881420208E+01 -0.23116301057E+02  0.23506180938E+02  0.51100000000E-03 0. -1.
        -11    1    3    3    0    0  0.61163774650E+01 -0.67224361957E+01 -0.67534497404E+01  0.11322998956E+02  0.51100000000E-03 0.  1.
         12    1    3    3    0    0  0.13524191665E+02 -0.79612453545E+01  0.44127143055E+00  0.15699678603E+02  0.00000000000E+00 0. -1.
</event>
<event>
 7    1  0.3004200E-011  0.5052886E+02  0.7816164E-02  0.1300439E+00
        -11   -1    0    0    0    0  0.00000000000E+00  0.00000000000E+00  0.45593999997E+02  0.45594000000E+02  0.51100000000E-03 0.  1.
         11   -1    0    0    0    0 -0.00000000000E+00 -0.00000000000E+00 -0.45593999997E+02  0.45594000000E+02  0.51100000000E-03 0. -1.
    9900012    2    1    2    0    0 -0.18662464443E+02 -0.22644563644E+02  0.28144310739E+02  0.50528855043E+02  0.29999985387E+02 0.  0.
         12    1    1    2    0    0  0.18662464443E+02  0.22644563644E+02 -0.28144310739E+02  0.40659144957E+02  0.00000000000E+00 0. -1.
         11    1    3    3    0    0 -0.17482565225E+02 -0.31169453145E+01  0.35508941707E+01  0.18109784223E+02  0.51100000000E-03 0. -1.
        -11    1    3    3    0    0 -0.20626125338E+01 -0.13171174494E+02  0.21492925582E+02  0.25291897089E+02  0.51100000000E-03 0.  1.
         12    1    3    3    0    0  0.88271331623E+00 -0.63564438352E+01  0.31004909866E+01  0.71271737307E+01  0.00000000000E+00 0. -1.
</event>
<event>
 7    1  0.3004200E-011  0.5052886E+02  0.7816164E-02  0.1300439E+00
        -11   -1    0    0    0    0  0.00000000000E+00  0.00000000000E+00  0.45593999997E+02  0.45594000000E+02  0.51100000000E-03 0. -1.
         11   -1    0    0    0    0 -0.00000000000E+00 -0.00000000000E+00 -0.45593999997E+02  0.45594000000E+02  0.51100000000E-03 0.  1.
    9900012    2    1    2    0    0  0.27167401098E+02  0.29871512367E+02  0.47739813599E+01  0.50528857959E+02  0.29999994252E+02 0.  0.
         12    1    1    2    0    0 -0.27167401098E+02 -0.29871512367E+02 -0.47739813599E+01  0.40659142041E+02  0.00000000000E+00 0. -1.
         11    1    3    3    0    0 -0.17878378034E+01 -0.67214783802E+00 -0.45247999682E+01  0.49114113797E+01  0.51100000000E-03 0. -1.
        -11    1    3    3    0    0  0.25378234655E+02  0.24380609158E+02  0.13087884406E+02  0.37546792348E+02  0.51100000000E-03 0.  1.
        -12    1    3    3    0    0  0.35770042458E+01  0.61630510466E+01 -0.37891030780E+01  0.80706542308E+01  0.00000000000E+00 0.  1.
</event>
<event>
 7    1  0.3004200E-011  0.5052886E+02  0.7816164E-02  0.1300439E+00
        -11   -1    0    0    0    0  0.00000000000E+00  0.00000000000E+00  0.45593999997E+02  0.45594000000E+02  0.51100000000E-03 0.  1.
         11   -1    0    0    0    0 -0.00000000000E+00 -0.00000000000E+00 -0.45593999997E+02  0.45594000000E+02  0.51100000000E-03 0. -1.
    9900012    2    1    2    0    0  0.27309853932E+02  0.25366944927E+02  0.16243642689E+02  0.50528856570E+02  0.29999990029E+02 0.  0.
         12    1    1    2    0    0 -0.27309853932E+02 -0.25366944927E+02 -0.16243642689E+02  0.40659143430E+02  0.00000000000E+00 0. -1.
         11    1    3    3    0    0  0.22014385256E+01  0.31378740575E+01 -0.61236522440E+01  0.72243824822E+01  0.51100000000E-03 0. -1.
        -11    1    3    3    0    0  0.17049621270E+02  0.23148906465E+02  0.19326510893E+02  0.34642105587E+02  0.51100000000E-03 0.  1.
        -12    1    3    3    0    0  0.80587941366E+01 -0.91983559554E+00  0.30407840399E+01  0.86623685004E+01  0.00000000000E+00 0.  1.
</event>
<event>
 7    1  0.3004200E-011  0.5052887E+02  0.7816164E-02  0.1300439E+00
        -11   -1    0    0    0    0  0.00000000000E+00  0.00000000000E+00  0.45593999997E+02  0.45594000000E+02  0.51100000000E-03 0.  1.
         11   -1    0    0    0    0 -0.00000000000E+00 -0.00000000000E+00 -0.45593999997E+02  0.45594000000E+02  0.51100000000E-03 0. -1.
    9900012    2    1    2    0    0  0.13064471706E+02 -0.28368531637E+02  0.26032886085E+02  0.50528866141E+02  0.30000019123E+02 0.  0.
         12    1    1    2    0    0 -0.13064471706E+02  0.28368531637E+02 -0.26032886085E+02  0.40659133859E+02  0.00000000000E+00 0. -1.
         11    1    3    3    0    0 -0.21684848056E+01 -0.59473008634E+01  0.44561858873E+01  0.77414667108E+01  0.51100000000E-03 0. -1.
        -11    1    3    3    0    0  0.14088064723E+02 -0.77037393541E+01  0.22897637267E+02  0.27966461348E+02  0.51100000000E-03 0.  1.
        -12    1    3    3    0    0  0.11448917877E+01 -0.14717491420E+02 -0.13209370686E+01  0.14820938082E+02  0.00000000000E+00 0.  1.
</event>
<event>
 7    1  0.3004200E-011  0.5052886E+02  0.7816164E-02  0.1300439E+00
        -11   -1    0    0    0    0  0.00000000000E+00  0.00000000000E+00  0.45593999997E+02  0.45594000000E+02  0.51100000000E-03 0.  1.
         11   -1    0    0    0    0 -0.00000000000E+00 -0.00000000000E+00 -0.45593999997E+02  0.45594000000E+02  0.51100000000E-03 0. -1.
    9900012    2    1    2    0    0  0.35135787970E+02  0.20442861614E+02  0.85523440301E+00  0.50528860645E+02  0.30000002416E+02 0.  0.
         12    1    1    2    0    0 -0.35135787970E+02 -0.20442861614E+02 -0.85523440301E+00  0.40659139355E+02  0.00000000000E+00 0. -1.
         11    1    3    3    0    0  0.28776003627E+01 -0.13733175109E+01 -0.21790444150E+01  0.38619709549E+01  0.51100000000E-03 0. -1.
        -11    1    3    3    0    0  0.19532389951E+02  0.62049196285E+01  0.12923871568E+02  0.24228944289E+02  0.51100000000E-03 0.  1.
        -12    1    3    3    0    0  0.12725797656E+02  0.15611259496E+02 -0.98895927502E+01  0.22437945401E+02  0.00000000000E+00 0.  1.
</event>
<event>
 7    1  0.3004200E-011  0.5052887E+02  0.7816164E-02  0.1300439E+00
        -11   -1    0    0    0    0  0.00000000000E+00  0.00000000000E+00  0.45593999997E+02  0.45594000000E+02  0.51100000000E-03 0.  1.
         11   -1    0    0    0    0 -0.00000000000E+00 -0.00000000000E+00 -0.45593999997E+02  0.45594000000E+02  0.51100000000E-03 0. -1.
    9900012    2    1    2    0    0  0.76217276974E+01 -0.39901533470E+02  0.17150596736E+01  0.50528873890E+02  0.30000042677E+02 0.  0.
         12    1    1    2    0    0 -0.76217276974E+01  0.39901533470E+02 -0.17150596736E+01  0.40659126110E+02  0.00000000000E+00 0. -1.
         11    1    3    3    0    0 -0.82535734737E+01 -0.21715347052E+02 -0.23346270893E+01  0.23347981852E+02  0.51100000000E-03 0. -1.
        -11    1    3    3    0    0  0.15827976254E+02 -0.18793019795E+02  0.15621466999E+01  0.24619966041E+02  0.51100000000E-03 0.  1.
        -12    1    3    3    0    0  0.47324916858E-01  0.60683337694E+00  0.24875400630E+01  0.25609259966E+01  0.00000000000E+00 0.  1.
</event>
<event>
 7    1  0.3004200E-011  0.5052886E+02  0.7816164E-02  0.1300439E+00
        -11   -1    0    0    0    0  0.00000000000E+00  0.00000000000E+00  0.45593999997E+02  0.45594000000E+02  0.51100000000E-03 0.  1.
         11   -1    0    0    0    0 -0.00000000000E+00 -0.00000000000E+00 -0.45593999997E+02  0.45594000000E+02  0.51100000000E-03 0. -1.
    9900012    2    1    2    0    0 -0.18655829473E+02 -0.14001354484E+00  0.36126250236E+02  0.50528861627E+02  0.30000005402E+02 0.  0.
         12    1    1    2    0    0  0.18655829473E+02  0.14001354484E+00 -0.36126250236E+02  0.40659138373E+02  0.00000000000E+00 0. -1.
         11    1    3    3    0    0 -0.19085425145E+02 -0.53558184081E+00  0.10140283817E+02  0.21618641424E+02  0.51100000000E-03 0. -1.
        -11    1    3    3    0    0  0.24630540292E+01  0.60196743134E+01  0.15984788433E+02  0.17257362936E+02  0.51100000000E-03 0.  1.
         12    1    3    3    0    0 -0.20334583574E+01 -0.56241060175E+01  0.10001177985E+02  0.11652857267E+02  0.00000000000E+00 0. -1.
</event>
<event>
 7    1  0.3004200E-011  0.5052887E+02  0.7816164E-02  0.1300439E+00
        -11   -1    0    0    0    0  0.00000000000E+00  0.00000000000E+00  0.45593999997E+02  0.45594000000E+02  0.51100000000E-03 0. -1.
         11   -1    0    0    0    0 -0.00000000000E+00 -0.00000000000E+00 -0.45593999997E+02  0.45594000000E+02  0.51100000000E-03 0.  1.
    9900012    2    1    2    0    0 -0.10172623716E+02 -0.34099681435E+02 -0.19669629665E+02  0.50528869680E+02  0.30000029879E+02 0.  0.
         12    1    1    2    0    0  0.10172623716E+02  0.34099681435E+02  0.19669629665E+02  0.40659130320E+02  0.00000000000E+00 0. -1.
         11    1    3    3    0    0 -0.63812474381E+01 -0.23570000491E+01  0.28921297386E+01  0.73918998089E+01  0.51100000000E-03 0. -1.
        -11    1    3    3    0    0 -0.39171427239E+01 -0.32218796869E+02 -0.24799190124E+02  0.40845987684E+02  0.51100000000E-03 0.  1.
        -12    1    3    3    0    0  0.12576644623E+00  0.47611548351E+00  0.22374307205E+01  0.22909821871E+01  0.00000000000E+00 0.  1.
</event>
<event>
 7    1  0.3004200E-011  0.5052886E+02  0.7816164E-02  0.1300439E+00
        -11   -1    0    0    0    0  0.00000000000E+00  0.00000000000E+00  0.45593999997E+02  0.45594000000E+02  0.51100000000E-03 0.  1.
         11   -1    0    0    0    0 -0.00000000000E+00 -0.00000000000E+00 -0.45593999997E+02  0.45594000000E+02  0.51100000000E-03 0. -1.
    9900012    2    1    2    0    0 -0.11216530961E+02  0.16475055425E+02  0.35439066505E+02  0.50528862616E+02  0.30000008409E+02 0.  0.
         12    1    1    2    0    0  0.11216530961E+02 -0.16475055425E+02 -0.35439066505E+02  0.40659137384E+02  0.00000000000E+00 0. -1.
         11    1    3    3    0    0 -0.51375473401E+01 -0.60668632528E+00  0.28069392319E+02  0.28542131076E+02  0.51100000000E-03 0. -1.
        -11    1    3    3    0    0 -0.13700876582E+01  0.13799046083E+02  0.83156240302E+01  0.16169119217E+02  0.51100000000E-03 0.  1.
         12    1    3    3    0    0 -0.47088959627E+01  0.32826956676E+01 -0.94594984418E+00  0.58176123230E+01  0.00000000000E+00 0. -1.
</event>
<event>
 7    1  0.3004200E-011  0.5052885E+02  0.7816164E-02  0.1300439E+00
        -11   -1    0    0    0    0  0.00000000000E+00  0.00000000000E+00  0.45593999997E+02  0.45594000000E+02  0.51100000000E-03 0.  1.
         11   -1    0    0    0    0 -0.00000000000E+00 -0.00000000000E+00 -0.45593999997E+02  0.45594000000E+02  0.51100000000E-03 0. -1.
    9900012    2    1    2    0    0 -0.10072791918E+01 -0.31454630527E+02  0.25744084855E+02  0.50528852223E+02  0.29999976816E+02 0.  0.
         12    1    1    2    0    0  0.10072791918E+01  0.31454630527E+02 -0.25744084855E+02  0.40659147777E+02  0.00000000000E+00 0. -1.
         11    1    3    3    0    0  0.13945268800E+02 -0.12716985577E+02  0.12627369544E+02  0.22707767524E+02  0.51100000000E-03 0. -1.
        -11    1    3    3    0    0 -0.50802519645E+01 -0.28399348168E+01  0.29951665276E+01  0.65456254534E+01  0.51100000000E-03 0.  1.
         12    1    3    3    0    0 -0.98722960269E+01 -0.15897710133E+02  0.10121548784E+02  0.21275459245E+02  0.00000000000E+00 0. -1.
</event>
<event>
 7    1  0.3004200E-011  0.5052884E+02  0.7816164E-02  0.1300439E+00
        -11   -1    0    0    0    0  0.00000000000E+00  0.00000000000E+00  0.45593999997E+02  0.45594000000E+02  0.51100000000E-03 0. -1.
         11   -1    0    0    0    0 -0.00000000000E+00 -0.00000000000E+00 -0.45593999997E+02  0.45594000000E+02  0.51100000000E-03 0.  1.
    9900012    2    1    2    0    0 -0.34313210381E+02  0.18977029355E+02 -0.10753744768E+02  0.50528842651E+02  0.29999947721E+02 0.  0.
         12    1    1    2    0    0  0.34313210381E+02 -0.18977029355E+02  0.10753744768E+02  0.40659157349E+02  0.00000000000E+00 0. -1.
         11    1    3    3    0    0  0.84503497337E+00  0.15493015051E+01  0.10764686658E+01  0.20671730236E+01  0.51100000000E-03 0. -1.
        -11    1    3    3    0    0 -0.36814897463E+02  0.21450695712E+02 -0.11281081612E+02  0.44076431620E+02  0.51100000000E-03 0.  1.
        -12    1    3    3    0    0  0.16566521081E+01 -0.40229678618E+01 -0.54913182175E+00  0.43852380074E+01  0.00000000000E+00 0.  1.
</event>
<event>
 7    1  0.3004200E-011  0.5052886E+02  0.7816164E-02  0.1300439E+00
        -11   -1    0    0    0    0  0.00000000000E+00  0.00000000000E+00  0.45593999997E+02  0.45594000000E+02  0.51100000000E-03 0.  1.
         11   -1    0    0    0    0 -0.00000000000E+00 -0.00000000000E+00 -0.45593999997E+02  0.45594000000E+02  0.51100000000E-03 0. -1.
    9900012    2    1    2    0    0 -0.74055167772E+01 -0.35573928689E+02  0.18243338906E+02  0.50528862091E+02  0.30000006812E+02 0.  0.
         12    1    1    2    0    0  0.74055167772E+01  0.35573928689E+02 -0.18243338906E+02  0.40659137909E+02  0.00000000000E+00 0. -1.
         11    1    3    3    0    0 -0.57974409279E+00 -0.29433381176E+02  0.10214848563E+02  0.31160923640E+02  0.51100000000E-03 0.  1.
        -11    1    3    3    0    0 -0.12204859171E+01  0.49077757596E+01  0.11081449772E+01  0.51772419619E+01  0.51100000000E-03 0. -1.
        -12    1    3    3    0    0 -0.56052867673E+01 -0.11048323272E+02  0.69203453654E+01  0.14190696489E+02  0.00000000000E+00 0.  1.
</event>
<event>
 7    1  0.3004200E-011  0.5052885E+02  0.7816164E-02  0.1300439E+00
        -11   -1    0    0    0    0  0.00000000000E+00  0.00000000000E+00  0.45593999997E+02  0.45594000000E+02  0.51100000000E-03 0.  1.
         11   -1    0    0    0    0 -0.00000000000E+00 -0.00000000000E+00 -0.45593999997E+02  0.45594000000E+02  0.51100000000E-03 0. -1.
    9900012    2    1    2    0    0  0.28814179584E+02 -0.28437758334E+02 -0.37687119198E+01  0.50528853014E+02  0.29999979220E+02 0.  0.
         12    1    1    2    0    0 -0.28814179584E+02  0.28437758334E+02  0.37687119198E+01  0.40659146986E+02  0.00000000000E+00 0. -1.
         11    1    3    3    0    0  0.17742246254E+02 -0.76571301781E+01  0.98148058412E+01  0.21673702007E+02  0.51100000000E-03 0.  1.
        -11    1    3    3    0    0  0.53213556154E+01 -0.17454572574E+02 -0.12513992900E+02  0.22126430980E+02  0.51100000000E-03 0. -1.
         12    1    3    3    0    0  0.57505777141E+01 -0.33260555815E+01 -0.10695248604E+01  0.67287200271E+01  0.00000000000E+00 0. -1.
</event>
<event>
 7    1  0.3004200E-011  0.5052886E+02  0.7816164E-02  0.1300439E+00
        -11   -1    0    0    0    0  0.00000000000E+00  0.00000000000E+00  0.45593999997E+02  0.45594000000E+02  0.51100000000E-03 0.  1.
         11   -1    0    0    0    0 -0.00000000000E+00 -0.00000000000E+00 -0.45593999997E+02  0.45594000000E+02  0.51100000000E-03 0. -1.
    9900012    2    1    2    0    0 -0.29159007109E+02 -0.74100755985E+00  0.28326117120E+02  0.50528859590E+02  0.29999999209E+02 0.  0.
         12    1    1    2    0    0  0.29159007109E+02  0.74100755985E+00 -0.28326117120E+02  0.40659140410E+02  0.00000000000E+00 0. -1.
         11    1    3    3    0    0 -0.15552270072E+01  0.29349763779E+01  0.14056096361E+02  0.14443222028E+02  0.51100000000E-03 0. -1.
        -11    1    3    3    0    0 -0.79199156780E+01 -0.67813892179E+01 -0.16801484238E+01  0.10561022823E+02  0.51100000000E-03 0.  1.
        -12    1    3    3    0    0 -0.19683864424E+02  0.31054052801E+01  0.15950169183E+02  0.25524614739E+02  0.00000000000E+00 0.  1.
</event>
<event>
 7    1  0.3004200E-011  0.5052885E+02  0.7816164E-02  0.1300439E+00
        -11   -1    0    0    0    0  0.00000000000E+00  0.00000000000E+00  0.45593999997E+02  0.45594000000E+02  0.51100000000E-03 0. -1.
         11   -1    0    0    0    0 -0.00000000000E+00 -0.00000000000E+00 -0.45593999997E+02  0.45594000000E+02  0.51100000000E-03 0.  1.
    9900012    2    1    2    0    0  0.52563545427E+01  0.24269779529E+02 -0.32194947765E+02  0.50528854374E+02  0.29999983354E+02 0.  0.
         12    1    1    2    0    0 -0.52563545427E+01 -0.24269779529E+02  0.32194947765E+02  0.40659145626E+02  0.00000000000E+00 0. -1.
         11    1    3    3    0    0  0.47755438982E+01  0.18469168081E+01  0.14300853574E+01  0.53162078223E+01  0.51100000000E-03 0. -1.
        -11    1    3    3    0    0  0.64164739245E+01  0.15245125962E+02 -0.31620505610E+02  0.35685310403E+02  0.51100000000E-03 0.  1.
        -12    1    3    3    0    0 -0.59356632800E+01  0.71777367581E+01 -0.20045275126E+01  0.95273361487E+01  0.00000000000E+00 0.  1.
</event>
<event>
 7    1  0.3004200E-011  0.5052883E+02  0.7816164E-02  0.1300439E+00
        -11   -1    0    0    0    0  0.00000000000E+00  0.00000000000E+00  0.45593999997E+02  0.45594000000E+02  0.51100000000E-03 0. -1.
         11   -1    0    0    0    0 -0.00000000000E+00 -0.00000000000E+00 -0.45593999997E+02  0.45594000000E+02  0.51100000000E-03 0.  1.
    9900012    2    1    2    0    0 -0.15597901540E+02 -0.17236836613E+02 -0.33358126988E+02  0.50528834920E+02  0.29999924223E+02 0.  0.
         12    1    1    2    0    0  0.15597901540E+02  0.17236836613E+02  0.33358126988E+02  0.40659165080E+02  0.00000000000E+00 0. -1.
         11    1    3    3    0    0 -0.43922446246E+01  0.20178140228E+01 -0.16171476721E+02  0.16878389908E+02  0.51100000000E-03 0.  1.
        -11    1    3    3    0    0 -0.96111517579E+01 -0.68179458510E+01  0.70246369018E+00  0.11804748165E+02  0.51100000000E-03 0. -1.
         12    1    3    3    0    0 -0.15945051571E+01 -0.12436704784E+02 -0.17889113957E+02  0.21845696847E+02  0.00000000000E+00 0. -1.
</event>
<event>
 7    1  0.3004200E-011  0.5052886E+02  0.7816164E-02  0.1300439E+00
        -11   -1    0    0    0    0  0.00000000000E+00  0.00000000000E+00  0.45593999997E+02  0.45594000000E+02  0.51100000000E-03 0. -1.
         11   -1    0    0    0    0 -0.00000000000E+00 -0.00000000000E+00 -0.45593999997E+02  0.45594000000E+02  0.51100000000E-03 0.  1.
    9900012    2    1    2    0    0  0.25036474363E+02 -0.24117925950E+02  0.21087119348E+02  0.50528855849E+02  0.29999987840E+02 0.  0.
         12    1    1    2    0    0 -0.25036474363E+02  0.24117925950E+02 -0.21087119348E+02  0.40659144151E+02  0.00000000000E+00 0. -1.
         11    1    3    3    0    0  0.71605692230E+01 -0.71701725383E+01  0.21176265129E+02  0.23475930884E+02  0.51100000000E-03 0. -1.
        -11    1    3    3    0    0  0.16045245179E+02 -0.80299401130E+01  0.22325238781E+00  0.17943792046E+02  0.51100000000E-03 0.  1.
        -12    1    3    3    0    0  0.18306599603E+01 -0.89178132992E+01 -0.31239816878E+00  0.91091329195E+01  0.00000000000E+00 0.  1.
</event>
<event>
 7    1  0.3004200E-011  0.5052886E+02  0.7816164E-02  0.1300439E+00
        -11   -1    0    0    0    0  0.00000000000E+00  0.00000000000E+00  0.45593999997E+02  0.45594000000E+02  0.51100000000E-03 0.  1.
         11   -1    0    0    0    0 -0.00000000000E+00 -0.00000000000E+00 -0.45593999997E+02  0.45594000000E+02  0.51100000000E-03 0. -1.
    9900012    2    1    2    0    0  0.15463870784E+02  0.74367923639E+01  0.36860935991E+02  0.50528858563E+02  0.29999996087E+02 0.  0.
         12    1    1    2    0    0 -0.15463870784E+02 -0.74367923639E+01 -0.36860935991E+02  0.40659141437E+02  0.00000000000E+00 0. -1.
         11    1    3    3    0    0 -0.11275134852E+01 -0.24976067542E+01 -0.78638498400E+00  0.28509170037E+01  0.51100000000E-03 0. -1.
        -11    1    3    3    0    0  0.93497753604E+01  0.14188843311E+02  0.12304326824E+02  0.20979466930E+02  0.51100000000E-03 0.  1.
        -12    1    3    3    0    0  0.72416089090E+01 -0.42544441931E+01  0.25342994151E+02  0.26698474629E+02  0.00000000000E+00 0.  1.
</event>
<event>
 7    1  0.3004200E-011  0.5052879E+02  0.7816164E-02  0.1300439E+00
        -11   -1    0    0    0    0  0.00000000000E+00  0.00000000000E+00  0.45593999997E+02  0.45594000000E+02  0.51100000000E-03 0. -1.
         11   -1    0    0    0    0 -0.00000000000E+00 -0.00000000000E+00 -0.45593999997E+02  0.45594000000E+02  0.51100000000E-03 0.  1.
    9900012    2    1    2    0    0 -0.35585571263E+01  0.36448041912E+02 -0.17664882597E+02  0.50528792368E+02  0.29999794882E+02 0.  0.
         12    1    1    2    0    0  0.35585571263E+01 -0.36448041912E+02  0.17664882597E+02  0.40659207632E+02  0.00000000000E+00 0. -1.
         11    1    3    3    0    0  0.81437519180E+00  0.41390653550E+00  0.18402965106E+01  0.20545600700E+01  0.51100000000E-03 0. -1.
        -11    1    3    3    0    0 -0.42773809016E+01  0.31001127641E+02 -0.25697774983E+02  0.40493722251E+02  0.51100000000E-03 0.  1.
        -12    1    3    3    0    0 -0.95551416515E-01  0.50330077364E+01  0.61925958752E+01  0.79805100477E+01  0.00000000000E+00 0.  1.
</event>
<event>
 7    1  0.3004200E-011  0.5052886E+02  0.7816164E-02  0.1300439E+00
        -11   -1    0    0    0    0  0.00000000000E+00  0.00000000000E+00  0.45593999997E+02  0.45594000000E+02  0.51100000000E-03 0.  1.
         11   -1    0    0    0    0 -0.00000000000E+00 -0.00000000000E+00 -0.45593999997E+02  0.45594000000E+02  0.51100000000E-03 0. -1.
    9900012    2    1    2    0    0 -0.15392755744E+02 -0.15908237112E+02  0.34105084403E+02  0.50528859336E+02  0.29999998436E+02 0.  0.
         12    1    1    2    0    0  0.15392755744E+02  0.15908237112E+02 -0.34105084403E+02  0.40659140664E+02  0.00000000000E+00 0. -1.
         11    1    3    3    0    0  0.85492385468E+01 -0.57280799296E+01  0.73569223916E+01  0.12650086432E+02  0.51100000000E-03 0. -1.
        -11    1    3    3    0    0 -0.11958174624E+02 -0.16464179793E+01  0.13057985715E+02  0.17782565161E+02  0.51100000000E-03 0.  1.
         12    1    3    3    0    0 -0.11983819667E+02 -0.85337392034E+01  0.13690176297E+02  0.20096207743E+02  0.00000000000E+00 0. -1.
</event>
<event>
 7    1  0.3004200E-011  0.5052886E+02  0.7816164E-02  0.1300439E+00
        -11   -1    0    0    0    0  0.00000000000E+00  0.00000000000E+00  0.45593999997E+02  0.45594000000E+02  0.51100000000E-03 0. -1.
         11   -1    0    0    0    0 -0.00000000000E+00 -0.00000000000E+00 -0.45593999997E+02  0.45594000000E+02  0.51100000000E-03 0.  1.
    9900012    2    1    2    0    0  0.15150331498E+02 -0.34285582464E+02 -0.15752208372E+02  0.50528858617E+02  0.29999996251E+02 0.  0.
         12    1    1    2    0    0 -0.15150331498E+02  0.34285582464E+02  0.15752208372E+02  0.40659141383E+02  0.00000000000E+00 0. -1.
         11    1    3    3    0    0  0.65277484431E+01  0.22803901070E+01  0.14179629819E+01  0.70584912025E+01  0.51100000000E-03 0. -1.
        -11    1    3    3    0    0  0.64938562039E-01 -0.13961011539E+02 -0.24538569360E+00  0.13963318896E+02  0.51100000000E-03 0.  1.
         12    1    3    3    0    0  0.85576444932E+01 -0.22604961033E+02 -0.16924785661E+02  0.29507048518E+02  0.00000000000E+00 0. -1.
</event>
<event>
 7    1  0.3004200E-011  0.5052886E+02  0.7816164E-02  0.1300439E+00
        -11   -1    0    0    0    0  0.00000000000E+00  0.00000000000E+00  0.45593999997E+02  0.45594000000E+02  0.51100000000E-03 0. -1.
         11   -1    0    0    0    0 -0.00000000000E+00 -0.00000000000E+00 -0.45593999997E+02  0.45594000000E+02  0.51100000000E-03 0.  1.
    9900012    2    1    2    0    0  0.35316312545E+02 -0.76121616577E+01 -0.18654179536E+02  0.50528863868E+02  0.30000012212E+02 0.  0.
         12    1    1    2    0    0 -0.35316312545E+02  0.76121616577E+01  0.18654179536E+02  0.40659136132E+02  0.00000000000E+00 0. -1.
         11    1    3    3    0    0  0.12785524477E+02 -0.33425822667E+01 -0.19615523054E+02  0.23651875979E+02  0.51100000000E-03 0. -1.
        -11    1    3    3    0    0  0.17604414324E+02  0.25464066528E+01 -0.21347312518E+01  0.17915263557E+02  0.51100000000E-03 0.  1.
        -12    1    3    3    0    0  0.49263737431E+01 -0.68159860438E+01  0.30960747701E+01  0.89617243312E+01  0.00000000000E+00 0.  1.
</event>
<event>
 7    1  0.3004200E-011  0.5052886E+02  0.7816164E-02  0.1300439E+00
        -11   -1    0    0    0    0  0.00000000000E+00  0.00000000000E+00  0.45593999997E+02  0.45594000000E+02  0.51100000000E-03 0.  1.
         11   -1    0    0    0    0 -0.00000000000E+00 -0.00000000000E+00 -0.45593999997E+02  0.45594000000E+02  0.51100000000E-03 0. -1.
    9900012    2    1    2    0    0  0.58861846992E+01  0.10288220586E+02  0.38893071592E+02  0.50528859933E+02  0.30000000252E+02 0.  0.
         12    1    1    2    0    0 -0.58861846992E+01 -0.10288220586E+02 -0.38893071592E+02  0.40659140067E+02  0.00000000000E+00 0. -1.
         11    1    3    3    0    0 -0.45610482668E+01  0.12717581408E+02  0.54626975518E+01  0.14573301031E+02  0.51100000000E-03 0. -1.
        -11    1    3    3    0    0  0.97655097136E+01 -0.11417565518E+00  0.19404512574E+02  0.21723566110E+02  0.51100000000E-03 0.  1.
         12    1    3    3    0    0  0.68172325243E+00 -0.23151851660E+01  0.14025861466E+02  0.14231992792E+02  0.00000000000E+00 0. -1.
</event>
<event>
 7    1  0.3004200E-011  0.5052886E+02  0.7816164E-02  0.1300439E+00
        -11   -1    0    0    0    0  0.00000000000E+00  0.00000000000E+00  0.45593999997E+02  0.45594000000E+02  0.51100000000E-03 0. -1.
         11   -1    0    0    0    0 -0.00000000000E+00 -0.00000000000E+00 -0.45593999997E+02  0.45594000000E+02  0.51100000000E-03 0.  1.
    9900012    2    1    2    0    0 -0.31914741316E+02  0.23830111689E+02 -0.81694952962E+01  0.50528860931E+02  0.30000003287E+02 0.  0.
         12    1    1    2    0    0  0.31914741316E+02 -0.23830111689E+02  0.81694952962E+01  0.40659139069E+02  0.00000000000E+00 0. -1.
         11    1    3    3    0    0 -0.21950690186E+02  0.33092717645E+01 -0.49022790690E+01  0.22733596715E+02  0.51100000000E-03 0. -1.
        -11    1    3    3    0    0 -0.96948554414E+01  0.21349292421E+02  0.97189814141E+00  0.23467575400E+02  0.51100000000E-03 0.  1.
        -12    1    3    3    0    0 -0.26919568846E+00 -0.82845249644E+00 -0.42391143687E+01  0.43276888160E+01  0.00000000000E+00 0.  1.
</event>
<event>
 7    1  0.3004200E-011  0.5052886E+02  0.7816164E-02  0.1300439E+00
        -11   -1    0    0    0    0  0.00000000000E+00  0.00000000000E+00  0.45593999997E+02  0.45594000000E+02  0.51100000000E-03 0.  1.
         11   -1    0    0    0    0 -0.00000000000E+00 -0.00000000000E+00 -0.45593999997E+02  0.45594000000E+02  0.51100000000E-03 0. -1.
    9900012    2    1    2    0    0  0.99365140524E+00 -0.22432131695E+02  0.33896575401E+02  0.50528859583E+02  0.29999999189E+02 0.  0.
         12    1    1    2    0    0 -0.99365140524E+00  0.22432131695E+02 -0.33896575401E+02  0.40659140417E+02  0.00000000000E+00 0. -1.
         11    1    3    3    0    0 -0.55148045339E+01 -0.80794713108E+01  0.28146063309E+02  0.29797513415E+02  0.51100000000E-03 0. -1.
        -11    1    3    3    0    0 -0.32618780102E+01 -0.61600334823E+01  0.65790727409E+00  0.70013357939E+01  0.51100000000E-03 0.  1.
         12    1    3    3    0    0  0.97703339493E+01 -0.81926269015E+01  0.50926048188E+01  0.13730010374E+02  0.00000000000E+00 0. -1.
</event>
<event>
 7    1  0.3004200E-011  0.5052886E+02  0.7816164E-02  0.1300439E+00
        -11   -1    0    0    0    0  0.00000000000E+00  0.00000000000E+00  0.45593999997E+02  0.45594000000E+02  0.51100000000E-03 0. -1.
         11   -1    0    0    0    0 -0.00000000000E+00 -0.00000000000E+00 -0.45593999997E+02  0.45594000000E+02  0.51100000000E-03 0.  1.
    9900012    2    1    2    0    0 -0.53477409987E+01  0.37558778473E+02  0.14625498481E+02  0.50528863512E+02  0.30000011130E+02 0.  0.
         12    1    1    2    0    0  0.53477409987E+01 -0.37558778473E+02 -0.14625498481E+02  0.40659136488E+02  0.00000000000E+00 0. -1.
         11    1    3    3    0    0 -0.19481444456E+01 -0.18151707989E+01  0.48673520819E+00  0.27068474715E+01  0.51100000000E-03 0. -1.
        -11    1    3    3    0    0  0.48540857587E+01  0.21125930820E+02 -0.24524016340E+01  0.21814705489E+02  0.51100000000E-03 0.  1.
        -12    1    3    3    0    0 -0.82536823117E+01  0.18248018452E+02  0.16591164907E+02  0.26007310551E+02  0.00000000000E+00 0.  1.
</event>
<event>
 7    1  0.3004200E-011  0.5052887E+02  0.7816164E-02  0.1300439E+00
        -11   -1    0    0    0    0  0.00000000000E+00  0.00000000000E+00  0.45593999997E+02  0.45594000000E+02  0.51100000000E-03 0.  1.
         11   -1    0    0    0    0 -0.00000000000E+00 -0.00000000000E+00 -0.45593999997E+02  0.45594000000E+02  0.51100000000E-03 0. -1.
    9900012    2    1    2    0    0  0.17580819915E+02 -0.29293426986E+01  0.36544479348E+02  0.50528865130E+02  0.30000016049E+02 0.  0.
         12    1    1    2    0    0 -0.17580819915E+02  0.29293426986E+01 -0.36544479348E+02  0.40659134870E+02  0.00000000000E+00 0. -1.
         11    1    3    3    0    0 -0.11830436459E+01  0.37476834887E+01  0.71143953183E+01  0.81276900043E+01  0.51100000000E-03 0. -1.
        -11    1    3    3    0    0  0.19590814862E+02 -0.12522073983E+02  0.27870163215E+02  0.36295293933E+02  0.51100000000E-03 0.  1.
        -12    1    3    3    0    0 -0.82695130077E+00  0.58450477961E+01  0.15599208154E+01  0.61058811930E+01  0.00000000000E+00 0.  1.
</event>
<event>
 7    1  0.3004200E-011  0.5052887E+02  0.7816164E-02  0.1300439E+00
        -11   -1    0    0    0    0  0.00000000000E+00  0.00000000000E+00  0.45593999997E+02  0.45594000000E+02  0.51100000000E-03 0.  1.
         11   -1    0    0    0    0 -0.00000000000E+00 -0.00000000000E+00 -0.45593999997E+02  0.45594000000E+02  0.51100000000E-03 0. -1.
    9900012    2    1    2    0    0  0.32239848154E+02 -0.23978706691E+02 -0.62272640466E+01  0.50528868171E+02  0.30000025293E+02 0.  0.
         12    1    1    2    0    0 -0.32239848154E+02  0.23978706691E+02  0.62272640466E+01  0.40659131829E+02  0.00000000000E+00 0. -1.
         11    1    3    3    0    0  0.77886825676E+01 -0.71557275623E+01 -0.15335178020E+02  0.18628894177E+02  0.51100000000E-03 0. -1.
        -11    1    3    3    0    0  0.97981791808E+01 -0.64934847738E+01 -0.80029213512E-01  0.11754831547E+02  0.51100000000E-03 0.  1.
         12    1    3    3    0    0  0.14652986406E+02 -0.10329494355E+02  0.91879431867E+01  0.20145142448E+02  0.00000000000E+00 0. -1.
</event>
<event>
 7    1  0.3004200E-011  0.5052886E+02  0.7816164E-02  0.1300439E+00
        -11   -1    0    0    0    0  0.00000000000E+00  0.00000000000E+00  0.45593999997E+02  0.45594000000E+02  0.51100000000E-03 0.  1.
         11   -1    0    0    0    0 -0.00000000000E+00 -0.00000000000E+00 -0.45593999997E+02  0.45594000000E+02  0.51100000000E-03 0. -1.
    9900012    2    1    2    0    0  0.15290947879E+02  0.37671418172E+02  0.46580523672E+00  0.50528858240E+02  0.29999995107E+02 0.  0.
         12    1    1    2    0    0 -0.15290947879E+02 -0.37671418172E+02 -0.46580523672E+00  0.40659141760E+02  0.00000000000E+00 0. -1.
         11    1    3    3    0    0  0.10841524365E+02  0.97947717732E+01 -0.87926103417E+01  0.17052454414E+02  0.51100000000E-03 0. -1.
        -11    1    3    3    0    0  0.76418901468E+00  0.26554861569E+02  0.11518819847E+02  0.28955618949E+02  0.51100000000E-03 0.  1.
        -12    1    3    3    0    0  0.36852344990E+01  0.13217848302E+01 -0.22604042688E+01  0.45207848775E+01  0.00000000000E+00 0.  1.
</event>
<event>
 7    1  0.3004200E-011  0.5052886E+02  0.7816164E-02  0.1300439E+00
        -11   -1    0    0    0    0  0.00000000000E+00  0.00000000000E+00  0.45593999997E+02  0.45594000000E+02  0.51100000000E-03 0.  1.
         11   -1    0    0    0    0 -0.00000000000E+00 -0.00000000000E+00 -0.45593999997E+02  0.45594000000E+02  0.51100000000E-03 0. -1.
    9900012    2    1    2    0    0  0.35892255854E+01 -0.37822777774E+01  0.40323411619E+02  0.50528859698E+02  0.29999999539E+02 0.  0.
         12    1    1    2    0    0 -0.35892255854E+01  0.37822777774E+01 -0.40323411619E+02  0.40659140302E+02  0.00000000000E+00 0. -1.
         11    1    3    3    0    0  0.61358057749E+00 -0.68321944871E+01  0.48996928674E-01  0.68598661499E+01  0.51100000000E-03 0. -1.
        -11    1    3    3    0    0  0.93318015000E+01  0.44924745700E+01  0.25275722074E+02  0.27315324886E+02  0.51100000000E-03 0.  1.
         12    1    3    3    0    0 -0.63561564920E+01 -0.14425578604E+01  0.14998692616E+02  0.16353668663E+02  0.00000000000E+00 0. -1.
</event>
<event>
 7    1  0.3004200E-011  0.5052882E+02  0.7816164E-02  0.1300439E+00
        -11   -1    0    0    0    0  0.00000000000E+00  0.00000000000E+00  0.45593999997E+02  0.45594000000E+02  0.51100000000E-03 0. -1.
         11   -1    0    0    0    0 -0.00000000000E+00 -0.00000000000E+00 -0.45593999997E+02  0.45594000000E+02  0.51100000000E-03 0.  1.
    9900012    2    1    2    0    0 -0.17205404194E+02  0.14785826134E+02 -0.33741993184E+02  0.50528822783E+02  0.29999887330E+02 0.  0.
         12    1    1    2    0    0  0.17205404194E+02 -0.14785826134E+02  0.33741993184E+02  0.40659177217E+02  0.00000000000E+00 0. -1.
         11    1    3    3    0    0 -0.19087166400E+02  0.15293735396E+02 -0.13783850740E+02  0.28075127872E+02  0.51100000000E-03 0.  1.
        -11    1    3    3    0    0  0.10697038172E+01 -0.25612511884E+01 -0.20052403981E+02  0.20243596014E+02  0.51100000000E-03 0. -1.
        -12    1    3    3    0    0  0.81205838913E+00  0.20533419267E+01  0.94261536848E-01  0.22100988966E+01  0.00000000000E+00 0.  1.
</event>
<event>
 7    1  0.3004200E-011  0.5052886E+02  0.7816164E-02  0.1300439E+00
        -11   -1    0    0    0    0  0.00000000000E+00  0.00000000000E+00  0.45593999997E+02  0.45594000000E+02  0.51100000000E-03 0. -1.
         11   -1    0    0    0    0 -0.00000000000E+00 -0.00000000000E+00 -0.45593999997E+02  0.45594000000E+02  0.51100000000E-03 0.  1.
    9900012    2    1    2    0    0  0.17442599504E+02  0.96117175964E+01 -0.35447655158E+02  0.50528860205E+02  0.30000001080E+02 0.  0.
         12    1    1    2    0    0 -0.17442599504E+02 -0.96117175964E+01  0.35447655158E+02  0.40659139795E+02  0.00000000000E+00 0. -1.
         11    1    3    3    0    0  0.16149968166E+02  0.11963262212E+02 -0.17531429550E+02  0.26670060683E+02  0.51100000000E-03 0. -1.
        -11    1    3    3    0    0  0.44322115083E+01 -0.39410113155E+01 -0.19213669111E+02  0.20108235875E+02  0.51100000000E-03 0.  1.
         12    1    3    3    0    0 -0.31395801699E+01  0.15894667002E+01  0.12974435022E+01  0.37505636477E+01  0.00000000000E+00 0. -1.
</event>
<event>
 7    1  0.3004200E-011  0.5052885E+02  0.7816164E-02  0.1300439E+00
        -11   -1    0    0    0    0  0.00000000000E+00  0.00000000000E+00  0.45593999997E+02  0.45594000000E+02  0.51100000000E-03 0. -1.
         11   -1    0    0    0    0 -0.00000000000E+00 -0.00000000000E+00 -0.45593999997E+02  0.45594000000E+02  0.51100000000E-03 0.  1.
    9900012    2    1    2    0    0  0.21654863095E+02  0.25200938055E+02  0.23433870135E+02  0.50528847967E+02  0.29999963882E+02 0.  0.
         12    1    1    2    0    0 -0.21654863095E+02 -0.25200938055E+02 -0.23433870135E+02  0.40659152033E+02  0.00000000000E+00 0. -1.
         11    1    3    3    0    0  0.71720440764E+01  0.19683844782E+02  0.20276750937E+02  0.29155421288E+02  0.51100000000E-03 0. -1.
        -11    1    3    3    0    0 -0.14672652262E+01  0.39195357503E+01 -0.18555453567E+01  0.45780647193E+01  0.51100000000E-03 0.  1.
         12    1    3    3    0    0  0.15950084245E+02  0.15975575226E+01  0.50126645545E+01  0.16795361961E+02  0.00000000000E+00 0. -1.
</event>
<event>
 7    1  0.3004200E-011  0.5052894E+02  0.7816164E-02  0.1300439E+00
        -11   -1    0    0    0    0  0.00000000000E+00  0.00000000000E+00  0.45593999997E+02  0.45594000000E+02  0.51100000000E-03 0.  1.
         11   -1    0    0    0    0 -0.00000000000E+00 -0.00000000000E+00 -0.45593999997E+02  0.45594000000E+02  0.51100000000E-03 0. -1.
    9900012    2    1    2    0    0 -0.66994301687E+01 -0.10148068970E+02  0.38798112043E+02  0.50528939921E+02  0.30000243382E+02 0.  0.
         12    1    1    2    0    0  0.66994301687E+01  0.10148068970E+02 -0.38798112043E+02  0.40659060079E+02  0.00000000000E+00 0. -1.
         11    1    3    3    0    0 -0.26610651743E+01 -0.44168596259E+00 -0.68588812970E+00  0.27833068712E+01  0.51100000000E-03 0. -1.
        -11    1    3    3    0    0 -0.60478833469E+01 -0.13543925139E+02  0.40639932371E+02  0.43262211045E+02  0.51100000000E-03 0.  1.
        -12    1    3    3    0    0  0.20095183525E+01  0.38375421316E+01 -0.11559321982E+01  0.44834220042E+01  0.00000000000E+00 0.  1.
</event>
<event>
 7    1  0.3004200E-011  0.5052885E+02  0.7816164E-02  0.1300439E+00
        -11   -1    0    0    0    0  0.00000000000E+00  0.00000000000E+00  0.45593999997E+02  0.45594000000E+02  0.51100000000E-03 0. -1.
         11   -1    0    0    0    0 -0.00000000000E+00 -0.00000000000E+00 -0.45593999997E+02  0.45594000000E+02  0.51100000000E-03 0.  1.
    9900012    2    1    2    0    0  0.28336267028E+02 -0.20895619984E+02 -0.20337047714E+02  0.50528850066E+02  0.29999970261E+02 0.  0.
         12    1    1    2    0    0 -0.28336267028E+02  0.20895619984E+02  0.20337047714E+02  0.40659149934E+02  0.00000000000E+00 0. -1.
         11    1    3    3    0    0  0.84919374074E+01 -0.53792288671E+00 -0.58789717713E+01  0.10342372615E+02  0.51100000000E-03 0. -1.
        -11    1    3    3    0    0  0.16663443079E+01 -0.11185596979E+01  0.62598731203E+01  0.65737273212E+01  0.51100000000E-03 0.  1.
        -12    1    3    3    0    0  0.18177985313E+02 -0.19239137399E+02 -0.20717949063E+02  0.33612750130E+02  0.00000000000E+00 0.  1.
</event>
<event>
 7    1  0.3004200E-011  0.5052887E+02  0.7816164E-02  0.1300439E+00
        -11   -1    0    0    0    0  0.00000000000E+00  0.00000000000E+00  0.45593999997E+02  0.45594000000E+02  0.51100000000E-03 0.  1.
         11   -1    0    0    0    0 -0.00000000000E+00 -0.00000000000E+00 -0.45593999997E+02  0.45594000000E+02  0.51100000000E-03 0. -1.
    9900012    2    1    2    0    0  0.29714169026E+02 -0.86910028055E+01  0.26357155971E+02  0.50528867674E+02  0.30000023781E+02 0.  0.
         12    1    1    2    0    0 -0.29714169026E+02  0.86910028055E+01 -0.26357155971E+02  0.40659132326E+02  0.00000000000E+00 0. -1.
         11    1    3    3    0    0  0.23543366358E+02  0.52559970363E+01  0.14823779657E+02  0.28313601818E+02  0.51100000000E-03 0. -1.
        -11    1    3    3    0    0  0.83586433806E+01 -0.12490590752E+02  0.61777807716E+01  0.16249515440E+02  0.51100000000E-03 0.  1.
        -12    1    3    3    0    0 -0.21878407128E+01 -0.14564090897E+01  0.53555955418E+01  0.59657504163E+01  0.00000000000E+00 0.  1.
</event>
<event>
 7    1  0.3004200E-011  0.5052886E+02  0.7816164E-02  0.1300439E+00
        -11   -1    0    0    0    0  0.00000000000E+00  0.00000000000E+00  0.45593999997E+02  0.45594000000E+02  0.51100000000E-03 0. -1.
         11   -1    0    0    0    0 -0.00000000000E+00 -0.00000000000E+00 -0.45593999997E+02  0.45594000000E+02  0.51100000000E-03 0.  1.
    9900012    2    1    2    0    0  0.13491045521E+02  0.62402018743E+01 -0.37844643637E+02  0.50528862273E+02  0.30000007364E+02 0.  0.
         12    1    1    2    0    0 -0.13491045521E+02 -0.62402018743E+01  0.37844643637E+02  0.40659137727E+02  0.00000000000E+00 0. -1.
         11    1    3    3    0    0  0.15689028659E+02  0.64003783244E+01 -0.60916630172E+01  0.18006077350E+02  0.51100000000E-03 0. -1.
        -11    1    3    3    0    0 -0.48793525112E+00  0.29815905048E+01 -0.20317826031E+02  0.20541227267E+02  0.51100000000E-03 0.  1.
         12    1    3    3    0    0 -0.17100478869E+01 -0.31417669549E+01 -0.11435154590E+02  0.11981557656E+02  0.00000000000E+00 0. -1.
</event>
<event>
 7    1  0.3004200E-011  0.5052886E+02  0.7816164E-02  0.1300439E+00
        -11   -1    0    0    0    0  0.00000000000E+00  0.00000000000E+00  0.45593999997E+02  0.45594000000E+02  0.51100000000E-03 0. -1.
         11   -1    0    0    0    0 -0.00000000000E+00 -0.00000000000E+00 -0.45593999997E+02  0.45594000000E+02  0.51100000000E-03 0.  1.
    9900012    2    1    2    0    0 -0.36705260073E+01  0.37901299928E+02 -0.14254270636E+02  0.50528861682E+02  0.30000005568E+02 0.  0.
         12    1    1    2    0    0  0.36705260073E+01 -0.37901299928E+02  0.14254270636E+02  0.40659138318E+02  0.00000000000E+00 0. -1.
         11    1    3    3    0    0 -0.89707546623E+01  0.37775963665E+01 -0.13644109396E+01  0.98288499323E+01  0.51100000000E-03 0. -1.
        -11    1    3    3    0    0  0.97506230539E+01  0.17473712681E+02 -0.15513445156E+01  0.20070175756E+02  0.51100000000E-03 0.  1.
        -12    1    3    3    0    0 -0.44503943990E+01  0.16649990881E+02 -0.11338515181E+02  0.20629835994E+02  0.00000000000E+00 0.  1.
</event>
<event>
 7    1  0.3004200E-011  0.5052885E+02  0.7816164E-02  0.1300439E+00
        -11   -1    0    0    0    0  0.00000000000E+00  0.00000000000E+00  0.45593999997E+02  0.45594000000E+02  0.51100000000E-03 0.  1.
         11   -1    0    0    0    0 -0.00000000000E+00 -0.00000000000E+00 -0.45593999997E+02  0.45594000000E+02  0.51100000000E-03 0. -1.
    9900012    2    1    2    0    0  0.17617065316E+01 -0.98136713992E+01  0.39417697888E+02  0.50528847733E+02  0.29999963170E+02 0.  0.
         12    1    1    2    0    0 -0.17617065316E+01  0.98136713992E+01 -0.39417697888E+02  0.40659152267E+02  0.00000000000E+00 0. -1.
         11    1    3    3    0    0 -0.11756608509E+01 -0.50017146248E+01 -0.36775288796E+01  0.63185082533E+01  0.51100000000E-03 0. -1.
        -11    1    3    3    0    0 -0.24261027127E+01 -0.77844940537E+00  0.60898813972E+01  0.66014099663E+01  0.51100000000E-03 0.  1.
         12    1    3    3    0    0  0.53634700952E+01 -0.40335073690E+01  0.37005345371E+02  0.37608929514E+02  0.00000000000E+00 0. -1.
</event>
<event>
 7    1  0.3004200E-011  0.5052885E+02  0.7816164E-02  0.1300439E+00
        -11   -1    0    0    0    0  0.00000000000E+00  0.00000000000E+00  0.45593999997E+02  0.45594000000E+02  0.51100000000E-03 0.  1.
         11   -1    0    0    0    0 -0.00000000000E+00 -0.00000000000E+00 -0.45593999997E+02  0.45594000000E+02  0.51100000000E-03 0. -1.
    9900012    2    1    2    0    0  0.13651172467E+02 -0.23431880807E+02  0.30294529803E+02  0.50528854856E+02  0.29999984819E+02 0.  0.
         12    1    1    2    0    0 -0.13651172467E+02  0.23431880807E+02 -0.30294529803E+02  0.40659145144E+02  0.00000000000E+00 0. -1.
         11    1    3    3    0    0  0.40000981757E+00 -0.13334605046E+02  0.15775975393E+01  0.13433559240E+02  0.51100000000E-03 0. -1.
        -11    1    3    3    0    0  0.95903601824E+01 -0.14673049029E+02  0.20036915855E+02  0.26622384820E+02  0.51100000000E-03 0.  1.
         12    1    3    3    0    0  0.36608024668E+01  0.45757732678E+01  0.86800164086E+01  0.10472910797E+02  0.00000000000E+00 0. -1.
</event>
<event>
 7    1  0.3004200E-011  0.5052887E+02  0.7816164E-02  0.1300439E+00
        -11   -1    0    0    0    0  0.00000000000E+00  0.00000000000E+00  0.45593999997E+02  0.45594000000E+02  0.51100000000E-03 0.  1.
         11   -1    0    0    0    0 -0.00000000000E+00 -0.00000000000E+00 -0.45593999997E+02  0.45594000000E+02  0.51100000000E-03 0. -1.
    9900012    2    1    2    0    0  0.34382302438E+02  0.30670761722E+01  0.21485235363E+02  0.50528867990E+02  0.30000024743E+02 0.  0.
         12    1    1    2    0    0 -0.34382302438E+02 -0.30670761722E+01 -0.21485235363E+02  0.40659132010E+02  0.00000000000E+00 0. -1.
         11    1    3    3    0    0  0.46706470391E+01 -0.94619945324E+00 -0.63771297373E+01  0.79610314104E+01  0.51100000000E-03 0. -1.
        -11    1    3    3    0    0  0.27910344080E+02  0.47674942425E+01  0.20515139963E+02  0.34965515526E+02  0.51100000000E-03 0.  1.
        -12    1    3    3    0    0  0.18013113191E+01 -0.75421861703E+00  0.73472251374E+01  0.76023210542E+01  0.00000000000E+00 0.  1.
</event>
<event>
 7    1  0.3004200E-011  0.5052888E+02  0.7816164E-02  0.1300439E+00
        -11   -1    0    0    0    0  0.00000000000E+00  0.00000000000E+00  0.45593999997E+02  0.45594000000E+02  0.51100000000E-03 0.  1.
         11   -1    0    0    0    0 -0.00000000000E+00 -0.00000000000E+00 -0.45593999997E+02  0.45594000000E+02  0.51100000000E-03 0. -1.
    9900012    2    1    2    0    0 -0.34699575385E+02  0.19467499056E+02  0.83737766883E+01  0.50528878177E+02  0.30000055707E+02 0.  0.
         12    1    1    2    0    0  0.34699575385E+02 -0.19467499056E+02 -0.83737766883E+01  0.40659121823E+02  0.00000000000E+00 0. -1.
         11    1    3    3    0    0 -0.13825913988E+01 -0.15867548523E+01  0.10077079949E+01  0.23334150083E+01  0.51100000000E-03 0. -1.
        -11    1    3    3    0    0 -0.30563381409E+02  0.22524907543E+02 -0.23012054696E+01  0.38036657186E+02  0.51100000000E-03 0.  1.
        -12    1    3    3    0    0 -0.27536025768E+01 -0.14706536343E+01  0.96672741630E+01  0.10158805983E+02  0.00000000000E+00 0.  1.
</event>
<event>
 7    1  0.3004200E-011  0.5052886E+02  0.7816164E-02  0.1300439E+00
        -11   -1    0    0    0    0  0.00000000000E+00  0.00000000000E+00  0.45593999997E+02  0.45594000000E+02  0.51100000000E-03 0.  1.
         11   -1    0    0    0    0 -0.00000000000E+00 -0.00000000000E+00 -0.45593999997E+02  0.45594000000E+02  0.51100000000E-03 0. -1.
    9900012    2    1    2    0    0 -0.26514878850E+02 -0.15642805068E+02  0.26559922913E+02  0.50528860118E+02  0.30000000814E+02 0.  0.
         12    1    1    2    0    0  0.26514878850E+02  0.15642805068E+02 -0.26559922913E+02  0.40659139882E+02  0.00000000000E+00 0. -1.
         11    1    3    3    0    0 -0.18347125278E+02 -0.12592831751E+02  0.32764829854E+01  0.22492926855E+02  0.51100000000E-03 0. -1.
        -11    1    3    3    0    0 -0.33303904877E+01 -0.75034836791E+01  0.17285905092E+02  0.19136255726E+02  0.51100000000E-03 0.  1.
         12    1    3    3    0    0 -0.48373630837E+01  0.44535103620E+01  0.59975348360E+01  0.88996775367E+01  0.00000000000E+00 0. -1.
</event>
<event>
 7    1  0.3004200E-011  0.5052886E+02  0.7816164E-02  0.1300439E+00
        -11   -1    0    0    0    0  0.00000000000E+00  0.00000000000E+00  0.45593999997E+02  0.45594000000E+02  0.51100000000E-03 0.  1.
         11   -1    0    0    0    0 -0.00000000000E+00 -0.00000000000E+00 -0.45593999997E+02  0.45594000000E+02  0.51100000000E-03 0. -1.
    9900012    2    1    2    0    0  0.13517537134E+02  0.35616401352E+02  0.14209642480E+02  0.50528858410E+02  0.29999995622E+02 0.  0.
         12    1    1    2    0    0 -0.13517537134E+02 -0.35616401352E+02 -0.14209642480E+02  0.40659141590E+02  0.00000000000E+00 0. -1.
         11    1    3    3    0    0  0.60944253141E+01  0.27748652771E+02  0.53552047922E+01  0.28910343636E+02  0.51100000000E-03 0.  1.
        -11    1    3    3    0    0  0.91208114814E+01 -0.22197390621E+01  0.31227656910E+01  0.98928312128E+01  0.51100000000E-03 0. -1.
         12    1    3    3    0    0 -0.16976996617E+01  0.10087487644E+02  0.57316719963E+01  0.11725683561E+02  0.00000000000E+00 0. -1.
</event>
<event>
 7    1  0.3004200E-011  0.5052886E+02  0.7816164E-02  0.1300439E+00
        -11   -1    0    0    0    0  0.00000000000E+00  0.00000000000E+00  0.45593999997E+02  0.45594000000E+02  0.51100000000E-03 0.  1.
         11   -1    0    0    0    0 -0.00000000000E+00 -0.00000000000E+00 -0.45593999997E+02  0.45594000000E+02  0.51100000000E-03 0. -1.
    9900012    2    1    2    0    0 -0.61051188926E+01 -0.21477922237E+02  0.33979289440E+02  0.50528859193E+02  0.29999998004E+02 0.  0.
         12    1    1    2    0    0  0.61051188926E+01  0.21477922237E+02 -0.33979289440E+02  0.40659140807E+02  0.00000000000E+00 0. -1.
         11    1    3    3    0    0 -0.66783450137E+01  0.27684438561E+01  0.23906451942E+01  0.76144440514E+01  0.51100000000E-03 0.  1.
        -11    1    3    3    0    0 -0.15352435020E+01 -0.18455863074E+02  0.11264050476E+02  0.21676131753E+02  0.51100000000E-03 0. -1.
        -12    1    3    3    0    0  0.21084696231E+01 -0.57905030196E+01  0.20324593770E+02  0.21238283388E+02  0.00000000000E+00 0.  1.
</event>
<event>
 7    1  0.3004200E-011  0.5052885E+02  0.7816164E-02  0.1300439E+00
        -11   -1    0    0    0    0  0.00000000000E+00  0.00000000000E+00  0.45593999997E+02  0.45594000000E+02  0.51100000000E-03 0.  1.
         11   -1    0    0    0    0 -0.00000000000E+00 -0.00000000000E+00 -0.45593999997E+02  0.45594000000E+02  0.51100000000E-03 0. -1.
    9900012    2    1    2    0    0 -0.28850061959E+02 -0.28111893147E+02  0.55282772651E+01  0.50528850219E+02  0.29999970727E+02 0.  0.
         12    1    1    2    0    0  0.28850061959E+02  0.28111893147E+02 -0.55282772651E+01  0.40659149781E+02  0.00000000000E+00 0. -1.
         11    1    3    3    0    0 -0.19358968455E+02 -0.22141148430E+02 -0.96011801570E+01  0.30938370579E+02  0.51100000000E-03 0. -1.
        -11    1    3    3    0    0 -0.32468988079E+01 -0.46417594572E+01  0.95904712052E+01  0.11138465825E+02  0.51100000000E-03 0.  1.
         12    1    3    3    0    0 -0.62441946963E+01 -0.13289852599E+01  0.55389862169E+01  0.84520138155E+01  0.00000000000E+00 0. -1.
</event>
<event>
 7    1  0.3004200E-011  0.5052886E+02  0.7816164E-02  0.1300439E+00
        -11   -1    0    0    0    0  0.00000000000E+00  0.00000000000E+00  0.45593999997E+02  0.45594000000E+02  0.51100000000E-03 0. -1.
         11   -1    0    0    0    0 -0.00000000000E+00 -0.00000000000E+00 -0.45593999997E+02  0.45594000000E+02  0.51100000000E-03 0.  1.
    9900012    2    1    2    0    0 -0.17125300442E+02 -0.34903096010E+00 -0.36875029843E+02  0.50528861252E+02  0.30000004260E+02 0.  0.
         12    1    1    2    0    0  0.17125300442E+02  0.34903096010E+00  0.36875029843E+02  0.40659138748E+02  0.00000000000E+00 0. -1.
         11    1    3    3    0    0 -0.20022729662E+02 -0.44680588843E+01 -0.34765485299E+02  0.40367217165E+02  0.51100000000E-03 0. -1.
        -11    1    3    3    0    0 -0.16270763962E+01  0.63166109518E+00  0.23410269332E+01  0.29200651878E+01  0.51100000000E-03 0.  1.
         12    1    3    3    0    0  0.45245056163E+01  0.34873668290E+01 -0.44505714770E+01  0.72415788985E+01  0.00000000000E+00 0. -1.
</event>
<event>
 7    1  0.3004200E-011  0.5052887E+02  0.7816164E-02  0.1300439E+00
        -11   -1    0    0    0    0  0.00000000000E+00  0.00000000000E+00  0.45593999997E+02  0.45594000000E+02  0.51100000000E-03 0. -1.
         11   -1    0    0    0    0 -0.00000000000E+00 -0.00000000000E+00 -0.45593999997E+02  0.45594000000E+02  0.51100000000E-03 0.  1.
    9900012    2    1    2    0    0  0.18404228717E+02  0.35208113375E+02  0.86508893446E+01  0.50528871031E+02  0.30000033985E+02 0.  0.
         12    1    1    2    0    0 -0.18404228717E+02 -0.35208113375E+02 -0.86508893446E+01  0.40659128969E+02  0.00000000000E+00 0. -1.
         11    1    3    3    0    0  0.78280714542E+01  0.92758957097E+01  0.13072738176E+02  0.17838649826E+02  0.51100000000E-03 0. -1.
        -11    1    3    3    0    0  0.58899652848E+01  0.26623965828E+02 -0.19251827070E+01  0.27335573457E+02  0.51100000000E-03 0.  1.
         12    1    3    3    0    0  0.46861919776E+01 -0.69174816281E+00 -0.24966661248E+01  0.53546477485E+01  0.00000000000E+00 0. -1.
</event>
<event>
 7    1  0.3004200E-011  0.5052886E+02  0.7816164E-02  0.1300439E+00
        -11   -1    0    0    0    0  0.00000000000E+00  0.00000000000E+00  0.45593999997E+02  0.45594000000E+02  0.51100000000E-03 0.  1.
         11   -1    0    0    0    0 -0.00000000000E+00 -0.00000000000E+00 -0.45593999997E+02  0.45594000000E+02  0.51100000000E-03 0. -1.
    9900012    2    1    2    0    0 -0.10518210159E+02 -0.28343809501E+02  0.27187526104E+02  0.50528857638E+02  0.29999993276E+02 0.  0.
         12    1    1    2    0    0  0.10518210159E+02  0.28343809501E+02 -0.27187526104E+02  0.40659142362E+02  0.00000000000E+00 0. -1.
         11    1    3    3    0    0 -0.97585967974E+00 -0.13049530036E+02  0.18841829205E+01  0.13220918343E+02  0.51100000000E-03 0. -1.
        -11    1    3    3    0    0 -0.86102324983E+01 -0.22458518779E+01  0.22122614738E+02  0.23845126073E+02  0.51100000000E-03 0.  1.
        -12    1    3    3    0    0 -0.93211798099E+00 -0.13048427587E+02  0.31807284457E+01  0.13462813222E+02  0.00000000000E+00 0.  1.
</event>
<event>
 7    1  0.3004200E-011  0.5052888E+02  0.7816164E-02  0.1300439E+00
        -11   -1    0    0    0    0  0.00000000000E+00  0.00000000000E+00  0.45593999997E+02  0.45594000000E+02  0.51100000000E-03 0.  1.
         11   -1    0    0    0    0 -0.00000000000E+00 -0.00000000000E+00 -0.45593999997E+02  0.45594000000E+02  0.51100000000E-03 0. -1.
    9900012    2    1    2    0    0 -0.38207534762E+02  0.21982895658E+01 -0.13730120377E+02  0.50528875622E+02  0.30000047940E+02 0.  0.
         12    1    1    2    0    0  0.38207534762E+02 -0.21982895658E+01  0.13730120377E+02  0.40659124378E+02  0.00000000000E+00 0. -1.
         11    1    3    3    0    0 -0.17440563501E+02 -0.99823086699E+01 -0.94177359517E+01  0.22192645006E+02  0.51100000000E-03 0. -1.
        -11    1    3    3    0    0 -0.22532980064E+02  0.10209896086E+02 -0.56440217833E+01  0.25373847773E+02  0.51100000000E-03 0.  1.
         12    1    3    3    0    0  0.17660088032E+01  0.19707021492E+01  0.13316373578E+01  0.29623828427E+01  0.00000000000E+00 0. -1.
</event>
<event>
 7    1  0.3004200E-011  0.5052887E+02  0.7816164E-02  0.1300439E+00
        -11   -1    0    0    0    0  0.00000000000E+00  0.00000000000E+00  0.45593999997E+02  0.45594000000E+02  0.51100000000E-03 0.  1.
         11   -1    0    0    0    0 -0.00000000000E+00 -0.00000000000E+00 -0.45593999997E+02  0.45594000000E+02  0.51100000000E-03 0. -1.
    9900012    2    1    2    0    0  0.38981494397E+02  0.27294070736E+01  0.11232035839E+02  0.50528865756E+02  0.30000017953E+02 0.  0.
         12    1    1    2    0    0 -0.38981494397E+02 -0.27294070736E+01 -0.11232035839E+02  0.40659134244E+02  0.00000000000E+00 0. -1.
         11    1    3    3    0    0  0.10020383469E+02  0.11494494758E+02  0.74407556037E+01  0.16967508327E+02  0.51100000000E-03 0. -1.
        -11    1    3    3    0    0  0.24580101734E+02 -0.52745499215E+01  0.81889864958E+01  0.26439776440E+02  0.51100000000E-03 0.  1.
         12    1    3    3    0    0  0.43810091938E+01 -0.34905377630E+01 -0.43977062608E+01  0.71215809893E+01  0.00000000000E+00 0. -1.
</event>
<event>
 7    1  0.3004200E-011  0.5052886E+02  0.7816164E-02  0.1300439E+00
        -11   -1    0    0    0    0  0.00000000000E+00  0.00000000000E+00  0.45593999997E+02  0.45594000000E+02  0.51100000000E-03 0.  1.
         11   -1    0    0    0    0 -0.00000000000E+00 -0.00000000000E+00 -0.45593999997E+02  0.45594000000E+02  0.51100000000E-03 0. -1.
    9900012    2    1    2    0    0  0.14226140483E+02 -0.31277911635E+02  0.21736480889E+02  0.50528862888E+02  0.30000009234E+02 0.  0.
         12    1    1    2    0    0 -0.14226140483E+02  0.31277911635E+02 -0.21736480889E+02  0.40659137112E+02  0.00000000000E+00 0. -1.
         11    1    3    3    0    0  0.87939979509E+01 -0.18804823548E-01  0.62915747477E+01  0.10812893537E+02  0.51100000000E-03 0. -1.
        -11    1    3    3    0    0  0.90149632974E+01 -0.31511280792E+02  0.15163772474E+02  0.36113299161E+02  0.51100000000E-03 0.  1.
        -12    1    3    3    0    0 -0.35828207657E+01  0.25217398061E+00  0.28113366683E+00  0.36026701895E+01  0.00000000000E+00 0.  1.
</event>
<event>
 7    1  0.3004200E-011  0.5052885E+02  0.7816164E-02  0.1300439E+00
        -11   -1    0    0    0    0  0.00000000000E+00  0.00000000000E+00  0.45593999997E+02  0.45594000000E+02  0.51100000000E-03 0.  1.
         11   -1    0    0    0    0 -0.00000000000E+00 -0.00000000000E+00 -0.45593999997E+02  0.45594000000E+02  0.51100000000E-03 0. -1.
    9900012    2    1    2    0    0  0.70825928207E+01 -0.34217699777E+02  0.20788272241E+02  0.50528851437E+02  0.29999974429E+02 0.  0.
         12    1    1    2    0    0 -0.70825928207E+01  0.34217699777E+02 -0.20788272241E+02  0.40659148563E+02  0.00000000000E+00 0. -1.
         11    1    3    3    0    0  0.45924229597E+01 -0.24190354705E+02  0.18681705014E+02  0.30907437808E+02  0.51100000000E-03 0. -1.
        -11    1    3    3    0    0  0.53035878495E+01 -0.13259013962E+02 -0.10206875451E+01  0.14316818734E+02  0.51100000000E-03 0.  1.
         12    1    3    3    0    0 -0.28134179885E+01  0.32316688903E+01  0.31272547720E+01  0.53045948954E+01  0.00000000000E+00 0. -1.
</event>
<event>
 7    1  0.3004200E-011  0.5052886E+02  0.7816164E-02  0.1300439E+00
        -11   -1    0    0    0    0  0.00000000000E+00  0.00000000000E+00  0.45593999997E+02  0.45594000000E+02  0.51100000000E-03 0.  1.
         11   -1    0    0    0    0 -0.00000000000E+00 -0.00000000000E+00 -0.45593999997E+02  0.45594000000E+02  0.51100000000E-03 0. -1.
    9900012    2    1    2    0    0  0.21379810873E+02  0.34582829084E+02 -0.31248906209E+00  0.50528855520E+02  0.29999986838E+02 0.  0.
         12    1    1    2    0    0 -0.21379810873E+02 -0.34582829084E+02  0.31248906209E+00  0.40659144480E+02  0.00000000000E+00 0. -1.
         11    1    3    3    0    0  0.92005979743E+01  0.14700644264E+02 -0.14134386802E+02  0.22372769954E+02  0.51100000000E-03 0. -1.
        -11    1    3    3    0    0  0.55234164041E+01  0.71586518639E+01  0.96030983988E+01  0.13189917528E+02  0.51100000000E-03 0.  1.
         12    1    3    3    0    0  0.66557964946E+01  0.12723532956E+02  0.42187993410E+01  0.14966168038E+02  0.00000000000E+00 0. -1.
</event>
<event>
 7    1  0.3004200E-011  0.5052886E+02  0.7816164E-02  0.1300439E+00
        -11   -1    0    0    0    0  0.00000000000E+00  0.00000000000E+00  0.45593999997E+02  0.45594000000E+02  0.51100000000E-03 0. -1.
         11   -1    0    0    0    0 -0.00000000000E+00 -0.00000000000E+00 -0.45593999997E+02  0.45594000000E+02  0.51100000000E-03 0.  1.
    9900012    2    1    2    0    0  0.27399375499E+02  0.27374971136E+02  0.12371373405E+02  0.50528859547E+02  0.29999999078E+02 0.  0.
         12    1    1    2    0    0 -0.27399375499E+02 -0.27374971136E+02 -0.12371373405E+02  0.40659140453E+02  0.00000000000E+00 0. -1.
         11    1    3    3    0    0 -0.14867693064E+01 -0.20432423672E+01 -0.12227798110E+01  0.28072251546E+01  0.51100000000E-03 0. -1.
        -11    1    3    3    0    0  0.31005059376E+02  0.27591684990E+02  0.15535340979E+02  0.44316606448E+02  0.51100000000E-03 0.  1.
        -12    1    3    3    0    0 -0.21189145705E+01  0.18265285140E+01 -0.19411877628E+01  0.34050279441E+01  0.00000000000E+00 0.  1.
</event>
<event>
 7    1  0.3004200E-011  0.5052886E+02  0.7816164E-02  0.1300439E+00
        -11   -1    0    0    0    0  0.00000000000E+00  0.00000000000E+00  0.45593999997E+02  0.45594000000E+02  0.51100000000E-03 0.  1.
         11   -1    0    0    0    0 -0.00000000000E+00 -0.00000000000E+00 -0.45593999997E+02  0.45594000000E+02  0.51100000000E-03 0. -1.
    9900012    2    1    2    0    0  0.10810854793E+02 -0.10619705336E+02  0.37729475711E+02  0.50528855147E+02  0.29999985704E+02 0.  0.
         12    1    1    2    0    0 -0.10810854793E+02  0.10619705336E+02 -0.37729475711E+02  0.40659144853E+02  0.00000000000E+00 0. -1.
         11    1    3    3    0    0  0.15740803793E+01 -0.14715372444E+02  0.25294172867E+02  0.29305547196E+02  0.51100000000E-03 0. -1.
        -11    1    3    3    0    0  0.62734706416E+01  0.54557537584E+01  0.14949620839E+02  0.17105930154E+02  0.51100000000E-03 0.  1.
         12    1    3    3    0    0  0.29633037721E+01 -0.13600866508E+01 -0.25143179943E+01  0.41173777966E+01  0.00000000000E+00 0. -1.
</event>
<event>
 7    1  0.3004200E-011  0.5052883E+02  0.7816164E-02  0.1300439E+00
        -11   -1    0    0    0    0  0.00000000000E+00  0.00000000000E+00  0.45593999997E+02  0.45594000000E+02  0.51100000000E-03 0.  1.
         11   -1    0    0    0    0 -0.00000000000E+00 -0.00000000000E+00 -0.45593999997E+02  0.45594000000E+02  0.51100000000E-03 0. -1.
    9900012    2    1    2    0    0  0.42206786100E+00 -0.17667132016E+02  0.36617790849E+02  0.50528827583E+02  0.29999901922E+02 0.  0.
         12    1    1    2    0    0 -0.42206786100E+00  0.17667132016E+02 -0.36617790849E+02  0.40659172417E+02  0.00000000000E+00 0. -1.
         11    1    3    3    0    0 -0.51259092760E+01 -0.97469935347E+01 -0.12180990170E+01  0.11079828263E+02  0.51100000000E-03 0. -1.
        -11    1    3    3    0    0  0.33410021302E+01 -0.82704868853E+01  0.29529514524E+02  0.30847292861E+02  0.51100000000E-03 0.  1.
         12    1    3    3    0    0  0.22069750068E+01  0.35034840415E+00  0.83063753418E+01  0.86017064588E+01  0.00000000000E+00 0. -1.
</event>
<event>
 7    1  0.3004200E-011  0.5052886E+02  0.7816164E-02  0.1300439E+00
        -11   -1    0    0    0    0  0.00000000000E+00  0.00000000000E+00  0.45593999997E+02  0.45594000000E+02  0.51100000000E-03 0.  1.
         11   -1    0    0    0    0 -0.00000000000E+00 -0.00000000000E+00 -0.45593999997E+02  0.45594000000E+02  0.51100000000E-03 0. -1.
    9900012    2    1    2    0    0 -0.31288994025E+02 -0.13306816024E+02  0.22295583964E+02  0.50528861247E+02  0.30000004246E+02 0.  0.
         12    1    1    2    0    0  0.31288994025E+02  0.13306816024E+02 -0.22295583964E+02  0.40659138753E+02  0.00000000000E+00 0. -1.
         11    1    3    3    0    0 -0.13051089180E+02  0.71421290964E+01  0.64423898821E+01  0.16212505188E+02  0.51100000000E-03 0.  1.
        -11    1    3    3    0    0 -0.82497713627E+01 -0.16581621515E+02  0.14498087677E+02  0.23520277340E+02  0.51100000000E-03 0. -1.
         12    1    3    3    0    0 -0.99881334822E+01 -0.38673236060E+01  0.13551064055E+01  0.10796078719E+02  0.00000000000E+00 0. -1.
</event>
<event>
 7    1  0.3004200E-011  0.5052886E+02  0.7816164E-02  0.1300439E+00
        -11   -1    0    0    0    0  0.00000000000E+00  0.00000000000E+00  0.45593999997E+02  0.45594000000E+02  0.51100000000E-03 0.  1.
         11   -1    0    0    0    0 -0.00000000000E+00 -0.00000000000E+00 -0.45593999997E+02  0.45594000000E+02  0.51100000000E-03 0. -1.
    9900012    2    1    2    0    0 -0.14490034602E+02  0.40030438056E+01  0.37778033814E+02  0.50528864479E+02  0.30000014070E+02 0.  0.
         12    1    1    2    0    0  0.14490034602E+02 -0.40030438056E+01 -0.37778033814E+02  0.40659135521E+02  0.00000000000E+00 0. -1.
         11    1    3    3    0    0  0.19489475600E+01  0.63488831279E+00 -0.17572648728E+01  0.26998999715E+01  0.51100000000E-03 0. -1.
        -11    1    3    3    0    0 -0.17786400707E+02 -0.44909602841E+01  0.22582734938E+02  0.29094753684E+02  0.51100000000E-03 0.  1.
        -12    1    3    3    0    0  0.13474185453E+01  0.78591157769E+01  0.16952563748E+02  0.18734210823E+02  0.00000000000E+00 0.  1.
</event>
<event>
 7    1  0.3004200E-011  0.5052886E+02  0.7816164E-02  0.1300439E+00
        -11   -1    0    0    0    0  0.00000000000E+00  0.00000000000E+00  0.45593999997E+02  0.45594000000E+02  0.51100000000E-03 0.  1.
         11   -1    0    0    0    0 -0.00000000000E+00 -0.00000000000E+00 -0.45593999997E+02  0.45594000000E+02  0.51100000000E-03 0. -1.
    9900012    2    1    2    0    0 -0.21443961115E+02 -0.10718271409E+02  0.32839624877E+02  0.50528858687E+02  0.29999996464E+02 0.  0.
         12    1    1    2    0    0  0.21443961115E+02  0.10718271409E+02 -0.32839624877E+02  0.40659141313E+02  0.00000000000E+00 0. -1.
         11    1    3    3    0    0 -0.59419189960E+01 -0.19515746937E+01 -0.13000915114E+01  0.63879013251E+01  0.51100000000E-03 0. -1.
        -11    1    3    3    0    0 -0.47164255950E+01 -0.12825512536E+02  0.27826707680E+02  0.31001033899E+02  0.51100000000E-03 0.  1.
        -12    1    3    3    0    0 -0.10785616524E+02  0.40588158209E+01  0.63130087078E+01  0.13139923463E+02  0.00000000000E+00 0.  1.
</event>
<event>
 7    1  0.3004200E-011  0.5052886E+02  0.7816164E-02  0.1300439E+00
        -11   -1    0    0    0    0  0.00000000000E+00  0.00000000000E+00  0.45593999997E+02  0.45594000000E+02  0.51100000000E-03 0. -1.
         11   -1    0    0    0    0 -0.00000000000E+00 -0.00000000000E+00 -0.45593999997E+02  0.45594000000E+02  0.51100000000E-03 0.  1.
    9900012    2    1    2    0    0  0.43501277518E+01 -0.21278884089E+02 -0.34372239200E+02  0.50528863915E+02  0.30000012357E+02 0.  0.
         12    1    1    2    0    0 -0.43501277518E+01  0.21278884089E+02  0.34372239200E+02  0.40659136085E+02  0.00000000000E+00 0. -1.
         11    1    3    3    0    0  0.12167607277E+02 -0.59923782739E+01 -0.18648378192E+02  0.23059082238E+02  0.51100000000E-03 0. -1.
        -11    1    3    3    0    0 -0.46335163666E+01 -0.14179976512E+02 -0.42505343408E+01  0.15511552155E+02  0.51100000000E-03 0.  1.
         12    1    3    3    0    0 -0.31839631587E+01 -0.11065293036E+01 -0.11473326667E+02  0.11958229523E+02  0.00000000000E+00 0. -1.
</event>
<event>
 7    1  0.3004200E-011  0.5052887E+02  0.7816164E-02  0.1300439E+00
        -11   -1    0    0    0    0  0.00000000000E+00  0.00000000000E+00  0.45593999997E+02  0.45594000000E+02  0.51100000000E-03 0. -1.
         11   -1    0    0    0    0 -0.00000000000E+00 -0.00000000000E+00 -0.45593999997E+02  0.45594000000E+02  0.51100000000E-03 0.  1.
    9900012    2    1    2    0    0  0.25364522720E+02  0.31495185545E+02  0.42260301499E+01  0.50528867493E+02  0.30000023233E+02 0.  0.
         12    1    1    2    0    0 -0.25364522720E+02 -0.31495185545E+02 -0.42260301499E+01  0.40659132507E+02  0.00000000000E+00 0. -1.
         11    1    3    3    0    0  0.32309919892E+01  0.22718991967E+02  0.11332105177E+02  0.25593134104E+02  0.51100000000E-03 0. -1.
        -11    1    3    3    0    0  0.69437457927E+01  0.27766735688E+01 -0.32557786285E+01  0.81563237111E+01  0.51100000000E-03 0.  1.
         12    1    3    3    0    0  0.15189784938E+02  0.59995200091E+01 -0.38502963984E+01  0.16779409679E+02  0.00000000000E+00 0. -1.
</event>
<event>
 7    1  0.3004200E-011  0.5052885E+02  0.7816164E-02  0.1300439E+00
        -11   -1    0    0    0    0  0.00000000000E+00  0.00000000000E+00  0.45593999997E+02  0.45594000000E+02  0.51100000000E-03 0.  1.
         11   -1    0    0    0    0 -0.00000000000E+00 -0.00000000000E+00 -0.45593999997E+02  0.45594000000E+02  0.51100000000E-03 0. -1.
    9900012    2    1    2    0    0 -0.76418482009E+01  0.39153937576E+02  0.78573272570E+01  0.50528852649E+02  0.29999978113E+02 0.  0.
         12    1    1    2    0    0  0.76418482009E+01 -0.39153937576E+02 -0.78573272570E+01  0.40659147351E+02  0.00000000000E+00 0. -1.
         11    1    3    3    0    0  0.10947036797E+02  0.12108734723E+02  0.93189279567E+00  0.16350152772E+02  0.51100000000E-03 0. -1.
        -11    1    3    3    0    0 -0.45993372692E+01  0.29585240453E+01 -0.30372058553E-01  0.54687924230E+01  0.51100000000E-03 0.  1.
         12    1    3    3    0    0 -0.13989547729E+02  0.24086678809E+02  0.69558065199E+01  0.28709907454E+02  0.00000000000E+00 0. -1.
</event>
<event>
 7    1  0.3004200E-011  0.5052886E+02  0.7816164E-02  0.1300439E+00
        -11   -1    0    0    0    0  0.00000000000E+00  0.00000000000E+00  0.45593999997E+02  0.45594000000E+02  0.51100000000E-03 0.  1.
         11   -1    0    0    0    0 -0.00000000000E+00 -0.00000000000E+00 -0.45593999997E+02  0.45594000000E+02  0.51100000000E-03 0. -1.
    9900012    2    1    2    0    0  0.30983166301E+02 -0.63991673328E+01  0.25539378413E+02  0.50528858514E+02  0.29999995940E+02 0.  0.
         12    1    1    2    0    0 -0.30983166301E+02  0.63991673328E+01 -0.25539378413E+02  0.40659141486E+02  0.00000000000E+00 0. -1.
         11    1    3    3    0    0 -0.40014153609E+00 -0.81954218568E+01  0.79642870207E+00  0.82437462114E+01  0.51100000000E-03 0. -1.
        -11    1    3    3    0    0  0.29527525199E+02 -0.21193971587E+01  0.23441590373E+02  0.37760756721E+02  0.51100000000E-03 0.  1.
        -12    1    3    3    0    0  0.18557826383E+01  0.39156516827E+01  0.13013593387E+01  0.45243555817E+01  0.00000000000E+00 0.  1.
</event>
<event>
 7    1  0.3150514E-011  0.5052887E+02  0.7816164E-02  0.1300439E+00
        -11   -1    0    0    0    0  0.00000000000E+00  0.00000000000E+00  0.45593999997E+02  0.45594000000E+02  0.51100000000E-03 0.  1.
         11   -1    0    0    0    0 -0.00000000000E+00 -0.00000000000E+00 -0.45593999997E+02  0.45594000000E+02  0.51100000000E-03 0. -1.
    9900012    2    1    2    0    0 -0.15547250186E+02  0.36241171868E+02  0.99007852140E+01  0.50528867268E+02  0.30000022548E+02 0.  0.
         12    1    1    2    0    0  0.15547250186E+02 -0.36241171868E+02 -0.99007852140E+01  0.40659132732E+02  0.00000000000E+00 0. -1.
         11    1    3    3    0    0 -0.15324602332E+01 -0.20149247422E+01 -0.26382929007E+01  0.36563568991E+01  0.51100000000E-03 0. -1.
        -11    1    3    3    0    0 -0.30623218964E+01  0.29191507147E+02  0.24790246291E+01  0.29456195754E+02  0.51100000000E-03 0.  1.
        -12    1    3    3    0    0 -0.10952468056E+02  0.90645894628E+01  0.10060053486E+02  0.17416314615E+02  0.00000000000E+00 0.  1.
</event>
<event>
 7    1  0.3004200E-011  0.5052889E+02  0.7816164E-02  0.1300439E+00
        -11   -1    0    0    0    0  0.00000000000E+00  0.00000000000E+00  0.45593999997E+02  0.45594000000E+02  0.51100000000E-03 0.  1.
         11   -1    0    0    0    0 -0.00000000000E+00 -0.00000000000E+00 -0.45593999997E+02  0.45594000000E+02  0.51100000000E-03 0. -1.
    9900012    2    1    2    0    0  0.29044478296E+02  0.26882059148E+02  0.93239839260E+01  0.50528886633E+02  0.30000081409E+02 0.  0.
         12    1    1    2    0    0 -0.29044478296E+02 -0.26882059148E+02 -0.93239839260E+01  0.40659113367E+02  0.00000000000E+00 0. -1.
         11    1    3    3    0    0 -0.15385532647E+01 -0.66165096152E+00 -0.38965134073E+01  0.42411961918E+01  0.51100000000E-03 0. -1.
        -11    1    3    3    0    0  0.25429119471E+02  0.29217487254E+02  0.10077216122E+02  0.40023142849E+02  0.51100000000E-03 0.  1.
         12    1    3    3    0    0  0.51539120901E+01 -0.16737771437E+01  0.31432812114E+01  0.62645475921E+01  0.00000000000E+00 0. -1.
</event>
<event>
 7    1  0.3004200E-011  0.5052886E+02  0.7816164E-02  0.1300439E+00
        -11   -1    0    0    0    0  0.00000000000E+00  0.00000000000E+00  0.45593999997E+02  0.45594000000E+02  0.51100000000E-03 0.  1.
         11   -1    0    0    0    0 -0.00000000000E+00 -0.00000000000E+00 -0.45593999997E+02  0.45594000000E+02  0.51100000000E-03 0. -1.
    9900012    2    1    2    0    0 -0.27794020988E+02 -0.29653320516E+02 -0.11570088224E+01  0.50528859703E+02  0.29999999553E+02 0.  0.
         12    1    1    2    0    0  0.27794020988E+02  0.29653320516E+02  0.11570088224E+01  0.40659140297E+02  0.00000000000E+00 0. -1.
         11    1    3    3    0    0  0.26215167410E+01 -0.38626929858E+01  0.87996655795E+00  0.47504829786E+01  0.51100000000E-03 0. -1.
        -11    1    3    3    0    0 -0.32241469324E+02 -0.16561711943E+02 -0.52760914994E+00  0.36250255424E+02  0.51100000000E-03 0.  1.
        -12    1    3    3    0    0  0.18259315948E+01 -0.92289155866E+01 -0.15093662304E+01  0.95281213002E+01  0.00000000000E+00 0.  1.
</event>
<event>
 7    1  0.3004200E-011  0.5052886E+02  0.7816164E-02  0.1300439E+00
        -11   -1    0    0    0    0  0.00000000000E+00  0.00000000000E+00  0.45593999997E+02  0.45594000000E+02  0.51100000000E-03 0.  1.
         11   -1    0    0    0    0 -0.00000000000E+00 -0.00000000000E+00 -0.45593999997E+02  0.45594000000E+02  0.51100000000E-03 0. -1.
    9900012    2    1    2    0    0 -0.22408215821E+01  0.12339662123E+02  0.38676570497E+02  0.50528860215E+02  0.30000001110E+02 0.  0.
         12    1    1    2    0    0  0.22408215821E+01 -0.12339662123E+02 -0.38676570497E+02  0.40659139785E+02  0.00000000000E+00 0. -1.
         11    1    3    3    0    0  0.20559181427E+01 -0.82657755012E+01  0.91764766290E+01  0.12520286244E+02  0.51100000000E-03 0. -1.
        -11    1    3    3    0    0 -0.78271081433E+01  0.13082079241E+02  0.15588974990E+02  0.21804140906E+02  0.51100000000E-03 0.  1.
         12    1    3    3    0    0  0.35303684185E+01  0.75233583831E+01  0.13911118878E+02  0.16204433065E+02  0.00000000000E+00 0. -1.
</event>
<event>
 7    1  0.3004200E-011  0.5052886E+02  0.7816164E-02  0.1300439E+00
        -11   -1    0    0    0    0  0.00000000000E+00  0.00000000000E+00  0.45593999997E+02  0.45594000000E+02  0.51100000000E-03 0. -1.
         11   -1    0    0    0    0 -0.00000000000E+00 -0.00000000000E+00 -0.45593999997E+02  0.45594000000E+02  0.51100000000E-03 0.  1.
    9900012    2    1    2    0    0  0.32564151969E+02 -0.82617513610E+01 -0.22901642069E+02  0.50528859103E+02  0.29999997730E+02 0.  0.
         12    1    1    2    0    0 -0.32564151969E+02  0.82617513610E+01  0.22901642069E+02  0.40659140897E+02  0.00000000000E+00 0. -1.
         11    1    3    3    0    0  0.44901851638E+01 -0.31073970758E+01  0.32762177362E+00  0.54703761918E+01  0.51100000000E-03 0. -1.
        -11    1    3    3    0    0  0.17146444640E+02 -0.24908135523E+01 -0.27930385998E+02  0.32868087535E+02  0.51100000000E-03 0.  1.
        -12    1    3    3    0    0  0.10927522165E+02 -0.26635407328E+01  0.47011221556E+01  0.12190395376E+02  0.00000000000E+00 0.  1.
</event>
<event>
 7    1  0.3004200E-011  0.5052885E+02  0.7816164E-02  0.1300439E+00
        -11   -1    0    0    0    0  0.00000000000E+00  0.00000000000E+00  0.45593999997E+02  0.45594000000E+02  0.51100000000E-03 0. -1.
         11   -1    0    0    0    0 -0.00000000000E+00 -0.00000000000E+00 -0.45593999997E+02  0.45594000000E+02  0.51100000000E-03 0.  1.
    9900012    2    1    2    0    0  0.33838019884E+02 -0.12157886977E+02  0.18982640392E+02  0.50528850456E+02  0.29999971445E+02 0.  0.
         12    1    1    2    0    0 -0.33838019884E+02  0.12157886977E+02 -0.18982640392E+02  0.40659149544E+02  0.00000000000E+00 0. -1.
         11    1    3    3    0    0  0.76179244745E+01 -0.16610450671E+02  0.69776780618E+01  0.19560875139E+02  0.51100000000E-03 0. -1.
        -11    1    3    3    0    0  0.26106192178E+02  0.34610003488E+01  0.13161431905E+02  0.29440364866E+02  0.51100000000E-03 0.  1.
        -12    1    3    3    0    0  0.11390323157E+00  0.99156334491E+00 -0.11564695743E+01  0.15276104508E+01  0.00000000000E+00 0.  1.
</event>
<event>
 7    1  0.3004200E-011  0.5052888E+02  0.7816164E-02  0.1300439E+00
        -11   -1    0    0    0    0  0.00000000000E+00  0.00000000000E+00  0.45593999997E+02  0.45594000000E+02  0.51100000000E-03 0.  1.
         11   -1    0    0    0    0 -0.00000000000E+00 -0.00000000000E+00 -0.45593999997E+02  0.45594000000E+02  0.51100000000E-03 0. -1.
    9900012    2    1    2    0    0  0.32779229652E+02 -0.20951984242E+02  0.11819498717E+02  0.50528879373E+02  0.30000059341E+02 0.  0.
         12    1    1    2    0    0 -0.32779229652E+02  0.20951984242E+02 -0.11819498717E+02  0.40659120627E+02  0.00000000000E+00 0. -1.
         11    1    3    3    0    0  0.42715692583E+01  0.47426691792E+01 -0.45514902628E+01  0.78393417291E+01  0.51100000000E-03 0. -1.
        -11    1    3    3    0    0  0.22990963156E+02 -0.20048905948E+02  0.87920120740E+01  0.31746535136E+02  0.51100000000E-03 0.  1.
         12    1    3    3    0    0  0.55166972381E+01 -0.56457474730E+01  0.75789769060E+01  0.10943002508E+02  0.00000000000E+00 0. -1.
</event>
<event>
 7    1  0.3004200E-011  0.5052888E+02  0.7816164E-02  0.1300439E+00
        -11   -1    0    0    0    0  0.00000000000E+00  0.00000000000E+00  0.45593999997E+02  0.45594000000E+02  0.51100000000E-03 0.  1.
         11   -1    0    0    0    0 -0.00000000000E+00 -0.00000000000E+00 -0.45593999997E+02  0.45594000000E+02  0.51100000000E-03 0. -1.
    9900012    2    1    2    0    0  0.24154972263E+02 -0.13654322130E+02  0.29719706328E+02  0.50528878735E+02  0.30000057403E+02 0.  0.
         12    1    1    2    0    0 -0.24154972263E+02  0.13654322130E+02 -0.29719706328E+02  0.40659121265E+02  0.00000000000E+00 0. -1.
         11    1    3    3    0    0  0.12094436349E+01 -0.32506890282E+01 -0.33421896751E+01  0.48166342138E+01  0.51100000000E-03 0. -1.
        -11    1    3    3    0    0  0.26262955890E+02 -0.95117073653E+01  0.30898615320E+02  0.41652609258E+02  0.51100000000E-03 0.  1.
        -12    1    3    3    0    0 -0.33174272617E+01 -0.89192573656E+00  0.21632806825E+01  0.40596352628E+01  0.00000000000E+00 0.  1.
</event>
<event>
 7    1  0.3004200E-011  0.5052888E+02  0.7816164E-02  0.1300439E+00
        -11   -1    0    0    0    0  0.00000000000E+00  0.00000000000E+00  0.45593999997E+02  0.45594000000E+02  0.51100000000E-03 0. -1.
         11   -1    0    0    0    0 -0.00000000000E+00 -0.00000000000E+00 -0.45593999997E+02  0.45594000000E+02  0.51100000000E-03 0.  1.
    9900012    2    1    2    0    0 -0.11406470078E+02 -0.36211107339E+02 -0.14553774054E+02  0.50528878101E+02  0.30000055477E+02 0.  0.
         12    1    1    2    0    0  0.11406470078E+02  0.36211107339E+02  0.14553774054E+02  0.40659121899E+02  0.00000000000E+00 0. -1.
         11    1    3    3    0    0 -0.11702082148E+02 -0.81261651751E+00 -0.59069273103E+01  0.13133577681E+02  0.51100000000E-03 0. -1.
        -11    1    3    3    0    0 -0.15126460377E+00 -0.65598683088E+00  0.11169371971E+01  0.13041275498E+01  0.51100000000E-03 0.  1.
         12    1    3    3    0    0  0.44687667393E+00 -0.34742503991E+02 -0.97637839403E+01  0.36091172870E+02  0.00000000000E+00 0. -1.
</event>
<event>
 7    1  0.3004200E-011  0.5052886E+02  0.7816164E-02  0.1300439E+00
        -11   -1    0    0    0    0  0.00000000000E+00  0.00000000000E+00  0.45593999997E+02  0.45594000000E+02  0.51100000000E-03 0.  1.
         11   -1    0    0    0    0 -0.00000000000E+00 -0.00000000000E+00 -0.45593999997E+02  0.45594000000E+02  0.51100000000E-03 0. -1.
    9900012    2    1    2    0    0 -0.48190471163E+00  0.32519802931E+02  0.24400735095E+02  0.50528859724E+02  0.29999999617E+02 0.  0.
         12    1    1    2    0    0  0.48190471163E+00 -0.32519802931E+02 -0.24400735095E+02  0.40659140276E+02  0.00000000000E+00 0. -1.
         11    1    3    3    0    0  0.20462501293E+01 -0.44989012128E+01  0.10830634786E+01  0.50596717753E+01  0.51100000000E-03 0. -1.
        -11    1    3    3    0    0 -0.59190707016E+01  0.27887463462E+02  0.13171917896E+02  0.31404544856E+02  0.51100000000E-03 0.  1.
        -12    1    3    3    0    0  0.33909158607E+01  0.91312406817E+01  0.10145753720E+02  0.14064643092E+02  0.00000000000E+00 0.  1.
</event>
<event>
 7    1  0.3004200E-011  0.5052885E+02  0.7816164E-02  0.1300439E+00
        -11   -1    0    0    0    0  0.00000000000E+00  0.00000000000E+00  0.45593999997E+02  0.45594000000E+02  0.51100000000E-03 0. -1.
         11   -1    0    0    0    0 -0.00000000000E+00 -0.00000000000E+00 -0.45593999997E+02  0.45594000000E+02  0.51100000000E-03 0.  1.
    9900012    2    1    2    0    0  0.39383011509E+02 -0.95377925577E+01  0.33429097452E+01  0.50528854313E+02  0.29999983171E+02 0.  0.
         12    1    1    2    0    0 -0.39383011509E+02  0.95377925577E+01 -0.33429097452E+01  0.40659145687E+02  0.00000000000E+00 0. -1.
         11    1    3    3    0    0  0.18966176843E+02  0.23902421012E+01  0.83639159585E+01  0.20865862354E+02  0.51100000000E-03 0. -1.
        -11    1    3    3    0    0  0.20795126304E+02 -0.14702956884E+02 -0.67811264064E+01  0.26355225189E+02  0.51100000000E-03 0.  1.
        -12    1    3    3    0    0 -0.37829163837E+00  0.27749222246E+01  0.17601201931E+01  0.33077667709E+01  0.00000000000E+00 0.  1.
</event>
<event>
 7    1  0.3004200E-011  0.5052896E+02  0.7816164E-02  0.1300438E+00
        -11   -1    0    0    0    0  0.00000000000E+00  0.00000000000E+00  0.45593999997E+02  0.45594000000E+02  0.51100000000E-03 0. -1.
         11   -1    0    0    0    0 -0.00000000000E+00 -0.00000000000E+00 -0.45593999997E+02  0.45594000000E+02  0.51100000000E-03 0.  1.
    9900012    2    1    2    0    0 -0.12140465604E+02  0.36672547682E+01 -0.38630529072E+02  0.50528961164E+02  0.30000307954E+02 0.  0.
         12    1    1    2    0    0  0.12140465604E+02 -0.36672547682E+01  0.38630529072E+02  0.40659038836E+02  0.00000000000E+00 0. -1.
         11    1    3    3    0    0 -0.80766574632E+01  0.83585474547E+01 -0.66933379466E+01  0.13412624071E+02  0.51100000000E-03 0. -1.
        -11    1    3    3    0    0 -0.88860061653E+01 -0.60491571738E+01 -0.29782149646E+02  0.31662751711E+02  0.51100000000E-03 0.  1.
        -12    1    3    3    0    0  0.48221980242E+01  0.13578644874E+01 -0.21550414793E+01  0.54535853828E+01  0.00000000000E+00 0.  1.
</event>
<event>
 7    1  0.3004200E-011  0.5052887E+02  0.7816164E-02  0.1300439E+00
        -11   -1    0    0    0    0  0.00000000000E+00  0.00000000000E+00  0.45593999997E+02  0.45594000000E+02  0.51100000000E-03 0. -1.
         11   -1    0    0    0    0 -0.00000000000E+00 -0.00000000000E+00 -0.45593999997E+02  0.45594000000E+02  0.51100000000E-03 0.  1.
    9900012    2    1    2    0    0  0.14341558064E+00  0.20898151423E+02 -0.34877097439E+02  0.50528865397E+02  0.30000016860E+02 0.  0.
         12    1    1    2    0    0 -0.14341558064E+00 -0.20898151423E+02  0.34877097439E+02  0.40659134603E+02  0.00000000000E+00 0. -1.
         11    1    3    3    0    0  0.10313173898E+02  0.95928114253E+01 -0.23788718822E+02  0.27645736206E+02  0.51100000000E-03 0.  1.
        -11    1    3    3    0    0 -0.75651906764E+01  0.14198733435E+02 -0.94578546655E+01  0.18662453115E+02  0.51100000000E-03 0. -1.
        -12    1    3    3    0    0 -0.26045676413E+01 -0.28933934376E+01 -0.16305239512E+01  0.42206760760E+01  0.00000000000E+00 0.  1.
</event>
<event>
 7    1  0.3004200E-011  0.5052885E+02  0.7816164E-02  0.1300439E+00
        -11   -1    0    0    0    0  0.00000000000E+00  0.00000000000E+00  0.45593999997E+02  0.45594000000E+02  0.51100000000E-03 0.  1.
         11   -1    0    0    0    0 -0.00000000000E+00 -0.00000000000E+00 -0.45593999997E+02  0.45594000000E+02  0.51100000000E-03 0. -1.
    9900012    2    1    2    0    0 -0.40309247119E+01  0.36932647629E+02 -0.16519608192E+02  0.50528852570E+02  0.29999977872E+02 0.  0.
         12    1    1    2    0    0  0.40309247119E+01 -0.36932647629E+02  0.16519608192E+02  0.40659147430E+02  0.00000000000E+00 0. -1.
         11    1    3    3    0    0  0.34440925393E+01  0.22439404993E+01 -0.36665195966E+01  0.55082128315E+01  0.51100000000E-03 0. -1.
        -11    1    3    3    0    0 -0.13050442957E+02  0.90109868986E+01 -0.96141417137E+01  0.18545718304E+02  0.51100000000E-03 0.  1.
        -12    1    3    3    0    0  0.55754257060E+01  0.25677720231E+02 -0.32389468818E+01  0.26474921434E+02  0.00000000000E+00 0.  1.
</event>
<event>
 7    1  0.3004200E-011  0.5052885E+02  0.7816164E-02  0.1300439E+00
        -11   -1    0    0    0    0  0.00000000000E+00  0.00000000000E+00  0.45593999997E+02  0.45594000000E+02  0.51100000000E-03 0. -1.
         11   -1    0    0    0    0 -0.00000000000E+00 -0.00000000000E+00 -0.45593999997E+02  0.45594000000E+02  0.51100000000E-03 0.  1.
    9900012    2    1    2    0    0 -0.32692198511E+02 -0.16597275960E+02 -0.17576028347E+02  0.50528853609E+02  0.29999981030E+02 0.  0.
         12    1    1    2    0    0  0.32692198511E+02  0.16597275960E+02  0.17576028347E+02  0.40659146391E+02  0.00000000000E+00 0. -1.
         11    1    3    3    0    0 -0.22176488746E+02 -0.14829684559E+01 -0.19956743358E+02  0.29870846226E+02  0.51100000000E-03 0. -1.
        -11    1    3    3    0    0  0.51273438015E-01  0.28096780289E+00 -0.15498516094E+01  0.15759480143E+01  0.51100000000E-03 0.  1.
         12    1    3    3    0    0 -0.10566983203E+02 -0.15395275307E+02  0.39305666197E+01  0.19082059369E+02  0.00000000000E+00 0. -1.
</event>
<event>
 7    1  0.3004200E-011  0.5052886E+02  0.7816164E-02  0.1300439E+00
        -11   -1    0    0    0    0  0.00000000000E+00  0.00000000000E+00  0.45593999997E+02  0.45594000000E+02  0.51100000000E-03 0.  1.
         11   -1    0    0    0    0 -0.00000000000E+00 -0.00000000000E+00 -0.45593999997E+02  0.45594000000E+02  0.51100000000E-03 0. -1.
    9900012    2    1    2    0    0  0.17710817335E+02  0.32595249992E+02  0.16644584704E+02  0.50528861141E+02  0.30000003925E+02 0.  0.
         12    1    1    2    0    0 -0.17710817335E+02 -0.32595249992E+02 -0.16644584704E+02  0.40659138859E+02  0.00000000000E+00 0. -1.
         11    1    3    3    0    0  0.87553279333E+00  0.85749022073E+00 -0.26025723594E+00  0.12528292944E+01  0.51100000000E-03 0. -1.
        -11    1    3    3    0    0 -0.28600605528E+01  0.15222621684E+02 -0.41665738444E+01  0.16039591490E+02  0.51100000000E-03 0.  1.
        -12    1    3    3    0    0  0.19695345095E+02  0.16515138088E+02  0.21071415784E+02  0.33236440357E+02  0.00000000000E+00 0.  1.
</event>
<event>
 7    1  0.3004200E-011  0.5052886E+02  0.7816164E-02  0.1300439E+00
        -11   -1    0    0    0    0  0.00000000000E+00  0.00000000000E+00  0.45593999997E+02  0.45594000000E+02  0.51100000000E-03 0. -1.
         11   -1    0    0    0    0 -0.00000000000E+00 -0.00000000000E+00 -0.45593999997E+02  0.45594000000E+02  0.51100000000E-03 0.  1.
    9900012    2    1    2    0    0  0.25003054159E+02  0.99813886727E+01 -0.30469407823E+02  0.50528860189E+02  0.30000001030E+02 0.  0.
         12    1    1    2    0    0 -0.25003054159E+02 -0.99813886727E+01  0.30469407823E+02  0.40659139811E+02  0.00000000000E+00 0. -1.
         11    1    3    3    0    0  0.17307094127E+02  0.17277022483E+02 -0.16818905001E+02  0.29680070395E+02  0.51100000000E-03 0.  1.
        -11    1    3    3    0    0  0.15480260158E+01 -0.29948985388E+01  0.16904315016E+01  0.37713871090E+01  0.51100000000E-03 0. -1.
         12    1    3    3    0    0  0.61479340162E+01 -0.43007352711E+01 -0.15340934324E+02  0.17077402685E+02  0.00000000000E+00 0. -1.
</event>
<event>
 7    1  0.3004200E-011  0.5052887E+02  0.7816164E-02  0.1300439E+00
        -11   -1    0    0    0    0  0.00000000000E+00  0.00000000000E+00  0.45593999997E+02  0.45594000000E+02  0.51100000000E-03 0.  1.
         11   -1    0    0    0    0 -0.00000000000E+00 -0.00000000000E+00 -0.45593999997E+02  0.45594000000E+02  0.51100000000E-03 0. -1.
    9900012    2    1    2    0    0 -0.15720627450E+02  0.45070255191E+01  0.37225174177E+02  0.50528868197E+02  0.30000025371E+02 0.  0.
         12    1    1    2    0    0  0.15720627450E+02 -0.45070255191E+01 -0.37225174177E+02  0.40659131803E+02  0.00000000000E+00 0. -1.
         11    1    3    3    0    0 -0.11962938620E+02  0.86362059264E+00  0.26366906076E+02  0.28966730524E+02  0.51100000000E-03 0. -1.
        -11    1    3    3    0    0 -0.75389451383E+01  0.34191103621E+01 -0.16950258272E+01  0.84498001327E+01  0.51100000000E-03 0.  1.
        -12    1    3    3    0    0  0.37812563081E+01  0.22429456432E+00  0.12553293928E+02  0.13112337540E+02  0.00000000000E+00 0.  1.
</event>
<event>
 7    1  0.3004200E-011  0.5052885E+02  0.7816164E-02  0.1300439E+00
        -11   -1    0    0    0    0  0.00000000000E+00  0.00000000000E+00  0.45593999997E+02  0.45594000000E+02  0.51100000000E-03 0.  1.
         11   -1    0    0    0    0 -0.00000000000E+00 -0.00000000000E+00 -0.45593999997E+02  0.45594000000E+02  0.51100000000E-03 0. -1.
    9900012    2    1    2    0    0 -0.20497861538E+02 -0.32968395688E+02  0.12086727474E+02  0.50528850687E+02  0.29999972147E+02 0.  0.
         12    1    1    2    0    0  0.20497861538E+02  0.32968395688E+02 -0.12086727474E+02  0.40659149313E+02  0.00000000000E+00 0. -1.
         11    1    3    3    0    0 -0.38213964808E+01 -0.43847442554E+01 -0.92156542244E+01  0.10897583966E+02  0.51100000000E-03 0. -1.
        -11    1    3    3    0    0 -0.13872856597E+02 -0.20553360444E+02  0.17268809627E+02  0.30217686243E+02  0.51100000000E-03 0.  1.
         12    1    3    3    0    0 -0.28036084609E+01 -0.80302909886E+01  0.40335720715E+01  0.94135804782E+01  0.00000000000E+00 0. -1.
</event>
<event>
 7    1  0.3004200E-011  0.5052886E+02  0.7816164E-02  0.1300439E+00
        -11   -1    0    0    0    0  0.00000000000E+00  0.00000000000E+00  0.45593999997E+02  0.45594000000E+02  0.51100000000E-03 0.  1.
         11   -1    0    0    0    0 -0.00000000000E+00 -0.00000000000E+00 -0.45593999997E+02  0.45594000000E+02  0.51100000000E-03 0. -1.
    9900012    2    1    2    0    0 -0.16870854367E+02 -0.36710165959E+02  0.45720896165E+01  0.50528855699E+02  0.29999987383E+02 0.  0.
         12    1    1    2    0    0  0.16870854367E+02  0.36710165959E+02 -0.45720896165E+01  0.40659144301E+02  0.00000000000E+00 0. -1.
         11    1    3    3    0    0 -0.25103796600E+01 -0.13686778093E+02  0.15206822181E+02  0.20612553013E+02  0.51100000000E-03 0.  1.
        -11    1    3    3    0    0 -0.11598257156E+01 -0.72998956238E+01 -0.35345623289E+01  0.81930948320E+01  0.51100000000E-03 0. -1.
         12    1    3    3    0    0 -0.13200648991E+02 -0.15723492243E+02 -0.71001702360E+01  0.21723207854E+02  0.00000000000E+00 0. -1.
</event>
<event>
 7    1  0.3004200E-011  0.5052885E+02  0.7816164E-02  0.1300439E+00
        -11   -1    0    0    0    0  0.00000000000E+00  0.00000000000E+00  0.45593999997E+02  0.45594000000E+02  0.51100000000E-03 0. -1.
         11   -1    0    0    0    0 -0.00000000000E+00 -0.00000000000E+00 -0.45593999997E+02  0.45594000000E+02  0.51100000000E-03 0.  1.
    9900012    2    1    2    0    0  0.73209433617E+01  0.31681375805E+02 -0.24410257607E+02  0.50528850218E+02  0.29999970722E+02 0.  0.
         12    1    1    2    0    0 -0.73209433617E+01 -0.31681375805E+02  0.24410257607E+02  0.40659149782E+02  0.00000000000E+00 0. -1.
         11    1    3    3    0    0 -0.18923942787E+01 -0.11261378138E+01  0.16512904412E+01  0.27524721368E+01  0.51100000000E-03 0. -1.
        -11    1    3    3    0    0  0.13380684269E+01  0.31967942386E+02 -0.19325717808E+02  0.37379448050E+02  0.51100000000E-03 0.  1.
        -12    1    3    3    0    0  0.78752692135E+01  0.83957123248E+00 -0.67358302400E+01  0.10396930031E+02  0.00000000000E+00 0.  1.
</event>
<event>
 7    1  0.3004200E-011  0.5052888E+02  0.7816164E-02  0.1300439E+00
        -11   -1    0    0    0    0  0.00000000000E+00  0.00000000000E+00  0.45593999997E+02  0.45594000000E+02  0.51100000000E-03 0.  1.
         11   -1    0    0    0    0 -0.00000000000E+00 -0.00000000000E+00 -0.45593999997E+02  0.45594000000E+02  0.51100000000E-03 0. -1.
    9900012    2    1    2    0    0 -0.34288827353E+02 -0.12070533398E+02  0.18213805790E+02  0.50528878279E+02  0.30000056017E+02 0.  0.
         12    1    1    2    0    0  0.34288827353E+02  0.12070533398E+02 -0.18213805790E+02  0.40659121721E+02  0.00000000000E+00 0. -1.
         11    1    3    3    0    0 -0.10395155739E+02  0.41883592123E+01  0.16839496232E+02  0.20227957122E+02  0.51100000000E-03 0. -1.
        -11    1    3    3    0    0 -0.10361851318E+02 -0.11805302427E+02 -0.14613711304E+01  0.15775573967E+02  0.51100000000E-03 0.  1.
         12    1    3    3    0    0 -0.13531820295E+02 -0.44535901836E+01  0.28356806890E+01  0.14525347190E+02  0.00000000000E+00 0. -1.
</event>
<event>
 7    1  0.3004200E-011  0.5052882E+02  0.7816164E-02  0.1300439E+00
        -11   -1    0    0    0    0  0.00000000000E+00  0.00000000000E+00  0.45593999997E+02  0.45594000000E+02  0.51100000000E-03 0. -1.
         11   -1    0    0    0    0 -0.00000000000E+00 -0.00000000000E+00 -0.45593999997E+02  0.45594000000E+02  0.51100000000E-03 0.  1.
    9900012    2    1    2    0    0 -0.37481997223E+02 -0.66948527468E+01 -0.14263512031E+02  0.50528819676E+02  0.29999877887E+02 0.  0.
         12    1    1    2    0    0  0.37481997223E+02  0.66948527468E+01  0.14263512031E+02  0.40659180324E+02  0.00000000000E+00 0. -1.
         11    1    3    3    0    0 -0.30356060008E+02 -0.12803962914E+01 -0.19866922013E+00  0.30383700624E+02  0.51100000000E-03 0. -1.
        -11    1    3    3    0    0 -0.27943320647E+01 -0.39446401672E+00 -0.13152891764E+02  0.13452228647E+02  0.51100000000E-03 0.  1.
        -12    1    3    3    0    0 -0.43316051504E+01 -0.50199924386E+01 -0.91195104655E+00  0.66928904051E+01  0.00000000000E+00 0.  1.
</event>
<event>
 7    1  0.3004200E-011  0.5052886E+02  0.7816164E-02  0.1300439E+00
        -11   -1    0    0    0    0  0.00000000000E+00  0.00000000000E+00  0.45593999997E+02  0.45594000000E+02  0.51100000000E-03 0. -1.
         11   -1    0    0    0    0 -0.00000000000E+00 -0.00000000000E+00 -0.45593999997E+02  0.45594000000E+02  0.51100000000E-03 0.  1.
    9900012    2    1    2    0    0  0.16608170661E+02 -0.30913659925E+02  0.20534838680E+02  0.50528864467E+02  0.30000014035E+02 0.  0.
         12    1    1    2    0    0 -0.16608170661E+02  0.30913659925E+02 -0.20534838680E+02  0.40659135533E+02  0.00000000000E+00 0. -1.
         11    1    3    3    0    0  0.46097485509E+01 -0.26865317445E+02  0.15847518956E+02  0.31529968608E+02  0.51100000000E-03 0. -1.
        -11    1    3    3    0    0  0.14301883611E+02 -0.76612855400E+00  0.29208034121E+01  0.14617178956E+02  0.51100000000E-03 0.  1.
        -12    1    3    3    0    0 -0.23034615010E+01 -0.32822139260E+01  0.17665163118E+01  0.43817169035E+01  0.00000000000E+00 0.  1.
</event>
<event>
 7    1  0.3004200E-011  0.5052886E+02  0.7816164E-02  0.1300439E+00
        -11   -1    0    0    0    0  0.00000000000E+00  0.00000000000E+00  0.45593999997E+02  0.45594000000E+02  0.51100000000E-03 0. -1.
         11   -1    0    0    0    0 -0.00000000000E+00 -0.00000000000E+00 -0.45593999997E+02  0.45594000000E+02  0.51100000000E-03 0.  1.
    9900012    2    1    2    0    0 -0.25071766198E+02 -0.13688879640E+02 -0.28934181079E+02  0.50528859320E+02  0.29999998389E+02 0.  0.
         12    1    1    2    0    0  0.25071766198E+02  0.13688879640E+02  0.28934181079E+02  0.40659140680E+02  0.00000000000E+00 0. -1.
         11    1    3    3    0    0 -0.13508562746E+02  0.76919353547E+00 -0.37982676712E+01  0.14053460916E+02  0.51100000000E-03 0. -1.
        -11    1    3    3    0    0 -0.39274766022E+01 -0.16042033747E+02 -0.96283160533E+01  0.19117436792E+02  0.51100000000E-03 0.  1.
        -12    1    3    3    0    0 -0.76357268499E+01  0.15839605711E+01 -0.15507597355E+02  0.17357961612E+02  0.00000000000E+00 0.  1.
</event>
<event>
 7    1  0.3004200E-011  0.5052886E+02  0.7816164E-02  0.1300439E+00
        -11   -1    0    0    0    0  0.00000000000E+00  0.00000000000E+00  0.45593999997E+02  0.45594000000E+02  0.51100000000E-03 0.  1.
         11   -1    0    0    0    0 -0.00000000000E+00 -0.00000000000E+00 -0.45593999997E+02  0.45594000000E+02  0.51100000000E-03 0. -1.
    9900012    2    1    2    0    0 -0.36727435125E+02 -0.52797905978E+01  0.16624832985E+02  0.50528858944E+02  0.29999997246E+02 0.  0.
         12    1    1    2    0    0  0.36727435125E+02  0.52797905978E+01 -0.16624832985E+02  0.40659141056E+02  0.00000000000E+00 0. -1.
         11    1    3    3    0    0  0.41578574789E+01 -0.17974605932E+01  0.38458383223E+01  0.59421474285E+01  0.51100000000E-03 0. -1.
        -11    1    3    3    0    0 -0.15768611773E+02 -0.68074288627E+01  0.30329962599E+01  0.17441022663E+02  0.51100000000E-03 0.  1.
         12    1    3    3    0    0 -0.25116680831E+02  0.33250988581E+01  0.97459984029E+01  0.27145688852E+02  0.00000000000E+00 0. -1.
</event>
<event>
 7    1  0.3004200E-011  0.5052887E+02  0.7816164E-02  0.1300439E+00
        -11   -1    0    0    0    0  0.00000000000E+00  0.00000000000E+00  0.45593999997E+02  0.45594000000E+02  0.51100000000E-03 0.  1.
         11   -1    0    0    0    0 -0.00000000000E+00 -0.00000000000E+00 -0.45593999997E+02  0.45594000000E+02  0.51100000000E-03 0. -1.
    9900012    2    1    2    0    0  0.25573593351E+02  0.81459371413E+01  0.30541773624E+02  0.50528869354E+02  0.30000028889E+02 0.  0.
         12    1    1    2    0    0 -0.25573593351E+02 -0.81459371413E+01 -0.30541773624E+02  0.40659130646E+02  0.00000000000E+00 0. -1.
         11    1    3    3    0    0  0.93538033569E+01  0.36045123543E+00  0.24185018487E+01  0.96681287634E+01  0.51100000000E-03 0. -1.
        -11    1    3    3    0    0  0.12781780435E+02  0.16006709646E+02  0.21931386170E+02  0.30009571213E+02  0.51100000000E-03 0.  1.
        -12    1    3    3    0    0  0.34380095593E+01 -0.82212237404E+01  0.61918856051E+01  0.10851169378E+02  0.00000000000E+00 0.  1.
</event>
<event>
 7    1  0.3004200E-011  0.5052887E+02  0.7816164E-02  0.1300439E+00
        -11   -1    0    0    0    0  0.00000000000E+00  0.00000000000E+00  0.45593999997E+02  0.45594000000E+02  0.51100000000E-03 0.  1.
         11   -1    0    0    0    0 -0.00000000000E+00 -0.00000000000E+00 -0.45593999997E+02  0.45594000000E+02  0.51100000000E-03 0. -1.
    9900012    2    1    2    0    0 -0.31075366406E+02 -0.44482263431E+01  0.25839881494E+02  0.50528873220E+02  0.30000040641E+02 0.  0.
         12    1    1    2    0    0  0.31075366406E+02  0.44482263431E+01 -0.25839881494E+02  0.40659126780E+02  0.00000000000E+00 0. -1.
         11    1    3    3    0    0 -0.27975897743E+01  0.42952990514E+01 -0.24769299171E+01  0.56930909498E+01  0.51100000000E-03 0. -1.
        -11    1    3    3    0    0 -0.14767108089E+02 -0.12878390850E+02  0.21689926589E+02  0.29229665546E+02  0.51100000000E-03 0.  1.
        -12    1    3    3    0    0 -0.13510668542E+02  0.41348654556E+01  0.66268848222E+01  0.15606116725E+02  0.00000000000E+00 0.  1.
</event>
<event>
 7    1  0.3004200E-011  0.5052885E+02  0.7816164E-02  0.1300439E+00
        -11   -1    0    0    0    0  0.00000000000E+00  0.00000000000E+00  0.45593999997E+02  0.45594000000E+02  0.51100000000E-03 0.  1.
         11   -1    0    0    0    0 -0.00000000000E+00 -0.00000000000E+00 -0.45593999997E+02  0.45594000000E+02  0.51100000000E-03 0. -1.
    9900012    2    1    2    0    0 -0.10511027562E+02 -0.11077551189E+02  0.37682526616E+02  0.50528847858E+02  0.29999963549E+02 0.  0.
         12    1    1    2    0    0  0.10511027562E+02  0.11077551189E+02 -0.37682526616E+02  0.40659152142E+02  0.00000000000E+00 0. -1.
         11    1    3    3    0    0  0.77405033509E+01  0.81407608733E+00  0.11004436600E+02  0.13478714224E+02  0.51100000000E-03 0. -1.
        -11    1    3    3    0    0 -0.10728724318E+02 -0.11013168719E+02  0.24909452557E+02  0.29272448440E+02  0.51100000000E-03 0.  1.
        -12    1    3    3    0    0 -0.75228065953E+01 -0.87845855721E+00  0.17686374587E+01  0.77776851934E+01  0.00000000000E+00 0.  1.
</event>
<event>
 7    1  0.3004200E-011  0.5052887E+02  0.7816164E-02  0.1300439E+00
        -11   -1    0    0    0    0  0.00000000000E+00  0.00000000000E+00  0.45593999997E+02  0.45594000000E+02  0.51100000000E-03 0. -1.
         11   -1    0    0    0    0 -0.00000000000E+00 -0.00000000000E+00 -0.45593999997E+02  0.45594000000E+02  0.51100000000E-03 0.  1.
    9900012    2    1    2    0    0  0.18055183984E+02  0.13518827460E+02 -0.33829226768E+02  0.50528868820E+02  0.30000027266E+02 0.  0.
         12    1    1    2    0    0 -0.18055183984E+02 -0.13518827460E+02  0.33829226768E+02  0.40659131180E+02  0.00000000000E+00 0. -1.
         11    1    3    3    0    0  0.13368422150E+02  0.13651945198E+02 -0.34809728766E+01  0.19421830267E+02  0.51100000000E-03 0. -1.
        -11    1    3    3    0    0  0.19399176379E+01 -0.24978386613E+01 -0.15863073606E+02  0.16175276903E+02  0.51100000000E-03 0.  1.
         12    1    3    3    0    0  0.27468441963E+01  0.23647209231E+01 -0.14485180285E+02  0.14931761650E+02  0.00000000000E+00 0. -1.
</event>
<event>
 7    1  0.3004200E-011  0.5052887E+02  0.7816164E-02  0.1300439E+00
        -11   -1    0    0    0    0  0.00000000000E+00  0.00000000000E+00  0.45593999997E+02  0.45594000000E+02  0.51100000000E-03 0.  1.
         11   -1    0    0    0    0 -0.00000000000E+00 -0.00000000000E+00 -0.45593999997E+02  0.45594000000E+02  0.51100000000E-03 0. -1.
    9900012    2    1    2    0    0  0.27605613708E+01  0.39051334143E+02 -0.10978961478E+02  0.50528868276E+02  0.30000025611E+02 0.  0.
         12    1    1    2    0    0 -0.27605613708E+01 -0.39051334143E+02  0.10978961478E+02  0.40659131724E+02  0.00000000000E+00 0. -1.
         11    1    3    3    0    0 -0.57795751756E+01  0.20978537862E+02 -0.24063512930E-01  0.21760126823E+02  0.51100000000E-03 0. -1.
        -11    1    3    3    0    0  0.78797550636E+01  0.19644045437E+02 -0.13931286770E+02  0.25338899193E+02  0.51100000000E-03 0.  1.
         12    1    3    3    0    0  0.66038148286E+00 -0.15712491551E+01  0.29763888052E+01  0.34298422602E+01  0.00000000000E+00 0. -1.
</event>
<event>
 7    1  0.3004200E-011  0.5052886E+02  0.7816164E-02  0.1300439E+00
        -11   -1    0    0    0    0  0.00000000000E+00  0.00000000000E+00  0.45593999997E+02  0.45594000000E+02  0.51100000000E-03 0.  1.
         11   -1    0    0    0    0 -0.00000000000E+00 -0.00000000000E+00 -0.45593999997E+02  0.45594000000E+02  0.51100000000E-03 0. -1.
    9900012    2    1    2    0    0 -0.33062856077E+02  0.18710311742E+02  0.14489228492E+02  0.50528856382E+02  0.29999989458E+02 0.  0.
         12    1    1    2    0    0  0.33062856077E+02 -0.18710311742E+02 -0.14489228492E+02  0.40659143618E+02  0.00000000000E+00 0. -1.
         11    1    3    3    0    0 -0.14541709033E+02 -0.23140516102E+01  0.52886481410E+01  0.15645636320E+02  0.51100000000E-03 0. -1.
        -11    1    3    3    0    0 -0.22323554045E+02  0.17064719430E+02  0.84532861467E+01  0.29342865595E+02  0.51100000000E-03 0.  1.
        -12    1    3    3    0    0  0.38024069999E+01  0.39596439224E+01  0.74729420401E+00  0.55403544664E+01  0.00000000000E+00 0.  1.
</event>
<event>
 7    1  0.3004200E-011  0.5052884E+02  0.7816164E-02  0.1300439E+00
        -11   -1    0    0    0    0  0.00000000000E+00  0.00000000000E+00  0.45593999997E+02  0.45594000000E+02  0.51100000000E-03 0. -1.
         11   -1    0    0    0    0 -0.00000000000E+00 -0.00000000000E+00 -0.45593999997E+02  0.45594000000E+02  0.51100000000E-03 0.  1.
    9900012    2    1    2    0    0 -0.15677797110E+02 -0.29709767676E+02 -0.22906412626E+02  0.50528839200E+02  0.29999937233E+02 0.  0.
         12    1    1    2    0    0  0.15677797110E+02  0.29709767676E+02  0.22906412626E+02  0.40659160800E+02  0.00000000000E+00 0. -1.
         11    1    3    3    0    0 -0.23709416205E+01 -0.29232553919E+01  0.55071691963E+01  0.66705096561E+01  0.51100000000E-03 0. -1.
        -11    1    3    3    0    0 -0.39060929417E+01 -0.11013374949E+02 -0.21047555358E+02  0.24073877474E+02  0.51100000000E-03 0.  1.
        -12    1    3    3    0    0 -0.94007625475E+01 -0.15773137335E+02 -0.73660264644E+01  0.19784452070E+02  0.00000000000E+00 0.  1.
</event>
<event>
 7    1  0.3004200E-011  0.5052886E+02  0.7816164E-02  0.1300439E+00
        -11   -1    0    0    0    0  0.00000000000E+00  0.00000000000E+00  0.45593999997E+02  0.45594000000E+02  0.51100000000E-03 0.  1.
         11   -1    0    0    0    0 -0.00000000000E+00 -0.00000000000E+00 -0.45593999997E+02  0.45594000000E+02  0.51100000000E-03 0. -1.
    9900012    2    1    2    0    0  0.20273832480E+02 -0.26023992026E+02 -0.23767399350E+02  0.50528859376E+02  0.29999998559E+02 0.  0.
         12    1    1    2    0    0 -0.20273832480E+02  0.26023992026E+02  0.23767399350E+02  0.40659140624E+02  0.00000000000E+00 0. -1.
         11    1    3    3    0    0  0.14174203936E+02 -0.24269946046E+02 -0.25282664106E+02  0.37804119390E+02  0.51100000000E-03 0. -1.
        -11    1    3    3    0    0  0.23584773866E+01 -0.15634727644E+01  0.61474482015E+01  0.67674206548E+01  0.51100000000E-03 0.  1.
        -12    1    3    3    0    0  0.37411511583E+01 -0.19057321529E+00 -0.46321834461E+01  0.59573193315E+01  0.00000000000E+00 0.  1.
</event>
<event>
 7    1  0.3004200E-011  0.5052886E+02  0.7816164E-02  0.1300439E+00
        -11   -1    0    0    0    0  0.00000000000E+00  0.00000000000E+00  0.45593999997E+02  0.45594000000E+02  0.51100000000E-03 0. -1.
         11   -1    0    0    0    0 -0.00000000000E+00 -0.00000000000E+00 -0.45593999997E+02  0.45594000000E+02  0.51100000000E-03 0.  1.
    9900012    2    1    2    0    0  0.13668004428E+02 -0.67190049370E+00 -0.38287074655E+02  0.50528857351E+02  0.29999992404E+02 0.  0.
         12    1    1    2    0    0 -0.13668004428E+02  0.67190049370E+00  0.38287074655E+02  0.40659142649E+02  0.00000000000E+00 0. -1.
         11    1    3    3    0    0  0.10247313058E+02 -0.68943952948E+01 -0.14247733266E+01  0.12432622035E+02  0.51100000000E-03 0. -1.
        -11    1    3    3    0    0  0.41617489468E+01  0.13291156765E+01 -0.22060558913E+02  0.22488996478E+02  0.51100000000E-03 0.  1.
         12    1    3    3    0    0 -0.74105757661E+00  0.48933791246E+01 -0.14801742416E+02  0.15607238838E+02  0.00000000000E+00 0. -1.
</event>
<event>
 7    1  0.3004200E-011  0.5052886E+02  0.7816164E-02  0.1300439E+00
        -11   -1    0    0    0    0  0.00000000000E+00  0.00000000000E+00  0.45593999997E+02  0.45594000000E+02  0.51100000000E-03 0. -1.
         11   -1    0    0    0    0 -0.00000000000E+00 -0.00000000000E+00 -0.45593999997E+02  0.45594000000E+02  0.51100000000E-03 0.  1.
    9900012    2    1    2    0    0 -0.19578439820E+02  0.24303312485E+02 -0.26061458131E+02  0.50528857074E+02  0.29999991563E+02 0.  0.
         12    1    1    2    0    0  0.19578439820E+02 -0.24303312485E+02  0.26061458131E+02  0.40659142926E+02  0.00000000000E+00 0. -1.
         11    1    3    3    0    0 -0.61715102877E+01 -0.19107779812E+01  0.19838792719E+01  0.67582829884E+01  0.51100000000E-03 0. -1.
        -11    1    3    3    0    0 -0.13416608773E+02  0.26595089975E+02 -0.29705009124E+02  0.42067704585E+02  0.51100000000E-03 0.  1.
        -12    1    3    3    0    0  0.96792400103E-02 -0.38099950907E+00  0.16596717215E+01  0.17028695008E+01  0.00000000000E+00 0.  1.
</event>
<event>
 7    1  0.3004200E-011  0.5052887E+02  0.7816164E-02  0.1300439E+00
        -11   -1    0    0    0    0  0.00000000000E+00  0.00000000000E+00  0.45593999997E+02  0.45594000000E+02  0.51100000000E-03 0.  1.
         11   -1    0    0    0    0 -0.00000000000E+00 -0.00000000000E+00 -0.45593999997E+02  0.45594000000E+02  0.51100000000E-03 0. -1.
    9900012    2    1    2    0    0  0.28910232195E+02 -0.28000332432E+02 -0.57745009209E+01  0.50528868150E+02  0.30000025230E+02 0.  0.
         12    1    1    2    0    0 -0.28910232195E+02  0.28000332432E+02  0.57745009209E+01  0.40659131850E+02  0.00000000000E+00 0. -1.
         11    1    3    3    0    0  0.86381576275E+01 -0.37611201038E+01 -0.83242702651E+01  0.12572082856E+02  0.51100000000E-03 0. -1.
        -11    1    3    3    0    0  0.19648597403E+02 -0.20340572908E+02  0.96088081361E+01  0.29868637066E+02  0.51100000000E-03 0.  1.
        -12    1    3    3    0    0  0.62347716526E+00 -0.38986394200E+01 -0.70590387919E+01  0.80881482286E+01  0.00000000000E+00 0.  1.
</event>
<event>
 7    1  0.3004200E-011  0.5052885E+02  0.7816164E-02  0.1300439E+00
        -11   -1    0    0    0    0  0.00000000000E+00  0.00000000000E+00  0.45593999997E+02  0.45594000000E+02  0.51100000000E-03 0.  1.
         11   -1    0    0    0    0 -0.00000000000E+00 -0.00000000000E+00 -0.45593999997E+02  0.45594000000E+02  0.51100000000E-03 0. -1.
    9900012    2    1    2    0    0 -0.38887817692E+02 -0.10728581946E+02  0.50795705357E+01  0.50528845161E+02  0.29999955352E+02 0.  0.
         12    1    1    2    0    0  0.38887817692E+02  0.10728581946E+02 -0.50795705357E+01  0.40659154839E+02  0.00000000000E+00 0. -1.
         11    1    3    3    0    0 -0.24265454932E+01 -0.48531108869E+00 -0.85628785990E+01  0.89132788605E+01  0.51100000000E-03 0. -1.
        -11    1    3    3    0    0 -0.34933237745E+02 -0.79497565400E+01  0.10288172460E+02  0.37274337301E+02  0.51100000000E-03 0.  1.
         12    1    3    3    0    0 -0.15280344531E+01 -0.22935143171E+01  0.33542766748E+01  0.43412289992E+01  0.00000000000E+00 0. -1.
</event>
<event>
 7    1  0.3004200E-011  0.5052886E+02  0.7816164E-02  0.1300439E+00
        -11   -1    0    0    0    0  0.00000000000E+00  0.00000000000E+00  0.45593999997E+02  0.45594000000E+02  0.51100000000E-03 0.  1.
         11   -1    0    0    0    0 -0.00000000000E+00 -0.00000000000E+00 -0.45593999997E+02  0.45594000000E+02  0.51100000000E-03 0. -1.
    9900012    2    1    2    0    0 -0.85009332996E+01 -0.38949516292E+02  0.79896791573E+01  0.50528860075E+02  0.30000000685E+02 0.  0.
         12    1    1    2    0    0  0.85009332996E+01  0.38949516292E+02 -0.79896791573E+01  0.40659139925E+02  0.00000000000E+00 0. -1.
         11    1    3    3    0    0 -0.40089614296E+01  0.18073031680E+01  0.67746146544E+00  0.44493899339E+01  0.51100000000E-03 0. -1.
        -11    1    3    3    0    0  0.45867440488E+01 -0.28196388314E+02  0.10163978358E+02  0.30321296002E+02  0.51100000000E-03 0.  1.
        -12    1    3    3    0    0 -0.90787159187E+01 -0.12560431146E+02 -0.28517606662E+01  0.15758174139E+02  0.00000000000E+00 0.  1.
</event>
<event>
 7    1  0.3004200E-011  0.5052885E+02  0.7816164E-02  0.1300439E+00
        -11   -1    0    0    0    0  0.00000000000E+00  0.00000000000E+00  0.45593999997E+02  0.45594000000E+02  0.51100000000E-03 0. -1.
         11   -1    0    0    0    0 -0.00000000000E+00 -0.00000000000E+00 -0.45593999997E+02  0.45594000000E+02  0.51100000000E-03 0.  1.
    9900012    2    1    2    0    0  0.29528224412E+02  0.12479100053E+02 -0.25010442167E+02  0.50528853521E+02  0.29999980762E+02 0.  0.
         12    1    1    2    0    0 -0.29528224412E+02 -0.12479100053E+02  0.25010442167E+02  0.40659146479E+02  0.00000000000E+00 0. -1.
         11    1    3    3    0    0  0.25915894834E+02 -0.26852371201E+01 -0.15845318029E+02  0.30494560287E+02  0.51100000000E-03 0. -1.
        -11    1    3    3    0    0  0.44252157598E+01  0.13945840372E+02 -0.47504601791E+01  0.15382973392E+02  0.51100000000E-03 0.  1.
         12    1    3    3    0    0 -0.81288618183E+00  0.12184968007E+01 -0.44146639588E+01  0.46513198414E+01  0.00000000000E+00 0. -1.
</event>
<event>
 7    1  0.3004200E-011  0.5052886E+02  0.7816164E-02  0.1300439E+00
        -11   -1    0    0    0    0  0.00000000000E+00  0.00000000000E+00  0.45593999997E+02  0.45594000000E+02  0.51100000000E-03 0.  1.
         11   -1    0    0    0    0 -0.00000000000E+00 -0.00000000000E+00 -0.45593999997E+02  0.45594000000E+02  0.51100000000E-03 0. -1.
    9900012    2    1    2    0    0  0.74346610676E+01  0.25874417631E+02  0.30469750479E+02  0.50528863669E+02  0.30000011608E+02 0.  0.
         12    1    1    2    0    0 -0.74346610676E+01 -0.25874417631E+02 -0.30469750479E+02  0.40659136331E+02  0.00000000000E+00 0. -1.
         11    1    3    3    0    0  0.11599888121E+02  0.24246857920E+01  0.19564318481E+02  0.22873545057E+02  0.51100000000E-03 0. -1.
        -11    1    3    3    0    0 -0.86712148594E+00  0.20020871373E+02  0.11071852329E+02  0.22894827025E+02  0.51100000000E-03 0.  1.
        -12    1    3    3    0    0 -0.32981055670E+01  0.34288604656E+01 -0.16642033109E+00  0.47604915870E+01  0.00000000000E+00 0.  1.
</event>
<event>
 7    1  0.3004200E-011  0.5052899E+02  0.7816164E-02  0.1300438E+00
        -11   -1    0    0    0    0  0.00000000000E+00  0.00000000000E+00  0.45593999997E+02  0.45594000000E+02  0.51100000000E-03 0.  1.
         11   -1    0    0    0    0 -0.00000000000E+00 -0.00000000000E+00 -0.45593999997E+02  0.45594000000E+02  0.51100000000E-03 0. -1.
    9900012    2    1    2    0    0 -0.18792613893E+02 -0.11611124402E+02  0.34134654312E+02  0.50528989045E+02  0.30000392698E+02 0.  0.
         12    1    1    2    0    0  0.18792613893E+02  0.11611124402E+02 -0.34134654312E+02  0.40659010955E+02  0.00000000000E+00 0. -1.
         11    1    3    3    0    0  0.46609495650E+01 -0.30042627720E+01  0.32544020894E+01  0.64297106367E+01  0.51100000000E-03 0. -1.
        -11    1    3    3    0    0 -0.14329246067E+02  0.32240836181E+01  0.22778882050E+02  0.27103495636E+02  0.51100000000E-03 0.  1.
        -12    1    3    3    0    0 -0.91243173919E+01 -0.11830945249E+02  0.81013701734E+01  0.16995782772E+02  0.00000000000E+00 0.  1.
</event>
<event>
 7    1  0.3004200E-011  0.5052885E+02  0.7816164E-02  0.1300439E+00
        -11   -1    0    0    0    0  0.00000000000E+00  0.00000000000E+00  0.45593999997E+02  0.45594000000E+02  0.51100000000E-03 0.  1.
         11   -1    0    0    0    0 -0.00000000000E+00 -0.00000000000E+00 -0.45593999997E+02  0.45594000000E+02  0.51100000000E-03 0. -1.
    9900012    2    1    2    0    0 -0.32198183680E+01  0.64531741198E+00  0.40526322467E+02  0.50528850014E+02  0.29999970103E+02 0.  0.
         12    1    1    2    0    0  0.32198183680E+01 -0.64531741198E+00 -0.40526322467E+02  0.40659149986E+02  0.00000000000E+00 0. -1.
         11    1    3    3    0    0  0.49751493264E+01 -0.28621659660E+01 -0.13863138973E+01  0.59047414270E+01  0.51100000000E-03 0. -1.
        -11    1    3    3    0    0 -0.68647364041E+01  0.79532225948E+01  0.25816142156E+02  0.27872056824E+02  0.51100000000E-03 0.  1.
        -12    1    3    3    0    0 -0.13302312904E+01 -0.44457392168E+01  0.16096494209E+02  0.16752051763E+02  0.00000000000E+00 0.  1.
</event>
<event>
 7    1  0.3004200E-011  0.5052885E+02  0.7816164E-02  0.1300439E+00
        -11   -1    0    0    0    0  0.00000000000E+00  0.00000000000E+00  0.45593999997E+02  0.45594000000E+02  0.51100000000E-03 0. -1.
         11   -1    0    0    0    0 -0.00000000000E+00 -0.00000000000E+00 -0.45593999997E+02  0.45594000000E+02  0.51100000000E-03 0.  1.
    9900012    2    1    2    0    0  0.89865964143E+01 -0.29491318991E+02 -0.26507909427E+02  0.50528854988E+02  0.29999985221E+02 0.  0.
         12    1    1    2    0    0 -0.89865964143E+01  0.29491318991E+02  0.26507909427E+02  0.40659145012E+02  0.00000000000E+00 0. -1.
         11    1    3    3    0    0  0.10830075046E+02 -0.13224361564E+02  0.91240666074E+00  0.17117439950E+02  0.51100000000E-03 0. -1.
        -11    1    3    3    0    0 -0.40377641431E+01 -0.47181639710E+01 -0.15369049984E+02  0.16576257365E+02  0.51100000000E-03 0.  1.
         12    1    3    3    0    0  0.21942855117E+01 -0.11548793456E+02 -0.12051266103E+02  0.16835157673E+02  0.00000000000E+00 0. -1.
</event>
<event>
 7    1  0.3004200E-011  0.5052886E+02  0.7816164E-02  0.1300439E+00
        -11   -1    0    0    0    0  0.00000000000E+00  0.00000000000E+00  0.45593999997E+02  0.45594000000E+02  0.51100000000E-03 0.  1.
         11   -1    0    0    0    0 -0.00000000000E+00 -0.00000000000E+00 -0.45593999997E+02  0.45594000000E+02  0.51100000000E-03 0. -1.
    9900012    2    1    2    0    0 -0.35646453008E+02 -0.17686819731E+02  0.83470085859E+01  0.50528858880E+02  0.29999997052E+02 0.  0.
         12    1    1    2    0    0  0.35646453008E+02  0.17686819731E+02 -0.83470085859E+01  0.40659141120E+02  0.00000000000E+00 0. -1.
         11    1    3    3    0    0  0.31417414843E+01  0.18345807855E+01 -0.27513425734E+00  0.36485511280E+01  0.51100000000E-03 0. -1.
        -11    1    3    3    0    0 -0.34118626618E+02 -0.17016221592E+02  0.17022992402E+01  0.38164516275E+02  0.51100000000E-03 0.  1.
         12    1    3    3    0    0 -0.46695678746E+01 -0.25051789246E+01  0.69198436030E+01  0.87157914770E+01  0.00000000000E+00 0. -1.
</event>
<event>
 7    1  0.3004200E-011  0.5052887E+02  0.7816164E-02  0.1300439E+00
        -11   -1    0    0    0    0  0.00000000000E+00  0.00000000000E+00  0.45593999997E+02  0.45594000000E+02  0.51100000000E-03 0.  1.
         11   -1    0    0    0    0 -0.00000000000E+00 -0.00000000000E+00 -0.45593999997E+02  0.45594000000E+02  0.51100000000E-03 0. -1.
    9900012    2    1    2    0    0  0.10558247370E+02 -0.37310202917E+02 -0.12232634328E+02  0.50528866071E+02  0.30000018909E+02 0.  0.
         12    1    1    2    0    0 -0.10558247370E+02  0.37310202917E+02  0.12232634328E+02  0.40659133929E+02  0.00000000000E+00 0. -1.
         11    1    3    3    0    0 -0.85194152174E+01 -0.96174590274E+01 -0.74639403536E+01  0.14858881507E+02  0.51100000000E-03 0. -1.
        -11    1    3    3    0    0  0.18882437094E+02 -0.20045864709E+02 -0.51282099896E+01  0.28012169864E+02  0.51100000000E-03 0.  1.
        -12    1    3    3    0    0  0.19522549338E+00 -0.76468791811E+01  0.35951601506E+00  0.76578146992E+01  0.00000000000E+00 0.  1.
</event>
<event>
 7    1  0.3004200E-011  0.5052886E+02  0.7816164E-02  0.1300439E+00
        -11   -1    0    0    0    0  0.00000000000E+00  0.00000000000E+00  0.45593999997E+02  0.45594000000E+02  0.51100000000E-03 0. -1.
         11   -1    0    0    0    0 -0.00000000000E+00 -0.00000000000E+00 -0.45593999997E+02  0.45594000000E+02  0.51100000000E-03 0.  1.
    9900012    2    1    2    0    0  0.55983087650E+01  0.35429163262E+02 -0.19146775850E+02  0.50528859626E+02  0.29999999320E+02 0.  0.
         12    1    1    2    0    0 -0.55983087650E+01 -0.35429163262E+02  0.19146775850E+02  0.40659140374E+02  0.00000000000E+00 0. -1.
         11    1    3    3    0    0  0.36999497180E+01  0.95629832472E+00  0.11918214754E+01  0.40030704580E+01  0.51100000000E-03 0. -1.
        -11    1    3    3    0    0  0.29235480532E+01  0.18332643240E+02 -0.23600948765E+02  0.30027282999E+02  0.51100000000E-03 0.  1.
        -12    1    3    3    0    0 -0.10251890062E+01  0.16140221697E+02  0.32623514395E+01  0.16498506170E+02  0.00000000000E+00 0.  1.
</event>
<event>
 7    1  0.3004200E-011  0.5052886E+02  0.7816164E-02  0.1300439E+00
        -11   -1    0    0    0    0  0.00000000000E+00  0.00000000000E+00  0.45593999997E+02  0.45594000000E+02  0.51100000000E-03 0.  1.
         11   -1    0    0    0    0 -0.00000000000E+00 -0.00000000000E+00 -0.45593999997E+02  0.45594000000E+02  0.51100000000E-03 0. -1.
    9900012    2    1    2    0    0 -0.79565520980E+00  0.20029733711E+02  0.35374319263E+02  0.50528858800E+02  0.29999996809E+02 0.  0.
         12    1    1    2    0    0  0.79565520980E+00 -0.20029733711E+02 -0.35374319263E+02  0.40659141200E+02  0.00000000000E+00 0. -1.
         11    1    3    3    0    0  0.47922768615E+01  0.15812599525E+02  0.31918850339E+02  0.35941859001E+02  0.51100000000E-03 0.  1.
        -11    1    3    3    0    0 -0.49189127839E+01 -0.36081014120E+01  0.27809331810E+01  0.67043037217E+01  0.51100000000E-03 0. -1.
        -12    1    3    3    0    0 -0.66901928739E+00  0.78252355986E+01  0.67453574373E+00  0.78826960774E+01  0.00000000000E+00 0.  1.
</event>
<event>
 7    1  0.3004200E-011  0.5052886E+02  0.7816164E-02  0.1300439E+00
        -11   -1    0    0    0    0  0.00000000000E+00  0.00000000000E+00  0.45593999997E+02  0.45594000000E+02  0.51100000000E-03 0. -1.
         11   -1    0    0    0    0 -0.00000000000E+00 -0.00000000000E+00 -0.45593999997E+02  0.45594000000E+02  0.51100000000E-03 0.  1.
    9900012    2    1    2    0    0  0.26829105314E+02 -0.28562641447E+02 -0.10841598930E+02  0.50528860243E+02  0.30000001196E+02 0.  0.
         12    1    1    2    0    0 -0.26829105314E+02  0.28562641447E+02  0.10841598930E+02  0.40659139757E+02  0.00000000000E+00 0. -1.
         11    1    3    3    0    0  0.92795316166E+01  0.49002083912E+01 -0.61564001312E+01  0.12166470817E+02  0.51100000000E-03 0. -1.
        -11    1    3    3    0    0  0.14976803376E+02 -0.24790115290E+02 -0.26042218016E+01  0.29079828523E+02  0.51100000000E-03 0.  1.
         12    1    3    3    0    0  0.25727703213E+01 -0.86727345486E+01 -0.20809769968E+01  0.92825609041E+01  0.00000000000E+00 0. -1.
</event>
<event>
 7    1  0.3004200E-011  0.5052886E+02  0.7816164E-02  0.1300439E+00
        -11   -1    0    0    0    0  0.00000000000E+00  0.00000000000E+00  0.45593999997E+02  0.45594000000E+02  0.51100000000E-03 0.  1.
         11   -1    0    0    0    0 -0.00000000000E+00 -0.00000000000E+00 -0.45593999997E+02  0.45594000000E+02  0.51100000000E-03 0. -1.
    9900012    2    1    2    0    0  0.12221154095E+01 -0.66189826980E+01  0.40098146060E+02  0.50528858156E+02  0.29999994852E+02 0.  0.
         12    1    1    2    0    0 -0.12221154095E+01  0.66189826980E+01 -0.40098146060E+02  0.40659141844E+02  0.00000000000E+00 0. -1.
         11    1    3    3    0    0  0.69121360212E+01  0.46236830499E+01  0.15123347770E+02  0.17258960495E+02  0.51100000000E-03 0. -1.
        -11    1    3    3    0    0 -0.67991774661E+00 -0.12029673135E+02  0.56815893034E+01  0.13321252987E+02  0.51100000000E-03 0.  1.
        -12    1    3    3    0    0 -0.50101028651E+01  0.78700738713E+00  0.19293208986E+02  0.19948644674E+02  0.00000000000E+00 0.  1.
</event>
<event>
 7    1  0.3004200E-011  0.5052886E+02  0.7816164E-02  0.1300439E+00
        -11   -1    0    0    0    0  0.00000000000E+00  0.00000000000E+00  0.45593999997E+02  0.45594000000E+02  0.51100000000E-03 0.  1.
         11   -1    0    0    0    0 -0.00000000000E+00 -0.00000000000E+00 -0.45593999997E+02  0.45594000000E+02  0.51100000000E-03 0. -1.
    9900012    2    1    2    0    0 -0.92461407794E+00  0.31405828401E+02  0.25806677568E+02  0.50528861103E+02  0.30000003809E+02 0.  0.
         12    1    1    2    0    0  0.92461407794E+00 -0.31405828401E+02 -0.25806677568E+02  0.40659138897E+02  0.00000000000E+00 0. -1.
         11    1    3    3    0    0  0.58713751459E+00  0.75468047674E+01  0.20996391214E+02  0.22319216763E+02  0.51100000000E-03 0. -1.
        -11    1    3    3    0    0 -0.23940311643E+01  0.24421888498E+02  0.13295030303E+01  0.24574938486E+02  0.51100000000E-03 0.  1.
        -12    1    3    3    0    0  0.88227957180E+00 -0.56286486448E+00  0.34807833236E+01  0.36347058539E+01  0.00000000000E+00 0.  1.
</event>
<event>
 7    1  0.3004200E-011  0.5052886E+02  0.7816164E-02  0.1300439E+00
        -11   -1    0    0    0    0  0.00000000000E+00  0.00000000000E+00  0.45593999997E+02  0.45594000000E+02  0.51100000000E-03 0.  1.
         11   -1    0    0    0    0 -0.00000000000E+00 -0.00000000000E+00 -0.45593999997E+02  0.45594000000E+02  0.51100000000E-03 0. -1.
    9900012    2    1    2    0    0  0.38839113482E+01 -0.87882548581E+01  0.39507558205E+02  0.50528863928E+02  0.30000012396E+02 0.  0.
         12    1    1    2    0    0 -0.38839113482E+01  0.87882548581E+01 -0.39507558205E+02  0.40659136072E+02  0.00000000000E+00 0. -1.
         11    1    3    3    0    0 -0.55278826870E+01 -0.24508903710E+01  0.15779970943E+02  0.16898870785E+02  0.51100000000E-03 0. -1.
        -11    1    3    3    0    0  0.14144138043E+02 -0.10212077026E+02  0.19662468681E+02  0.26286038748E+02  0.51100000000E-03 0.  1.
        -12    1    3    3    0    0 -0.47323440079E+01  0.38747125393E+01  0.40651185809E+01  0.73439543945E+01  0.00000000000E+00 0.  1.
</event>
<event>
 7    1  0.3004200E-011  0.5052885E+02  0.7816164E-02  0.1300439E+00
        -11   -1    0    0    0    0  0.00000000000E+00  0.00000000000E+00  0.45593999997E+02  0.45594000000E+02  0.51100000000E-03 0.  1.
         11   -1    0    0    0    0 -0.00000000000E+00 -0.00000000000E+00 -0.45593999997E+02  0.45594000000E+02  0.51100000000E-03 0. -1.
    9900012    2    1    2    0    0 -0.30843426292E+02  0.11986379481E+02  0.23625746425E+02  0.50528854256E+02  0.29999982997E+02 0.  0.
         12    1    1    2    0    0  0.30843426292E+02 -0.11986379481E+02 -0.23625746425E+02  0.40659145744E+02  0.00000000000E+00 0. -1.
         11    1    3    3    0    0  0.21495236311E+01  0.13546161431E+01 -0.25852669986E+01  0.36247817109E+01  0.51100000000E-03 0. -1.
        -11    1    3    3    0    0 -0.31754747174E+02  0.38933400658E+01  0.20629098708E+02  0.38066806784E+02  0.51100000000E-03 0.  1.
        -12    1    3    3    0    0 -0.12382027492E+01  0.67384232725E+01  0.55819147149E+01  0.88372657611E+01  0.00000000000E+00 0.  1.
</event>
<event>
 7    1  0.3004200E-011  0.5052886E+02  0.7816164E-02  0.1300439E+00
        -11   -1    0    0    0    0  0.00000000000E+00  0.00000000000E+00  0.45593999997E+02  0.45594000000E+02  0.51100000000E-03 0.  1.
         11   -1    0    0    0    0 -0.00000000000E+00 -0.00000000000E+00 -0.45593999997E+02  0.45594000000E+02  0.51100000000E-03 0. -1.
    9900012    2    1    2    0    0 -0.21025673085E+02 -0.29221807209E+02 -0.18899003630E+02  0.50528864699E+02  0.30000014740E+02 0.  0.
         12    1    1    2    0    0  0.21025673085E+02  0.29221807209E+02  0.18899003630E+02  0.40659135301E+02  0.00000000000E+00 0. -1.
         11    1    3    3    0    0 -0.43273966548E+01  0.11946676169E+01  0.11329246034E+01  0.46300227798E+01  0.51100000000E-03 0. -1.
        -11    1    3    3    0    0 -0.15464047105E+02 -0.33531794073E+02 -0.20909473813E+02  0.42434939166E+02  0.51100000000E-03 0.  1.
        -12    1    3    3    0    0 -0.12342293253E+01  0.31153192476E+01  0.87754557988E+00  0.34639027536E+01  0.00000000000E+00 0.  1.
</event>
<event>
 7    1  0.3004200E-011  0.5052886E+02  0.7816164E-02  0.1300439E+00
        -11   -1    0    0    0    0  0.00000000000E+00  0.00000000000E+00  0.45593999997E+02  0.45594000000E+02  0.51100000000E-03 0. -1.
         11   -1    0    0    0    0 -0.00000000000E+00 -0.00000000000E+00 -0.45593999997E+02  0.45594000000E+02  0.51100000000E-03 0.  1.
    9900012    2    1    2    0    0 -0.85618522719E+00  0.14414254899E+02 -0.38008703951E+02  0.50528863591E+02  0.30000011372E+02 0.  0.
         12    1    1    2    0    0  0.85618522719E+00 -0.14414254899E+02  0.38008703951E+02  0.40659136409E+02  0.00000000000E+00 0. -1.
         11    1    3    3    0    0 -0.12402516317E+02  0.94350361137E+01 -0.14003054889E+02  0.20950605336E+02  0.51100000000E-03 0. -1.
        -11    1    3    3    0    0  0.67015258064E+01  0.51694390270E+01 -0.47165788249E+01  0.96891518752E+01  0.51100000000E-03 0.  1.
         12    1    3    3    0    0  0.48448052833E+01 -0.19022024180E+00 -0.19289070238E+02  0.19889106380E+02  0.00000000000E+00 0. -1.
</event>
<event>
 7    1  0.3004200E-011  0.5052886E+02  0.7816164E-02  0.1300439E+00
        -11   -1    0    0    0    0  0.00000000000E+00  0.00000000000E+00  0.45593999997E+02  0.45594000000E+02  0.51100000000E-03 0.  1.
         11   -1    0    0    0    0 -0.00000000000E+00 -0.00000000000E+00 -0.45593999997E+02  0.45594000000E+02  0.51100000000E-03 0. -1.
    9900012    2    1    2    0    0 -0.30862487842E+02  0.15470621395E+02  0.21478645531E+02  0.50528862085E+02  0.30000006793E+02 0.  0.
         12    1    1    2    0    0  0.30862487842E+02 -0.15470621395E+02 -0.21478645531E+02  0.40659137915E+02  0.00000000000E+00 0. -1.
         11    1    3    3    0    0 -0.22545523961E+02  0.22278395024E-03  0.14434264781E+02  0.26770294185E+02  0.51100000000E-03 0. -1.
        -11    1    3    3    0    0 -0.94830001240E+01  0.12926001715E+02  0.10610877516E+02  0.19224971616E+02  0.51100000000E-03 0.  1.
         12    1    3    3    0    0  0.11660362430E+01  0.25443968957E+01 -0.35664967664E+01  0.45335962841E+01  0.00000000000E+00 0. -1.
</event>
<event>
 7    1  0.3004200E-011  0.5052886E+02  0.7816164E-02  0.1300439E+00
        -11   -1    0    0    0    0  0.00000000000E+00  0.00000000000E+00  0.45593999997E+02  0.45594000000E+02  0.51100000000E-03 0.  1.
         11   -1    0    0    0    0 -0.00000000000E+00 -0.00000000000E+00 -0.45593999997E+02  0.45594000000E+02  0.51100000000E-03 0. -1.
    9900012    2    1    2    0    0 -0.86541326805E+01 -0.30534898923E+02  0.25414395336E+02  0.50528861360E+02  0.30000004589E+02 0.  0.
         12    1    1    2    0    0  0.86541326805E+01  0.30534898923E+02 -0.25414395336E+02  0.40659138640E+02  0.00000000000E+00 0. -1.
         11    1    3    3    0    0  0.15069941157E-01  0.32696422858E+01  0.89553100633E+01  0.95335390266E+01  0.51100000000E-03 0. -1.
        -11    1    3    3    0    0 -0.76261018578E+01 -0.21434402749E+02  0.17257810737E+02  0.28555613851E+02  0.51100000000E-03 0.  1.
         12    1    3    3    0    0 -0.10431007638E+01 -0.12370138461E+02 -0.79872546482E+00  0.12439708481E+02  0.00000000000E+00 0. -1.
</event>
<event>
 7    1  0.3004200E-011  0.5052887E+02  0.7816164E-02  0.1300439E+00
        -11   -1    0    0    0    0  0.00000000000E+00  0.00000000000E+00  0.45593999997E+02  0.45594000000E+02  0.51100000000E-03 0.  1.
         11   -1    0    0    0    0 -0.00000000000E+00 -0.00000000000E+00 -0.45593999997E+02  0.45594000000E+02  0.51100000000E-03 0. -1.
    9900012    2    1    2    0    0  0.35785001052E+02 -0.46940410244E+01 -0.18723375004E+02  0.50528867041E+02  0.30000021859E+02 0.  0.
         12    1    1    2    0    0 -0.35785001052E+02  0.46940410244E+01  0.18723375004E+02  0.40659132959E+02  0.00000000000E+00 0. -1.
         11    1    3    3    0    0  0.14622179647E+02  0.10043892668E+02 -0.20013311128E+01  0.17851981516E+02  0.51100000000E-03 0.  1.
        -11    1    3    3    0    0  0.19385333809E+02 -0.15164867760E+02 -0.17960580902E+02  0.30468784808E+02  0.51100000000E-03 0. -1.
        -12    1    3    3    0    0  0.17774875951E+01  0.42693406830E+00  0.12385370112E+01  0.22081007173E+01  0.00000000000E+00 0.  1.
</event>
<event>
 7    1  0.3004200E-011  0.5052887E+02  0.7816164E-02  0.1300439E+00
        -11   -1    0    0    0    0  0.00000000000E+00  0.00000000000E+00  0.45593999997E+02  0.45594000000E+02  0.51100000000E-03 0. -1.
         11   -1    0    0    0    0 -0.00000000000E+00 -0.00000000000E+00 -0.45593999997E+02  0.45594000000E+02  0.51100000000E-03 0.  1.
    9900012    2    1    2    0    0  0.39053292874E+02  0.62488320308E+01 -0.94317005155E+01  0.50528873587E+02  0.30000041756E+02 0.  0.
         12    1    1    2    0    0 -0.39053292874E+02 -0.62488320308E+01  0.94317005155E+01  0.40659126413E+02  0.00000000000E+00 0. -1.
         11    1    3    3    0    0 -0.38250755530E+00 -0.37855839965E+01  0.41784740629E+00  0.38277349622E+01  0.51100000000E-03 0. -1.
        -11    1    3    3    0    0  0.33659896088E+02  0.43817164707E+01 -0.15007718420E+02  0.37113604734E+02  0.51100000000E-03 0.  1.
        -12    1    3    3    0    0  0.57759043410E+01  0.56526995567E+01  0.51581704982E+01  0.95875338916E+01  0.00000000000E+00 0.  1.
</event>
<event>
 7    1  0.3004200E-011  0.5052884E+02  0.7816164E-02  0.1300439E+00
        -11   -1    0    0    0    0  0.00000000000E+00  0.00000000000E+00  0.45593999997E+02  0.45594000000E+02  0.51100000000E-03 0.  1.
         11   -1    0    0    0    0 -0.00000000000E+00 -0.00000000000E+00 -0.45593999997E+02  0.45594000000E+02  0.51100000000E-03 0. -1.
    9900012    2    1    2    0    0  0.30132051956E+02 -0.24205290225E+02  0.12622629655E+02  0.50528838556E+02  0.29999935273E+02 0.  0.
         12    1    1    2    0    0 -0.30132051956E+02  0.24205290225E+02 -0.12622629655E+02  0.40659161444E+02  0.00000000000E+00 0. -1.
         11    1    3    3    0    0 -0.19124669897E+01  0.86304076915E+00  0.14548862964E+00  0.21032205206E+01  0.51100000000E-03 0. -1.
        -11    1    3    3    0    0  0.34249887171E+02 -0.26558982558E+02  0.93847013075E+01  0.44345314799E+02  0.51100000000E-03 0.  1.
        -12    1    3    3    0    0 -0.22053682247E+01  0.14906515639E+01  0.30924397174E+01  0.40803032360E+01  0.00000000000E+00 0.  1.
</event>
<event>
 7    1  0.3004200E-011  0.5052889E+02  0.7816164E-02  0.1300439E+00
        -11   -1    0    0    0    0  0.00000000000E+00  0.00000000000E+00  0.45593999997E+02  0.45594000000E+02  0.51100000000E-03 0. -1.
         11   -1    0    0    0    0 -0.00000000000E+00 -0.00000000000E+00 -0.45593999997E+02  0.45594000000E+02  0.51100000000E-03 0.  1.
    9900012    2    1    2    0    0  0.86121123199E+01  0.30417960636E+02  0.25568387917E+02  0.50528889477E+02  0.30000090054E+02 0.  0.
         12    1    1    2    0    0 -0.86121123199E+01 -0.30417960636E+02 -0.25568387917E+02  0.40659110523E+02  0.00000000000E+00 0. -1.
         11    1    3    3    0    0  0.16891030828E+01 -0.50612176076E+00 -0.53096679608E+01  0.55948013884E+01  0.51100000000E-03 0. -1.
        -11    1    3    3    0    0  0.63250201473E+01  0.13254586562E+02  0.11122877289E+02  0.18423038410E+02  0.51100000000E-03 0.  1.
         12    1    3    3    0    0  0.59798908974E+00  0.17669495835E+02  0.19755178588E+02  0.26511049679E+02  0.00000000000E+00 0. -1.
</event>
<event>
 7    1  0.3004200E-011  0.5052886E+02  0.7816164E-02  0.1300439E+00
        -11   -1    0    0    0    0  0.00000000000E+00  0.00000000000E+00  0.45593999997E+02  0.45594000000E+02  0.51100000000E-03 0.  1.
         11   -1    0    0    0    0 -0.00000000000E+00 -0.00000000000E+00 -0.45593999997E+02  0.45594000000E+02  0.51100000000E-03 0. -1.
    9900012    2    1    2    0    0 -0.39229226329E+02  0.19111672447E+01 -0.10515737701E+02  0.50528862060E+02  0.30000006719E+02 0.  0.
         12    1    1    2    0    0  0.39229226329E+02 -0.19111672447E+01  0.10515737701E+02  0.40659137940E+02  0.00000000000E+00 0. -1.
         11    1    3    3    0    0 -0.11867633628E+02  0.13988670699E+02 -0.70271904689E+01  0.19644465939E+02  0.51100000000E-03 0. -1.
        -11    1    3    3    0    0 -0.17280680430E+02 -0.67620475578E+01  0.11223989493E+01  0.18590507873E+02  0.51100000000E-03 0.  1.
         12    1    3    3    0    0 -0.10080912270E+02 -0.53154558967E+01 -0.46109461815E+01  0.12293888249E+02  0.00000000000E+00 0. -1.
</event>
<event>
 7    1  0.3004200E-011  0.5052885E+02  0.7816164E-02  0.1300439E+00
        -11   -1    0    0    0    0  0.00000000000E+00  0.00000000000E+00  0.45593999997E+02  0.45594000000E+02  0.51100000000E-03 0. -1.
         11   -1    0    0    0    0 -0.00000000000E+00 -0.00000000000E+00 -0.45593999997E+02  0.45594000000E+02  0.51100000000E-03 0.  1.
    9900012    2    1    2    0    0 -0.23135172055E+02 -0.18959232114E+01 -0.33381669762E+02  0.50528848669E+02  0.29999966015E+02 0.  0.
         12    1    1    2    0    0  0.23135172055E+02  0.18959232114E+01  0.33381669762E+02  0.40659151331E+02  0.00000000000E+00 0. -1.
         11    1    3    3    0    0 -0.85468764867E+01 -0.89369431841E+01 -0.61053692209E+01  0.13791069021E+02  0.51100000000E-03 0. -1.
        -11    1    3    3    0    0 -0.10410638426E+02  0.95690510608E+01 -0.68057164754E+01  0.15692861678E+02  0.51100000000E-03 0.  1.
        -12    1    3    3    0    0 -0.41776571425E+01 -0.25280310881E+01 -0.20470584066E+02  0.21044917970E+02  0.00000000000E+00 0.  1.
</event>
<event>
 7    1  0.3004200E-011  0.5052883E+02  0.7816164E-02  0.1300439E+00
        -11   -1    0    0    0    0  0.00000000000E+00  0.00000000000E+00  0.45593999997E+02  0.45594000000E+02  0.51100000000E-03 0. -1.
         11   -1    0    0    0    0 -0.00000000000E+00 -0.00000000000E+00 -0.45593999997E+02  0.45594000000E+02  0.51100000000E-03 0.  1.
    9900012    2    1    2    0    0  0.25716180313E+02 -0.29351016723E+02  0.11417706772E+02  0.50528829565E+02  0.29999907945E+02 0.  0.
         12    1    1    2    0    0 -0.25716180313E+02  0.29351016723E+02 -0.11417706772E+02  0.40659170435E+02  0.00000000000E+00 0. -1.
         11    1    3    3    0    0  0.12488118719E+02 -0.21584866472E+02  0.68890937282E+01  0.25871203730E+02  0.51100000000E-03 0.  1.
        -11    1    3    3    0    0  0.44754668938E+01  0.56790906812E+01  0.46813380802E+01  0.86137565188E+01  0.51100000000E-03 0. -1.
         12    1    3    3    0    0  0.87525947002E+01 -0.13445240932E+02 -0.15272503675E+00  0.16043869316E+02  0.00000000000E+00 0. -1.
</event>
<event>
 7    1  0.3004200E-011  0.5052883E+02  0.7816164E-02  0.1300439E+00
        -11   -1    0    0    0    0  0.00000000000E+00  0.00000000000E+00  0.45593999997E+02  0.45594000000E+02  0.51100000000E-03 0.  1.
         11   -1    0    0    0    0 -0.00000000000E+00 -0.00000000000E+00 -0.45593999997E+02  0.45594000000E+02  0.51100000000E-03 0. -1.
    9900012    2    1    2    0    0  0.99825717585E+01  0.17469807101E+02  0.35331598029E+02  0.50528834756E+02  0.29999923723E+02 0.  0.
         12    1    1    2    0    0 -0.99825717585E+01 -0.17469807101E+02 -0.35331598029E+02  0.40659165244E+02  0.00000000000E+00 0. -1.
         11    1    3    3    0    0  0.51911244425E+00  0.20202713497E+01 -0.46646418542E+01  0.51097806161E+01  0.51100000000E-03 0. -1.
        -11    1    3    3    0    0  0.31815690741E+00  0.48045292594E+01  0.22400211179E+02  0.22911878717E+02  0.51100000000E-03 0.  1.
         12    1    3    3    0    0  0.91453024069E+01  0.10645006492E+02  0.17596028705E+02  0.22507175423E+02  0.00000000000E+00 0. -1.
</event>
<event>
 7    1  0.3004200E-011  0.5052886E+02  0.7816164E-02  0.1300439E+00
        -11   -1    0    0    0    0  0.00000000000E+00  0.00000000000E+00  0.45593999997E+02  0.45594000000E+02  0.51100000000E-03 0.  1.
         11   -1    0    0    0    0 -0.00000000000E+00 -0.00000000000E+00 -0.45593999997E+02  0.45594000000E+02  0.51100000000E-03 0. -1.
    9900012    2    1    2    0    0  0.21703205631E+02  0.14004558609E+00  0.34381927888E+02  0.50528859420E+02  0.29999998692E+02 0.  0.
         12    1    1    2    0    0 -0.21703205631E+02 -0.14004558609E+00 -0.34381927888E+02  0.40659140580E+02  0.00000000000E+00 0. -1.
         11    1    3    3    0    0  0.19175763613E+02 -0.47902127168E+01  0.19486856202E+02  0.27755965357E+02  0.51100000000E-03 0. -1.
        -11    1    3    3    0    0 -0.22379936264E+01  0.29755890386E+01  0.16855396935E+02  0.17261725049E+02  0.51100000000E-03 0.  1.
         12    1    3    3    0    0  0.47654356442E+01  0.19546692643E+01 -0.19603252482E+01  0.55111690131E+01  0.00000000000E+00 0. -1.
</event>
<event>
 7    1  0.3004200E-011  0.5052883E+02  0.7816164E-02  0.1300439E+00
        -11   -1    0    0    0    0  0.00000000000E+00  0.00000000000E+00  0.45593999997E+02  0.45594000000E+02  0.51100000000E-03 0.  1.
         11   -1    0    0    0    0 -0.00000000000E+00 -0.00000000000E+00 -0.45593999997E+02  0.45594000000E+02  0.51100000000E-03 0. -1.
    9900012    2    1    2    0    0 -0.13856584266E+02 -0.16553556546E+02  0.34454937893E+02  0.50528832436E+02  0.29999916671E+02 0.  0.
         12    1    1    2    0    0  0.13856584266E+02  0.16553556546E+02 -0.34454937893E+02  0.40659167564E+02  0.00000000000E+00 0. -1.
         11    1    3    3    0    0 -0.95038442686E+01 -0.10020192077E+02  0.68372406457E+00  0.13827320203E+02  0.51100000000E-03 0. -1.
        -11    1    3    3    0    0 -0.23096809187E+01 -0.10011037844E+02  0.22641515278E+02  0.24863501744E+02  0.51100000000E-03 0.  1.
         12    1    3    3    0    0 -0.20430590783E+01  0.34776733743E+01  0.11129698551E+02  0.11838010488E+02  0.00000000000E+00 0. -1.
</event>
<event>
 7    1  0.3004200E-011  0.5052886E+02  0.7816164E-02  0.1300439E+00
        -11   -1    0    0    0    0  0.00000000000E+00  0.00000000000E+00  0.45593999997E+02  0.45594000000E+02  0.51100000000E-03 0.  1.
         11   -1    0    0    0    0 -0.00000000000E+00 -0.00000000000E+00 -0.45593999997E+02  0.45594000000E+02  0.51100000000E-03 0. -1.
    9900012    2    1    2    0    0  0.30168898180E+02 -0.75100536667E+01  0.26203104546E+02  0.50528855748E+02  0.29999987531E+02 0.  0.
         12    1    1    2    0    0 -0.30168898180E+02  0.75100536667E+01 -0.26203104546E+02  0.40659144252E+02  0.00000000000E+00 0. -1.
         11    1    3    3    0    0  0.37567189405E+01 -0.14358886464E+01 -0.60440505308E+01  0.72598388744E+01  0.51100000000E-03 0. -1.
        -11    1    3    3    0    0  0.25414907996E+02 -0.40028566634E+01  0.31837882159E+02  0.40933985276E+02  0.51100000000E-03 0.  1.
         12    1    3    3    0    0  0.99727124374E+00 -0.20713083569E+01  0.40927291746E+00  0.23350315980E+01  0.00000000000E+00 0. -1.
</event>
<event>
 7    1  0.3004200E-011  0.5052887E+02  0.7816164E-02  0.1300439E+00
        -11   -1    0    0    0    0  0.00000000000E+00  0.00000000000E+00  0.45593999997E+02  0.45594000000E+02  0.51100000000E-03 0.  1.
         11   -1    0    0    0    0 -0.00000000000E+00 -0.00000000000E+00 -0.45593999997E+02  0.45594000000E+02  0.51100000000E-03 0. -1.
    9900012    2    1    2    0    0  0.23416725354E+02 -0.20610682454E+02  0.26077228921E+02  0.50528866638E+02  0.30000020634E+02 0.  0.
         12    1    1    2    0    0 -0.23416725354E+02  0.20610682454E+02 -0.26077228921E+02  0.40659133362E+02  0.00000000000E+00 0. -1.
         11    1    3    3    0    0 -0.57702133844E+01 -0.51310857557E+00  0.33855140896E+01  0.67097204729E+01  0.51100000000E-03 0. -1.
        -11    1    3    3    0    0  0.28337168685E+02 -0.14546183741E+02  0.18806157666E+02  0.36989973735E+02  0.51100000000E-03 0.  1.
        -12    1    3    3    0    0  0.84977005378E+00 -0.55513901375E+01  0.38855571652E+01  0.68291724306E+01  0.00000000000E+00 0.  1.
</event>
<event>
 7    1  0.3004200E-011  0.5052886E+02  0.7816164E-02  0.1300439E+00
        -11   -1    0    0    0    0  0.00000000000E+00  0.00000000000E+00  0.45593999997E+02  0.45594000000E+02  0.51100000000E-03 0. -1.
         11   -1    0    0    0    0 -0.00000000000E+00 -0.00000000000E+00 -0.45593999997E+02  0.45594000000E+02  0.51100000000E-03 0.  1.
    9900012    2    1    2    0    0  0.23960981514E+02  0.31932444579E+02 -0.77042842267E+01  0.50528860224E+02  0.30000001136E+02 0.  0.
         12    1    1    2    0    0 -0.23960981514E+02 -0.31932444579E+02  0.77042842267E+01  0.40659139776E+02  0.00000000000E+00 0. -1.
         11    1    3    3    0    0  0.33931531326E+01  0.50412439046E+01  0.82524733560E+01  0.10248460618E+02  0.51100000000E-03 0. -1.
        -11    1    3    3    0    0  0.15041544160E+02  0.90094546994E+01 -0.37338496756E+01  0.17926515511E+02  0.51100000000E-03 0.  1.
         12    1    3    3    0    0  0.55262842211E+01  0.17881745975E+02 -0.12222907907E+02  0.22353884095E+02  0.00000000000E+00 0. -1.
</event>
<event>
 7    1  0.3004200E-011  0.5052886E+02  0.7816164E-02  0.1300439E+00
        -11   -1    0    0    0    0  0.00000000000E+00  0.00000000000E+00  0.45593999997E+02  0.45594000000E+02  0.51100000000E-03 0.  1.
         11   -1    0    0    0    0 -0.00000000000E+00 -0.00000000000E+00 -0.45593999997E+02  0.45594000000E+02  0.51100000000E-03 0. -1.
    9900012    2    1    2    0    0  0.26194505964E+02 -0.12458633626E+02  0.28492029706E+02  0.50528862634E+02  0.30000008464E+02 0.  0.
         12    1    1    2    0    0 -0.26194505964E+02  0.12458633626E+02 -0.28492029706E+02  0.40659137366E+02  0.00000000000E+00 0. -1.
         11    1    3    3    0    0 -0.26579492593E+01  0.21249528428E+01  0.74466631241E+01  0.81873628718E+01  0.51100000000E-03 0. -1.
        -11    1    3    3    0    0  0.23653109671E+02 -0.56425862637E+01  0.78018362073E+01  0.25537756857E+02  0.51100000000E-03 0.  1.
        -12    1    3    3    0    0  0.51993455530E+01 -0.89410002052E+01  0.13243530374E+02  0.16803742905E+02  0.00000000000E+00 0.  1.
</event>
<event>
 7    1  0.3004200E-011  0.5052887E+02  0.7816164E-02  0.1300439E+00
        -11   -1    0    0    0    0  0.00000000000E+00  0.00000000000E+00  0.45593999997E+02  0.45594000000E+02  0.51100000000E-03 0. -1.
         11   -1    0    0    0    0 -0.00000000000E+00 -0.00000000000E+00 -0.45593999997E+02  0.45594000000E+02  0.51100000000E-03 0.  1.
    9900012    2    1    2    0    0  0.79512731670E+01  0.36529136994E+02 -0.15986379956E+02  0.50528868939E+02  0.30000027627E+02 0.  0.
         12    1    1    2    0    0 -0.79512731670E+01 -0.36529136994E+02  0.15986379956E+02  0.40659131061E+02  0.00000000000E+00 0. -1.
         11    1    3    3    0    0  0.47939881657E+01  0.23623406034E+01  0.60433265799E+01  0.80675133760E+01  0.51100000000E-03 0. -1.
        -11    1    3    3    0    0 -0.34067196397E+00  0.71203067322E+01 -0.10860655194E+02  0.12991099140E+02  0.51100000000E-03 0.  1.
         12    1    3    3    0    0  0.34979569653E+01  0.27046489659E+02 -0.11169051342E+02  0.29470256424E+02  0.00000000000E+00 0. -1.
</event>
<event>
 7    1  0.3004200E-011  0.5052885E+02  0.7816164E-02  0.1300439E+00
        -11   -1    0    0    0    0  0.00000000000E+00  0.00000000000E+00  0.45593999997E+02  0.45594000000E+02  0.51100000000E-03 0.  1.
         11   -1    0    0    0    0 -0.00000000000E+00 -0.00000000000E+00 -0.45593999997E+02  0.45594000000E+02  0.51100000000E-03 0. -1.
    9900012    2    1    2    0    0  0.19748125997E+02  0.86997176167E+01  0.34460018851E+02  0.50528850153E+02  0.29999970526E+02 0.  0.
         12    1    1    2    0    0 -0.19748125997E+02 -0.86997176167E+01 -0.34460018851E+02  0.40659149847E+02  0.00000000000E+00 0. -1.
         11    1    3    3    0    0  0.77213754927E+01  0.55473487134E+01 -0.37756205608E+01  0.10229761880E+02  0.51100000000E-03 0. -1.
        -11    1    3    3    0    0  0.82170775508E+01  0.10393678573E+01  0.27259777634E+02  0.28490281254E+02  0.51100000000E-03 0.  1.
         12    1    3    3    0    0  0.38096729540E+01  0.21130010460E+01  0.10975861778E+02  0.11808807019E+02  0.00000000000E+00 0. -1.
</event>
<event>
 7    1  0.3004200E-011  0.5052886E+02  0.7816164E-02  0.1300439E+00
        -11   -1    0    0    0    0  0.00000000000E+00  0.00000000000E+00  0.45593999997E+02  0.45594000000E+02  0.51100000000E-03 0.  1.
         11   -1    0    0    0    0 -0.00000000000E+00 -0.00000000000E+00 -0.45593999997E+02  0.45594000000E+02  0.51100000000E-03 0. -1.
    9900012    2    1    2    0    0 -0.34488437039E+01  0.60136293669E+01  0.40063789287E+02  0.50528862367E+02  0.30000007650E+02 0.  0.
         12    1    1    2    0    0  0.34488437039E+01 -0.60136293669E+01 -0.40063789287E+02  0.40659137633E+02  0.00000000000E+00 0. -1.
         11    1    3    3    0    0  0.64928676654E+01 -0.17882733121E+00  0.78212432854E+01  0.10166668900E+02  0.51100000000E-03 0. -1.
        -11    1    3    3    0    0 -0.11549135928E+02  0.33670655064E+01  0.51677355581E+01  0.13092943209E+02  0.51100000000E-03 0.  1.
        -12    1    3    3    0    0  0.16074245588E+01  0.28253911917E+01  0.27074810443E+02  0.27269250258E+02  0.00000000000E+00 0.  1.
</event>
<event>
 7    1  0.3004200E-011  0.5052885E+02  0.7816164E-02  0.1300439E+00
        -11   -1    0    0    0    0  0.00000000000E+00  0.00000000000E+00  0.45593999997E+02  0.45594000000E+02  0.51100000000E-03 0.  1.
         11   -1    0    0    0    0 -0.00000000000E+00 -0.00000000000E+00 -0.45593999997E+02  0.45594000000E+02  0.51100000000E-03 0. -1.
    9900012    2    1    2    0    0  0.11268546948E+02 -0.17536078716E+02  0.34909481763E+02  0.50528854362E+02  0.29999983319E+02 0.  0.
         12    1    1    2    0    0 -0.11268546948E+02  0.17536078716E+02 -0.34909481763E+02  0.40659145638E+02  0.00000000000E+00 0. -1.
         11    1    3    3    0    0 -0.54514808300E+01 -0.62880089107E+01  0.91308308632E+01  0.12354342225E+02  0.51100000000E-03 0. -1.
        -11    1    3    3    0    0  0.20914899535E+02 -0.11079658700E+02  0.23682230571E+02  0.33481934002E+02  0.51100000000E-03 0.  1.
        -12    1    3    3    0    0 -0.41948717566E+01 -0.16841110522E+00  0.20964203285E+01  0.46925781345E+01  0.00000000000E+00 0.  1.
</event>
<event>
 7    1  0.3004200E-011  0.5052886E+02  0.7816164E-02  0.1300439E+00
        -11   -1    0    0    0    0  0.00000000000E+00  0.00000000000E+00  0.45593999997E+02  0.45594000000E+02  0.51100000000E-03 0.  1.
         11   -1    0    0    0    0 -0.00000000000E+00 -0.00000000000E+00 -0.45593999997E+02  0.45594000000E+02  0.51100000000E-03 0. -1.
    9900012    2    1    2    0    0 -0.13616848353E+02  0.34616230466E+02  0.16415352592E+02  0.50528858697E+02  0.29999996496E+02 0.  0.
         12    1    1    2    0    0  0.13616848353E+02 -0.34616230466E+02 -0.16415352592E+02  0.40659141303E+02  0.00000000000E+00 0. -1.
         11    1    3    3    0    0  0.54686806325E+01  0.35376101087E+01  0.38765032125E+00  0.65246782430E+01  0.51100000000E-03 0. -1.
        -11    1    3    3    0    0 -0.22463767045E+02  0.26756128322E+02  0.11174128592E+02  0.36679318187E+02  0.51100000000E-03 0.  1.
        -12    1    3    3    0    0  0.33782380590E+01  0.43224920357E+01  0.48535736786E+01  0.73248622673E+01  0.00000000000E+00 0.  1.
</event>
<event>
 7    1  0.3004200E-011  0.5052887E+02  0.7816164E-02  0.1300439E+00
        -11   -1    0    0    0    0  0.00000000000E+00  0.00000000000E+00  0.45593999997E+02  0.45594000000E+02  0.51100000000E-03 0. -1.
         11   -1    0    0    0    0 -0.00000000000E+00 -0.00000000000E+00 -0.45593999997E+02  0.45594000000E+02  0.51100000000E-03 0.  1.
    9900012    2    1    2    0    0  0.29130093364E+02 -0.28345916672E+02  0.10542090053E+01  0.50528872021E+02  0.30000036995E+02 0.  0.
         12    1    1    2    0    0 -0.29130093364E+02  0.28345916672E+02 -0.10542090053E+01  0.40659127979E+02  0.00000000000E+00 0. -1.
         11    1    3    3    0    0  0.50590207676E+01  0.23354737612E+01  0.69483815597E+01  0.89066343462E+01  0.51100000000E-03 0. -1.
        -11    1    3    3    0    0  0.21330286743E+02 -0.17520845505E+02 -0.22558289590E+01  0.27695666165E+02  0.51100000000E-03 0.  1.
        -12    1    3    3    0    0  0.27407858537E+01 -0.13160544928E+02 -0.36383435953E+01  0.13926571510E+02  0.00000000000E+00 0.  1.
</event>
<event>
 7    1  0.3004200E-011  0.5052886E+02  0.7816164E-02  0.1300439E+00
        -11   -1    0    0    0    0  0.00000000000E+00  0.00000000000E+00  0.45593999997E+02  0.45594000000E+02  0.51100000000E-03 0.  1.
         11   -1    0    0    0    0 -0.00000000000E+00 -0.00000000000E+00 -0.45593999997E+02  0.45594000000E+02  0.51100000000E-03 0. -1.
    9900012    2    1    2    0    0  0.50275322931E+01  0.34044113538E+02  0.21653825522E+02  0.50528857027E+02  0.29999991419E+02 0.  0.
         12    1    1    2    0    0 -0.50275322931E+01 -0.34044113538E+02 -0.21653825522E+02  0.40659142973E+02  0.00000000000E+00 0. -1.
         11    1    3    3    0    0  0.49336003432E+01  0.10779046574E+02  0.35685761399E+01  0.12379943188E+02  0.51100000000E-03 0. -1.
        -11    1    3    3    0    0 -0.95208395311E+01  0.20638857659E+02  0.16429647695E+02  0.28045358876E+02  0.51100000000E-03 0.  1.
        -12    1    3    3    0    0  0.96147714810E+01  0.26262093047E+01  0.16556016874E+01  0.10103554963E+02  0.00000000000E+00 0.  1.
</event>
<event>
 7    1  0.3004200E-011  0.5052885E+02  0.7816164E-02  0.1300439E+00
        -11   -1    0    0    0    0  0.00000000000E+00  0.00000000000E+00  0.45593999997E+02  0.45594000000E+02  0.51100000000E-03 0.  1.
         11   -1    0    0    0    0 -0.00000000000E+00 -0.00000000000E+00 -0.45593999997E+02  0.45594000000E+02  0.51100000000E-03 0. -1.
    9900012    2    1    2    0    0 -0.35401456720E+02 -0.15623837758E+02  0.12481957228E+02  0.50528847274E+02  0.29999961774E+02 0.  0.
         12    1    1    2    0    0  0.35401456720E+02  0.15623837758E+02 -0.12481957228E+02  0.40659152726E+02  0.00000000000E+00 0. -1.
         11    1    3    3    0    0 -0.18875398623E+02 -0.18639815966E+02 -0.30030914418E+00  0.26529485450E+02  0.51100000000E-03 0. -1.
        -11    1    3    3    0    0 -0.17938767519E+02  0.29096605102E+01  0.96835509026E+01  0.20592150512E+02  0.51100000000E-03 0.  1.
         12    1    3    3    0    0  0.14127094215E+01  0.10631769713E+00  0.30987154695E+01  0.34072113118E+01  0.00000000000E+00 0. -1.
</event>
<event>
 7    1  0.3415100E-011  0.5052886E+02  0.7816164E-02  0.1300439E+00
        -11   -1    0    0    0    0  0.00000000000E+00  0.00000000000E+00  0.45593999997E+02  0.45594000000E+02  0.51100000000E-03 0.  1.
         11   -1    0    0    0    0 -0.00000000000E+00 -0.00000000000E+00 -0.45593999997E+02  0.45594000000E+02  0.51100000000E-03 0. -1.
    9900012    2    1    2    0    0 -0.36712561412E+02 -0.17226053916E+02 -0.29354391348E+01  0.50528857094E+02  0.29999991623E+02 0.  0.
         12    1    1    2    0    0  0.36712561412E+02  0.17226053916E+02  0.29354391348E+01  0.40659142906E+02  0.00000000000E+00 0. -1.
         11    1    3    3    0    0 -0.35913144907E+01 -0.10674890043E+02 -0.44901117729E+01  0.12124847265E+02  0.51100000000E-03 0. -1.
        -11    1    3    3    0    0 -0.22678865922E+02  0.25627874948E+01 -0.45275173830E+01  0.23267944755E+02  0.51100000000E-03 0.  1.
        -12    1    3    3    0    0 -0.10442381000E+02 -0.91139513677E+01  0.60821900211E+01  0.15136065074E+02  0.00000000000E+00 0.  1.
</event>
<event>
 7    1  0.3004200E-011  0.5052886E+02  0.7816164E-02  0.1300439E+00
        -11   -1    0    0    0    0  0.00000000000E+00  0.00000000000E+00  0.45593999997E+02  0.45594000000E+02  0.51100000000E-03 0. -1.
         11   -1    0    0    0    0 -0.00000000000E+00 -0.00000000000E+00 -0.45593999997E+02  0.45594000000E+02  0.51100000000E-03 0.  1.
    9900012    2    1    2    0    0 -0.81200658781E+01 -0.27385388132E+02 -0.28935628120E+02  0.50528861695E+02  0.30000005608E+02 0.  0.
         12    1    1    2    0    0  0.81200658781E+01  0.27385388132E+02  0.28935628120E+02  0.40659138305E+02  0.00000000000E+00 0. -1.
         11    1    3    3    0    0  0.84126053107E+01 -0.98966616169E+01 -0.15436352308E+01  0.13080468236E+02  0.51100000000E-03 0. -1.
        -11    1    3    3    0    0 -0.54078192969E+01 -0.11780823507E+02 -0.15317422831E+02  0.20066284023E+02  0.51100000000E-03 0.  1.
         12    1    3    3    0    0 -0.11124851892E+02 -0.57079030080E+01 -0.12074570058E+02  0.17382109436E+02  0.00000000000E+00 0. -1.
</event>
<event>
 7    1  0.3004200E-011  0.5052884E+02  0.7816164E-02  0.1300439E+00
        -11   -1    0    0    0    0  0.00000000000E+00  0.00000000000E+00  0.45593999997E+02  0.45594000000E+02  0.51100000000E-03 0.  1.
         11   -1    0    0    0    0 -0.00000000000E+00 -0.00000000000E+00 -0.45593999997E+02  0.45594000000E+02  0.51100000000E-03 0. -1.
    9900012    2    1    2    0    0 -0.37292958908E+01  0.37859435479E+02  0.14350015618E+02  0.50528838045E+02  0.29999933722E+02 0.  0.
         12    1    1    2    0    0  0.37292958908E+01 -0.37859435479E+02 -0.14350015618E+02  0.40659161955E+02  0.00000000000E+00 0. -1.
         11    1    3    3    0    0  0.94103332812E+01  0.29781521724E+01 -0.92232618168E+00  0.99133469964E+01  0.51100000000E-03 0. -1.
        -11    1    3    3    0    0 -0.10667772884E+02  0.22531480885E+02  0.11602075895E+02  0.27496857539E+02  0.51100000000E-03 0.  1.
         12    1    3    3    0    0 -0.24718562878E+01  0.12349802421E+02  0.36702659048E+01  0.13118633510E+02  0.00000000000E+00 0. -1.
</event>
<event>
 7    1  0.3004200E-011  0.5052886E+02  0.7816164E-02  0.1300439E+00
        -11   -1    0    0    0    0  0.00000000000E+00  0.00000000000E+00  0.45593999997E+02  0.45594000000E+02  0.51100000000E-03 0.  1.
         11   -1    0    0    0    0 -0.00000000000E+00 -0.00000000000E+00 -0.45593999997E+02  0.45594000000E+02  0.51100000000E-03 0. -1.
    9900012    2    1    2    0    0 -0.35924728046E+02 -0.12333910896E+02  0.14507035203E+02  0.50528861869E+02  0.30000006137E+02 0.  0.
         12    1    1    2    0    0  0.35924728046E+02  0.12333910896E+02 -0.14507035203E+02  0.40659138131E+02  0.00000000000E+00 0. -1.
         11    1    3    3    0    0 -0.18305902839E+02 -0.48064560482E+01 -0.42132382867E+01  0.19389674459E+02  0.51100000000E-03 0. -1.
        -11    1    3    3    0    0 -0.20360640980E+02 -0.72782994922E+01  0.18353794090E+02  0.28361789478E+02  0.51100000000E-03 0.  1.
        -12    1    3    3    0    0  0.27418157732E+01 -0.24915535515E+00  0.36647939994E+00  0.27773979325E+01  0.00000000000E+00 0.  1.
</event>
<event>
 7    1  0.3004200E-011  0.5052880E+02  0.7816164E-02  0.1300439E+00
        -11   -1    0    0    0    0  0.00000000000E+00  0.00000000000E+00  0.45593999997E+02  0.45594000000E+02  0.51100000000E-03 0. -1.
         11   -1    0    0    0    0 -0.00000000000E+00 -0.00000000000E+00 -0.45593999997E+02  0.45594000000E+02  0.51100000000E-03 0.  1.
    9900012    2    1    2    0    0  0.34698750220E+02  0.14215689253E+02 -0.15718837563E+02  0.50528795113E+02  0.29999803224E+02 0.  0.
         12    1    1    2    0    0 -0.34698750220E+02 -0.14215689253E+02  0.15718837563E+02  0.40659204887E+02  0.00000000000E+00 0. -1.
         11    1    3    3    0    0  0.97074966631E+01 -0.38925902118E+01  0.30205294299E+01  0.10886291762E+02  0.51100000000E-03 0. -1.
        -11    1    3    3    0    0  0.11559918852E+02  0.12361166657E+01 -0.12762962863E+02  0.17264209498E+02  0.51100000000E-03 0.  1.
         12    1    3    3    0    0  0.13431334705E+02  0.16872162799E+02 -0.59764041299E+01  0.22378293853E+02  0.00000000000E+00 0. -1.
</event>
<event>
 7    1  0.3004200E-011  0.5052886E+02  0.7816164E-02  0.1300439E+00
        -11   -1    0    0    0    0  0.00000000000E+00  0.00000000000E+00  0.45593999997E+02  0.45594000000E+02  0.51100000000E-03 0.  1.
         11   -1    0    0    0    0 -0.00000000000E+00 -0.00000000000E+00 -0.45593999997E+02  0.45594000000E+02  0.51100000000E-03 0. -1.
    9900012    2    1    2    0    0  0.25601277543E+02 -0.17627329372E+02  0.26211019535E+02  0.50528859605E+02  0.29999999255E+02 0.  0.
         12    1    1    2    0    0 -0.25601277543E+02  0.17627329372E+02 -0.26211019535E+02  0.40659140395E+02  0.00000000000E+00 0. -1.
         11    1    3    3    0    0  0.17560340643E+01  0.29466458599E+01  0.99204292950E+00  0.35707879934E+01  0.51100000000E-03 0. -1.
        -11    1    3    3    0    0  0.25616928825E+02 -0.13924042121E+02  0.11002431030E+02  0.31163431779E+02  0.51100000000E-03 0.  1.
        -12    1    3    3    0    0 -0.17716853466E+01 -0.66499331111E+01  0.14216545575E+02  0.15794639832E+02  0.00000000000E+00 0.  1.
</event>
<event>
 7    1  0.3004200E-011  0.5052880E+02  0.7816164E-02  0.1300439E+00
        -11   -1    0    0    0    0  0.00000000000E+00  0.00000000000E+00  0.45593999997E+02  0.45594000000E+02  0.51100000000E-03 0. -1.
         11   -1    0    0    0    0 -0.00000000000E+00 -0.00000000000E+00 -0.45593999997E+02  0.45594000000E+02  0.51100000000E-03 0.  1.
    9900012    2    1    2    0    0  0.29577704446E+01 -0.39850883866E+02  0.75052818875E+01  0.50528799232E+02  0.29999815744E+02 0.  0.
         12    1    1    2    0    0 -0.29577704446E+01  0.39850883866E+02 -0.75052818875E+01  0.40659200768E+02  0.00000000000E+00 0. -1.
         11    1    3    3    0    0  0.15496750180E+01  0.29681091536E+01 -0.46249296088E+01  0.57097406908E+01  0.51100000000E-03 0. -1.
        -11    1    3    3    0    0 -0.36684078805E+00 -0.12136794455E+02  0.12072275420E+01  0.12202202687E+02  0.51100000000E-03 0.  1.
         12    1    3    3    0    0  0.17749362146E+01 -0.30682198564E+02  0.10922983954E+02  0.32616855854E+02  0.00000000000E+00 0. -1.
</event>
<event>
 7    1  0.3004200E-011  0.5052886E+02  0.7816164E-02  0.1300439E+00
        -11   -1    0    0    0    0  0.00000000000E+00  0.00000000000E+00  0.45593999997E+02  0.45594000000E+02  0.51100000000E-03 0.  1.
         11   -1    0    0    0    0 -0.00000000000E+00 -0.00000000000E+00 -0.45593999997E+02  0.45594000000E+02  0.51100000000E-03 0. -1.
    9900012    2    1    2    0    0  0.26765633672E+02 -0.10799921307E+02  0.28637881455E+02  0.50528859572E+02  0.29999999156E+02 0.  0.
         12    1    1    2    0    0 -0.26765633672E+02  0.10799921307E+02 -0.28637881455E+02  0.40659140428E+02  0.00000000000E+00 0. -1.
         11    1    3    3    0    0  0.10554995701E+02 -0.99931255042E+01  0.16687604233E+02  0.22130219766E+02  0.51100000000E-03 0.  1.
        -11    1    3    3    0    0  0.18784291633E+02  0.33761865180E+01  0.47238040293E+01  0.19661194580E+02  0.51100000000E-03 0. -1.
        -12    1    3    3    0    0 -0.25736536622E+01 -0.41829823206E+01  0.72264731931E+01  0.87374452260E+01  0.00000000000E+00 0.  1.
</event>
<event>
 7    1  0.3004200E-011  0.5052886E+02  0.7816164E-02  0.1300439E+00
        -11   -1    0    0    0    0  0.00000000000E+00  0.00000000000E+00  0.45593999997E+02  0.45594000000E+02  0.51100000000E-03 0.  1.
         11   -1    0    0    0    0 -0.00000000000E+00 -0.00000000000E+00 -0.45593999997E+02  0.45594000000E+02  0.51100000000E-03 0. -1.
    9900012    2    1    2    0    0 -0.21646311418E+02  0.21157135766E+02  0.27147344243E+02  0.50528862143E+02  0.30000006970E+02 0.  0.
         12    1    1    2    0    0  0.21646311418E+02 -0.21157135766E+02 -0.27147344243E+02  0.40659137857E+02  0.00000000000E+00 0. -1.
         11    1    3    3    0    0  0.26232109084E+01  0.59391242607E+01 -0.25256755484E+01  0.69665967079E+01  0.51100000000E-03 0. -1.
        -11    1    3    3    0    0 -0.16923831949E+02  0.15888236727E+02  0.27253187460E+02  0.35799279059E+02  0.51100000000E-03 0.  1.
        -12    1    3    3    0    0 -0.73456903776E+01 -0.67022522192E+00  0.24198323311E+01  0.77629863765E+01  0.00000000000E+00 0.  1.
</event>
<event>
 7    1  0.3004200E-011  0.5052888E+02  0.7816164E-02  0.1300439E+00
        -11   -1    0    0    0    0  0.00000000000E+00  0.00000000000E+00  0.45593999997E+02  0.45594000000E+02  0.51100000000E-03 0. -1.
         11   -1    0    0    0    0 -0.00000000000E+00 -0.00000000000E+00 -0.45593999997E+02  0.45594000000E+02  0.51100000000E-03 0.  1.
    9900012    2    1    2    0    0  0.72036616532E+01  0.18214331774E+02 -0.35630173269E+02  0.50528882076E+02  0.30000067558E+02 0.  0.
         12    1    1    2    0    0 -0.72036616532E+01 -0.18214331774E+02  0.35630173269E+02  0.40659117924E+02  0.00000000000E+00 0. -1.
         11    1    3    3    0    0  0.56379382287E+00  0.31791506930E+01 -0.63186074625E+00  0.32900016516E+01  0.51100000000E-03 0. -1.
        -11    1    3    3    0    0  0.23028628435E+01 -0.55375178809E+01  0.46103639733E+00  0.60149676955E+01  0.51100000000E-03 0.  1.
        -12    1    3    3    0    0  0.43370049868E+01  0.20572698962E+02 -0.35459348920E+02  0.41223912729E+02  0.00000000000E+00 0.  1.
</event>
<event>
 7    1  0.3004200E-011  0.5052887E+02  0.7816164E-02  0.1300439E+00
        -11   -1    0    0    0    0  0.00000000000E+00  0.00000000000E+00  0.45593999997E+02  0.45594000000E+02  0.51100000000E-03 0.  1.
         11   -1    0    0    0    0 -0.00000000000E+00 -0.00000000000E+00 -0.45593999997E+02  0.45594000000E+02  0.51100000000E-03 0. -1.
    9900012    2    1    2    0    0  0.23099059825E+02  0.31586540263E+02 -0.11040339757E+02  0.50528865816E+02  0.30000018136E+02 0.  0.
         12    1    1    2    0    0 -0.23099059825E+02 -0.31586540263E+02  0.11040339757E+02  0.40659134184E+02  0.00000000000E+00 0. -1.
         11    1    3    3    0    0  0.67733208626E+01  0.28467639848E+02 -0.23599757777E+01  0.29357347972E+02  0.51100000000E-03 0. -1.
        -11    1    3    3    0    0  0.14448572297E+02 -0.12842324110E+01 -0.61265683385E+01  0.15746280011E+02  0.51100000000E-03 0.  1.
        -12    1    3    3    0    0  0.18771666654E+01  0.44031328265E+01 -0.25537956406E+01  0.54252378337E+01  0.00000000000E+00 0.  1.
</event>
<event>
 7    1  0.3004200E-011  0.5052886E+02  0.7816164E-02  0.1300439E+00
        -11   -1    0    0    0    0  0.00000000000E+00  0.00000000000E+00  0.45593999997E+02  0.45594000000E+02  0.51100000000E-03 0.  1.
         11   -1    0    0    0    0 -0.00000000000E+00 -0.00000000000E+00 -0.45593999997E+02  0.45594000000E+02  0.51100000000E-03 0. -1.
    9900012    2    1    2    0    0 -0.24671048501E+02 -0.54571707766E+01  0.31854737544E+02  0.50528860179E+02  0.30000000999E+02 0.  0.
         12    1    1    2    0    0  0.24671048501E+02  0.54571707766E+01 -0.31854737544E+02  0.40659139821E+02  0.00000000000E+00 0. -1.
         11    1    3    3    0    0 -0.19078038826E+01  0.51426921582E+01  0.15343851713E+02  0.16294808496E+02  0.51100000000E-03 0. -1.
        -11    1    3    3    0    0 -0.23669575581E+02 -0.70898071471E+01  0.17727499247E+02  0.30410169408E+02  0.51100000000E-03 0.  1.
         12    1    3    3    0    0  0.90633096282E+00 -0.35100557877E+01 -0.12166134162E+01  0.38238822748E+01  0.00000000000E+00 0. -1.
</event>
<event>
 7    1  0.3004200E-011  0.5052886E+02  0.7816164E-02  0.1300439E+00
        -11   -1    0    0    0    0  0.00000000000E+00  0.00000000000E+00  0.45593999997E+02  0.45594000000E+02  0.51100000000E-03 0. -1.
         11   -1    0    0    0    0 -0.00000000000E+00 -0.00000000000E+00 -0.45593999997E+02  0.45594000000E+02  0.51100000000E-03 0.  1.
    9900012    2    1    2    0    0  0.33238491366E+02 -0.39901152815E+01 -0.23074824510E+02  0.50528857677E+02  0.29999993395E+02 0.  0.
         12    1    1    2    0    0 -0.33238491366E+02  0.39901152815E+01  0.23074824510E+02  0.40659142323E+02  0.00000000000E+00 0. -1.
         11    1    3    3    0    0 -0.27045302390E+01 -0.45005836229E+01  0.29293681437E+01  0.60125647391E+01  0.51100000000E-03 0.  1.
        -11    1    3    3    0    0  0.23764371319E+02  0.11266669755E+01 -0.15264150910E+02  0.28266747707E+02  0.51100000000E-03 0. -1.
        -12    1    3    3    0    0  0.12178650286E+02 -0.61619863413E+00 -0.10740041744E+02  0.16249545231E+02  0.00000000000E+00 0.  1.
</event>
<event>
 7    1  0.3004200E-011  0.5052886E+02  0.7816164E-02  0.1300439E+00
        -11   -1    0    0    0    0  0.00000000000E+00  0.00000000000E+00  0.45593999997E+02  0.45594000000E+02  0.51100000000E-03 0. -1.
         11   -1    0    0    0    0 -0.00000000000E+00 -0.00000000000E+00 -0.45593999997E+02  0.45594000000E+02  0.51100000000E-03 0.  1.
    9900012    2    1    2    0    0  0.65396358760E+01 -0.37284217485E+02 -0.14842025921E+02  0.50528862721E+02  0.30000008725E+02 0.  0.
         12    1    1    2    0    0 -0.65396358760E+01  0.37284217485E+02  0.14842025921E+02  0.40659137279E+02  0.00000000000E+00 0. -1.
         11    1    3    3    0    0 -0.47242004112E+01 -0.16926513789E+02 -0.53938219408E+01  0.18382552978E+02  0.51100000000E-03 0. -1.
        -11    1    3    3    0    0  0.13071015548E+02 -0.81103029230E+01  0.17130554153E+01  0.15477823493E+02  0.51100000000E-03 0.  1.
        -12    1    3    3    0    0 -0.18071792609E+01 -0.12247400773E+02 -0.11161259396E+02  0.16668486250E+02  0.00000000000E+00 0.  1.
</event>
<event>
 7    1  0.3004200E-011  0.5052887E+02  0.7816164E-02  0.1300439E+00
        -11   -1    0    0    0    0  0.00000000000E+00  0.00000000000E+00  0.45593999997E+02  0.45594000000E+02  0.51100000000E-03 0. -1.
         11   -1    0    0    0    0 -0.00000000000E+00 -0.00000000000E+00 -0.45593999997E+02  0.45594000000E+02  0.51100000000E-03 0.  1.
    9900012    2    1    2    0    0  0.28845856381E+02  0.91459026785E+01 -0.27155738831E+02  0.50528866738E+02  0.30000020937E+02 0.  0.
         12    1    1    2    0    0 -0.28845856381E+02 -0.91459026785E+01  0.27155738831E+02  0.40659133262E+02  0.00000000000E+00 0. -1.
         11    1    3    3    0    0  0.71171565339E+01 -0.10327442674E+02 -0.42066850307E+01  0.13228990457E+02  0.51100000000E-03 0. -1.
        -11    1    3    3    0    0  0.11453780067E+02  0.96653413006E+01 -0.95381076286E+01  0.17764667114E+02  0.51100000000E-03 0.  1.
         12    1    3    3    0    0  0.10274919779E+02  0.98080040515E+01 -0.13410946172E+02  0.19535209166E+02  0.00000000000E+00 0. -1.
</event>
<event>
 7    1  0.3004200E-011  0.5052887E+02  0.7816164E-02  0.1300439E+00
        -11   -1    0    0    0    0  0.00000000000E+00  0.00000000000E+00  0.45593999997E+02  0.45594000000E+02  0.51100000000E-03 0.  1.
         11   -1    0    0    0    0 -0.00000000000E+00 -0.00000000000E+00 -0.45593999997E+02  0.45594000000E+02  0.51100000000E-03 0. -1.
    9900012    2    1    2    0    0  0.23929564562E+02  0.47299037551E+01  0.32529510498E+02  0.50528866919E+02  0.30000021487E+02 0.  0.
         12    1    1    2    0    0 -0.23929564562E+02 -0.47299037551E+01 -0.32529510498E+02  0.40659133081E+02  0.00000000000E+00 0. -1.
         11    1    3    3    0    0 -0.36504485484E+01  0.65707140376E+01  0.22390043373E+01  0.78430350153E+01  0.51100000000E-03 0. -1.
        -11    1    3    3    0    0  0.26762267092E+02  0.70856113658E+00  0.29620173653E+02  0.39925877401E+02  0.51100000000E-03 0.  1.
        -12    1    3    3    0    0  0.81774601848E+00 -0.25493714191E+01  0.67033250799E+00  0.27599545022E+01  0.00000000000E+00 0.  1.
</event>
<event>
 7    1  0.3004200E-011  0.5052886E+02  0.7816164E-02  0.1300439E+00
        -11   -1    0    0    0    0  0.00000000000E+00  0.00000000000E+00  0.45593999997E+02  0.45594000000E+02  0.51100000000E-03 0.  1.
         11   -1    0    0    0    0 -0.00000000000E+00 -0.00000000000E+00 -0.45593999997E+02  0.45594000000E+02  0.51100000000E-03 0. -1.
    9900012    2    1    2    0    0  0.13137369769E+01  0.83265124107E+01  0.39775733582E+02  0.50528859628E+02  0.29999999327E+02 0.  0.
         12    1    1    2    0    0 -0.13137369769E+01 -0.83265124107E+01 -0.39775733582E+02  0.40659140372E+02  0.00000000000E+00 0. -1.
         11    1    3    3    0    0 -0.54608840595E+01  0.37290839086E+01  0.65863344917E+00  0.66453833441E+01  0.51100000000E-03 0. -1.
        -11    1    3    3    0    0  0.12978555425E+02  0.20388033224E+01  0.24525466060E+02  0.27822618597E+02  0.51100000000E-03 0.  1.
        -12    1    3    3    0    0 -0.62039343890E+01  0.25586251797E+01  0.14591634073E+02  0.16060857687E+02  0.00000000000E+00 0.  1.
</event>
<event>
 7    1  0.3004200E-011  0.5052886E+02  0.7816164E-02  0.1300439E+00
        -11   -1    0    0    0    0  0.00000000000E+00  0.00000000000E+00  0.45593999997E+02  0.45594000000E+02  0.51100000000E-03 0.  1.
         11   -1    0    0    0    0 -0.00000000000E+00 -0.00000000000E+00 -0.45593999997E+02  0.45594000000E+02  0.51100000000E-03 0. -1.
    9900012    2    1    2    0    0 -0.40567065557E+01 -0.40450941186E+02 -0.65566058107E+00  0.50528863244E+02  0.30000010318E+02 0.  0.
         12    1    1    2    0    0  0.40567065557E+01  0.40450941186E+02  0.65566058107E+00  0.40659136756E+02  0.00000000000E+00 0. -1.
         11    1    3    3    0    0 -0.38734986511E+01 -0.17563483595E+02  0.10121722188E+02  0.20638052430E+02  0.51100000000E-03 0. -1.
        -11    1    3    3    0    0 -0.52623156070E+00 -0.25225706191E+02 -0.10984281304E+02  0.27518495753E+02  0.51100000000E-03 0.  1.
        -12    1    3    3    0    0  0.34302365610E+00  0.23382486001E+01  0.20689853450E+00  0.23723150609E+01  0.00000000000E+00 0.  1.
</event>
<event>
 7    1  0.3004200E-011  0.5052886E+02  0.7816164E-02  0.1300439E+00
        -11   -1    0    0    0    0  0.00000000000E+00  0.00000000000E+00  0.45593999997E+02  0.45594000000E+02  0.51100000000E-03 0.  1.
         11   -1    0    0    0    0 -0.00000000000E+00 -0.00000000000E+00 -0.45593999997E+02  0.45594000000E+02  0.51100000000E-03 0. -1.
    9900012    2    1    2    0    0  0.24808768859E+02  0.20176906953E+02  0.25111411750E+02  0.50528860971E+02  0.30000003408E+02 0.  0.
         12    1    1    2    0    0 -0.24808768859E+02 -0.20176906953E+02 -0.25111411750E+02  0.40659139029E+02  0.00000000000E+00 0. -1.
         11    1    3    3    0    0 -0.10761257014E+01  0.35806486702E+00  0.27222303896E+01  0.29490329821E+01  0.51100000000E-03 0. -1.
        -11    1    3    3    0    0  0.27392066618E+02  0.79807064738E+01  0.21283535874E+02  0.35595026183E+02  0.51100000000E-03 0.  1.
        -12    1    3    3    0    0 -0.15071720576E+01  0.11838135613E+02  0.11056454861E+01  0.11984801806E+02  0.00000000000E+00 0.  1.
</event>
<event>
 7    1  0.3004200E-011  0.5052885E+02  0.7816164E-02  0.1300439E+00
        -11   -1    0    0    0    0  0.00000000000E+00  0.00000000000E+00  0.45593999997E+02  0.45594000000E+02  0.51100000000E-03 0.  1.
         11   -1    0    0    0    0 -0.00000000000E+00 -0.00000000000E+00 -0.45593999997E+02  0.45594000000E+02  0.51100000000E-03 0. -1.
    9900012    2    1    2    0    0  0.99019943653E+01 -0.33023531902E+02  0.21553724367E+02  0.50528853602E+02  0.29999981010E+02 0.  0.
         12    1    1    2    0    0 -0.99019943653E+01  0.33023531902E+02 -0.21553724367E+02  0.40659146398E+02  0.00000000000E+00 0. -1.
         11    1    3    3    0    0  0.89859008747E+01 -0.71232917956E+01 -0.29360765770E+01  0.11836732930E+02  0.51100000000E-03 0. -1.
        -11    1    3    3    0    0 -0.41722982372E+01 -0.18108847799E+02  0.90620164360E+01  0.20675071544E+02  0.51100000000E-03 0.  1.
         12    1    3    3    0    0  0.50883917278E+01 -0.77913923069E+01  0.15427784508E+02  0.18017049128E+02  0.00000000000E+00 0. -1.
</event>
<event>
 7    1  0.3004200E-011  0.5052887E+02  0.7816164E-02  0.1300439E+00
        -11   -1    0    0    0    0  0.00000000000E+00  0.00000000000E+00  0.45593999997E+02  0.45594000000E+02  0.51100000000E-03 0. -1.
         11   -1    0    0    0    0 -0.00000000000E+00 -0.00000000000E+00 -0.45593999997E+02  0.45594000000E+02  0.51100000000E-03 0.  1.
    9900012    2    1    2    0    0  0.15978864490E+02  0.24396982921E+02 -0.28330689196E+02  0.50528870197E+02  0.30000031450E+02 0.  0.
         12    1    1    2    0    0 -0.15978864490E+02 -0.24396982921E+02  0.28330689196E+02  0.40659129803E+02  0.00000000000E+00 0. -1.
         11    1    3    3    0    0 -0.70230600901E+01  0.28216739531E+01 -0.13872074981E+02  0.15802521364E+02  0.51100000000E-03 0. -1.
        -11    1    3    3    0    0  0.15417121268E+02  0.13667480165E+02 -0.99075245081E+01  0.22861467241E+02  0.51100000000E-03 0.  1.
         12    1    3    3    0    0  0.75848033126E+01  0.79078288028E+01 -0.45510897065E+01  0.11864881592E+02  0.00000000000E+00 0. -1.
</event>
<event>
 7    1  0.3004200E-011  0.5052886E+02  0.7816164E-02  0.1300439E+00
        -11   -1    0    0    0    0  0.00000000000E+00  0.00000000000E+00  0.45593999997E+02  0.45594000000E+02  0.51100000000E-03 0.  1.
         11   -1    0    0    0    0 -0.00000000000E+00 -0.00000000000E+00 -0.45593999997E+02  0.45594000000E+02  0.51100000000E-03 0. -1.
    9900012    2    1    2    0    0 -0.96201035358E+01  0.27144583593E+02  0.28701758197E+02  0.50528859157E+02  0.29999997893E+02 0.  0.
         12    1    1    2    0    0  0.96201035358E+01 -0.27144583593E+02 -0.28701758197E+02  0.40659140843E+02  0.00000000000E+00 0. -1.
         11    1    3    3    0    0  0.48685590265E+01  0.15874411970E+02  0.26717840637E+02  0.31456999713E+02  0.51100000000E-03 0. -1.
        -11    1    3    3    0    0 -0.11736836174E+02  0.11127160440E+02  0.21286785499E+01  0.16312519592E+02  0.51100000000E-03 0.  1.
         12    1    3    3    0    0 -0.27518263887E+01  0.14301118260E+00 -0.14476098923E+00  0.27593398515E+01  0.00000000000E+00 0. -1.
</event>
<event>
 7    1  0.3004200E-011  0.5052887E+02  0.7816164E-02  0.1300439E+00
        -11   -1    0    0    0    0  0.00000000000E+00  0.00000000000E+00  0.45593999997E+02  0.45594000000E+02  0.51100000000E-03 0.  1.
         11   -1    0    0    0    0 -0.00000000000E+00 -0.00000000000E+00 -0.45593999997E+02  0.45594000000E+02  0.51100000000E-03 0. -1.
    9900012    2    1    2    0    0  0.31122513914E+02 -0.20961510163E+02  0.15657876079E+02  0.50528869858E+02  0.30000030419E+02 0.  0.
         12    1    1    2    0    0 -0.31122513914E+02  0.20961510163E+02 -0.15657876079E+02  0.40659130142E+02  0.00000000000E+00 0. -1.
         11    1    3    3    0    0  0.56814396376E+01 -0.25773425730E+01 -0.31979415512E+01  0.70105835363E+01  0.51100000000E-03 0. -1.
        -11    1    3    3    0    0  0.48463885468E+01 -0.22550883020E+01  0.16394418507E+02  0.17243835526E+02  0.51100000000E-03 0.  1.
        -12    1    3    3    0    0  0.20594685730E+02 -0.16129079288E+02  0.24613991230E+01  0.26274450796E+02  0.00000000000E+00 0.  1.
</event>
<event>
 7    1  0.3004200E-011  0.5052881E+02  0.7816164E-02  0.1300439E+00
        -11   -1    0    0    0    0  0.00000000000E+00  0.00000000000E+00  0.45593999997E+02  0.45594000000E+02  0.51100000000E-03 0.  1.
         11   -1    0    0    0    0 -0.00000000000E+00 -0.00000000000E+00 -0.45593999997E+02  0.45594000000E+02  0.51100000000E-03 0. -1.
    9900012    2    1    2    0    0  0.33831615649E+02 -0.10380256538E+02  0.20021034953E+02  0.50528809357E+02  0.29999846520E+02 0.  0.
         12    1    1    2    0    0 -0.33831615649E+02  0.10380256538E+02 -0.20021034953E+02  0.40659190643E+02  0.00000000000E+00 0. -1.
         11    1    3    3    0    0 -0.29759144570E+01 -0.98110271688E+00  0.48171801982E+01  0.57466385583E+01  0.51100000000E-03 0. -1.
        -11    1    3    3    0    0  0.38062694042E+02 -0.61184047878E+01  0.14570351866E+02  0.41212846403E+02  0.51100000000E-03 0.  1.
        -12    1    3    3    0    0 -0.12551639361E+01 -0.32807490338E+01  0.63350288849E+00  0.35693243953E+01  0.00000000000E+00 0.  1.
</event>
<event>
 7    1  0.3004200E-011  0.5052885E+02  0.7816164E-02  0.1300439E+00
        -11   -1    0    0    0    0  0.00000000000E+00  0.00000000000E+00  0.45593999997E+02  0.45594000000E+02  0.51100000000E-03 0.  1.
         11   -1    0    0    0    0 -0.00000000000E+00 -0.00000000000E+00 -0.45593999997E+02  0.45594000000E+02  0.51100000000E-03 0. -1.
    9900012    2    1    2    0    0  0.83605720247E+01 -0.39748777501E+02  0.18170706958E+01  0.50528853141E+02  0.29999979607E+02 0.  0.
         12    1    1    2    0    0 -0.83605720247E+01  0.39748777501E+02 -0.18170706958E+01  0.40659146859E+02  0.00000000000E+00 0. -1.
         11    1    3    3    0    0  0.10125484954E+02 -0.90354820565E+01  0.64061057452E+01  0.15006784220E+02  0.51100000000E-03 0. -1.
        -11    1    3    3    0    0  0.36025661039E+00 -0.30606800819E+02 -0.16103617814E+00  0.30609344556E+02  0.51100000000E-03 0.  1.
        -12    1    3    3    0    0 -0.21251695401E+01 -0.10649462507E+00 -0.44279988712E+01  0.49127243646E+01  0.00000000000E+00 0.  1.
</event>
<event>
 7    1  0.3004200E-011  0.5052883E+02  0.7816164E-02  0.1300439E+00
        -11   -1    0    0    0    0  0.00000000000E+00  0.00000000000E+00  0.45593999997E+02  0.45594000000E+02  0.51100000000E-03 0.  1.
         11   -1    0    0    0    0 -0.00000000000E+00 -0.00000000000E+00 -0.45593999997E+02  0.45594000000E+02  0.51100000000E-03 0. -1.
    9900012    2    1    2    0    0 -0.38253239823E+02 -0.12845964102E+02 -0.49838464678E+01  0.50528832814E+02  0.29999917820E+02 0.  0.
         12    1    1    2    0    0  0.38253239823E+02  0.12845964102E+02  0.49838464678E+01  0.40659167186E+02  0.00000000000E+00 0. -1.
         11    1    3    3    0    0  0.34519501473E+01 -0.18707453058E+01 -0.21091815653E+01  0.44569378451E+01  0.51100000000E-03 0. -1.
        -11    1    3    3    0    0 -0.42774532972E+02 -0.11665764026E+02 -0.37982790651E+01  0.44499187020E+02  0.51100000000E-03 0.  1.
        -12    1    3    3    0    0  0.10693430019E+01  0.69054523012E+00  0.92361416264E+00  0.15727079487E+01  0.00000000000E+00 0.  1.
</event>
<event>
 7    1  0.3004200E-011  0.5052888E+02  0.7816164E-02  0.1300439E+00
        -11   -1    0    0    0    0  0.00000000000E+00  0.00000000000E+00  0.45593999997E+02  0.45594000000E+02  0.51100000000E-03 0.  1.
         11   -1    0    0    0    0 -0.00000000000E+00 -0.00000000000E+00 -0.45593999997E+02  0.45594000000E+02  0.51100000000E-03 0. -1.
    9900012    2    1    2    0    0  0.19422709235E+02 -0.53987580124E+01  0.35309708788E+02  0.50528883473E+02  0.30000071804E+02 0.  0.
         12    1    1    2    0    0 -0.19422709235E+02  0.53987580124E+01 -0.35309708788E+02  0.40659116527E+02  0.00000000000E+00 0. -1.
         11    1    3    3    0    0  0.44805386864E+00 -0.15261816229E+01 -0.30260504923E+01  0.34186202565E+01  0.51100000000E-03 0. -1.
        -11    1    3    3    0    0  0.21432430021E+02 -0.69416096612E+01  0.27301623522E+02  0.35396520288E+02  0.51100000000E-03 0.  1.
        -12    1    3    3    0    0 -0.24577746542E+01  0.30690332718E+01  0.11034135758E+02  0.11713742928E+02  0.00000000000E+00 0.  1.
</event>
<event>
 7    1  0.3004200E-011  0.5052886E+02  0.7816164E-02  0.1300439E+00
        -11   -1    0    0    0    0  0.00000000000E+00  0.00000000000E+00  0.45593999997E+02  0.45594000000E+02  0.51100000000E-03 0.  1.
         11   -1    0    0    0    0 -0.00000000000E+00 -0.00000000000E+00 -0.45593999997E+02  0.45594000000E+02  0.51100000000E-03 0. -1.
    9900012    2    1    2    0    0 -0.33056150982E+02 -0.10230638478E+02  0.21349251546E+02  0.50528860523E+02  0.30000002045E+02 0.  0.
         12    1    1    2    0    0  0.33056150982E+02  0.10230638478E+02 -0.21349251546E+02  0.40659139477E+02  0.00000000000E+00 0. -1.
         11    1    3    3    0    0 -0.18226978473E+02  0.74912496915E+01  0.10931257017E+01  0.19736678805E+02  0.51100000000E-03 0. -1.
        -11    1    3    3    0    0 -0.65809634778E+01 -0.80386916888E+01  0.78214414482E+01  0.13004022107E+02  0.51100000000E-03 0.  1.
         12    1    3    3    0    0 -0.82482090317E+01 -0.96831964810E+01  0.12434684396E+02  0.17788159611E+02  0.00000000000E+00 0. -1.
</event>
<event>
 7    1  0.3004200E-011  0.5052887E+02  0.7816164E-02  0.1300439E+00
        -11   -1    0    0    0    0  0.00000000000E+00  0.00000000000E+00  0.45593999997E+02  0.45594000000E+02  0.51100000000E-03 0. -1.
         11   -1    0    0    0    0 -0.00000000000E+00 -0.00000000000E+00 -0.45593999997E+02  0.45594000000E+02  0.51100000000E-03 0.  1.
    9900012    2    1    2    0    0 -0.61572692022E-02  0.39473222293E+02 -0.97482897241E+01  0.50528874719E+02  0.30000045195E+02 0.  0.
         12    1    1    2    0    0  0.61572692022E-02 -0.39473222293E+02  0.97482897241E+01  0.40659125281E+02  0.00000000000E+00 0. -1.
         11    1    3    3    0    0  0.89267448297E+01  0.28937491935E+02 -0.26700514885E+01  0.30400565586E+02  0.51100000000E-03 0. -1.
        -11    1    3    3    0    0 -0.11851094053E+02  0.92357808996E+01 -0.76855062758E+01  0.16876465449E+02  0.51100000000E-03 0.  1.
         12    1    3    3    0    0  0.29181919536E+01  0.12999494579E+01  0.60726804020E+00  0.32518436838E+01  0.00000000000E+00 0. -1.
</event>
<event>
 7    1  0.3004200E-011  0.5052886E+02  0.7816164E-02  0.1300439E+00
        -11   -1    0    0    0    0  0.00000000000E+00  0.00000000000E+00  0.45593999997E+02  0.45594000000E+02  0.51100000000E-03 0.  1.
         11   -1    0    0    0    0 -0.00000000000E+00 -0.00000000000E+00 -0.45593999997E+02  0.45594000000E+02  0.51100000000E-03 0. -1.
    9900012    2    1    2    0    0 -0.17616739649E+02 -0.25731011424E+02  0.26090826996E+02  0.50528859354E+02  0.29999998493E+02 0.  0.
         12    1    1    2    0    0  0.17616739649E+02  0.25731011424E+02 -0.26090826996E+02  0.40659140646E+02  0.00000000000E+00 0. -1.
         11    1    3    3    0    0 -0.10168413292E+02 -0.12846040345E+02  0.24721279848E+01  0.16568910600E+02  0.51100000000E-03 0. -1.
        -11    1    3    3    0    0  0.61016313108E+01 -0.39261575103E+01  0.33677187705E+01  0.79991341673E+01  0.51100000000E-03 0.  1.
        -12    1    3    3    0    0 -0.13549957667E+02 -0.89588135682E+01  0.20250980240E+02  0.25960814587E+02  0.00000000000E+00 0.  1.
</event>
<event>
 7    1  0.3004200E-011  0.5052887E+02  0.7816164E-02  0.1300439E+00
        -11   -1    0    0    0    0  0.00000000000E+00  0.00000000000E+00  0.45593999997E+02  0.45594000000E+02  0.51100000000E-03 0.  1.
         11   -1    0    0    0    0 -0.00000000000E+00 -0.00000000000E+00 -0.45593999997E+02  0.45594000000E+02  0.51100000000E-03 0. -1.
    9900012    2    1    2    0    0  0.24698206463E+02  0.16876574667E+02  0.27538061032E+02  0.50528868425E+02  0.30000026066E+02 0.  0.
         12    1    1    2    0    0 -0.24698206463E+02 -0.16876574667E+02 -0.27538061032E+02  0.40659131575E+02  0.00000000000E+00 0. -1.
         11    1    3    3    0    0  0.11820855357E+02 -0.37006787517E+01 -0.98877393301E+00  0.12425993672E+02  0.51100000000E-03 0. -1.
        -11    1    3    3    0    0  0.43800856720E+01  0.13274473267E+02  0.17302477786E+02  0.22243482839E+02  0.51100000000E-03 0.  1.
         12    1    3    3    0    0  0.84972654345E+01  0.73027801513E+01  0.11224357179E+02  0.15859391914E+02  0.00000000000E+00 0. -1.
</event>
<event>
 7    1  0.3004200E-011  0.5052886E+02  0.7816164E-02  0.1300439E+00
        -11   -1    0    0    0    0  0.00000000000E+00  0.00000000000E+00  0.45593999997E+02  0.45594000000E+02  0.51100000000E-03 0.  1.
         11   -1    0    0    0    0 -0.00000000000E+00 -0.00000000000E+00 -0.45593999997E+02  0.45594000000E+02  0.51100000000E-03 0. -1.
    9900012    2    1    2    0    0  0.15289647916E+02 -0.94433580431E+01  0.36472116667E+02  0.50528860330E+02  0.30000001460E+02 0.  0.
         12    1    1    2    0    0 -0.15289647916E+02  0.94433580431E+01 -0.36472116667E+02  0.40659139670E+02  0.00000000000E+00 0. -1.
         11    1    3    3    0    0  0.36176618703E+01  0.10219578011E+01  0.36813416500E+01  0.52615731260E+01  0.51100000000E-03 0. -1.
        -11    1    3    3    0    0 -0.10988847676E+01 -0.74975082104E+00 -0.44883399352E+01  0.46813320392E+01  0.51100000000E-03 0.  1.
        -12    1    3    3    0    0  0.12770870814E+02 -0.97155650231E+01  0.37279114952E+02  0.40585955165E+02  0.00000000000E+00 0.  1.
</event>
<event>
 7    1  0.3004200E-011  0.5052885E+02  0.7816164E-02  0.1300439E+00
        -11   -1    0    0    0    0  0.00000000000E+00  0.00000000000E+00  0.45593999997E+02  0.45594000000E+02  0.51100000000E-03 0.  1.
         11   -1    0    0    0    0 -0.00000000000E+00 -0.00000000000E+00 -0.45593999997E+02  0.45594000000E+02  0.51100000000E-03 0. -1.
    9900012    2    1    2    0    0  0.15564311023E+02  0.14888249908E+02  0.34485633556E+02  0.50528847467E+02  0.29999962362E+02 0.  0.
         12    1    1    2    0    0 -0.15564311023E+02 -0.14888249908E+02 -0.34485633556E+02  0.40659152533E+02  0.00000000000E+00 0. -1.
         11    1    3    3    0    0 -0.21833936085E+01 -0.13213029700E+01  0.18569408837E+02  0.18743958867E+02  0.51100000000E-03 0.  1.
        -11    1    3    3    0    0  0.13288851165E+02  0.51825973414E+01  0.13516968303E+02  0.19650987579E+02  0.51100000000E-03 0. -1.
         12    1    3    3    0    0  0.44588534668E+01  0.11026955537E+02  0.23992564162E+01  0.12133901021E+02  0.00000000000E+00 0. -1.
</event>
<event>
 7    1  0.3004200E-011  0.5052888E+02  0.7816164E-02  0.1300439E+00
        -11   -1    0    0    0    0  0.00000000000E+00  0.00000000000E+00  0.45593999997E+02  0.45594000000E+02  0.51100000000E-03 0. -1.
         11   -1    0    0    0    0 -0.00000000000E+00 -0.00000000000E+00 -0.45593999997E+02  0.45594000000E+02  0.51100000000E-03 0.  1.
    9900012    2    1    2    0    0 -0.18912635739E+02 -0.25923798431E+02 -0.24968632302E+02  0.50528883990E+02  0.30000073377E+02 0.  0.
         12    1    1    2    0    0  0.18912635739E+02  0.25923798431E+02  0.24968632302E+02  0.40659116010E+02  0.00000000000E+00 0. -1.
         11    1    3    3    0    0 -0.18891421128E+02 -0.30938482836E+01 -0.11012661333E+02  0.22084754908E+02  0.51100000000E-03 0. -1.
        -11    1    3    3    0    0 -0.77352685490E+00 -0.32889864805E+01 -0.68494391789E+01  0.76374467717E+01  0.51100000000E-03 0.  1.
         12    1    3    3    0    0  0.75231224351E+00 -0.19540963666E+02 -0.71065317894E+01  0.20806682311E+02  0.00000000000E+00 0. -1.
</event>
<event>
 7    1  0.3004200E-011  0.5052886E+02  0.7816164E-02  0.1300439E+00
        -11   -1    0    0    0    0  0.00000000000E+00  0.00000000000E+00  0.45593999997E+02  0.45594000000E+02  0.51100000000E-03 0.  1.
         11   -1    0    0    0    0 -0.00000000000E+00 -0.00000000000E+00 -0.45593999997E+02  0.45594000000E+02  0.51100000000E-03 0. -1.
    9900012    2    1    2    0    0 -0.24468694788E+02  0.32471731278E+02 -0.18802825845E+00  0.50528859435E+02  0.29999998740E+02 0.  0.
         12    1    1    2    0    0  0.24468694788E+02 -0.32471731278E+02  0.18802825845E+00  0.40659140565E+02  0.00000000000E+00 0. -1.
         11    1    3    3    0    0 -0.15246734293E+02  0.14119684423E+02 -0.85178414181E+01  0.22458450915E+02  0.51100000000E-03 0. -1.
        -11    1    3    3    0    0 -0.10255116967E+02  0.40102135541E+01  0.81344411482E+01  0.13690082900E+02  0.51100000000E-03 0.  1.
        -12    1    3    3    0    0  0.10331564721E+01  0.14341833301E+02  0.19537201144E+00  0.14380325621E+02  0.00000000000E+00 0.  1.
</event>
<event>
 7    1  0.3004200E-011  0.5052886E+02  0.7816164E-02  0.1300439E+00
        -11   -1    0    0    0    0  0.00000000000E+00  0.00000000000E+00  0.45593999997E+02  0.45594000000E+02  0.51100000000E-03 0.  1.
         11   -1    0    0    0    0 -0.00000000000E+00 -0.00000000000E+00 -0.45593999997E+02  0.45594000000E+02  0.51100000000E-03 0. -1.
    9900012    2    1    2    0    0 -0.39869672178E+02  0.10355713555E+01  0.79058531832E+01  0.50528859795E+02  0.29999999833E+02 0.  0.
         12    1    1    2    0    0  0.39869672178E+02 -0.10355713555E+01 -0.79058531832E+01  0.40659140205E+02  0.00000000000E+00 0. -1.
         11    1    3    3    0    0  0.25679259976E+01 -0.34361308321E+01 -0.34767173405E+00  0.43037326730E+01  0.51100000000E-03 0.  1.
        -11    1    3    3    0    0 -0.40583438314E+02  0.76161904087E+01  0.94946851674E+01  0.42369456787E+02  0.51100000000E-03 0. -1.
         12    1    3    3    0    0 -0.18541598616E+01 -0.31444882210E+01 -0.12411602502E+01  0.38556703349E+01  0.00000000000E+00 0. -1.
</event>
<event>
 7    1  0.3004200E-011  0.5052888E+02  0.7816164E-02  0.1300439E+00
        -11   -1    0    0    0    0  0.00000000000E+00  0.00000000000E+00  0.45593999997E+02  0.45594000000E+02  0.51100000000E-03 0.  1.
         11   -1    0    0    0    0 -0.00000000000E+00 -0.00000000000E+00 -0.45593999997E+02  0.45594000000E+02  0.51100000000E-03 0. -1.
    9900012    2    1    2    0    0 -0.36855238783E+02  0.16391759346E+02  0.51152427464E+01  0.50528879147E+02  0.30000058654E+02 0.  0.
         12    1    1    2    0    0  0.36855238783E+02 -0.16391759346E+02 -0.51152427464E+01  0.40659120853E+02  0.00000000000E+00 0. -1.
         11    1    3    3    0    0 -0.61420629966E+01  0.14537099099E+02 -0.35153296108E+01  0.16168170292E+02  0.51100000000E-03 0. -1.
        -11    1    3    3    0    0 -0.51463444675E+01 -0.14090291428E+01  0.66278217130E+01  0.85087158505E+01  0.51100000000E-03 0.  1.
         12    1    3    3    0    0 -0.25566831319E+02  0.32636893898E+01  0.20027506441E+01  0.25851993004E+02  0.00000000000E+00 0. -1.
</event>
<event>
 7    1  0.3004200E-011  0.5052886E+02  0.7816164E-02  0.1300439E+00
        -11   -1    0    0    0    0  0.00000000000E+00  0.00000000000E+00  0.45593999997E+02  0.45594000000E+02  0.51100000000E-03 0.  1.
         11   -1    0    0    0    0 -0.00000000000E+00 -0.00000000000E+00 -0.45593999997E+02  0.45594000000E+02  0.51100000000E-03 0. -1.
    9900012    2    1    2    0    0 -0.15294693912E+02  0.36485466438E+02  0.93834076537E+01  0.50528864960E+02  0.30000015531E+02 0.  0.
         12    1    1    2    0    0  0.15294693912E+02 -0.36485466438E+02 -0.93834076537E+01  0.40659135040E+02  0.00000000000E+00 0. -1.
         11    1    3    3    0    0 -0.80632266574E+01  0.16635144840E+02 -0.87967129909E+01  0.20472562802E+02  0.51100000000E-03 0. -1.
        -11    1    3    3    0    0 -0.32053378315E+01  0.12708374011E+02  0.40463741465E+01  0.13716781861E+02  0.51100000000E-03 0.  1.
         12    1    3    3    0    0 -0.40261294227E+01  0.71419475869E+01  0.14133746498E+02  0.16339520297E+02  0.00000000000E+00 0. -1.
</event>
<event>
 7    1  0.3004200E-011  0.5052886E+02  0.7816164E-02  0.1300439E+00
        -11   -1    0    0    0    0  0.00000000000E+00  0.00000000000E+00  0.45593999997E+02  0.45594000000E+02  0.51100000000E-03 0. -1.
         11   -1    0    0    0    0 -0.00000000000E+00 -0.00000000000E+00 -0.45593999997E+02  0.45594000000E+02  0.51100000000E-03 0.  1.
    9900012    2    1    2    0    0 -0.63118091232E+01  0.39130517300E+02 -0.90625311708E+01  0.50528858471E+02  0.29999995810E+02 0.  0.
         12    1    1    2    0    0  0.63118091232E+01 -0.39130517300E+02  0.90625311708E+01  0.40659141529E+02  0.00000000000E+00 0. -1.
         11    1    3    3    0    0  0.31765249245E+01  0.34277156850E+02 -0.17786547671E+01  0.34469949309E+02  0.51100000000E-03 0. -1.
        -11    1    3    3    0    0  0.81515487505E+00  0.38677785025E+01 -0.17638082528E+01  0.43284186291E+01  0.51100000000E-03 0.  1.
         12    1    3    3    0    0 -0.10303488923E+02  0.98558194758E+00 -0.55200681509E+01  0.11730490533E+02  0.00000000000E+00 0. -1.
</event>
<event>
 7    1  0.3004200E-011  0.5052886E+02  0.7816164E-02  0.1300439E+00
        -11   -1    0    0    0    0  0.00000000000E+00  0.00000000000E+00  0.45593999997E+02  0.45594000000E+02  0.51100000000E-03 0. -1.
         11   -1    0    0    0    0 -0.00000000000E+00 -0.00000000000E+00 -0.45593999997E+02  0.45594000000E+02  0.51100000000E-03 0.  1.
    9900012    2    1    2    0    0  0.19152109063E+02  0.13321008308E+02 -0.33300346370E+02  0.50528860655E+02  0.30000002446E+02 0.  0.
         12    1    1    2    0    0 -0.19152109063E+02 -0.13321008308E+02  0.33300346370E+02  0.40659139345E+02  0.00000000000E+00 0. -1.
         11    1    3    3    0    0  0.25041207756E+01  0.61083188222E+00  0.27326572338E+01  0.37564813677E+01  0.51100000000E-03 0. -1.
        -11    1    3    3    0    0  0.17042169792E+02 -0.51332313378E-01 -0.21224545432E+02  0.27219836797E+02  0.51100000000E-03 0.  1.
        -12    1    3    3    0    0 -0.39418150434E+00  0.12761508740E+02 -0.14808458173E+02  0.19552542490E+02  0.00000000000E+00 0.  1.
</event>
<event>
 7    1  0.3004200E-011  0.5052887E+02  0.7816164E-02  0.1300439E+00
        -11   -1    0    0    0    0  0.00000000000E+00  0.00000000000E+00  0.45593999997E+02  0.45594000000E+02  0.51100000000E-03 0. -1.
         11   -1    0    0    0    0 -0.00000000000E+00 -0.00000000000E+00 -0.45593999997E+02  0.45594000000E+02  0.51100000000E-03 0.  1.
    9900012    2    1    2    0    0 -0.21893199086E+02  0.23751405355E+02 -0.24692570564E+02  0.50528874781E+02  0.30000045384E+02 0.  0.
         12    1    1    2    0    0  0.21893199086E+02 -0.23751405355E+02  0.24692570564E+02  0.40659125219E+02  0.00000000000E+00 0. -1.
         11    1    3    3    0    0  0.37662524588E+01  0.13888820635E+02 -0.62277065157E+01  0.15680188931E+02  0.51100000000E-03 0. -1.
        -11    1    3    3    0    0 -0.22492423971E+02  0.90021252006E+01 -0.10828229861E+02  0.26536728442E+02  0.51100000000E-03 0.  1.
         12    1    3    3    0    0 -0.31670275731E+01  0.86045951956E+00 -0.76366341870E+01  0.83119574072E+01  0.00000000000E+00 0. -1.
</event>
<event>
 7    1  0.3004200E-011  0.5052886E+02  0.7816164E-02  0.1300439E+00
        -11   -1    0    0    0    0  0.00000000000E+00  0.00000000000E+00  0.45593999997E+02  0.45594000000E+02  0.51100000000E-03 0.  1.
         11   -1    0    0    0    0 -0.00000000000E+00 -0.00000000000E+00 -0.45593999997E+02  0.45594000000E+02  0.51100000000E-03 0. -1.
    9900012    2    1    2    0    0 -0.47236721041E+01  0.37330461582E+02  0.15404194382E+02  0.50528860257E+02  0.30000001238E+02 0.  0.
         12    1    1    2    0    0  0.47236721041E+01 -0.37330461582E+02 -0.15404194382E+02  0.40659139743E+02  0.00000000000E+00 0. -1.
         11    1    3    3    0    0  0.35324480111E+01  0.22162052983E+01 -0.13893145448E+01  0.43954465121E+01  0.51100000000E-03 0. -1.
        -11    1    3    3    0    0 -0.15823097806E+02  0.29595104969E+02  0.13970812441E+02  0.36351399737E+02  0.51100000000E-03 0.  1.
        -12    1    3    3    0    0  0.75669776908E+01  0.55191513145E+01  0.28226964853E+01  0.97820140080E+01  0.00000000000E+00 0.  1.
</event>
<event>
 7    1  0.3004200E-011  0.5052892E+02  0.7816164E-02  0.1300439E+00
        -11   -1    0    0    0    0  0.00000000000E+00  0.00000000000E+00  0.45593999997E+02  0.45594000000E+02  0.51100000000E-03 0. -1.
         11   -1    0    0    0    0 -0.00000000000E+00 -0.00000000000E+00 -0.45593999997E+02  0.45594000000E+02  0.51100000000E-03 0.  1.
    9900012    2    1    2    0    0 -0.95754485820E+01  0.34923823773E+02 -0.18487773106E+02  0.50528924298E+02  0.30000195897E+02 0.  0.
         12    1    1    2    0    0  0.95754485820E+01 -0.34923823773E+02  0.18487773106E+02  0.40659075702E+02  0.00000000000E+00 0. -1.
         11    1    3    3    0    0 -0.27420720073E-01 -0.20555562921E+01 -0.43091057147E+01  0.47743539759E+01  0.51100000000E-03 0. -1.
        -11    1    3    3    0    0 -0.10581169401E+02  0.39418649759E+02 -0.12837852992E+02  0.42785529849E+02  0.51100000000E-03 0.  1.
        -12    1    3    3    0    0  0.10331415391E+01 -0.24392696942E+01 -0.13408143994E+01  0.29690404737E+01  0.00000000000E+00 0.  1.
</event>
<event>
 7    1  0.3004200E-011  0.5052886E+02  0.7816164E-02  0.1300439E+00
        -11   -1    0    0    0    0  0.00000000000E+00  0.00000000000E+00  0.45593999997E+02  0.45594000000E+02  0.51100000000E-03 0.  1.
         11   -1    0    0    0    0 -0.00000000000E+00 -0.00000000000E+00 -0.45593999997E+02  0.45594000000E+02  0.51100000000E-03 0. -1.
    9900012    2    1    2    0    0  0.27714484914E+02  0.17888562401E+02  0.23771242713E+02  0.50528864262E+02  0.30000013412E+02 0.  0.
         12    1    1    2    0    0 -0.27714484914E+02 -0.17888562401E+02 -0.23771242713E+02  0.40659135738E+02  0.00000000000E+00 0. -1.
         11    1    3    3    0    0 -0.27982576600E+01  0.49835210089E+01  0.65934277955E+01  0.87257674696E+01  0.51100000000E-03 0. -1.
        -11    1    3    3    0    0  0.31604952524E+02  0.10011912596E+02  0.11061596713E+02  0.34949539911E+02  0.51100000000E-03 0.  1.
        -12    1    3    3    0    0 -0.10922099502E+01  0.28931287960E+01  0.61162182048E+01  0.68535568820E+01  0.00000000000E+00 0.  1.
</event>
<event>
 7    1  0.3004200E-011  0.5052886E+02  0.7816164E-02  0.1300439E+00
        -11   -1    0    0    0    0  0.00000000000E+00  0.00000000000E+00  0.45593999997E+02  0.45594000000E+02  0.51100000000E-03 0.  1.
         11   -1    0    0    0    0 -0.00000000000E+00 -0.00000000000E+00 -0.45593999997E+02  0.45594000000E+02  0.51100000000E-03 0. -1.
    9900012    2    1    2    0    0  0.12551275654E+02 -0.29235430412E+02  0.25316408895E+02  0.50528862389E+02  0.30000007717E+02 0.  0.
         12    1    1    2    0    0 -0.12551275654E+02  0.29235430412E+02 -0.25316408895E+02  0.40659137611E+02  0.00000000000E+00 0. -1.
         11    1    3    3    0    0  0.91553231687E+01 -0.26533657780E+02  0.23801947476E+02  0.36802005943E+02  0.51100000000E-03 0.  1.
        -11    1    3    3    0    0 -0.71931315086E+00 -0.35112850171E+01 -0.48951055431E+01  0.60670085231E+01  0.51100000000E-03 0. -1.
         12    1    3    3    0    0  0.41152656365E+01  0.80951238466E+00  0.64095669625E+01  0.76598479232E+01  0.00000000000E+00 0. -1.
</event>
<event>
 7    1  0.3004200E-011  0.5052885E+02  0.7816164E-02  0.1300439E+00
        -11   -1    0    0    0    0  0.00000000000E+00  0.00000000000E+00  0.45593999997E+02  0.45594000000E+02  0.51100000000E-03 0. -1.
         11   -1    0    0    0    0 -0.00000000000E+00 -0.00000000000E+00 -0.45593999997E+02  0.45594000000E+02  0.51100000000E-03 0.  1.
    9900012    2    1    2    0    0 -0.13377173894E+02 -0.15031648557E+02 -0.35330822318E+02  0.50528852869E+02  0.29999978781E+02 0.  0.
         12    1    1    2    0    0  0.13377173894E+02  0.15031648557E+02  0.35330822318E+02  0.40659147131E+02  0.00000000000E+00 0. -1.
         11    1    3    3    0    0 -0.25536258092E+01  0.55018462553E+00  0.44519004032E+00  0.26498872294E+01  0.51100000000E-03 0. -1.
        -11    1    3    3    0    0 -0.10347255515E+02 -0.21747732678E+02 -0.33564688664E+02  0.41311232113E+02  0.51100000000E-03 0.  1.
        -12    1    3    3    0    0 -0.47629256962E+00  0.61658994953E+01 -0.22113236946E+01  0.65677335269E+01  0.00000000000E+00 0.  1.
</event>
<event>
 7    1  0.3004200E-011  0.5052886E+02  0.7816164E-02  0.1300439E+00
        -11   -1    0    0    0    0  0.00000000000E+00  0.00000000000E+00  0.45593999997E+02  0.45594000000E+02  0.51100000000E-03 0.  1.
         11   -1    0    0    0    0 -0.00000000000E+00 -0.00000000000E+00 -0.45593999997E+02  0.45594000000E+02  0.51100000000E-03 0. -1.
    9900012    2    1    2    0    0 -0.16842271601E+02 -0.25322594385E+02  0.26986478195E+02  0.50528857062E+02  0.29999991526E+02 0.  0.
         12    1    1    2    0    0  0.16842271601E+02  0.25322594385E+02 -0.26986478195E+02  0.40659142938E+02  0.00000000000E+00 0. -1.
         11    1    3    3    0    0 -0.17466095224E+01  0.82371739118E+00 -0.17214828173E+01  0.25870173010E+01  0.51100000000E-03 0. -1.
        -11    1    3    3    0    0 -0.81924062140E+01 -0.28635607622E+02  0.27434081164E+02  0.40493732269E+02  0.51100000000E-03 0.  1.
        -12    1    3    3    0    0 -0.69032558648E+01  0.24892958467E+01  0.12738798483E+01  0.74481074922E+01  0.00000000000E+00 0.  1.
</event>
<event>
 7    1  0.3004200E-011  0.5052888E+02  0.7816164E-02  0.1300439E+00
        -11   -1    0    0    0    0  0.00000000000E+00  0.00000000000E+00  0.45593999997E+02  0.45594000000E+02  0.51100000000E-03 0.  1.
         11   -1    0    0    0    0 -0.00000000000E+00 -0.00000000000E+00 -0.45593999997E+02  0.45594000000E+02  0.51100000000E-03 0. -1.
    9900012    2    1    2    0    0  0.15228084298E+02  0.22904174621E+02  0.29944426313E+02  0.50528875149E+02  0.30000046502E+02 0.  0.
         12    1    1    2    0    0 -0.15228084298E+02 -0.22904174621E+02 -0.29944426313E+02  0.40659124851E+02  0.00000000000E+00 0. -1.
         11    1    3    3    0    0 -0.12642591571E+00  0.49301298633E+01 -0.47156635867E+01  0.68234629994E+01  0.51100000000E-03 0. -1.
        -11    1    3    3    0    0  0.65244978985E+01  0.24144195837E+01  0.17844677336E+02  0.19152832800E+02  0.51100000000E-03 0.  1.
        -12    1    3    3    0    0  0.88300123150E+01  0.15559625175E+02  0.16815412563E+02  0.24552579350E+02  0.00000000000E+00 0.  1.
</event>
<event>
 7    1  0.3004200E-011  0.5052885E+02  0.7816164E-02  0.1300439E+00
        -11   -1    0    0    0    0  0.00000000000E+00  0.00000000000E+00  0.45593999997E+02  0.45594000000E+02  0.51100000000E-03 0.  1.
         11   -1    0    0    0    0 -0.00000000000E+00 -0.00000000000E+00 -0.45593999997E+02  0.45594000000E+02  0.51100000000E-03 0. -1.
    9900012    2    1    2    0    0  0.33639260668E+02  0.16315846994E+02  0.15979991520E+02  0.50528845429E+02  0.29999956167E+02 0.  0.
         12    1    1    2    0    0 -0.33639260668E+02 -0.16315846994E+02 -0.15979991520E+02  0.40659154571E+02  0.00000000000E+00 0. -1.
         11    1    3    3    0    0  0.14459527358E+02  0.63881395652E+01 -0.75249780817E+00  0.15825691509E+02  0.51100000000E-03 0. -1.
        -11    1    3    3    0    0 -0.14106950171E+01  0.93380477209E+01  0.78095230504E+01  0.12254707104E+02  0.51100000000E-03 0.  1.
        -12    1    3    3    0    0  0.20590428327E+02  0.58965970763E+00  0.89229662781E+01  0.22448446816E+02  0.00000000000E+00 0.  1.
</event>
<event>
 7    1  0.3004200E-011  0.5052886E+02  0.7816164E-02  0.1300439E+00
        -11   -1    0    0    0    0  0.00000000000E+00  0.00000000000E+00  0.45593999997E+02  0.45594000000E+02  0.51100000000E-03 0. -1.
         11   -1    0    0    0    0 -0.00000000000E+00 -0.00000000000E+00 -0.45593999997E+02  0.45594000000E+02  0.51100000000E-03 0.  1.
    9900012    2    1    2    0    0 -0.25025427231E+01  0.39315628524E+02  0.10059035927E+02  0.50528861174E+02  0.30000004024E+02 0.  0.
         12    1    1    2    0    0  0.25025427231E+01 -0.39315628524E+02 -0.10059035927E+02  0.40659138826E+02  0.00000000000E+00 0. -1.
         11    1    3    3    0    0 -0.25082996624E+01  0.13747738252E+02  0.11052544804E+02  0.17817144023E+02  0.51100000000E-03 0. -1.
        -11    1    3    3    0    0  0.75862864293E+01  0.18740565189E+01 -0.48996968225E+00  0.78296807198E+01  0.51100000000E-03 0.  1.
        -12    1    3    3    0    0 -0.75805294900E+01  0.23693833752E+02 -0.50353919379E+00  0.24882036431E+02  0.00000000000E+00 0.  1.
</event>
<event>
 7    1  0.3004200E-011  0.5052886E+02  0.7816164E-02  0.1300439E+00
        -11   -1    0    0    0    0  0.00000000000E+00  0.00000000000E+00  0.45593999997E+02  0.45594000000E+02  0.51100000000E-03 0.  1.
         11   -1    0    0    0    0 -0.00000000000E+00 -0.00000000000E+00 -0.45593999997E+02  0.45594000000E+02  0.51100000000E-03 0. -1.
    9900012    2    1    2    0    0 -0.90110183367E+01  0.20353415894E+02  0.34025077192E+02  0.50528857512E+02  0.29999992892E+02 0.  0.
         12    1    1    2    0    0  0.90110183367E+01 -0.20353415894E+02 -0.34025077192E+02  0.40659142488E+02  0.00000000000E+00 0. -1.
         11    1    3    3    0    0 -0.15199650858E+02  0.18835733433E+01  0.23913827131E+02  0.28398034493E+02  0.51100000000E-03 0. -1.
        -11    1    3    3    0    0  0.63288295038E+01  0.17421057956E+02  0.10016687440E+02  0.21068492369E+02  0.51100000000E-03 0.  1.
         12    1    3    3    0    0 -0.14019698204E+00  0.10487845948E+01  0.94562621258E-01  0.10623306497E+01  0.00000000000E+00 0. -1.
</event>
<event>
 7    1  0.3004200E-011  0.5052886E+02  0.7816164E-02  0.1300439E+00
        -11   -1    0    0    0    0  0.00000000000E+00  0.00000000000E+00  0.45593999997E+02  0.45594000000E+02  0.51100000000E-03 0.  1.
         11   -1    0    0    0    0 -0.00000000000E+00 -0.00000000000E+00 -0.45593999997E+02  0.45594000000E+02  0.51100000000E-03 0. -1.
    9900012    2    1    2    0    0  0.20787296742E+02  0.21732218583E+02  0.27363562183E+02  0.50528861227E+02  0.30000004187E+02 0.  0.
         12    1    1    2    0    0 -0.20787296742E+02 -0.21732218583E+02 -0.27363562183E+02  0.40659138773E+02  0.00000000000E+00 0. -1.
         11    1    3    3    0    0  0.23830680444E+02  0.21635936531E+02  0.16784351660E+02  0.36300544636E+02  0.51100000000E-03 0. -1.
        -11    1    3    3    0    0 -0.20837814285E+01  0.45164824439E+01  0.51113829249E+01  0.71321100927E+01  0.51100000000E-03 0.  1.
         12    1    3    3    0    0 -0.95960227332E+00 -0.44202003918E+01  0.54678275979E+01  0.70962064984E+01  0.00000000000E+00 0. -1.
</event>
<event>
 7    1  0.3004200E-011  0.5052885E+02  0.7816164E-02  0.1300439E+00
        -11   -1    0    0    0    0  0.00000000000E+00  0.00000000000E+00  0.45593999997E+02  0.45594000000E+02  0.51100000000E-03 0. -1.
         11   -1    0    0    0    0 -0.00000000000E+00 -0.00000000000E+00 -0.45593999997E+02  0.45594000000E+02  0.51100000000E-03 0.  1.
    9900012    2    1    2    0    0  0.91794318121E+01 -0.73168338800E+01 -0.38927730651E+02  0.50528852935E+02  0.29999978980E+02 0.  0.
         12    1    1    2    0    0 -0.91794318121E+01  0.73168338800E+01  0.38927730651E+02  0.40659147065E+02  0.00000000000E+00 0. -1.
         11    1    3    3    0    0 -0.43937114613E+01 -0.25709931642E+01 -0.42845534701E+01  0.66537286505E+01  0.51100000000E-03 0. -1.
        -11    1    3    3    0    0  0.11371494529E+02  0.27355330505E+01 -0.41655258798E+01  0.12415540061E+02  0.51100000000E-03 0.  1.
        -12    1    3    3    0    0  0.22016487442E+01 -0.74813737662E+01 -0.30477651301E+02  0.31459584223E+02  0.00000000000E+00 0.  1.
</event>
<event>
 7    1  0.3004200E-011  0.5052886E+02  0.7816164E-02  0.1300439E+00
        -11   -1    0    0    0    0  0.00000000000E+00  0.00000000000E+00  0.45593999997E+02  0.45594000000E+02  0.51100000000E-03 0.  1.
         11   -1    0    0    0    0 -0.00000000000E+00 -0.00000000000E+00 -0.45593999997E+02  0.45594000000E+02  0.51100000000E-03 0. -1.
    9900012    2    1    2    0    0 -0.16866383535E+02 -0.16825577317E+02  0.32948302631E+02  0.50528860906E+02  0.30000003210E+02 0.  0.
         12    1    1    2    0    0  0.16866383535E+02  0.16825577317E+02 -0.32948302631E+02  0.40659139094E+02  0.00000000000E+00 0. -1.
         11    1    3    3    0    0 -0.14465077149E+02  0.37725344033E+01  0.86475358999E+01  0.17269926177E+02  0.51100000000E-03 0. -1.
        -11    1    3    3    0    0  0.46764068089E+00 -0.88298157009E+01  0.16874299336E+02  0.19050624962E+02  0.51100000000E-03 0.  1.
         12    1    3    3    0    0 -0.28689470674E+01 -0.11768296019E+02  0.74264673953E+01  0.14208309768E+02  0.00000000000E+00 0. -1.
</event>
<event>
 7    1  0.3004200E-011  0.5052886E+02  0.7816164E-02  0.1300439E+00
        -11   -1    0    0    0    0  0.00000000000E+00  0.00000000000E+00  0.45593999997E+02  0.45594000000E+02  0.51100000000E-03 0.  1.
         11   -1    0    0    0    0 -0.00000000000E+00 -0.00000000000E+00 -0.45593999997E+02  0.45594000000E+02  0.51100000000E-03 0. -1.
    9900012    2    1    2    0    0  0.17973890962E+02 -0.35603995518E+02  0.79031720751E+01  0.50528863487E+02  0.30000011055E+02 0.  0.
         12    1    1    2    0    0 -0.17973890962E+02  0.35603995518E+02 -0.79031720751E+01  0.40659136513E+02  0.00000000000E+00 0. -1.
         11    1    3    3    0    0  0.24776275524E+01 -0.10392831495E+02  0.15248042278E+02  0.18618603018E+02  0.51100000000E-03 0. -1.
        -11    1    3    3    0    0  0.72171069781E+01 -0.18024774357E+02 -0.14680172075E+01  0.19471368687E+02  0.51100000000E-03 0.  1.
         12    1    3    3    0    0  0.82791564318E+01 -0.71863896660E+01 -0.58768529950E+01  0.12438891783E+02  0.00000000000E+00 0. -1.
</event>
<event>
 7    1  0.3004200E-011  0.5052887E+02  0.7816164E-02  0.1300439E+00
        -11   -1    0    0    0    0  0.00000000000E+00  0.00000000000E+00  0.45593999997E+02  0.45594000000E+02  0.51100000000E-03 0.  1.
         11   -1    0    0    0    0 -0.00000000000E+00 -0.00000000000E+00 -0.45593999997E+02  0.45594000000E+02  0.51100000000E-03 0. -1.
    9900012    2    1    2    0    0  0.22913615660E+02  0.33568872532E+02 -0.11234028891E+01  0.50528867942E+02  0.30000024596E+02 0.  0.
         12    1    1    2    0    0 -0.22913615660E+02 -0.33568872532E+02  0.11234028891E+01  0.40659132058E+02  0.00000000000E+00 0. -1.
         11    1    3    3    0    0 -0.15677914255E+01 -0.12379195274E+01 -0.13550909305E+01  0.24138530198E+01  0.51100000000E-03 0. -1.
        -11    1    3    3    0    0  0.27534848075E+02  0.34048482251E+02  0.30447331694E+01  0.43894617010E+02  0.51100000000E-03 0.  1.
        -12    1    3    3    0    0 -0.30534409899E+01  0.75830980853E+00 -0.28130451280E+01  0.42203979121E+01  0.00000000000E+00 0.  1.
</event>
<event>
 7    1  0.3004200E-011  0.5052888E+02  0.7816164E-02  0.1300439E+00
        -11   -1    0    0    0    0  0.00000000000E+00  0.00000000000E+00  0.45593999997E+02  0.45594000000E+02  0.51100000000E-03 0. -1.
         11   -1    0    0    0    0 -0.00000000000E+00 -0.00000000000E+00 -0.45593999997E+02  0.45594000000E+02  0.51100000000E-03 0.  1.
    9900012    2    1    2    0    0 -0.19925083810E+02  0.17406432744E+02  0.30873473607E+02  0.50528877552E+02  0.30000053807E+02 0.  0.
         12    1    1    2    0    0  0.19925083810E+02 -0.17406432744E+02 -0.30873473607E+02  0.40659122448E+02  0.00000000000E+00 0. -1.
         11    1    3    3    0    0 -0.21840214552E+01  0.83932442271E+01  0.11124842909E+02  0.14105978462E+02  0.51100000000E-03 0. -1.
        -11    1    3    3    0    0 -0.19788021793E+02 -0.14809646300E+01  0.11654504886E+02  0.23012747492E+02  0.51100000000E-03 0.  1.
        -12    1    3    3    0    0  0.20469594387E+01  0.10494153147E+02  0.80941258118E+01  0.13410151598E+02  0.00000000000E+00 0.  1.
</event>
<event>
 7    1  0.3004200E-011  0.5052886E+02  0.7816164E-02  0.1300439E+00
        -11   -1    0    0    0    0  0.00000000000E+00  0.00000000000E+00  0.45593999997E+02  0.45594000000E+02  0.51100000000E-03 0. -1.
         11   -1    0    0    0    0 -0.00000000000E+00 -0.00000000000E+00 -0.45593999997E+02  0.45594000000E+02  0.51100000000E-03 0.  1.
    9900012    2    1    2    0    0  0.31946308254E+02  0.25119284503E+02 -0.12731018764E+01  0.50528857690E+02  0.29999993433E+02 0.  0.
         12    1    1    2    0    0 -0.31946308254E+02 -0.25119284503E+02  0.12731018764E+01  0.40659142310E+02  0.00000000000E+00 0. -1.
         11    1    3    3    0    0  0.14158492344E+02  0.11756903285E+00 -0.16055280123E+01  0.14249717485E+02  0.51100000000E-03 0. -1.
        -11    1    3    3    0    0  0.15802332387E+02  0.28271066246E+02  0.96516579606E+00  0.32402136362E+02  0.51100000000E-03 0.  1.
        -12    1    3    3    0    0  0.19854835226E+01 -0.32693507758E+01 -0.63273966018E+00  0.38770038421E+01  0.00000000000E+00 0.  1.
</event>
<event>
 7    1  0.3004200E-011  0.5052886E+02  0.7816164E-02  0.1300439E+00
        -11   -1    0    0    0    0  0.00000000000E+00  0.00000000000E+00  0.45593999997E+02  0.45594000000E+02  0.51100000000E-03 0.  1.
         11   -1    0    0    0    0 -0.00000000000E+00 -0.00000000000E+00 -0.45593999997E+02  0.45594000000E+02  0.51100000000E-03 0. -1.
    9900012    2    1    2    0    0 -0.26796838116E+02 -0.20625808137E+02 -0.22575903873E+02  0.50528856747E+02  0.29999990570E+02 0.  0.
         12    1    1    2    0    0  0.26796838116E+02  0.20625808137E+02  0.22575903873E+02  0.40659143253E+02  0.00000000000E+00 0. -1.
         11    1    3    3    0    0 -0.32041584067E+01 -0.61623119429E+01 -0.17745934973E+02  0.19056729203E+02  0.51100000000E-03 0. -1.
        -11    1    3    3    0    0 -0.67194002448E+01 -0.68868866759E+01  0.46515772505E+01  0.10687222226E+02  0.51100000000E-03 0.  1.
         12    1    3    3    0    0 -0.16873279465E+02 -0.75766095185E+01 -0.94815461503E+01  0.20784905318E+02  0.00000000000E+00 0. -1.
</event>
<event>
 7    1  0.3151106E-011  0.5052887E+02  0.7816164E-02  0.1300439E+00
        -11   -1    0    0    0    0  0.00000000000E+00  0.00000000000E+00  0.45593999997E+02  0.45594000000E+02  0.51100000000E-03 0. -1.
         11   -1    0    0    0    0 -0.00000000000E+00 -0.00000000000E+00 -0.45593999997E+02  0.45594000000E+02  0.51100000000E-03 0.  1.
    9900012    2    1    2    0    0 -0.28260342229E+02 -0.25214788116E+02  0.14789603245E+02  0.50528870069E+02  0.30000031061E+02 0.  0.
         12    1    1    2    0    0  0.28260342229E+02  0.25214788116E+02 -0.14789603245E+02  0.40659129931E+02  0.00000000000E+00 0. -1.
         11    1    3    3    0    0  0.98151422786E+00 -0.11926964898E+02 -0.13679577060E+01  0.12045213589E+02  0.51100000000E-03 0.  1.
        -11    1    3    3    0    0 -0.10069841641E+02 -0.27587030221E+00  0.10666136005E+02  0.14671205562E+02  0.51100000000E-03 0. -1.
        -12    1    3    3    0    0 -0.19172014815E+02 -0.13011952917E+02  0.54914249455E+01  0.23812450918E+02  0.00000000000E+00 0.  1.
</event>
<event>
 7    1  0.3004200E-011  0.5052886E+02  0.7816164E-02  0.1300439E+00
        -11   -1    0    0    0    0  0.00000000000E+00  0.00000000000E+00  0.45593999997E+02  0.45594000000E+02  0.51100000000E-03 0. -1.
         11   -1    0    0    0    0 -0.00000000000E+00 -0.00000000000E+00 -0.45593999997E+02  0.45594000000E+02  0.51100000000E-03 0.  1.
    9900012    2    1    2    0    0  0.15378679334E+02 -0.36360635352E+02  0.97245177401E+01  0.50528858020E+02  0.29999994438E+02 0.  0.
         12    1    1    2    0    0 -0.15378679334E+02  0.36360635352E+02 -0.97245177401E+01  0.40659141980E+02  0.00000000000E+00 0. -1.
         11    1    3    3    0    0  0.39114904203E+01  0.13521630774E+01  0.33665756075E+01  0.53349727158E+01  0.51100000000E-03 0. -1.
        -11    1    3    3    0    0  0.58401900346E+00 -0.32374477409E+02  0.67063823087E+01  0.33066953739E+02  0.51100000000E-03 0.  1.
        -12    1    3    3    0    0  0.10883169910E+02 -0.53383210210E+01 -0.34844017610E+00  0.12126931565E+02  0.00000000000E+00 0.  1.
</event>
<event>
 7    1  0.3004200E-011  0.5052885E+02  0.7816164E-02  0.1300439E+00
        -11   -1    0    0    0    0  0.00000000000E+00  0.00000000000E+00  0.45593999997E+02  0.45594000000E+02  0.51100000000E-03 0.  1.
         11   -1    0    0    0    0 -0.00000000000E+00 -0.00000000000E+00 -0.45593999997E+02  0.45594000000E+02  0.51100000000E-03 0. -1.
    9900012    2    1    2    0    0  0.26536506774E+01 -0.12292389521E+02  0.38665507964E+02  0.50528853327E+02  0.29999980174E+02 0.  0.
         12    1    1    2    0    0 -0.26536506774E+01  0.12292389521E+02 -0.38665507964E+02  0.40659146673E+02  0.00000000000E+00 0. -1.
         11    1    3    3    0    0 -0.84849436909E+01 -0.74819870929E+01  0.45567007392E+01  0.12195815765E+02  0.51100000000E-03 0. -1.
        -11    1    3    3    0    0  0.42670800042E+01 -0.55224277679E+01  0.28763999737E+02  0.29598528027E+02  0.51100000000E-03 0.  1.
        -12    1    3    3    0    0  0.68715143641E+01  0.71202533972E+00  0.53448074876E+01  0.87345095352E+01  0.00000000000E+00 0.  1.
</event>
<event>
 7    1  0.3004200E-011  0.5052882E+02  0.7816164E-02  0.1300439E+00
        -11   -1    0    0    0    0  0.00000000000E+00  0.00000000000E+00  0.45593999997E+02  0.45594000000E+02  0.51100000000E-03 0.  1.
         11   -1    0    0    0    0 -0.00000000000E+00 -0.00000000000E+00 -0.45593999997E+02  0.45594000000E+02  0.51100000000E-03 0. -1.
    9900012    2    1    2    0    0 -0.19415702970E+02  0.17432566665E+02  0.31181809856E+02  0.50528816925E+02  0.29999869526E+02 0.  0.
         12    1    1    2    0    0  0.19415702970E+02 -0.17432566665E+02 -0.31181809856E+02  0.40659183075E+02  0.00000000000E+00 0. -1.
         11    1    3    3    0    0  0.41552244085E+00  0.12916928875E+02  0.72239668024E+00  0.12943784906E+02  0.51100000000E-03 0. -1.
        -11    1    3    3    0    0 -0.19358275893E+02  0.55382363880E+01  0.25456737745E+02  0.32457054776E+02  0.51100000000E-03 0.  1.
         12    1    3    3    0    0 -0.47294951742E+00 -0.10225985980E+01  0.50026754309E+01  0.51279772431E+01  0.00000000000E+00 0. -1.
</event>
<event>
 7    1  0.3004200E-011  0.5052886E+02  0.7816164E-02  0.1300439E+00
        -11   -1    0    0    0    0  0.00000000000E+00  0.00000000000E+00  0.45593999997E+02  0.45594000000E+02  0.51100000000E-03 0. -1.
         11   -1    0    0    0    0 -0.00000000000E+00 -0.00000000000E+00 -0.45593999997E+02  0.45594000000E+02  0.51100000000E-03 0.  1.
    9900012    2    1    2    0    0 -0.13079934196E+02  0.16720920380E+02 -0.34676960683E+02  0.50528862538E+02  0.30000008170E+02 0.  0.
         12    1    1    2    0    0  0.13079934196E+02 -0.16720920380E+02  0.34676960683E+02  0.40659137462E+02  0.00000000000E+00 0. -1.
         11    1    3    3    0    0  0.28728024428E+01  0.14342465772E+02 -0.16752424597E+02  0.22239672849E+02  0.51100000000E-03 0. -1.
        -11    1    3    3    0    0 -0.11024775717E+02 -0.80936684247E-01 -0.19638047678E+02  0.22521215491E+02  0.51100000000E-03 0.  1.
         12    1    3    3    0    0 -0.49279609219E+01  0.24593912926E+01  0.17135115909E+01  0.57679741981E+01  0.00000000000E+00 0. -1.
</event>
<event>
 7    1  0.3004200E-011  0.5052886E+02  0.7816164E-02  0.1300439E+00
        -11   -1    0    0    0    0  0.00000000000E+00  0.00000000000E+00  0.45593999997E+02  0.45594000000E+02  0.51100000000E-03 0. -1.
         11   -1    0    0    0    0 -0.00000000000E+00 -0.00000000000E+00 -0.45593999997E+02  0.45594000000E+02  0.51100000000E-03 0.  1.
    9900012    2    1    2    0    0  0.35808126533E+02  0.16414527652E+02 -0.10075049541E+02  0.50528864900E+02  0.30000015349E+02 0.  0.
         12    1    1    2    0    0 -0.35808126533E+02 -0.16414527652E+02  0.10075049541E+02  0.40659135100E+02  0.00000000000E+00 0. -1.
         11    1    3    3    0    0  0.10734934797E+02  0.29492185319E+01  0.78141318680E+01  0.13601373907E+02  0.51100000000E-03 0. -1.
        -11    1    3    3    0    0  0.19857920917E+02  0.27053127774E+01 -0.13618004677E+02  0.24230266033E+02  0.51100000000E-03 0.  1.
        -12    1    3    3    0    0  0.52152708193E+01  0.10759996343E+02 -0.42711767324E+01  0.12697224960E+02  0.00000000000E+00 0.  1.
</event>
<event>
 7    1  0.3004200E-011  0.5052886E+02  0.7816164E-02  0.1300439E+00
        -11   -1    0    0    0    0  0.00000000000E+00  0.00000000000E+00  0.45593999997E+02  0.45594000000E+02  0.51100000000E-03 0.  1.
         11   -1    0    0    0    0 -0.00000000000E+00 -0.00000000000E+00 -0.45593999997E+02  0.45594000000E+02  0.51100000000E-03 0. -1.
    9900012    2    1    2    0    0 -0.12954742371E+02 -0.49103260988E+01  0.38226023960E+02  0.50528861297E+02  0.30000004397E+02 0.  0.
         12    1    1    2    0    0  0.12954742371E+02  0.49103260988E+01 -0.38226023960E+02  0.40659138703E+02  0.00000000000E+00 0. -1.
         11    1    3    3    0    0 -0.13634747941E+02 -0.76093099287E+01  0.59447707927E+01  0.16707730218E+02  0.51100000000E-03 0. -1.
        -11    1    3    3    0    0  0.11285610646E+01 -0.12302721429E+01  0.27776845886E+02  0.27826972297E+02  0.51100000000E-03 0.  1.
        -12    1    3    3    0    0 -0.44855549439E+00  0.39292559728E+01  0.45044072820E+01  0.59941587811E+01  0.00000000000E+00 0.  1.
</event>
<event>
 7    1  0.3004200E-011  0.5052887E+02  0.7816164E-02  0.1300439E+00
        -11   -1    0    0    0    0  0.00000000000E+00  0.00000000000E+00  0.45593999997E+02  0.45594000000E+02  0.51100000000E-03 0.  1.
         11   -1    0    0    0    0 -0.00000000000E+00 -0.00000000000E+00 -0.45593999997E+02  0.45594000000E+02  0.51100000000E-03 0. -1.
    9900012    2    1    2    0    0 -0.16300205952E+01  0.38657469435E+02  0.12494326550E+02  0.50528866879E+02  0.30000021364E+02 0.  0.
         12    1    1    2    0    0  0.16300205952E+01 -0.38657469435E+02 -0.12494326550E+02  0.40659133121E+02  0.00000000000E+00 0. -1.
         11    1    3    3    0    0 -0.40206653072E+01  0.15642541678E+02 -0.82935492119E+01  0.18155930669E+02  0.51100000000E-03 0. -1.
        -11    1    3    3    0    0  0.49480280105E+01  0.11562191633E+02  0.74907630814E+01  0.14638264527E+02  0.51100000000E-03 0.  1.
         12    1    3    3    0    0 -0.25573832985E+01  0.11452736123E+02  0.13297112681E+02  0.17734671683E+02  0.00000000000E+00 0. -1.
</event>
<event>
 7    1  0.3004200E-011  0.5052886E+02  0.7816164E-02  0.1300439E+00
        -11   -1    0    0    0    0  0.00000000000E+00  0.00000000000E+00  0.45593999997E+02  0.45594000000E+02  0.51100000000E-03 0. -1.
         11   -1    0    0    0    0 -0.00000000000E+00 -0.00000000000E+00 -0.45593999997E+02  0.45594000000E+02  0.51100000000E-03 0.  1.
    9900012    2    1    2    0    0 -0.11286423907E+02  0.45566434409E+01 -0.38794576546E+02  0.50528861625E+02  0.30000005395E+02 0.  0.
         12    1    1    2    0    0  0.11286423907E+02 -0.45566434409E+01  0.38794576546E+02  0.40659138375E+02  0.00000000000E+00 0. -1.
         11    1    3    3    0    0  0.12191286416E+01  0.13605130409E+02 -0.11771730499E+02  0.18032179216E+02  0.51100000000E-03 0. -1.
        -11    1    3    3    0    0 -0.92129632033E+01 -0.99278348636E+00 -0.12394442422E+02  0.15475351798E+02  0.51100000000E-03 0.  1.
         12    1    3    3    0    0 -0.32925893453E+01 -0.80557034815E+01 -0.14628403624E+02  0.17021330611E+02  0.00000000000E+00 0. -1.
</event>
<event>
 7    1  0.3004200E-011  0.5052887E+02  0.7816164E-02  0.1300439E+00
        -11   -1    0    0    0    0  0.00000000000E+00  0.00000000000E+00  0.45593999997E+02  0.45594000000E+02  0.51100000000E-03 0.  1.
         11   -1    0    0    0    0 -0.00000000000E+00 -0.00000000000E+00 -0.45593999997E+02  0.45594000000E+02  0.51100000000E-03 0. -1.
    9900012    2    1    2    0    0  0.31567212896E+02 -0.46930817095E+01  0.25192276024E+02  0.50528871662E+02  0.30000035903E+02 0.  0.
         12    1    1    2    0    0 -0.31567212896E+02  0.46930817095E+01 -0.25192276024E+02  0.40659128338E+02  0.00000000000E+00 0. -1.
         11    1    3    3    0    0  0.11465156809E+02  0.82062484462E+01  0.11585244393E+02  0.18248567673E+02  0.51100000000E-03 0. -1.
        -11    1    3    3    0    0  0.47069266970E+01 -0.13014366351E+02  0.56285766730E+01  0.14940206360E+02  0.51100000000E-03 0.  1.
        -12    1    3    3    0    0  0.15395129390E+02  0.11503619537E+00  0.79784549581E+01  0.17340097629E+02  0.00000000000E+00 0.  1.
</event>
<event>
 7    1  0.3004200E-011  0.5052884E+02  0.7816164E-02  0.1300439E+00
        -11   -1    0    0    0    0  0.00000000000E+00  0.00000000000E+00  0.45593999997E+02  0.45594000000E+02  0.51100000000E-03 0.  1.
         11   -1    0    0    0    0 -0.00000000000E+00 -0.00000000000E+00 -0.45593999997E+02  0.45594000000E+02  0.51100000000E-03 0. -1.
    9900012    2    1    2    0    0 -0.31678248771E+02  0.24585504794E+02  0.67237556652E+01  0.50528838899E+02  0.29999936317E+02 0.  0.
         12    1    1    2    0    0  0.31678248771E+02 -0.24585504794E+02 -0.67237556652E+01  0.40659161101E+02  0.00000000000E+00 0. -1.
         11    1    3    3    0    0 -0.19187401410E+02  0.24747736043E+00 -0.13307148810E+00  0.19189458725E+02  0.51100000000E-03 0. -1.
        -11    1    3    3    0    0 -0.10636387706E+02  0.24487006566E+02  0.27596061496E+01  0.26839554027E+02  0.51100000000E-03 0.  1.
        -12    1    3    3    0    0 -0.18544596552E+01 -0.14897913233E+00  0.40972210037E+01  0.44998261464E+01  0.00000000000E+00 0.  1.
</event>
<event>
 7    1  0.3004200E-011  0.5052885E+02  0.7816164E-02  0.1300439E+00
        -11   -1    0    0    0    0  0.00000000000E+00  0.00000000000E+00  0.45593999997E+02  0.45594000000E+02  0.51100000000E-03 0.  1.
         11   -1    0    0    0    0 -0.00000000000E+00 -0.00000000000E+00 -0.45593999997E+02  0.45594000000E+02  0.51100000000E-03 0. -1.
    9900012    2    1    2    0    0 -0.28448130877E+02  0.28935064326E+02 -0.25753189355E+01  0.50528851392E+02  0.29999974291E+02 0.  0.
         12    1    1    2    0    0  0.28448130877E+02 -0.28935064326E+02  0.25753189355E+01  0.40659148608E+02  0.00000000000E+00 0. -1.
         11    1    3    3    0    0 -0.10444327732E+02  0.17406729174E+02 -0.68237673805E+01  0.21415928741E+02  0.51100000000E-03 0. -1.
        -11    1    3    3    0    0 -0.17993396079E+02  0.15366556265E+01  0.58733101862E+01  0.18989981195E+02  0.51100000000E-03 0.  1.
        -12    1    3    3    0    0 -0.10407065162E-01  0.99916795254E+01 -0.16248617412E+01  0.10122941456E+02  0.00000000000E+00 0.  1.
</event>
<event>
 7    1  0.3004200E-011  0.5052891E+02  0.7816164E-02  0.1300439E+00
        -11   -1    0    0    0    0  0.00000000000E+00  0.00000000000E+00  0.45593999997E+02  0.45594000000E+02  0.51100000000E-03 0.  1.
         11   -1    0    0    0    0 -0.00000000000E+00 -0.00000000000E+00 -0.45593999997E+02  0.45594000000E+02  0.51100000000E-03 0. -1.
    9900012    2    1    2    0    0 -0.33420146354E+02 -0.22694339442E+02  0.46068136533E+01  0.50528905604E+02  0.30000139075E+02 0.  0.
         12    1    1    2    0    0  0.33420146354E+02  0.22694339442E+02 -0.46068136533E+01  0.40659094396E+02  0.00000000000E+00 0. -1.
         11    1    3    3    0    0  0.10868090979E+00 -0.12356557337E+02  0.17214189070E+01  0.12476361813E+02  0.51100000000E-03 0. -1.
        -11    1    3    3    0    0 -0.21813136199E+02 -0.65720342763E+01  0.87706209481E+01  0.24411643481E+02  0.51100000000E-03 0.  1.
         12    1    3    3    0    0 -0.11715691065E+02 -0.37657478280E+01 -0.58852262018E+01  0.13640900311E+02  0.00000000000E+00 0. -1.
</event>
<event>
 7    1  0.3004200E-011  0.5052885E+02  0.7816164E-02  0.1300439E+00
        -11   -1    0    0    0    0  0.00000000000E+00  0.00000000000E+00  0.45593999997E+02  0.45594000000E+02  0.51100000000E-03 0.  1.
         11   -1    0    0    0    0 -0.00000000000E+00 -0.00000000000E+00 -0.45593999997E+02  0.45594000000E+02  0.51100000000E-03 0. -1.
    9900012    2    1    2    0    0 -0.10143236034E+02 -0.43851356095E+01  0.39128652707E+02  0.50528854482E+02  0.29999983685E+02 0.  0.
         12    1    1    2    0    0  0.10143236034E+02  0.43851356095E+01 -0.39128652707E+02  0.40659145518E+02  0.00000000000E+00 0. -1.
         11    1    3    3    0    0 -0.11810866352E+02 -0.12512524999E+02  0.31991805203E+02  0.36325410476E+02  0.51100000000E-03 0. -1.
        -11    1    3    3    0    0  0.48082998599E+01  0.53117425356E+01  0.69491773128E+01  0.99812535231E+01  0.51100000000E-03 0.  1.
        -12    1    3    3    0    0 -0.31406695420E+01  0.28156468541E+01  0.18767019149E+00  0.42221904836E+01  0.00000000000E+00 0.  1.
</event>
<event>
 7    1  0.3004200E-011  0.5052886E+02  0.7816164E-02  0.1300439E+00
        -11   -1    0    0    0    0  0.00000000000E+00  0.00000000000E+00  0.45593999997E+02  0.45594000000E+02  0.51100000000E-03 0.  1.
         11   -1    0    0    0    0 -0.00000000000E+00 -0.00000000000E+00 -0.45593999997E+02  0.45594000000E+02  0.51100000000E-03 0. -1.
    9900012    2    1    2    0    0  0.25305456717E+02  0.11033627234E+02  0.29850605104E+02  0.50528859642E+02  0.29999999367E+02 0.  0.
         12    1    1    2    0    0 -0.25305456717E+02 -0.11033627234E+02 -0.29850605104E+02  0.40659140358E+02  0.00000000000E+00 0. -1.
         11    1    3    3    0    0  0.22147624479E+02  0.13527945985E+02  0.16765511891E+02  0.30896682376E+02  0.51100000000E-03 0. -1.
        -11    1    3    3    0    0 -0.27675136029E+01  0.29175418718E+01  0.10431842450E+02  0.11180094780E+02  0.51100000000E-03 0.  1.
        -12    1    3    3    0    0  0.59253458408E+01 -0.54118606227E+01  0.26532507627E+01  0.84520824855E+01  0.00000000000E+00 0.  1.
</event>
<event>
 7    1  0.3004200E-011  0.5052897E+02  0.7816164E-02  0.1300438E+00
        -11   -1    0    0    0    0  0.00000000000E+00  0.00000000000E+00  0.45593999997E+02  0.45594000000E+02  0.51100000000E-03 0. -1.
         11   -1    0    0    0    0 -0.00000000000E+00 -0.00000000000E+00 -0.45593999997E+02  0.45594000000E+02  0.51100000000E-03 0.  1.
    9900012    2    1    2    0    0 -0.37503920198E+02 -0.10229922476E+02 -0.11914741463E+02  0.50528973841E+02  0.30000346486E+02 0.  0.
         12    1    1    2    0    0  0.37503920198E+02  0.10229922476E+02  0.11914741463E+02  0.40659026159E+02  0.00000000000E+00 0. -1.
         11    1    3    3    0    0 -0.13730399081E+02  0.30086526152E+01  0.68000302006E+01  0.15614616885E+02  0.51100000000E-03 0. -1.
        -11    1    3    3    0    0 -0.18212187663E+02 -0.52300119743E+01 -0.84187738379E+01  0.20734332830E+02  0.51100000000E-03 0.  1.
         12    1    3    3    0    0 -0.55613334538E+01 -0.80085631166E+01 -0.10295997826E+02  0.14180024126E+02  0.00000000000E+00 0. -1.
</event>
<event>
 7    1  0.3004200E-011  0.5052886E+02  0.7816164E-02  0.1300439E+00
        -11   -1    0    0    0    0  0.00000000000E+00  0.00000000000E+00  0.45593999997E+02  0.45594000000E+02  0.51100000000E-03 0.  1.
         11   -1    0    0    0    0 -0.00000000000E+00 -0.00000000000E+00 -0.45593999997E+02  0.45594000000E+02  0.51100000000E-03 0. -1.
    9900012    2    1    2    0    0 -0.24648409990E+02  0.31478984245E+02  0.73956346237E+01  0.50528856187E+02  0.29999988866E+02 0.  0.
         12    1    1    2    0    0  0.24648409990E+02 -0.31478984245E+02 -0.73956346237E+01  0.40659143813E+02  0.00000000000E+00 0. -1.
         11    1    3    3    0    0  0.16089711568E+01  0.11800443959E+01 -0.46390473242E+01  0.50499557718E+01  0.51100000000E-03 0. -1.
        -11    1    3    3    0    0 -0.15043946331E+02  0.56007973590E+01  0.83827169721E+01  0.18109643739E+02  0.51100000000E-03 0.  1.
        -12    1    3    3    0    0 -0.11213434816E+02  0.24698142490E+02  0.36519649759E+01  0.27369256676E+02  0.00000000000E+00 0.  1.
</event>
<event>
 7    1  0.3004200E-011  0.5052884E+02  0.7816164E-02  0.1300439E+00
        -11   -1    0    0    0    0  0.00000000000E+00  0.00000000000E+00  0.45593999997E+02  0.45594000000E+02  0.51100000000E-03 0. -1.
         11   -1    0    0    0    0 -0.00000000000E+00 -0.00000000000E+00 -0.45593999997E+02  0.45594000000E+02  0.51100000000E-03 0.  1.
    9900012    2    1    2    0    0 -0.38863206400E+02  0.59942917623E+01 -0.10338619355E+02  0.50528838725E+02  0.29999935788E+02 0.  0.
         12    1    1    2    0    0  0.38863206400E+02 -0.59942917623E+01  0.10338619355E+02  0.40659161275E+02  0.00000000000E+00 0. -1.
         11    1    3    3    0    0 -0.51458426791E+00 -0.62194409404E+01 -0.10767737177E+01  0.63329049006E+01  0.51100000000E-03 0. -1.
        -11    1    3    3    0    0 -0.19628744657E+02  0.12518653402E+02 -0.10271915262E+02  0.25446346363E+02  0.51100000000E-03 0.  1.
         12    1    3    3    0    0 -0.18719877475E+02 -0.30492069948E+00  0.10100696243E+01  0.18749587461E+02  0.00000000000E+00 0. -1.
</event>
<event>
 7    1  0.3004200E-011  0.5052888E+02  0.7816164E-02  0.1300439E+00
        -11   -1    0    0    0    0  0.00000000000E+00  0.00000000000E+00  0.45593999997E+02  0.45594000000E+02  0.51100000000E-03 0. -1.
         11   -1    0    0    0    0 -0.00000000000E+00 -0.00000000000E+00 -0.45593999997E+02  0.45594000000E+02  0.51100000000E-03 0.  1.
    9900012    2    1    2    0    0 -0.17266856911E+02 -0.91771850514E+01  0.35648268026E+02  0.50528879421E+02  0.30000059487E+02 0.  0.
         12    1    1    2    0    0  0.17266856911E+02  0.91771850514E+01 -0.35648268026E+02  0.40659120579E+02  0.00000000000E+00 0. -1.
         11    1    3    3    0    0 -0.43566137930E+01 -0.63779156030E+01  0.31007109932E+02  0.31954635936E+02  0.51100000000E-03 0. -1.
        -11    1    3    3    0    0 -0.66679800879E+01 -0.58962808222E+01 -0.18043317799E+01  0.90820537006E+01  0.51100000000E-03 0.  1.
        -12    1    3    3    0    0 -0.62422630304E+01  0.30970113738E+01  0.64454898733E+01  0.94921897841E+01  0.00000000000E+00 0.  1.
</event>
<event>
 7    1  0.3004200E-011  0.5052886E+02  0.7816164E-02  0.1300439E+00
        -11   -1    0    0    0    0  0.00000000000E+00  0.00000000000E+00  0.45593999997E+02  0.45594000000E+02  0.51100000000E-03 0.  1.
         11   -1    0    0    0    0 -0.00000000000E+00 -0.00000000000E+00 -0.45593999997E+02  0.45594000000E+02  0.51100000000E-03 0. -1.
    9900012    2    1    2    0    0 -0.18935109613E+02  0.90750107346E+01  0.34817694119E+02  0.50528855645E+02  0.29999987218E+02 0.  0.
         12    1    1    2    0    0  0.18935109613E+02 -0.90750107346E+01 -0.34817694119E+02  0.40659144355E+02  0.00000000000E+00 0. -1.
         11    1    3    3    0    0 -0.75221171034E+01  0.77446557423E+01  0.28397850946E+01  0.11163615809E+02  0.51100000000E-03 0. -1.
        -11    1    3    3    0    0 -0.26797756937E+01 -0.75446787268E+01  0.21992460717E+02  0.23404523142E+02  0.51100000000E-03 0.  1.
        -12    1    3    3    0    0 -0.87332168163E+01  0.88750337191E+01  0.99854483083E+01  0.15960716694E+02  0.00000000000E+00 0.  1.
</event>
<event>
 7    1  0.3004200E-011  0.5052890E+02  0.7816164E-02  0.1300439E+00
        -11   -1    0    0    0    0  0.00000000000E+00  0.00000000000E+00  0.45593999997E+02  0.45594000000E+02  0.51100000000E-03 0.  1.
         11   -1    0    0    0    0 -0.00000000000E+00 -0.00000000000E+00 -0.45593999997E+02  0.45594000000E+02  0.51100000000E-03 0. -1.
    9900012    2    1    2    0    0 -0.31489520592E+02  0.24842247463E+02  0.66660004487E+01  0.50528896123E+02  0.30000110254E+02 0.  0.
         12    1    1    2    0    0  0.31489520592E+02 -0.24842247463E+02 -0.66660004487E+01  0.40659103877E+02  0.00000000000E+00 0. -1.
         11    1    3    3    0    0 -0.22286901400E+02  0.26810195651E+02  0.31590472285E+01  0.35006744272E+02  0.51100000000E-03 0. -1.
        -11    1    3    3    0    0 -0.79434082478E+00 -0.14797639546E+00  0.63961399756E+01  0.64469745779E+01  0.51100000000E-03 0.  1.
         12    1    3    3    0    0 -0.84082783671E+01 -0.18199717927E+01 -0.28891867554E+01  0.90751772727E+01  0.00000000000E+00 0. -1.
</event>
<event>
 7    1  0.3004200E-011  0.5052886E+02  0.7816164E-02  0.1300439E+00
        -11   -1    0    0    0    0  0.00000000000E+00  0.00000000000E+00  0.45593999997E+02  0.45594000000E+02  0.51100000000E-03 0. -1.
         11   -1    0    0    0    0 -0.00000000000E+00 -0.00000000000E+00 -0.45593999997E+02  0.45594000000E+02  0.51100000000E-03 0.  1.
    9900012    2    1    2    0    0 -0.39592229147E+01 -0.31651846590E+02 -0.25212109386E+02  0.50528864515E+02  0.30000014181E+02 0.  0.
         12    1    1    2    0    0  0.39592229147E+01  0.31651846590E+02  0.25212109386E+02  0.40659135485E+02  0.00000000000E+00 0. -1.
         11    1    3    3    0    0  0.26489203925E+01 -0.31931892871E+01 -0.15557503950E+02  0.16101216305E+02  0.51100000000E-03 0. -1.
        -11    1    3    3    0    0 -0.70210279040E+01 -0.23156335806E+02 -0.93658080684E+00  0.24215447645E+02  0.51100000000E-03 0.  1.
        -12    1    3    3    0    0  0.41288459683E+00 -0.53023214967E+01 -0.87180246295E+01  0.10212200565E+02  0.00000000000E+00 0.  1.
</event>
<event>
 7    1  0.3004200E-011  0.5052887E+02  0.7816164E-02  0.1300439E+00
        -11   -1    0    0    0    0  0.00000000000E+00  0.00000000000E+00  0.45593999997E+02  0.45594000000E+02  0.51100000000E-03 0.  1.
         11   -1    0    0    0    0 -0.00000000000E+00 -0.00000000000E+00 -0.45593999997E+02  0.45594000000E+02  0.51100000000E-03 0. -1.
    9900012    2    1    2    0    0  0.52546062595E+01 -0.88768009403E+01  0.39328824600E+02  0.50528869091E+02  0.30000028089E+02 0.  0.
         12    1    1    2    0    0 -0.52546062595E+01  0.88768009403E+01 -0.39328824600E+02  0.40659130909E+02  0.00000000000E+00 0. -1.
         11    1    3    3    0    0  0.78430291155E+00  0.55783116972E+01 -0.22443580412E+01  0.60638136289E+01  0.51100000000E-03 0. -1.
        -11    1    3    3    0    0  0.57833504523E+00 -0.90698456820E+01  0.25582497470E+02  0.27148862760E+02  0.51100000000E-03 0.  1.
        -12    1    3    3    0    0  0.38919683027E+01 -0.53852669555E+01  0.15990685171E+02  0.17316192702E+02  0.00000000000E+00 0.  1.
</event>
<event>
 7    1  0.3004200E-011  0.5052886E+02  0.7816164E-02  0.1300439E+00
        -11   -1    0    0    0    0  0.00000000000E+00  0.00000000000E+00  0.45593999997E+02  0.45594000000E+02  0.51100000000E-03 0. -1.
         11   -1    0    0    0    0 -0.00000000000E+00 -0.00000000000E+00 -0.45593999997E+02  0.45594000000E+02  0.51100000000E-03 0.  1.
    9900012    2    1    2    0    0 -0.33464253607E+02  0.36841533238E+01 -0.22797725345E+02  0.50528861591E+02  0.30000005293E+02 0.  0.
         12    1    1    2    0    0  0.33464253607E+02 -0.36841533238E+01  0.22797725345E+02  0.40659138409E+02  0.00000000000E+00 0. -1.
         11    1    3    3    0    0 -0.18411146864E+02 -0.20292563187E+01 -0.43555424135E+00  0.18527760734E+02  0.51100000000E-03 0. -1.
        -11    1    3    3    0    0  0.59640537194E-03  0.43635429797E+01 -0.14134356531E+02  0.14792584038E+02  0.51100000000E-03 0.  1.
        -12    1    3    3    0    0 -0.15053703149E+02  0.13498666628E+01 -0.82278145727E+01  0.17208516820E+02  0.00000000000E+00 0.  1.
</event>
<event>
 7    1  0.3004200E-011  0.5052886E+02  0.7816164E-02  0.1300439E+00
        -11   -1    0    0    0    0  0.00000000000E+00  0.00000000000E+00  0.45593999997E+02  0.45594000000E+02  0.51100000000E-03 0.  1.
         11   -1    0    0    0    0 -0.00000000000E+00 -0.00000000000E+00 -0.45593999997E+02  0.45594000000E+02  0.51100000000E-03 0. -1.
    9900012    2    1    2    0    0 -0.27423325557E+01  0.69712491177E+00  0.40560567603E+02  0.50528855699E+02  0.29999987382E+02 0.  0.
         12    1    1    2    0    0  0.27423325557E+01 -0.69712491177E+00 -0.40560567603E+02  0.40659144301E+02  0.00000000000E+00 0. -1.
         11    1    3    3    0    0 -0.67004271570E+00  0.70761302001E+01  0.25350422208E+02  0.26328017059E+02  0.51100000000E-03 0. -1.
        -11    1    3    3    0    0 -0.84443609998E+01 -0.85530831670E+01  0.10745491369E+02  0.16122284248E+02  0.51100000000E-03 0.  1.
        -12    1    3    3    0    0  0.63720711598E+01  0.21740778786E+01  0.44646540260E+01  0.80785543917E+01  0.00000000000E+00 0.  1.
</event>
<event>
 7    1  0.3004200E-011  0.5052885E+02  0.7816164E-02  0.1300439E+00
        -11   -1    0    0    0    0  0.00000000000E+00  0.00000000000E+00  0.45593999997E+02  0.45594000000E+02  0.51100000000E-03 0.  1.
         11   -1    0    0    0    0 -0.00000000000E+00 -0.00000000000E+00 -0.45593999997E+02  0.45594000000E+02  0.51100000000E-03 0. -1.
    9900012    2    1    2    0    0 -0.19142904993E+02  0.31180211615E+02  0.17734436897E+02  0.50528847771E+02  0.29999963284E+02 0.  0.
         12    1    1    2    0    0  0.19142904993E+02 -0.31180211615E+02 -0.17734436897E+02  0.40659152229E+02  0.00000000000E+00 0. -1.
         11    1    3    3    0    0 -0.31738987886E+01  0.18924994024E+02  0.18629793884E+02  0.26745060344E+02  0.51100000000E-03 0. -1.
        -11    1    3    3    0    0 -0.11947582482E+02  0.34810578285E+01  0.38529633313E+01  0.13027195303E+02  0.51100000000E-03 0.  1.
         12    1    3    3    0    0 -0.40214237223E+01  0.87741597623E+01 -0.47483203185E+01  0.10756592125E+02  0.00000000000E+00 0. -1.
</event>
<event>
 7    1  0.3004200E-011  0.5052887E+02  0.7816164E-02  0.1300439E+00
        -11   -1    0    0    0    0  0.00000000000E+00  0.00000000000E+00  0.45593999997E+02  0.45594000000E+02  0.51100000000E-03 0. -1.
         11   -1    0    0    0    0 -0.00000000000E+00 -0.00000000000E+00 -0.45593999997E+02  0.45594000000E+02  0.51100000000E-03 0.  1.
    9900012    2    1    2    0    0 -0.24185025807E+02  0.30560146434E+02 -0.11589943241E+02  0.50528870549E+02  0.30000032522E+02 0.  0.
         12    1    1    2    0    0  0.24185025807E+02 -0.30560146434E+02  0.11589943241E+02  0.40659129451E+02  0.00000000000E+00 0. -1.
         11    1    3    3    0    0 -0.53658040041E+00  0.19870037550E+01  0.12774994605E+01  0.24224177140E+01  0.51100000000E-03 0. -1.
        -11    1    3    3    0    0 -0.12847670232E+02  0.27749013707E+02  0.89551663769E+00  0.30592030700E+02  0.51100000000E-03 0.  1.
        -12    1    3    3    0    0 -0.10800775175E+02  0.82412897228E+00 -0.13762959339E+02  0.17514422135E+02  0.00000000000E+00 0.  1.
</event>
<event>
 7    1  0.3004200E-011  0.5052887E+02  0.7816164E-02  0.1300439E+00
        -11   -1    0    0    0    0  0.00000000000E+00  0.00000000000E+00  0.45593999997E+02  0.45594000000E+02  0.51100000000E-03 0. -1.
         11   -1    0    0    0    0 -0.00000000000E+00 -0.00000000000E+00 -0.45593999997E+02  0.45594000000E+02  0.51100000000E-03 0.  1.
    9900012    2    1    2    0    0 -0.28854520134E+02  0.28204748757E+02  0.50073876598E+01  0.50528866761E+02  0.30000021006E+02 0.  0.
         12    1    1    2    0    0  0.28854520134E+02 -0.28204748757E+02 -0.50073876598E+01  0.40659133239E+02  0.00000000000E+00 0. -1.
         11    1    3    3    0    0  0.48517748948E+01 -0.20538531533E+00  0.21851882490E+01  0.53251244776E+01  0.51100000000E-03 0. -1.
        -11    1    3    3    0    0 -0.12453418544E+02  0.59802949898E+01 -0.19017053493E+01  0.13945179995E+02  0.51100000000E-03 0.  1.
         12    1    3    3    0    0 -0.21252876485E+02  0.22429839082E+02  0.47239047601E+01  0.31258562288E+02  0.00000000000E+00 0. -1.
</event>
<event>
 7    1  0.3004200E-011  0.5052881E+02  0.7816164E-02  0.1300439E+00
        -11   -1    0    0    0    0  0.00000000000E+00  0.00000000000E+00  0.45593999997E+02  0.45594000000E+02  0.51100000000E-03 0. -1.
         11   -1    0    0    0    0 -0.00000000000E+00 -0.00000000000E+00 -0.45593999997E+02  0.45594000000E+02  0.51100000000E-03 0.  1.
    9900012    2    1    2    0    0  0.30128573987E+02 -0.17527652425E+02 -0.20933715471E+02  0.50528806532E+02  0.29999837935E+02 0.  0.
         12    1    1    2    0    0 -0.30128573987E+02  0.17527652425E+02  0.20933715471E+02  0.40659193468E+02  0.00000000000E+00 0. -1.
         11    1    3    3    0    0  0.10249145479E+02  0.28258029634E+00  0.59498035078E+01  0.11854323967E+02  0.51100000000E-03 0. -1.
        -11    1    3    3    0    0  0.13628555849E+02 -0.79056886757E+01 -0.12411778387E+02  0.20057160591E+02  0.51100000000E-03 0.  1.
         12    1    3    3    0    0  0.62508726589E+01 -0.99045440452E+01 -0.14471740592E+02  0.18617321974E+02  0.00000000000E+00 0. -1.
</event>
<event>
 7    1  0.3004200E-011  0.5052885E+02  0.7816164E-02  0.1300439E+00
        -11   -1    0    0    0    0  0.00000000000E+00  0.00000000000E+00  0.45593999997E+02  0.45594000000E+02  0.51100000000E-03 0.  1.
         11   -1    0    0    0    0 -0.00000000000E+00 -0.00000000000E+00 -0.45593999997E+02  0.45594000000E+02  0.51100000000E-03 0. -1.
    9900012    2    1    2    0    0  0.18894315526E+02 -0.32563754741E+02  0.15354900398E+02  0.50528852834E+02  0.29999978675E+02 0.  0.
         12    1    1    2    0    0 -0.18894315526E+02  0.32563754741E+02 -0.15354900398E+02  0.40659147166E+02  0.00000000000E+00 0. -1.
         11    1    3    3    0    0 -0.22976277868E+01 -0.22241932790E+02  0.10416200497E+02  0.24667385365E+02  0.51100000000E-03 0. -1.
        -11    1    3    3    0    0  0.81774147417E+00 -0.14081025939E+01  0.31560745969E+01  0.35513745445E+01  0.51100000000E-03 0.  1.
         12    1    3    3    0    0  0.20374201839E+02 -0.89137193573E+01  0.17826253038E+01  0.22310092925E+02  0.00000000000E+00 0. -1.
</event>
<event>
 7    1  0.3004200E-011  0.5052886E+02  0.7816164E-02  0.1300439E+00
        -11   -1    0    0    0    0  0.00000000000E+00  0.00000000000E+00  0.45593999997E+02  0.45594000000E+02  0.51100000000E-03 0.  1.
         11   -1    0    0    0    0 -0.00000000000E+00 -0.00000000000E+00 -0.45593999997E+02  0.45594000000E+02  0.51100000000E-03 0. -1.
    9900012    2    1    2    0    0 -0.12257149469E+02 -0.14629479507E+02  0.35901344979E+02  0.50528856440E+02  0.29999989636E+02 0.  0.
         12    1    1    2    0    0  0.12257149469E+02  0.14629479507E+02 -0.35901344979E+02  0.40659143560E+02  0.00000000000E+00 0. -1.
         11    1    3    3    0    0  0.61801330185E+01 -0.56140343475E+01  0.32403444600E+01  0.89560738196E+01  0.51100000000E-03 0. -1.
        -11    1    3    3    0    0 -0.13725849055E+02 -0.11183791036E+02  0.31683656088E+02  0.36295043430E+02  0.51100000000E-03 0.  1.
         12    1    3    3    0    0 -0.47114334320E+01  0.21683458765E+01  0.97734443012E+00  0.52777391902E+01  0.00000000000E+00 0. -1.
</event>
<event>
 7    1  0.3004200E-011  0.5052884E+02  0.7816164E-02  0.1300439E+00
        -11   -1    0    0    0    0  0.00000000000E+00  0.00000000000E+00  0.45593999997E+02  0.45594000000E+02  0.51100000000E-03 0.  1.
         11   -1    0    0    0    0 -0.00000000000E+00 -0.00000000000E+00 -0.45593999997E+02  0.45594000000E+02  0.51100000000E-03 0. -1.
    9900012    2    1    2    0    0  0.14894761243E+02  0.22504271640E+02  0.30411690366E+02  0.50528842785E+02  0.29999948128E+02 0.  0.
         12    1    1    2    0    0 -0.14894761243E+02 -0.22504271640E+02 -0.30411690366E+02  0.40659157215E+02  0.00000000000E+00 0. -1.
         11    1    3    3    0    0 -0.36261014036E+01 -0.30747204445E+01  0.14817097512E+01  0.49797571476E+01  0.51100000000E-03 0. -1.
        -11    1    3    3    0    0  0.67341149168E+01  0.19656382133E+02  0.23266020234E+02  0.31193418537E+02  0.51100000000E-03 0.  1.
         12    1    3    3    0    0  0.11786747729E+02  0.59226099521E+01  0.56639603809E+01  0.14355667100E+02  0.00000000000E+00 0. -1.
</event>
<event>
 7    1  0.3004200E-011  0.5052886E+02  0.7816164E-02  0.1300439E+00
        -11   -1    0    0    0    0  0.00000000000E+00  0.00000000000E+00  0.45593999997E+02  0.45594000000E+02  0.51100000000E-03 0. -1.
         11   -1    0    0    0    0 -0.00000000000E+00 -0.00000000000E+00 -0.45593999997E+02  0.45594000000E+02  0.51100000000E-03 0.  1.
    9900012    2    1    2    0    0 -0.17311325171E+02  0.67499349519E+01 -0.36165204597E+02  0.50528860504E+02  0.30000001987E+02 0.  0.
         12    1    1    2    0    0  0.17311325171E+02 -0.67499349519E+01  0.36165204597E+02  0.40659139496E+02  0.00000000000E+00 0. -1.
         11    1    3    3    0    0 -0.71912678757E+01  0.10782271701E+02 -0.35838139749E+01  0.13446763163E+02  0.51100000000E-03 0. -1.
        -11    1    3    3    0    0 -0.94152700173E-01 -0.30640696173E+01 -0.22923240178E+02  0.23127306974E+02  0.51100000000E-03 0.  1.
        -12    1    3    3    0    0 -0.10025904595E+02 -0.96826713134E+00 -0.96581504437E+01  0.13954790367E+02  0.00000000000E+00 0.  1.
</event>
<event>
 7    1  0.3004200E-011  0.5052886E+02  0.7816164E-02  0.1300439E+00
        -11   -1    0    0    0    0  0.00000000000E+00  0.00000000000E+00  0.45593999997E+02  0.45594000000E+02  0.51100000000E-03 0.  1.
         11   -1    0    0    0    0 -0.00000000000E+00 -0.00000000000E+00 -0.45593999997E+02  0.45594000000E+02  0.51100000000E-03 0. -1.
    9900012    2    1    2    0    0  0.69241253389E+01  0.19025874154E+02  0.35259588307E+02  0.50528856298E+02  0.29999989203E+02 0.  0.
         12    1    1    2    0    0 -0.69241253389E+01 -0.19025874154E+02 -0.35259588307E+02  0.40659143702E+02  0.00000000000E+00 0. -1.
         11    1    3    3    0    0  0.71076126705E+01  0.50624139773E+01  0.48041671292E+01  0.99612356270E+01  0.51100000000E-03 0. -1.
        -11    1    3    3    0    0 -0.26352962009E+01  0.15809166126E+02  0.32931398999E+02  0.36624466685E+02  0.51100000000E-03 0.  1.
        -12    1    3    3    0    0  0.24518088693E+01 -0.18457059495E+01 -0.24759778215E+01  0.39431539859E+01  0.00000000000E+00 0.  1.
</event>
<event>
 7    1  0.3004200E-011  0.5052885E+02  0.7816164E-02  0.1300439E+00
        -11   -1    0    0    0    0  0.00000000000E+00  0.00000000000E+00  0.45593999997E+02  0.45594000000E+02  0.51100000000E-03 0.  1.
         11   -1    0    0    0    0 -0.00000000000E+00 -0.00000000000E+00 -0.45593999997E+02  0.45594000000E+02  0.51100000000E-03 0. -1.
    9900012    2    1    2    0    0  0.26861511575E+02  0.14898693719E+01  0.30486163119E+02  0.50528847812E+02  0.29999963411E+02 0.  0.
         12    1    1    2    0    0 -0.26861511575E+02 -0.14898693719E+01 -0.30486163119E+02  0.40659152188E+02  0.00000000000E+00 0. -1.
         11    1    3    3    0    0  0.26065612051E+01 -0.83543875474E+01  0.91585970554E+01  0.12667669592E+02  0.51100000000E-03 0. -1.
        -11    1    3    3    0    0  0.15573829865E+02  0.46983076022E+01  0.22431754856E+02  0.27709238480E+02  0.51100000000E-03 0.  1.
         12    1    3    3    0    0  0.86811205057E+01  0.51459493170E+01 -0.11041887915E+01  0.10151939740E+02  0.00000000000E+00 0. -1.
</event>
<event>
 7    1  0.3004200E-011  0.5052887E+02  0.7816164E-02  0.1300439E+00
        -11   -1    0    0    0    0  0.00000000000E+00  0.00000000000E+00  0.45593999997E+02  0.45594000000E+02  0.51100000000E-03 0. -1.
         11   -1    0    0    0    0 -0.00000000000E+00 -0.00000000000E+00 -0.45593999997E+02  0.45594000000E+02  0.51100000000E-03 0.  1.
    9900012    2    1    2    0    0 -0.23249141788E+02 -0.33243063056E+02  0.27460847139E+01  0.50528870441E+02  0.30000032192E+02 0.  0.
         12    1    1    2    0    0  0.23249141788E+02  0.33243063056E+02 -0.27460847139E+01  0.40659129559E+02  0.00000000000E+00 0. -1.
         11    1    3    3    0    0 -0.40880340376E+01 -0.50222472208E+01 -0.91023609929E+01  0.11170853385E+02  0.51100000000E-03 0. -1.
        -11    1    3    3    0    0 -0.37033103104E+01 -0.18626063691E+02  0.33755288122E+01  0.19288311251E+02  0.51100000000E-03 0.  1.
         12    1    3    3    0    0 -0.15457797440E+02 -0.95947521442E+01  0.84729168946E+01  0.20069705805E+02  0.00000000000E+00 0. -1.
</event>
<event>
 7    1  0.3004200E-011  0.5052886E+02  0.7816164E-02  0.1300439E+00
        -11   -1    0    0    0    0  0.00000000000E+00  0.00000000000E+00  0.45593999997E+02  0.45594000000E+02  0.51100000000E-03 0. -1.
         11   -1    0    0    0    0 -0.00000000000E+00 -0.00000000000E+00 -0.45593999997E+02  0.45594000000E+02  0.51100000000E-03 0.  1.
    9900012    2    1    2    0    0  0.33368206393E+02 -0.17353443909E+02 -0.15446237720E+02  0.50528862367E+02  0.30000007650E+02 0.  0.
         12    1    1    2    0    0 -0.33368206393E+02  0.17353443909E+02  0.15446237720E+02  0.40659137633E+02  0.00000000000E+00 0. -1.
         11    1    3    3    0    0  0.11519418720E+02 -0.25283400023E+01 -0.17784395715E+02  0.21339499573E+02  0.51100000000E-03 0. -1.
        -11    1    3    3    0    0  0.17358789000E+02 -0.60096737811E+01 -0.18167431358E+01  0.18459260288E+02  0.51100000000E-03 0.  1.
         12    1    3    3    0    0  0.44899986727E+01 -0.88154301253E+01  0.41549011306E+01  0.10730102506E+02  0.00000000000E+00 0. -1.
</event>
<event>
 7    1  0.3004200E-011  0.5052887E+02  0.7816164E-02  0.1300439E+00
        -11   -1    0    0    0    0  0.00000000000E+00  0.00000000000E+00  0.45593999997E+02  0.45594000000E+02  0.51100000000E-03 0.  1.
         11   -1    0    0    0    0 -0.00000000000E+00 -0.00000000000E+00 -0.45593999997E+02  0.45594000000E+02  0.51100000000E-03 0. -1.
    9900012    2    1    2    0    0  0.75971534518E+01 -0.30404887931E+02  0.25903490848E+02  0.50528870782E+02  0.30000033229E+02 0.  0.
         12    1    1    2    0    0 -0.75971534518E+01  0.30404887931E+02 -0.25903490848E+02  0.40659129218E+02  0.00000000000E+00 0. -1.
         11    1    3    3    0    0 -0.15540925649E+01 -0.12540827200E+02  0.10052824679E+02  0.16147657256E+02  0.51100000000E-03 0. -1.
        -11    1    3    3    0    0  0.57554248401E+01  0.13502139990E+01  0.13487994627E+02  0.14726642260E+02  0.51100000000E-03 0.  1.
        -12    1    3    3    0    0  0.33958211766E+01 -0.19214274730E+02  0.23626715424E+01  0.19654571267E+02  0.00000000000E+00 0.  1.
</event>
<event>
 7    1  0.3004200E-011  0.5052885E+02  0.7816164E-02  0.1300439E+00
        -11   -1    0    0    0    0  0.00000000000E+00  0.00000000000E+00  0.45593999997E+02  0.45594000000E+02  0.51100000000E-03 0.  1.
         11   -1    0    0    0    0 -0.00000000000E+00 -0.00000000000E+00 -0.45593999997E+02  0.45594000000E+02  0.51100000000E-03 0. -1.
    9900012    2    1    2    0    0  0.10557910152E+01 -0.19735447731E+02  0.35532578510E+02  0.50528846942E+02  0.29999960765E+02 0.  0.
         12    1    1    2    0    0 -0.10557910152E+01  0.19735447731E+02 -0.35532578510E+02  0.40659153058E+02  0.00000000000E+00 0. -1.
         11    1    3    3    0    0 -0.87279804071E+01 -0.47176008167E+01  0.92112513047E+01  0.13538114725E+02  0.51100000000E-03 0. -1.
        -11    1    3    3    0    0  0.15010764169E+02 -0.13291746695E+02  0.17606425735E+02  0.26682949585E+02  0.51100000000E-03 0.  1.
        -12    1    3    3    0    0 -0.52269927469E+01 -0.17261002193E+01  0.87149014705E+01  0.10307782632E+02  0.00000000000E+00 0.  1.
</event>
<event>
 7    1  0.3004200E-011  0.5052888E+02  0.7816164E-02  0.1300439E+00
        -11   -1    0    0    0    0  0.00000000000E+00  0.00000000000E+00  0.45593999997E+02  0.45594000000E+02  0.51100000000E-03 0.  1.
         11   -1    0    0    0    0 -0.00000000000E+00 -0.00000000000E+00 -0.45593999997E+02  0.45594000000E+02  0.51100000000E-03 0. -1.
    9900012    2    1    2    0    0  0.43689933625E+01  0.39084117144E+02  0.10320268240E+02  0.50528877377E+02  0.30000053276E+02 0.  0.
         12    1    1    2    0    0 -0.43689933625E+01 -0.39084117144E+02 -0.10320268240E+02  0.40659122623E+02  0.00000000000E+00 0. -1.
         11    1    3    3    0    0 -0.47311874074E+01  0.24290304035E+02 -0.51656745059E+01  0.25280174006E+02  0.51100000000E-03 0. -1.
        -11    1    3    3    0    0  0.78181927336E+01  0.16197144331E+02  0.13412218123E+02  0.22435668417E+02  0.51100000000E-03 0.  1.
         12    1    3    3    0    0  0.12819880364E+01 -0.14033312218E+01  0.20737246229E+01  0.28130349545E+01  0.00000000000E+00 0. -1.
</event>
<event>
 7    1  0.3004200E-011  0.5052875E+02  0.7816164E-02  0.1300439E+00
        -11   -1    0    0    0    0  0.00000000000E+00  0.00000000000E+00  0.45593999997E+02  0.45594000000E+02  0.51100000000E-03 0. -1.
         11   -1    0    0    0    0 -0.00000000000E+00 -0.00000000000E+00 -0.45593999997E+02  0.45594000000E+02  0.51100000000E-03 0.  1.
    9900012    2    1    2    0    0 -0.28520010799E+02 -0.24021339592E+02 -0.16209825762E+02  0.50528754766E+02  0.29999680585E+02 0.  0.
         12    1    1    2    0    0  0.28520010799E+02  0.24021339592E+02  0.16209825762E+02  0.40659245234E+02  0.00000000000E+00 0. -1.
         11    1    3    3    0    0  0.22142267391E+01 -0.11177919349E+02 -0.12087369170E+02  0.16611838391E+02  0.51100000000E-03 0. -1.
        -11    1    3    3    0    0 -0.83464573867E+01 -0.42340935940E+01  0.92791877036E+00  0.94048887806E+01  0.51100000000E-03 0.  1.
         12    1    3    3    0    0 -0.22387780152E+02 -0.86093266495E+01 -0.50503753618E+01  0.24512027594E+02  0.00000000000E+00 0. -1.
</event>
<event>
 7    1  0.3004200E-011  0.5052885E+02  0.7816164E-02  0.1300439E+00
        -11   -1    0    0    0    0  0.00000000000E+00  0.00000000000E+00  0.45593999997E+02  0.45594000000E+02  0.51100000000E-03 0.  1.
         11   -1    0    0    0    0 -0.00000000000E+00 -0.00000000000E+00 -0.45593999997E+02  0.45594000000E+02  0.51100000000E-03 0. -1.
    9900012    2    1    2    0    0  0.17270802026E+02  0.12660576687E+02  0.34562925674E+02  0.50528848068E+02  0.29999964188E+02 0.  0.
         12    1    1    2    0    0 -0.17270802026E+02 -0.12660576687E+02 -0.34562925674E+02  0.40659151932E+02  0.00000000000E+00 0. -1.
         11    1    3    3    0    0  0.18826166980E+00 -0.31881003158E-01 -0.17947366495E+01  0.18048653015E+01  0.51100000000E-03 0. -1.
        -11    1    3    3    0    0  0.55004722148E+01 -0.27767335954E+01  0.26155872269E+02  0.26871827226E+02  0.51100000000E-03 0.  1.
        -12    1    3    3    0    0  0.11582068141E+02  0.15469191286E+02  0.10201790054E+02  0.21852155541E+02  0.00000000000E+00 0.  1.
</event>
<event>
 7    1  0.3004200E-011  0.5052886E+02  0.7816164E-02  0.1300439E+00
        -11   -1    0    0    0    0  0.00000000000E+00  0.00000000000E+00  0.45593999997E+02  0.45594000000E+02  0.51100000000E-03 0.  1.
         11   -1    0    0    0    0 -0.00000000000E+00 -0.00000000000E+00 -0.45593999997E+02  0.45594000000E+02  0.51100000000E-03 0. -1.
    9900012    2    1    2    0    0  0.18857709754E+02  0.34057297468E+02  0.11732552899E+02  0.50528861722E+02  0.30000005689E+02 0.  0.
         12    1    1    2    0    0 -0.18857709754E+02 -0.34057297468E+02 -0.11732552899E+02  0.40659138278E+02  0.00000000000E+00 0. -1.
         11    1    3    3    0    0  0.94605458225E+01  0.13596616350E+02 -0.44136929474E+01  0.17142070736E+02  0.51100000000E-03 0. -1.
        -11    1    3    3    0    0 -0.18330145922E+01  0.29542846800E+01  0.11582641206E+02  0.12093193045E+02  0.51100000000E-03 0.  1.
        -12    1    3    3    0    0  0.11230178524E+02  0.17506396438E+02  0.45636046408E+01  0.21293597940E+02  0.00000000000E+00 0.  1.
</event>
<event>
 7    1  0.3004200E-011  0.5052886E+02  0.7816164E-02  0.1300439E+00
        -11   -1    0    0    0    0  0.00000000000E+00  0.00000000000E+00  0.45593999997E+02  0.45594000000E+02  0.51100000000E-03 0.  1.
         11   -1    0    0    0    0 -0.00000000000E+00 -0.00000000000E+00 -0.45593999997E+02  0.45594000000E+02  0.51100000000E-03 0. -1.
    9900012    2    1    2    0    0 -0.18429748081E+02  0.26880457371E+01  0.36142557004E+02  0.50528860425E+02  0.30000001747E+02 0.  0.
         12    1    1    2    0    0  0.18429748081E+02 -0.26880457371E+01 -0.36142557004E+02  0.40659139575E+02  0.00000000000E+00 0. -1.
         11    1    3    3    0    0 -0.11906552415E+02 -0.74465481213E+01  0.62478473500E+01  0.15370512877E+02  0.51100000000E-03 0. -1.
        -11    1    3    3    0    0 -0.25695250088E+01  0.11598426496E+02  0.12437791193E+02  0.17199552493E+02  0.51100000000E-03 0.  1.
        -12    1    3    3    0    0 -0.39536706577E+01 -0.14638326374E+01  0.17456918461E+02  0.17958795055E+02  0.00000000000E+00 0.  1.
</event>
<event>
 7    1  0.3004200E-011  0.5052886E+02  0.7816164E-02  0.1300439E+00
        -11   -1    0    0    0    0  0.00000000000E+00  0.00000000000E+00  0.45593999997E+02  0.45594000000E+02  0.51100000000E-03 0.  1.
         11   -1    0    0    0    0 -0.00000000000E+00 -0.00000000000E+00 -0.45593999997E+02  0.45594000000E+02  0.51100000000E-03 0. -1.
    9900012    2    1    2    0    0 -0.89868295565E+01 -0.35642301511E+02  0.17378968995E+02  0.50528864178E+02  0.30000013155E+02 0.  0.
         12    1    1    2    0    0  0.89868295565E+01  0.35642301511E+02 -0.17378968995E+02  0.40659135822E+02  0.00000000000E+00 0. -1.
         11    1    3    3    0    0  0.46446331864E+01 -0.29750078969E+01  0.19645183387E+01  0.58551363764E+01  0.51100000000E-03 0. -1.
        -11    1    3    3    0    0 -0.48539608015E+01 -0.27418682449E+02  0.19140451667E+02  0.33789080677E+02  0.51100000000E-03 0.  1.
        -12    1    3    3    0    0 -0.87775019414E+01 -0.52486111652E+01 -0.37260010109E+01  0.10884647125E+02  0.00000000000E+00 0.  1.
</event>
<event>
 7    1  0.3004200E-011  0.5052886E+02  0.7816164E-02  0.1300439E+00
        -11   -1    0    0    0    0  0.00000000000E+00  0.00000000000E+00  0.45593999997E+02  0.45594000000E+02  0.51100000000E-03 0.  1.
         11   -1    0    0    0    0 -0.00000000000E+00 -0.00000000000E+00 -0.45593999997E+02  0.45594000000E+02  0.51100000000E-03 0. -1.
    9900012    2    1    2    0    0  0.33575614572E+02 -0.22720151487E+02 -0.31046043324E+01  0.50528859016E+02  0.29999997465E+02 0.  0.
         12    1    1    2    0    0 -0.33575614572E+02  0.22720151487E+02  0.31046043324E+01  0.40659140984E+02  0.00000000000E+00 0. -1.
         11    1    3    3    0    0  0.15899380413E+01 -0.55908197613E+01  0.46038917084E+01  0.74149165674E+01  0.51100000000E-03 0. -1.
        -11    1    3    3    0    0  0.34977987816E+02 -0.17829648049E+02 -0.64198719795E+01  0.39781537649E+02  0.51100000000E-03 0.  1.
         12    1    3    3    0    0 -0.29923112854E+01  0.70031632240E+00 -0.12886240612E+01  0.33324048000E+01  0.00000000000E+00 0. -1.
</event>
<event>
 7    1  0.3004200E-011  0.5052887E+02  0.7816164E-02  0.1300439E+00
        -11   -1    0    0    0    0  0.00000000000E+00  0.00000000000E+00  0.45593999997E+02  0.45594000000E+02  0.51100000000E-03 0. -1.
         11   -1    0    0    0    0 -0.00000000000E+00 -0.00000000000E+00 -0.45593999997E+02  0.45594000000E+02  0.51100000000E-03 0.  1.
    9900012    2    1    2    0    0 -0.19538758378E+02  0.63133283179E+01 -0.35093362062E+02  0.50528865058E+02  0.30000015830E+02 0.  0.
         12    1    1    2    0    0  0.19538758378E+02 -0.63133283179E+01  0.35093362062E+02  0.40659134942E+02  0.00000000000E+00 0. -1.
         11    1    3    3    0    0 -0.83389081249E+01  0.14526450809E+02 -0.82829640846E+01  0.18685894576E+02  0.51100000000E-03 0. -1.
        -11    1    3    3    0    0 -0.11646913196E+02 -0.35468008080E+01 -0.21883527212E+02  0.25042347064E+02  0.51100000000E-03 0.  1.
         12    1    3    3    0    0  0.44706294257E+00 -0.46663216834E+01 -0.49268707654E+01  0.68006234175E+01  0.00000000000E+00 0. -1.
</event>
<event>
 7    1  0.3004200E-011  0.5052886E+02  0.7816164E-02  0.1300439E+00
        -11   -1    0    0    0    0  0.00000000000E+00  0.00000000000E+00  0.45593999997E+02  0.45594000000E+02  0.51100000000E-03 0. -1.
         11   -1    0    0    0    0 -0.00000000000E+00 -0.00000000000E+00 -0.45593999997E+02  0.45594000000E+02  0.51100000000E-03 0.  1.
    9900012    2    1    2    0    0 -0.21252396637E+02 -0.26516471286E+02 -0.22324378590E+02  0.50528862138E+02  0.30000006954E+02 0.  0.
         12    1    1    2    0    0  0.21252396637E+02  0.26516471286E+02  0.22324378590E+02  0.40659137862E+02  0.00000000000E+00 0. -1.
         11    1    3    3    0    0 -0.62017425253E+01  0.83838474955E+00 -0.10026679986E+02  0.11819425161E+02  0.51100000000E-03 0. -1.
        -11    1    3    3    0    0 -0.19079791377E+02 -0.22964629651E+02 -0.68424047131E+01  0.30630559193E+02  0.51100000000E-03 0.  1.
        -12    1    3    3    0    0  0.40291372646E+01 -0.43902263843E+01 -0.54552938910E+01  0.80788777834E+01  0.00000000000E+00 0.  1.
</event>
<event>
 7    1  0.3004200E-011  0.5052883E+02  0.7816164E-02  0.1300439E+00
        -11   -1    0    0    0    0  0.00000000000E+00  0.00000000000E+00  0.45593999997E+02  0.45594000000E+02  0.51100000000E-03 0.  1.
         11   -1    0    0    0    0 -0.00000000000E+00 -0.00000000000E+00 -0.45593999997E+02  0.45594000000E+02  0.51100000000E-03 0. -1.
    9900012    2    1    2    0    0  0.39597359981E+02 -0.72364404089E+01  0.57315581020E+01  0.50528834421E+02  0.29999922707E+02 0.  0.
         12    1    1    2    0    0 -0.39597359981E+02  0.72364404089E+01 -0.57315581020E+01  0.40659165579E+02  0.00000000000E+00 0. -1.
         11    1    3    3    0    0 -0.18475759016E+00  0.55237179717E+01  0.37635768019E+01  0.66865616129E+01  0.51100000000E-03 0. -1.
        -11    1    3    3    0    0  0.26059907118E+02 -0.17363643326E+01  0.24626152142E+01  0.26233531864E+02  0.51100000000E-03 0.  1.
         12    1    3    3    0    0  0.13722210454E+02 -0.11023794048E+02 -0.49463391412E+00  0.17608740945E+02  0.00000000000E+00 0. -1.
</event>
<event>
 7    1  0.3004200E-011  0.5052885E+02  0.7816164E-02  0.1300439E+00
        -11   -1    0    0    0    0  0.00000000000E+00  0.00000000000E+00  0.45593999997E+02  0.45594000000E+02  0.51100000000E-03 0.  1.
         11   -1    0    0    0    0 -0.00000000000E+00 -0.00000000000E+00 -0.45593999997E+02  0.45594000000E+02  0.51100000000E-03 0. -1.
    9900012    2    1    2    0    0  0.32858269496E+02 -0.10730639172E+02 -0.21409193938E+02  0.50528854947E+02  0.29999985098E+02 0.  0.
         12    1    1    2    0    0 -0.32858269496E+02  0.10730639172E+02  0.21409193938E+02  0.40659145053E+02  0.00000000000E+00 0. -1.
         11    1    3    3    0    0  0.34101407599E+02 -0.11988532824E+02 -0.16658713881E+02  0.39801302340E+02  0.51100000000E-03 0. -1.
        -11    1    3    3    0    0 -0.82130806510E+00 -0.34921070676E+01  0.51439148006E+00  0.36240802371E+01  0.51100000000E-03 0.  1.
         12    1    3    3    0    0 -0.42183003804E+00  0.47500007188E+01 -0.52648715377E+01  0.71034723704E+01  0.00000000000E+00 0. -1.
</event>
<event>
 7    1  0.3004200E-011  0.5052885E+02  0.7816164E-02  0.1300439E+00
        -11   -1    0    0    0    0  0.00000000000E+00  0.00000000000E+00  0.45593999997E+02  0.45594000000E+02  0.51100000000E-03 0.  1.
         11   -1    0    0    0    0 -0.00000000000E+00 -0.00000000000E+00 -0.45593999997E+02  0.45594000000E+02  0.51100000000E-03 0. -1.
    9900012    2    1    2    0    0 -0.33896295352E+01  0.23282570197E+02  0.33160200346E+02  0.50528849120E+02  0.29999967384E+02 0.  0.
         12    1    1    2    0    0  0.33896295352E+01 -0.23282570197E+02 -0.33160200346E+02  0.40659150880E+02  0.00000000000E+00 0. -1.
         11    1    3    3    0    0 -0.35549176284E+01 -0.57122339684E+00  0.69201880528E+01  0.78008165252E+01  0.51100000000E-03 0. -1.
        -11    1    3    3    0    0  0.67864429547E+01  0.23165791074E+02  0.26774583389E+02  0.36049798889E+02  0.51100000000E-03 0.  1.
        -12    1    3    3    0    0 -0.66211548615E+01  0.68800251929E+00 -0.53457109575E+00  0.66782337053E+01  0.00000000000E+00 0.  1.
</event>
<event>
 7    1  0.3004200E-011  0.5052885E+02  0.7816164E-02  0.1300439E+00
        -11   -1    0    0    0    0  0.00000000000E+00  0.00000000000E+00  0.45593999997E+02  0.45594000000E+02  0.51100000000E-03 0.  1.
         11   -1    0    0    0    0 -0.00000000000E+00 -0.00000000000E+00 -0.45593999997E+02  0.45594000000E+02  0.51100000000E-03 0. -1.
    9900012    2    1    2    0    0  0.25100674913E+02 -0.23435050199E+02  0.21769722254E+02  0.50528852617E+02  0.29999978013E+02 0.  0.
         12    1    1    2    0    0 -0.25100674913E+02  0.23435050199E+02 -0.21769722254E+02  0.40659147383E+02  0.00000000000E+00 0. -1.
         11    1    3    3    0    0  0.96146716044E+01 -0.11742430996E+01 -0.55500057974E+01  0.11163481604E+02  0.51100000000E-03 0. -1.
        -11    1    3    3    0    0  0.12219930717E+02 -0.15382562994E+02  0.14359974212E+02  0.24334313441E+02  0.51100000000E-03 0.  1.
         12    1    3    3    0    0  0.32660725918E+01 -0.68782441053E+01  0.12959753839E+02  0.15031057571E+02  0.00000000000E+00 0. -1.
</event>
<event>
 7    1  0.3004200E-011  0.5052886E+02  0.7816164E-02  0.1300439E+00
        -11   -1    0    0    0    0  0.00000000000E+00  0.00000000000E+00  0.45593999997E+02  0.45594000000E+02  0.51100000000E-03 0. -1.
         11   -1    0    0    0    0 -0.00000000000E+00 -0.00000000000E+00 -0.45593999997E+02  0.45594000000E+02  0.51100000000E-03 0.  1.
    9900012    2    1    2    0    0 -0.34020112246E+02  0.13356126005E+02 -0.17816036633E+02  0.50528864490E+02  0.30000014105E+02 0.  0.
         12    1    1    2    0    0  0.34020112246E+02 -0.13356126005E+02  0.17816036633E+02  0.40659135510E+02  0.00000000000E+00 0. -1.
         11    1    3    3    0    0 -0.14626121207E+02  0.16198030380E+02 -0.16947389125E+02  0.27631750002E+02  0.51100000000E-03 0. -1.
        -11    1    3    3    0    0 -0.87910403309E+01 -0.25041382651E+01 -0.61795944367E+01  0.11033607126E+02  0.51100000000E-03 0.  1.
         12    1    3    3    0    0 -0.10602950708E+02 -0.33776610982E+00  0.53109469284E+01  0.11863507362E+02  0.00000000000E+00 0. -1.
</event>
<event>
 7    1  0.3004200E-011  0.5052886E+02  0.7816164E-02  0.1300439E+00
        -11   -1    0    0    0    0  0.00000000000E+00  0.00000000000E+00  0.45593999997E+02  0.45594000000E+02  0.51100000000E-03 0.  1.
         11   -1    0    0    0    0 -0.00000000000E+00 -0.00000000000E+00 -0.45593999997E+02  0.45594000000E+02  0.51100000000E-03 0. -1.
    9900012    2    1    2    0    0  0.15416402549E+02  0.25750046082E+02  0.27430550569E+02  0.50528862708E+02  0.30000008688E+02 0.  0.
         12    1    1    2    0    0 -0.15416402549E+02 -0.25750046082E+02 -0.27430550569E+02  0.40659137292E+02  0.00000000000E+00 0. -1.
         11    1    3    3    0    0 -0.54113166637E+01  0.18971685959E+02  0.14698641716E+02  0.24601977252E+02  0.51100000000E-03 0. -1.
        -11    1    3    3    0    0  0.14641260502E+02  0.66968359402E+01  0.11010074187E+02  0.19504764919E+02  0.51100000000E-03 0.  1.
        -12    1    3    3    0    0  0.61864587109E+01  0.81524183144E-01  0.17218346659E+01  0.64221205370E+01  0.00000000000E+00 0.  1.
</event>
<event>
 7    1  0.3004200E-011  0.5052885E+02  0.7816164E-02  0.1300439E+00
        -11   -1    0    0    0    0  0.00000000000E+00  0.00000000000E+00  0.45593999997E+02  0.45594000000E+02  0.51100000000E-03 0. -1.
         11   -1    0    0    0    0 -0.00000000000E+00 -0.00000000000E+00 -0.45593999997E+02  0.45594000000E+02  0.51100000000E-03 0.  1.
    9900012    2    1    2    0    0  0.10181255343E+02  0.32968771525E+02 -0.21507399410E+02  0.50528854834E+02  0.29999984754E+02 0.  0.
         12    1    1    2    0    0 -0.10181255343E+02 -0.32968771525E+02  0.21507399410E+02  0.40659145166E+02  0.00000000000E+00 0. -1.
         11    1    3    3    0    0 -0.24916135601E+01  0.36697819555E+01 -0.15231522959E+02  0.15864259505E+02  0.51100000000E-03 0. -1.
        -11    1    3    3    0    0  0.12704088152E+02  0.16308858557E+02 -0.65053953441E+01  0.21672399314E+02  0.51100000000E-03 0.  1.
         12    1    3    3    0    0 -0.31219248852E-01  0.12990131013E+02  0.22951889321E+00  0.12992196015E+02  0.00000000000E+00 0. -1.
</event>
<event>
 7    1  0.3004200E-011  0.5052886E+02  0.7816164E-02  0.1300439E+00
        -11   -1    0    0    0    0  0.00000000000E+00  0.00000000000E+00  0.45593999997E+02  0.45594000000E+02  0.51100000000E-03 0. -1.
         11   -1    0    0    0    0 -0.00000000000E+00 -0.00000000000E+00 -0.45593999997E+02  0.45594000000E+02  0.51100000000E-03 0.  1.
    9900012    2    1    2    0    0 -0.42871470640E+01 -0.37938494574E+02 -0.13980570880E+02  0.50528863725E+02  0.30000011778E+02 0.  0.
         12    1    1    2    0    0  0.42871470640E+01  0.37938494574E+02  0.13980570880E+02  0.40659136275E+02  0.00000000000E+00 0. -1.
         11    1    3    3    0    0 -0.16589005112E+01  0.44285559008E+01  0.18909548777E+01  0.50931099422E+01  0.51100000000E-03 0. -1.
        -11    1    3    3    0    0 -0.31844243252E+01 -0.27384743389E+02 -0.10785958379E+02  0.29604081258E+02  0.51100000000E-03 0.  1.
         12    1    3    3    0    0  0.55617777242E+00 -0.14982307087E+02 -0.50855673785E+01  0.15831672524E+02  0.00000000000E+00 0. -1.
</event>
<event>
 7    1  0.3004200E-011  0.5052887E+02  0.7816164E-02  0.1300439E+00
        -11   -1    0    0    0    0  0.00000000000E+00  0.00000000000E+00  0.45593999997E+02  0.45594000000E+02  0.51100000000E-03 0. -1.
         11   -1    0    0    0    0 -0.00000000000E+00 -0.00000000000E+00 -0.45593999997E+02  0.45594000000E+02  0.51100000000E-03 0.  1.
    9900012    2    1    2    0    0  0.32730163648E+02  0.21474455721E+02  0.10988584017E+02  0.50528870157E+02  0.30000031329E+02 0.  0.
         12    1    1    2    0    0 -0.32730163648E+02 -0.21474455721E+02 -0.10988584017E+02  0.40659129843E+02  0.00000000000E+00 0. -1.
         11    1    3    3    0    0  0.15952167209E+02  0.20825127554E+02  0.61029841537E+01  0.26933324937E+02  0.51100000000E-03 0. -1.
        -11    1    3    3    0    0  0.11215306340E+02 -0.13506028014E+01 -0.47796707117E+01  0.12265907084E+02  0.51100000000E-03 0.  1.
        -12    1    3    3    0    0  0.55626900988E+01  0.19999309684E+01  0.96652705749E+01  0.11329638136E+02  0.00000000000E+00 0.  1.
</event>
<event>
 7    1  0.3004200E-011  0.5052886E+02  0.7816164E-02  0.1300439E+00
        -11   -1    0    0    0    0  0.00000000000E+00  0.00000000000E+00  0.45593999997E+02  0.45594000000E+02  0.51100000000E-03 0. -1.
         11   -1    0    0    0    0 -0.00000000000E+00 -0.00000000000E+00 -0.45593999997E+02  0.45594000000E+02  0.51100000000E-03 0.  1.
    9900012    2    1    2    0    0 -0.73966715646E+01 -0.18753406648E+02 -0.35309551245E+02  0.50528863016E+02  0.30000009622E+02 0.  0.
         12    1    1    2    0    0  0.73966715646E+01  0.18753406648E+02  0.35309551245E+02  0.40659136984E+02  0.00000000000E+00 0. -1.
         11    1    3    3    0    0 -0.61655290849E+01 -0.15697675642E+02 -0.21854506608E+01  0.17006086097E+02  0.51100000000E-03 0. -1.
        -11    1    3    3    0    0 -0.24225451650E+01 -0.11739807975E+01 -0.22974748244E+02  0.23131926273E+02  0.51100000000E-03 0.  1.
         12    1    3    3    0    0  0.11914026852E+01 -0.18817502086E+01 -0.10149352341E+02  0.10390850646E+02  0.00000000000E+00 0. -1.
</event>
<event>
 7    1  0.3004200E-011  0.5052886E+02  0.7816164E-02  0.1300439E+00
        -11   -1    0    0    0    0  0.00000000000E+00  0.00000000000E+00  0.45593999997E+02  0.45594000000E+02  0.51100000000E-03 0.  1.
         11   -1    0    0    0    0 -0.00000000000E+00 -0.00000000000E+00 -0.45593999997E+02  0.45594000000E+02  0.51100000000E-03 0. -1.
    9900012    2    1    2    0    0  0.36629188181E+02 -0.15348103322E+02  0.87122985348E+01  0.50528857754E+02  0.29999993630E+02 0.  0.
         12    1    1    2    0    0 -0.36629188181E+02  0.15348103322E+02 -0.87122985348E+01  0.40659142246E+02  0.00000000000E+00 0. -1.
         11    1    3    3    0    0  0.34405689454E+02 -0.20910231914E+02  0.31155505533E+01  0.40381876145E+02  0.51100000000E-03 0. -1.
        -11    1    3    3    0    0  0.40092376845E+01  0.20030430500E+01  0.29975198343E+01  0.53917801967E+01  0.51100000000E-03 0.  1.
         12    1    3    3    0    0 -0.17857389575E+01  0.35590855411E+01  0.25992281472E+01  0.47552014126E+01  0.00000000000E+00 0. -1.
</event>
<event>
 7    1  0.3004200E-011  0.5052886E+02  0.7816164E-02  0.1300439E+00
        -11   -1    0    0    0    0  0.00000000000E+00  0.00000000000E+00  0.45593999997E+02  0.45594000000E+02  0.51100000000E-03 0. -1.
         11   -1    0    0    0    0 -0.00000000000E+00 -0.00000000000E+00 -0.45593999997E+02  0.45594000000E+02  0.51100000000E-03 0.  1.
    9900012    2    1    2    0    0  0.34255631327E+01 -0.78677885509E+01 -0.39743293361E+02  0.50528856543E+02  0.29999989948E+02 0.  0.
         12    1    1    2    0    0 -0.34255631327E+01  0.78677885509E+01  0.39743293361E+02  0.40659143457E+02  0.00000000000E+00 0. -1.
         11    1    3    3    0    0 -0.12337944492E+01  0.99774425317E+01 -0.15630683205E+02  0.18584667496E+02  0.51100000000E-03 0. -1.
        -11    1    3    3    0    0 -0.26513956154E+01 -0.92045262939E+01 -0.12213910491E+02  0.15522010590E+02  0.51100000000E-03 0.  1.
         12    1    3    3    0    0  0.73107531973E+01 -0.86407047887E+01 -0.11898699665E+02  0.16422178457E+02  0.00000000000E+00 0. -1.
</event>
<event>
 7    1  0.3559352E-011  0.5052886E+02  0.7816164E-02  0.1300439E+00
        -11   -1    0    0    0    0  0.00000000000E+00  0.00000000000E+00  0.45593999997E+02  0.45594000000E+02  0.51100000000E-03 0.  1.
         11   -1    0    0    0    0 -0.00000000000E+00 -0.00000000000E+00 -0.45593999997E+02  0.45594000000E+02  0.51100000000E-03 0. -1.
    9900012    2    1    2    0    0 -0.27020675074E+02 -0.27585370352E+02  0.12731701773E+02  0.50528858728E+02  0.29999996590E+02 0.  0.
         12    1    1    2    0    0  0.27020675074E+02  0.27585370352E+02 -0.12731701773E+02  0.40659141272E+02  0.00000000000E+00 0. -1.
         11    1    3    3    0    0 -0.31856594068E+01 -0.90018499182E+00 -0.33433469437E+01  0.47049684295E+01  0.51100000000E-03 0. -1.
        -11    1    3    3    0    0 -0.78207384163E+01 -0.25152191164E+02  0.66030951466E+01  0.27155064638E+02  0.51100000000E-03 0.  1.
        -12    1    3    3    0    0 -0.16014277251E+02 -0.15329941959E+01  0.94719535703E+01  0.18668825660E+02  0.00000000000E+00 0.  1.
</event>
<event>
 7    1  0.3004200E-011  0.5052887E+02  0.7816164E-02  0.1300439E+00
        -11   -1    0    0    0    0  0.00000000000E+00  0.00000000000E+00  0.45593999997E+02  0.45594000000E+02  0.51100000000E-03 0.  1.
         11   -1    0    0    0    0 -0.00000000000E+00 -0.00000000000E+00 -0.45593999997E+02  0.45594000000E+02  0.51100000000E-03 0. -1.
    9900012    2    1    2    0    0  0.19362457365E+02  0.28268862635E+02  0.21889064797E+02  0.50528874240E+02  0.30000043741E+02 0.  0.
         12    1    1    2    0    0 -0.19362457365E+02 -0.28268862635E+02 -0.21889064797E+02  0.40659125760E+02  0.00000000000E+00 0. -1.
         11    1    3    3    0    0  0.10821203232E+02  0.15797528484E+02  0.57719889113E+01  0.19999405037E+02  0.51100000000E-03 0. -1.
        -11    1    3    3    0    0 -0.32555107040E+01  0.71335037141E+01  0.15729317789E+02  0.17575456283E+02  0.51100000000E-03 0.  1.
        -12    1    3    3    0    0  0.11796764837E+02  0.53378304370E+01  0.38775809605E+00  0.12954012920E+02  0.00000000000E+00 0.  1.
</event>
<event>
 7    1  0.3004200E-011  0.5052885E+02  0.7816164E-02  0.1300439E+00
        -11   -1    0    0    0    0  0.00000000000E+00  0.00000000000E+00  0.45593999997E+02  0.45594000000E+02  0.51100000000E-03 0. -1.
         11   -1    0    0    0    0 -0.00000000000E+00 -0.00000000000E+00 -0.45593999997E+02  0.45594000000E+02  0.51100000000E-03 0.  1.
    9900012    2    1    2    0    0  0.33147315704E+02  0.37093757614E+01 -0.23252143700E+02  0.50528853506E+02  0.29999980718E+02 0.  0.
         12    1    1    2    0    0 -0.33147315704E+02 -0.37093757614E+01  0.23252143700E+02  0.40659146494E+02  0.00000000000E+00 0. -1.
         11    1    3    3    0    0  0.34344053717E+01  0.74381921367E+01 -0.15085992846E+02  0.17167091278E+02  0.51100000000E-03 0. -1.
        -11    1    3    3    0    0  0.18475733167E+02 -0.24780982506E-01 -0.10573590776E+02  0.21287417699E+02  0.51100000000E-03 0.  1.
         12    1    3    3    0    0  0.11237177166E+02 -0.37040353928E+01  0.24074399216E+01  0.12074344530E+02  0.00000000000E+00 0. -1.
</event>
<event>
 7    1  0.3004200E-011  0.5052886E+02  0.7816164E-02  0.1300439E+00
        -11   -1    0    0    0    0  0.00000000000E+00  0.00000000000E+00  0.45593999997E+02  0.45594000000E+02  0.51100000000E-03 0. -1.
         11   -1    0    0    0    0 -0.00000000000E+00 -0.00000000000E+00 -0.45593999997E+02  0.45594000000E+02  0.51100000000E-03 0.  1.
    9900012    2    1    2    0    0 -0.21232662635E+02  0.30931811338E+02 -0.15670437519E+02  0.50528861700E+02  0.30000005624E+02 0.  0.
         12    1    1    2    0    0  0.21232662635E+02 -0.30931811338E+02  0.15670437519E+02  0.40659138300E+02  0.00000000000E+00 0. -1.
         11    1    3    3    0    0 -0.19362398228E+02  0.88873256889E+01 -0.30606261549E+01  0.21523346761E+02  0.51100000000E-03 0. -1.
        -11    1    3    3    0    0  0.56965772866E+01  0.85559059217E+01 -0.74746107950E+01  0.12709222074E+02  0.51100000000E-03 0.  1.
        -12    1    3    3    0    0 -0.75668416935E+01  0.13488579727E+02 -0.51352005695E+01  0.16296292866E+02  0.00000000000E+00 0.  1.
</event>
<event>
 7    1  0.3004200E-011  0.5052887E+02  0.7816164E-02  0.1300439E+00
        -11   -1    0    0    0    0  0.00000000000E+00  0.00000000000E+00  0.45593999997E+02  0.45594000000E+02  0.51100000000E-03 0.  1.
         11   -1    0    0    0    0 -0.00000000000E+00 -0.00000000000E+00 -0.45593999997E+02  0.45594000000E+02  0.51100000000E-03 0. -1.
    9900012    2    1    2    0    0 -0.31558943460E+02  0.23918090120E+02  0.92262106224E+01  0.50528869294E+02  0.30000028707E+02 0.  0.
         12    1    1    2    0    0  0.31558943460E+02 -0.23918090120E+02 -0.92262106224E+01  0.40659130706E+02  0.00000000000E+00 0. -1.
         11    1    3    3    0    0  0.33349763533E+01 -0.24231948992E+01  0.23196048520E+01  0.47301699470E+01  0.51100000000E-03 0. -1.
        -11    1    3    3    0    0 -0.15072799557E+02  0.72342754322E+01  0.73521430234E+01  0.18264118780E+02  0.51100000000E-03 0.  1.
         12    1    3    3    0    0 -0.19821120256E+02  0.19107009587E+02 -0.44553725296E+00  0.27534580567E+02  0.00000000000E+00 0. -1.
</event>
<event>
 7    1  0.3004200E-011  0.5052887E+02  0.7816164E-02  0.1300439E+00
        -11   -1    0    0    0    0  0.00000000000E+00  0.00000000000E+00  0.45593999997E+02  0.45594000000E+02  0.51100000000E-03 0. -1.
         11   -1    0    0    0    0 -0.00000000000E+00 -0.00000000000E+00 -0.45593999997E+02  0.45594000000E+02  0.51100000000E-03 0.  1.
    9900012    2    1    2    0    0  0.25335350982E+02  0.23182901780E+02 -0.21767809230E+02  0.50528874789E+02  0.30000045407E+02 0.  0.
         12    1    1    2    0    0 -0.25335350982E+02 -0.23182901780E+02  0.21767809230E+02  0.40659125211E+02  0.00000000000E+00 0. -1.
         11    1    3    3    0    0 -0.44280057975E+00  0.55992896532E+01 -0.47603640756E+01  0.73626885964E+01  0.51100000000E-03 0. -1.
        -11    1    3    3    0    0  0.27051348550E+02  0.61381643783E+01 -0.14800644058E+02  0.31440604083E+02  0.51100000000E-03 0.  1.
        -12    1    3    3    0    0 -0.12731969882E+01  0.11445447748E+02 -0.22068010959E+01  0.11725582110E+02  0.00000000000E+00 0.  1.
</event>
<event>
 7    1  0.3004200E-011  0.5052886E+02  0.7816164E-02  0.1300439E+00
        -11   -1    0    0    0    0  0.00000000000E+00  0.00000000000E+00  0.45593999997E+02  0.45594000000E+02  0.51100000000E-03 0.  1.
         11   -1    0    0    0    0 -0.00000000000E+00 -0.00000000000E+00 -0.45593999997E+02  0.45594000000E+02  0.51100000000E-03 0. -1.
    9900012    2    1    2    0    0  0.34637663578E+02 -0.21169586129E+02 -0.22905382299E+01  0.50528859817E+02  0.29999999901E+02 0.  0.
         12    1    1    2    0    0 -0.34637663578E+02  0.21169586129E+02  0.22905382299E+01  0.40659140183E+02  0.00000000000E+00 0. -1.
         11    1    3    3    0    0  0.90101648999E+01 -0.80032848775E+00  0.31209992433E+01  0.95689201977E+01  0.51100000000E-03 0. -1.
        -11    1    3    3    0    0  0.48692956015E+01 -0.19034553198E+02 -0.44007917615E+01  0.20134329477E+02  0.51100000000E-03 0.  1.
        -12    1    3    3    0    0  0.20758203076E+02 -0.13347044428E+01 -0.10107457117E+01  0.20825610143E+02  0.00000000000E+00 0.  1.
</event>
<event>
 7    1  0.3004200E-011  0.5052886E+02  0.7816164E-02  0.1300439E+00
        -11   -1    0    0    0    0  0.00000000000E+00  0.00000000000E+00  0.45593999997E+02  0.45594000000E+02  0.51100000000E-03 0. -1.
         11   -1    0    0    0    0 -0.00000000000E+00 -0.00000000000E+00 -0.45593999997E+02  0.45594000000E+02  0.51100000000E-03 0.  1.
    9900012    2    1    2    0    0 -0.12153674299E+02  0.87485790751E+01 -0.37801005373E+02  0.50528862749E+02  0.30000008813E+02 0.  0.
         12    1    1    2    0    0  0.12153674299E+02 -0.87485790751E+01  0.37801005373E+02  0.40659137251E+02  0.00000000000E+00 0. -1.
         11    1    3    3    0    0  0.32626310897E+00  0.42061147268E+01  0.15501019468E+01  0.44945149925E+01  0.51100000000E-03 0. -1.
        -11    1    3    3    0    0 -0.17788367722E+02  0.21400146631E+01 -0.31756268064E+02  0.36461846506E+02  0.51100000000E-03 0.  1.
        -12    1    3    3    0    0  0.53084303144E+01  0.24024496852E+01 -0.75948392548E+01  0.95725012509E+01  0.00000000000E+00 0.  1.
</event>
<event>
 7    1  0.3004200E-011  0.5052888E+02  0.7816164E-02  0.1300439E+00
        -11   -1    0    0    0    0  0.00000000000E+00  0.00000000000E+00  0.45593999997E+02  0.45594000000E+02  0.51100000000E-03 0.  1.
         11   -1    0    0    0    0 -0.00000000000E+00 -0.00000000000E+00 -0.45593999997E+02  0.45594000000E+02  0.51100000000E-03 0. -1.
    9900012    2    1    2    0    0 -0.85644373037E+01  0.54978703413E+01  0.39364809119E+02  0.50528876035E+02  0.30000049197E+02 0.  0.
         12    1    1    2    0    0  0.85644373037E+01 -0.54978703413E+01 -0.39364809119E+02  0.40659123965E+02  0.00000000000E+00 0. -1.
         11    1    3    3    0    0 -0.90168159334E-01 -0.36022122544E+01 -0.30414662853E+01  0.47153558560E+01  0.51100000000E-03 0. -1.
        -11    1    3    3    0    0 -0.10993446482E+02  0.66099914877E+01  0.25552885274E+02  0.28591918423E+02  0.51100000000E-03 0.  1.
         12    1    3    3    0    0  0.25191773373E+01  0.24900911079E+01  0.16853390130E+02  0.17221601757E+02  0.00000000000E+00 0. -1.
</event>
<event>
 7    1  0.3004200E-011  0.5052882E+02  0.7816164E-02  0.1300439E+00
        -11   -1    0    0    0    0  0.00000000000E+00  0.00000000000E+00  0.45593999997E+02  0.45594000000E+02  0.51100000000E-03 0.  1.
         11   -1    0    0    0    0 -0.00000000000E+00 -0.00000000000E+00 -0.45593999997E+02  0.45594000000E+02  0.51100000000E-03 0. -1.
    9900012    2    1    2    0    0 -0.21933359250E+02 -0.29075677084E+02  0.18074884098E+02  0.50528822917E+02  0.29999887739E+02 0.  0.
         12    1    1    2    0    0  0.21933359250E+02  0.29075677084E+02 -0.18074884098E+02  0.40659177083E+02  0.00000000000E+00 0. -1.
         11    1    3    3    0    0 -0.15281188961E+02 -0.11232343790E+02  0.19111207330E+02  0.26924311114E+02  0.51100000000E-03 0. -1.
        -11    1    3    3    0    0 -0.55712413938E+01 -0.18427521978E+02  0.29112205804E+01  0.19470169553E+02  0.51100000000E-03 0.  1.
         12    1    3    3    0    0 -0.10809288952E+01  0.58418868377E+00 -0.39475438121E+01  0.41343422504E+01  0.00000000000E+00 0. -1.
</event>
<event>
 7    1  0.3004200E-011  0.5052890E+02  0.7816164E-02  0.1300439E+00
        -11   -1    0    0    0    0  0.00000000000E+00  0.00000000000E+00  0.45593999997E+02  0.45594000000E+02  0.51100000000E-03 0.  1.
         11   -1    0    0    0    0 -0.00000000000E+00 -0.00000000000E+00 -0.45593999997E+02  0.45594000000E+02  0.51100000000E-03 0. -1.
    9900012    2    1    2    0    0 -0.28121117514E+02  0.11008026961E+01  0.29345418704E+02  0.50528897505E+02  0.30000114456E+02 0.  0.
         12    1    1    2    0    0  0.28121117514E+02 -0.11008026961E+01 -0.29345418704E+02  0.40659102495E+02  0.00000000000E+00 0. -1.
         11    1    3    3    0    0 -0.19788931270E+02  0.11981127687E+02  0.19892033941E+02  0.30509707243E+02  0.51100000000E-03 0. -1.
        -11    1    3    3    0    0  0.22690297251E+00 -0.88436673099E+01  0.48876091762E+01  0.10106960976E+02  0.51100000000E-03 0.  1.
        -12    1    3    3    0    0 -0.85590892157E+01 -0.20366576812E+01  0.45657755865E+01  0.99122292861E+01  0.00000000000E+00 0.  1.
</event>
<event>
 7    1  0.3004200E-011  0.5052887E+02  0.7816164E-02  0.1300439E+00
        -11   -1    0    0    0    0  0.00000000000E+00  0.00000000000E+00  0.45593999997E+02  0.45594000000E+02  0.51100000000E-03 0.  1.
         11   -1    0    0    0    0 -0.00000000000E+00 -0.00000000000E+00 -0.45593999997E+02  0.45594000000E+02  0.51100000000E-03 0. -1.
    9900012    2    1    2    0    0  0.37576410911E+02 -0.24586163347E+01  0.15334066900E+02  0.50528867460E+02  0.30000023130E+02 0.  0.
         12    1    1    2    0    0 -0.37576410911E+02  0.24586163347E+01 -0.15334066900E+02  0.40659132540E+02  0.00000000000E+00 0. -1.
         11    1    3    3    0    0  0.16649570471E+02 -0.12680165960E+01 -0.58870987798E+01  0.17705196844E+02  0.51100000000E-03 0. -1.
        -11    1    3    3    0    0  0.14293403896E+02 -0.57885666820E+01  0.18964383096E+02  0.24442927927E+02  0.51100000000E-03 0.  1.
         12    1    3    3    0    0  0.66334365434E+01  0.45979669433E+01  0.22567825837E+01  0.83807426888E+01  0.00000000000E+00 0. -1.
</event>
<event>
 7    1  0.3004200E-011  0.5052885E+02  0.7816164E-02  0.1300439E+00
        -11   -1    0    0    0    0  0.00000000000E+00  0.00000000000E+00  0.45593999997E+02  0.45594000000E+02  0.51100000000E-03 0.  1.
         11   -1    0    0    0    0 -0.00000000000E+00 -0.00000000000E+00 -0.45593999997E+02  0.45594000000E+02  0.51100000000E-03 0. -1.
    9900012    2    1    2    0    0 -0.11446295845E+01  0.38829501852E+02  0.12005244648E+02  0.50528852320E+02  0.29999977113E+02 0.  0.
         12    1    1    2    0    0  0.11446295845E+01 -0.38829501852E+02 -0.12005244648E+02  0.40659147680E+02  0.00000000000E+00 0. -1.
         11    1    3    3    0    0  0.38460781940E+01 -0.34698269555E+00  0.65248579591E+01  0.75819843123E+01  0.51100000000E-03 0. -1.
        -11    1    3    3    0    0  0.20596399326E+01  0.28482354709E+02 -0.10360521284E+01  0.28575514880E+02  0.51100000000E-03 0.  1.
        -12    1    3    3    0    0 -0.70503477111E+01  0.10694129839E+02  0.65164388176E+01  0.14371353128E+02  0.00000000000E+00 0.  1.
</event>
<event>
 7    1  0.3004200E-011  0.5052886E+02  0.7816164E-02  0.1300439E+00
        -11   -1    0    0    0    0  0.00000000000E+00  0.00000000000E+00  0.45593999997E+02  0.45594000000E+02  0.51100000000E-03 0.  1.
         11   -1    0    0    0    0 -0.00000000000E+00 -0.00000000000E+00 -0.45593999997E+02  0.45594000000E+02  0.51100000000E-03 0. -1.
    9900012    2    1    2    0    0 -0.37550456053E+02 -0.22816861208E+01 -0.15424746506E+02  0.50528860239E+02  0.30000001182E+02 0.  0.
         12    1    1    2    0    0  0.37550456053E+02  0.22816861208E+01  0.15424746506E+02  0.40659139761E+02  0.00000000000E+00 0. -1.
         11    1    3    3    0    0 -0.75903382101E+01 -0.10321284824E+01  0.43413269857E+01  0.88048647693E+01  0.51100000000E-03 0.  1.
        -11    1    3    3    0    0 -0.21041391392E+02 -0.42964163814E+01 -0.23273326638E+02  0.31667760870E+02  0.51100000000E-03 0. -1.
         12    1    3    3    0    0 -0.89187264504E+01  0.30468587430E+01  0.35072531461E+01  0.10056234600E+02  0.00000000000E+00 0. -1.
</event>
<event>
 7    1  0.3004200E-011  0.5052888E+02  0.7816164E-02  0.1300439E+00
        -11   -1    0    0    0    0  0.00000000000E+00  0.00000000000E+00  0.45593999997E+02  0.45594000000E+02  0.51100000000E-03 0.  1.
         11   -1    0    0    0    0 -0.00000000000E+00 -0.00000000000E+00 -0.45593999997E+02  0.45594000000E+02  0.51100000000E-03 0. -1.
    9900012    2    1    2    0    0 -0.40357518600E+02 -0.29962224383E+01 -0.39316107575E+01  0.50528877781E+02  0.30000054504E+02 0.  0.
         12    1    1    2    0    0  0.40357518600E+02  0.29962224383E+01  0.39316107575E+01  0.40659122219E+02  0.00000000000E+00 0. -1.
         11    1    3    3    0    0 -0.63052979570E+01  0.25600688963E+01 -0.76462372760E+01  0.10235999210E+02  0.51100000000E-03 0. -1.
        -11    1    3    3    0    0 -0.32643665807E+02 -0.85791732661E-01  0.74982665410E+01  0.33493884202E+02  0.51100000000E-03 0.  1.
        -12    1    3    3    0    0 -0.14085548360E+01 -0.54704996019E+01 -0.37836400225E+01  0.67989943698E+01  0.00000000000E+00 0.  1.
</event>
<event>
 7    1  0.3004200E-011  0.5052887E+02  0.7816164E-02  0.1300439E+00
        -11   -1    0    0    0    0  0.00000000000E+00  0.00000000000E+00  0.45593999997E+02  0.45594000000E+02  0.51100000000E-03 0.  1.
         11   -1    0    0    0    0 -0.00000000000E+00 -0.00000000000E+00 -0.45593999997E+02  0.45594000000E+02  0.51100000000E-03 0. -1.
    9900012    2    1    2    0    0  0.84563999420E+01 -0.35633158103E+02  0.17661610302E+02  0.50528866526E+02  0.30000020293E+02 0.  0.
         12    1    1    2    0    0 -0.84563999420E+01  0.35633158103E+02 -0.17661610302E+02  0.40659133474E+02  0.00000000000E+00 0. -1.
         11    1    3    3    0    0  0.59818077730E+01 -0.30561625301E+02  0.18830344799E+02  0.36391988827E+02  0.51100000000E-03 0.  1.
        -11    1    3    3    0    0 -0.44672365420E+01 -0.34340673289E+00 -0.31875540996E+01  0.54986027229E+01  0.51100000000E-03 0. -1.
        -12    1    3    3    0    0  0.69418287111E+01 -0.47281260695E+01  0.20188196024E+01  0.86382749765E+01  0.00000000000E+00 0.  1.
</event>
<event>
 7    1  0.3004200E-011  0.5052886E+02  0.7816164E-02  0.1300439E+00
        -11   -1    0    0    0    0  0.00000000000E+00  0.00000000000E+00  0.45593999997E+02  0.45594000000E+02  0.51100000000E-03 0.  1.
         11   -1    0    0    0    0 -0.00000000000E+00 -0.00000000000E+00 -0.45593999997E+02  0.45594000000E+02  0.51100000000E-03 0. -1.
    9900012    2    1    2    0    0  0.13109221925E+02  0.17849967972E+02  0.34098279517E+02  0.50528859305E+02  0.29999998343E+02 0.  0.
         12    1    1    2    0    0 -0.13109221925E+02 -0.17849967972E+02 -0.34098279517E+02  0.40659140695E+02  0.00000000000E+00 0. -1.
         11    1    3    3    0    0  0.57074065069E+01  0.19881776407E+02  0.36780459539E+02  0.42197887699E+02  0.51100000000E-03 0.  1.
        -11    1    3    3    0    0  0.60575985921E+01 -0.10396143372E+01 -0.16376831193E+01  0.63606057050E+01  0.51100000000E-03 0. -1.
        -12    1    3    3    0    0  0.13442168255E+01 -0.99219409767E+00 -0.10444969029E+01  0.19703659004E+01  0.00000000000E+00 0.  1.
</event>
<event>
 7    1  0.3004200E-011  0.5052883E+02  0.7816164E-02  0.1300439E+00
        -11   -1    0    0    0    0  0.00000000000E+00  0.00000000000E+00  0.45593999997E+02  0.45594000000E+02  0.51100000000E-03 0. -1.
         11   -1    0    0    0    0 -0.00000000000E+00 -0.00000000000E+00 -0.45593999997E+02  0.45594000000E+02  0.51100000000E-03 0.  1.
    9900012    2    1    2    0    0  0.13333580684E+02  0.35551817464E+02 -0.14541397154E+02  0.50528827234E+02  0.29999900859E+02 0.  0.
         12    1    1    2    0    0 -0.13333580684E+02 -0.35551817464E+02  0.14541397154E+02  0.40659172766E+02  0.00000000000E+00 0. -1.
         11    1    3    3    0    0  0.66155161929E+01  0.24023276768E+02 -0.10442300660E+02  0.27017115399E+02  0.51100000000E-03 0. -1.
        -11    1    3    3    0    0 -0.21902270039E+01  0.60035402359E+00 -0.84553483800E+01  0.87550234591E+01  0.51100000000E-03 0.  1.
         12    1    3    3    0    0  0.89082914950E+01  0.10928186673E+02  0.43562518855E+01  0.14756688375E+02  0.00000000000E+00 0. -1.
</event>
<event>
 7    1  0.3004200E-011  0.5052886E+02  0.7816164E-02  0.1300439E+00
        -11   -1    0    0    0    0  0.00000000000E+00  0.00000000000E+00  0.45593999997E+02  0.45594000000E+02  0.51100000000E-03 0.  1.
         11   -1    0    0    0    0 -0.00000000000E+00 -0.00000000000E+00 -0.45593999997E+02  0.45594000000E+02  0.51100000000E-03 0. -1.
    9900012    2    1    2    0    0 -0.24160947474E+02 -0.22661177666E+02  0.23577214178E+02  0.50528863457E+02  0.30000010962E+02 0.  0.
         12    1    1    2    0    0  0.24160947474E+02  0.22661177666E+02 -0.23577214178E+02  0.40659136543E+02  0.00000000000E+00 0. -1.
         11    1    3    3    0    0 -0.17174496616E+02 -0.17880539283E+02  0.76914620827E+01  0.25958343713E+02  0.51100000000E-03 0. -1.
        -11    1    3    3    0    0 -0.10854488847E+02 -0.45136929052E+01  0.16877906876E+02  0.20568351722E+02  0.51100000000E-03 0.  1.
         12    1    3    3    0    0  0.38680379885E+01 -0.26694547748E+00 -0.99215478070E+00  0.40021680221E+01  0.00000000000E+00 0. -1.
</event>
<event>
 7    1  0.3004200E-011  0.5052886E+02  0.7816164E-02  0.1300439E+00
        -11   -1    0    0    0    0  0.00000000000E+00  0.00000000000E+00  0.45593999997E+02  0.45594000000E+02  0.51100000000E-03 0. -1.
         11   -1    0    0    0    0 -0.00000000000E+00 -0.00000000000E+00 -0.45593999997E+02  0.45594000000E+02  0.51100000000E-03 0.  1.
    9900012    2    1    2    0    0  0.33599870079E+02 -0.11173901829E+02 -0.19983955646E+02  0.50528857920E+02  0.29999994134E+02 0.  0.
         12    1    1    2    0    0 -0.33599870079E+02  0.11173901829E+02  0.19983955646E+02  0.40659142080E+02  0.00000000000E+00 0. -1.
         11    1    3    3    0    0  0.36203546319E+01 -0.92272259049E+01 -0.90928702177E+00  0.99536660940E+01  0.51100000000E-03 0. -1.
        -11    1    3    3    0    0  0.26459781021E+02 -0.58946578515E+01 -0.21649620361E+02  0.34692550568E+02  0.51100000000E-03 0.  1.
         12    1    3    3    0    0  0.35197344260E+01  0.39479819276E+01  0.25749517363E+01  0.58826412583E+01  0.00000000000E+00 0. -1.
</event>
<event>
 7    1  0.3004200E-011  0.5052886E+02  0.7816164E-02  0.1300439E+00
        -11   -1    0    0    0    0  0.00000000000E+00  0.00000000000E+00  0.45593999997E+02  0.45594000000E+02  0.51100000000E-03 0. -1.
         11   -1    0    0    0    0 -0.00000000000E+00 -0.00000000000E+00 -0.45593999997E+02  0.45594000000E+02  0.51100000000E-03 0.  1.
    9900012    2    1    2    0    0  0.24276131333E+02  0.24487378904E+02 -0.21545382771E+02  0.50528858385E+02  0.29999995548E+02 0.  0.
         12    1    1    2    0    0 -0.24276131333E+02 -0.24487378904E+02  0.21545382771E+02  0.40659141615E+02  0.00000000000E+00 0. -1.
         11    1    3    3    0    0 -0.34372165038E+01  0.13349343802E+02 -0.75154639620E+00  0.13805225803E+02  0.51100000000E-03 0. -1.
        -11    1    3    3    0    0  0.13452028846E+02  0.52916341976E+01 -0.70951718379E+01  0.16102792808E+02  0.51100000000E-03 0.  1.
         12    1    3    3    0    0  0.14261318991E+02  0.58464009051E+01 -0.13698664537E+02  0.20620839774E+02  0.00000000000E+00 0. -1.
</event>
<event>
 7    1  0.3004200E-011  0.5052885E+02  0.7816164E-02  0.1300439E+00
        -11   -1    0    0    0    0  0.00000000000E+00  0.00000000000E+00  0.45593999997E+02  0.45594000000E+02  0.51100000000E-03 0.  1.
         11   -1    0    0    0    0 -0.00000000000E+00 -0.00000000000E+00 -0.45593999997E+02  0.45594000000E+02  0.51100000000E-03 0. -1.
    9900012    2    1    2    0    0  0.12731583458E+02 -0.36253872608E+02 -0.13293970996E+02  0.50528853904E+02  0.29999981926E+02 0.  0.
         12    1    1    2    0    0 -0.12731583458E+02  0.36253872608E+02  0.13293970996E+02  0.40659146096E+02  0.00000000000E+00 0. -1.
         11    1    3    3    0    0  0.25516206780E+01 -0.29086705358E+02 -0.16907178260E+02  0.33740181885E+02  0.51100000000E-03 0. -1.
        -11    1    3    3    0    0  0.48585085323E+01 -0.92885286665E+01  0.35250562427E+01  0.11059289838E+02  0.51100000000E-03 0.  1.
         12    1    3    3    0    0  0.53214542474E+01  0.21213614165E+01  0.88151021492E-01  0.57293821804E+01  0.00000000000E+00 0. -1.
</event>
<event>
 7    1  0.3241048E-011  0.5052886E+02  0.7816164E-02  0.1300439E+00
        -11   -1    0    0    0    0  0.00000000000E+00  0.00000000000E+00  0.45593999997E+02  0.45594000000E+02  0.51100000000E-03 0.  1.
         11   -1    0    0    0    0 -0.00000000000E+00 -0.00000000000E+00 -0.45593999997E+02  0.45594000000E+02  0.51100000000E-03 0. -1.
    9900012    2    1    2    0    0 -0.32949666529E+02  0.13660244590E+02  0.19516223154E+02  0.50528858681E+02  0.29999996446E+02 0.  0.
         12    1    1    2    0    0  0.32949666529E+02 -0.13660244590E+02 -0.19516223154E+02  0.40659141319E+02  0.00000000000E+00 0. -1.
         11    1    3    3    0    0 -0.73169074958E+01 -0.26558757929E+01 -0.53385382521E+01  0.94387924259E+01  0.51100000000E-03 0. -1.
        -11    1    3    3    0    0 -0.23049273352E+02  0.10199574730E+02  0.15402311010E+02  0.29538644374E+02  0.51100000000E-03 0.  1.
        -12    1    3    3    0    0 -0.25834856807E+01  0.61165456521E+01  0.94524503962E+01  0.11551421881E+02  0.00000000000E+00 0.  1.
</event>
<event>
 7    1  0.3004200E-011  0.5052886E+02  0.7816164E-02  0.1300439E+00
        -11   -1    0    0    0    0  0.00000000000E+00  0.00000000000E+00  0.45593999997E+02  0.45594000000E+02  0.51100000000E-03 0. -1.
         11   -1    0    0    0    0 -0.00000000000E+00 -0.00000000000E+00 -0.45593999997E+02  0.45594000000E+02  0.51100000000E-03 0.  1.
    9900012    2    1    2    0    0 -0.24656395289E+02 -0.18860498698E+02 -0.26258515547E+02  0.50528857381E+02  0.29999992495E+02 0.  0.
         12    1    1    2    0    0  0.24656395289E+02  0.18860498698E+02  0.26258515547E+02  0.40659142619E+02  0.00000000000E+00 0. -1.
         11    1    3    3    0    0 -0.90355323936E+01 -0.54282948676E+01  0.50084727550E+01  0.11670134121E+02  0.51100000000E-03 0. -1.
        -11    1    3    3    0    0 -0.33777202987E+01 -0.88260756624E+01 -0.90969261290E+01  0.13117266151E+02  0.51100000000E-03 0.  1.
         12    1    3    3    0    0 -0.12243142597E+02 -0.46061281678E+01 -0.22170062173E+02  0.25741457109E+02  0.00000000000E+00 0. -1.
</event>
<event>
 7    1  0.3004200E-011  0.5052888E+02  0.7816164E-02  0.1300439E+00
        -11   -1    0    0    0    0  0.00000000000E+00  0.00000000000E+00  0.45593999997E+02  0.45594000000E+02  0.51100000000E-03 0.  1.
         11   -1    0    0    0    0 -0.00000000000E+00 -0.00000000000E+00 -0.45593999997E+02  0.45594000000E+02  0.51100000000E-03 0. -1.
    9900012    2    1    2    0    0  0.31769762236E+02  0.42023072139E+01  0.25023721477E+02  0.50528882756E+02  0.30000069625E+02 0.  0.
         12    1    1    2    0    0 -0.31769762236E+02 -0.42023072139E+01 -0.25023721477E+02  0.40659117244E+02  0.00000000000E+00 0. -1.
         11    1    3    3    0    0  0.28842968134E+02  0.74228876026E+01  0.30784573439E+02  0.42833468610E+02  0.51100000000E-03 0.  1.
        -11    1    3    3    0    0  0.32157422157E+01 -0.19004232089E+01 -0.39578500809E+01  0.54421672057E+01  0.51100000000E-03 0. -1.
        -12    1    3    3    0    0 -0.28894811333E+00 -0.13201571798E+01 -0.18030018804E+01  0.22532469399E+01  0.00000000000E+00 0.  1.
</event>
<event>
 7    1  0.3004200E-011  0.5052886E+02  0.7816164E-02  0.1300439E+00
        -11   -1    0    0    0    0  0.00000000000E+00  0.00000000000E+00  0.45593999997E+02  0.45594000000E+02  0.51100000000E-03 0.  1.
         11   -1    0    0    0    0 -0.00000000000E+00 -0.00000000000E+00 -0.45593999997E+02  0.45594000000E+02  0.51100000000E-03 0. -1.
    9900012    2    1    2    0    0  0.75121884222E+01  0.36858043794E+02 -0.15434293345E+02  0.50528858614E+02  0.29999996242E+02 0.  0.
         12    1    1    2    0    0 -0.75121884222E+01 -0.36858043794E+02  0.15434293345E+02  0.40659141386E+02  0.00000000000E+00 0. -1.
         11    1    3    3    0    0  0.47811813141E+01  0.57395560854E+01 -0.80312816416E+01  0.10968303601E+02  0.51100000000E-03 0. -1.
        -11    1    3    3    0    0  0.24969340721E+01  0.14040867665E+01  0.62376156297E+01  0.68639630254E+01  0.51100000000E-03 0.  1.
        -12    1    3    3    0    0  0.23407303600E+00  0.29714400942E+02 -0.13640627333E+02  0.32696591987E+02  0.00000000000E+00 0.  1.
</event>
<event>
 7    1  0.3004200E-011  0.5052886E+02  0.7816164E-02  0.1300439E+00
        -11   -1    0    0    0    0  0.00000000000E+00  0.00000000000E+00  0.45593999997E+02  0.45594000000E+02  0.51100000000E-03 0.  1.
         11   -1    0    0    0    0 -0.00000000000E+00 -0.00000000000E+00 -0.45593999997E+02  0.45594000000E+02  0.51100000000E-03 0. -1.
    9900012    2    1    2    0    0 -0.59226268496E+01  0.24569358997E+02  0.31850187796E+02  0.50528863598E+02  0.30000011392E+02 0.  0.
         12    1    1    2    0    0  0.59226268496E+01 -0.24569358997E+02 -0.31850187796E+02  0.40659136402E+02  0.00000000000E+00 0. -1.
         11    1    3    3    0    0 -0.15238305851E+02  0.88958326279E+01  0.93348983964E+01  0.19962017225E+02  0.51100000000E-03 0. -1.
        -11    1    3    3    0    0  0.55388258776E+01  0.23726754374E+01  0.32288810858E+01  0.68362163629E+01  0.51100000000E-03 0.  1.
         12    1    3    3    0    0  0.37768531241E+01  0.13300850932E+02  0.19286408313E+02  0.23730630010E+02  0.00000000000E+00 0. -1.
</event>
<event>
 7    1  0.3004200E-011  0.5052886E+02  0.7816164E-02  0.1300439E+00
        -11   -1    0    0    0    0  0.00000000000E+00  0.00000000000E+00  0.45593999997E+02  0.45594000000E+02  0.51100000000E-03 0.  1.
         11   -1    0    0    0    0 -0.00000000000E+00 -0.00000000000E+00 -0.45593999997E+02  0.45594000000E+02  0.51100000000E-03 0. -1.
    9900012    2    1    2    0    0  0.60818218900E+01 -0.39301953871E+02  0.84577268686E+01  0.50528864749E+02  0.30000014892E+02 0.  0.
         12    1    1    2    0    0 -0.60818218900E+01  0.39301953871E+02 -0.84577268686E+01  0.40659135251E+02  0.00000000000E+00 0. -1.
         11    1    3    3    0    0 -0.41852880942E+01 -0.27408440969E+02  0.66524047189E+01  0.28513045463E+02  0.51100000000E-03 0. -1.
        -11    1    3    3    0    0  0.56853743317E+01  0.29387463889E+01  0.12329665406E+00  0.64011650468E+01  0.51100000000E-03 0.  1.
        -12    1    3    3    0    0  0.45817356525E+01 -0.14832259291E+02  0.16820254957E+01  0.15614654240E+02  0.00000000000E+00 0.  1.
</event>
<event>
 7    1  0.3004200E-011  0.5052886E+02  0.7816164E-02  0.1300439E+00
        -11   -1    0    0    0    0  0.00000000000E+00  0.00000000000E+00  0.45593999997E+02  0.45594000000E+02  0.51100000000E-03 0.  1.
         11   -1    0    0    0    0 -0.00000000000E+00 -0.00000000000E+00 -0.45593999997E+02  0.45594000000E+02  0.51100000000E-03 0. -1.
    9900012    2    1    2    0    0  0.12900589901E+02 -0.37322057302E+02  0.96852810332E+01  0.50528857735E+02  0.29999993571E+02 0.  0.
         12    1    1    2    0    0 -0.12900589901E+02  0.37322057302E+02 -0.96852810332E+01  0.40659142265E+02  0.00000000000E+00 0. -1.
         11    1    3    3    0    0  0.11437971171E+00  0.26088041880E+01  0.53569850061E+01  0.59595495321E+01  0.51100000000E-03 0. -1.
        -11    1    3    3    0    0  0.95757961599E+01 -0.35037356930E+02  0.85963599666E+01  0.37325723806E+02  0.51100000000E-03 0.  1.
         12    1    3    3    0    0  0.32104140291E+01 -0.48935045602E+01 -0.42680639395E+01  0.72435843965E+01  0.00000000000E+00 0. -1.
</event>
<event>
 7    1  0.3004200E-011  0.5052886E+02  0.7816164E-02  0.1300439E+00
        -11   -1    0    0    0    0  0.00000000000E+00  0.00000000000E+00  0.45593999997E+02  0.45594000000E+02  0.51100000000E-03 0.  1.
         11   -1    0    0    0    0 -0.00000000000E+00 -0.00000000000E+00 -0.45593999997E+02  0.45594000000E+02  0.51100000000E-03 0. -1.
    9900012    2    1    2    0    0  0.16990087023E+02  0.32807214018E+02  0.16976136327E+02  0.50528861381E+02  0.30000004652E+02 0.  0.
         12    1    1    2    0    0 -0.16990087023E+02 -0.32807214018E+02 -0.16976136327E+02  0.40659138619E+02  0.00000000000E+00 0. -1.
         11    1    3    3    0    0 -0.22463762531E+01  0.96833551696E+01  0.38130693063E+01  0.10646739943E+02  0.51100000000E-03 0. -1.
        -11    1    3    3    0    0  0.18852176841E+02  0.68150899032E+01  0.20663184519E+01  0.20152411623E+02  0.51100000000E-03 0.  1.
        -12    1    3    3    0    0  0.38428643562E+00  0.16308768945E+02  0.11096748569E+02  0.19729709815E+02  0.00000000000E+00 0.  1.
</event>
<event>
 7    1  0.3004200E-011  0.5052886E+02  0.7816164E-02  0.1300439E+00
        -11   -1    0    0    0    0  0.00000000000E+00  0.00000000000E+00  0.45593999997E+02  0.45594000000E+02  0.51100000000E-03 0.  1.
         11   -1    0    0    0    0 -0.00000000000E+00 -0.00000000000E+00 -0.45593999997E+02  0.45594000000E+02  0.51100000000E-03 0. -1.
    9900012    2    1    2    0    0 -0.77934785942E+01  0.99017850673E+01  0.38657238556E+02  0.50528858975E+02  0.29999997341E+02 0.  0.
         12    1    1    2    0    0  0.77934785942E+01 -0.99017850673E+01 -0.38657238556E+02  0.40659141025E+02  0.00000000000E+00 0. -1.
         11    1    3    3    0    0 -0.62369617955E+00  0.96732538832E+01  0.47671707354E+01  0.10802164352E+02  0.51100000000E-03 0. -1.
        -11    1    3    3    0    0 -0.32180401578E+01  0.10149490417E+01  0.35297729801E+02  0.35458646807E+02  0.51100000000E-03 0.  1.
        -12    1    3    3    0    0 -0.39517422569E+01 -0.78641785756E+00 -0.14076619802E+01  0.42680478163E+01  0.00000000000E+00 0.  1.
</event>
<event>
 7    1  0.3004200E-011  0.5052886E+02  0.7816164E-02  0.1300439E+00
        -11   -1    0    0    0    0  0.00000000000E+00  0.00000000000E+00  0.45593999997E+02  0.45594000000E+02  0.51100000000E-03 0.  1.
         11   -1    0    0    0    0 -0.00000000000E+00 -0.00000000000E+00 -0.45593999997E+02  0.45594000000E+02  0.51100000000E-03 0. -1.
    9900012    2    1    2    0    0 -0.29916141740E+02 -0.25423613242E+02  0.10574973853E+02  0.50528859344E+02  0.29999998461E+02 0.  0.
         12    1    1    2    0    0  0.29916141740E+02  0.25423613242E+02 -0.10574973853E+02  0.40659140656E+02  0.00000000000E+00 0. -1.
         11    1    3    3    0    0 -0.15191300622E+02  0.10127245671E+01 -0.28898540108E+01  0.15496853942E+02  0.51100000000E-03 0. -1.
        -11    1    3    3    0    0 -0.11845498011E+01 -0.13166268906E+02  0.38162601397E+01  0.13759274576E+02  0.51100000000E-03 0.  1.
        -12    1    3    3    0    0 -0.13540291317E+02 -0.13270068903E+02  0.96485677244E+01  0.21272730825E+02  0.00000000000E+00 0.  1.
</event>
<event>
 7    1  0.3004200E-011  0.5052885E+02  0.7816164E-02  0.1300439E+00
        -11   -1    0    0    0    0  0.00000000000E+00  0.00000000000E+00  0.45593999997E+02  0.45594000000E+02  0.51100000000E-03 0.  1.
         11   -1    0    0    0    0 -0.00000000000E+00 -0.00000000000E+00 -0.45593999997E+02  0.45594000000E+02  0.51100000000E-03 0. -1.
    9900012    2    1    2    0    0  0.22556782231E+02 -0.56504521273E+01  0.33353112890E+02  0.50528853756E+02  0.29999981476E+02 0.  0.
         12    1    1    2    0    0 -0.22556782231E+02  0.56504521273E+01 -0.33353112890E+02  0.40659146244E+02  0.00000000000E+00 0. -1.
         11    1    3    3    0    0  0.26105046867E+01 -0.12824560573E+02  0.13611637106E+02  0.18882816357E+02  0.51100000000E-03 0.  1.
        -11    1    3    3    0    0  0.19237499833E+02  0.32533551150E+01  0.19605549887E+02  0.27659416226E+02  0.51100000000E-03 0. -1.
         12    1    3    3    0    0  0.70877771206E+00  0.39207533307E+01  0.13592589663E+00  0.39866211727E+01  0.00000000000E+00 0. -1.
</event>
<event>
 7    1  0.3004200E-011  0.5052889E+02  0.7816164E-02  0.1300439E+00
        -11   -1    0    0    0    0  0.00000000000E+00  0.00000000000E+00  0.45593999997E+02  0.45594000000E+02  0.51100000000E-03 0.  1.
         11   -1    0    0    0    0 -0.00000000000E+00 -0.00000000000E+00 -0.45593999997E+02  0.45594000000E+02  0.51100000000E-03 0. -1.
    9900012    2    1    2    0    0 -0.23040692826E+02  0.31814511188E+02 -0.10494123261E+02  0.50528889446E+02  0.30000089959E+02 0.  0.
         12    1    1    2    0    0  0.23040692826E+02 -0.31814511188E+02  0.10494123261E+02  0.40659110554E+02  0.00000000000E+00 0. -1.
         11    1    3    3    0    0 -0.59658536542E+01  0.12556843461E+02 -0.15316242199E+02  0.20684607874E+02  0.51100000000E-03 0. -1.
        -11    1    3    3    0    0 -0.44434195119E+01  0.84978911776E+01  0.85388500169E+01  0.12840174894E+02  0.51100000000E-03 0.  1.
        -12    1    3    3    0    0 -0.12631419660E+02  0.10759776549E+02 -0.37167310788E+01  0.17004106679E+02  0.00000000000E+00 0.  1.
</event>
<event>
 7    1  0.3004200E-011  0.5052885E+02  0.7816164E-02  0.1300439E+00
        -11   -1    0    0    0    0  0.00000000000E+00  0.00000000000E+00  0.45593999997E+02  0.45594000000E+02  0.51100000000E-03 0. -1.
         11   -1    0    0    0    0 -0.00000000000E+00 -0.00000000000E+00 -0.45593999997E+02  0.45594000000E+02  0.51100000000E-03 0.  1.
    9900012    2    1    2    0    0 -0.29379393975E+00  0.36458139725E+02 -0.17996783826E+02  0.50528849797E+02  0.29999969444E+02 0.  0.
         12    1    1    2    0    0  0.29379393975E+00 -0.36458139725E+02  0.17996783826E+02  0.40659150203E+02  0.00000000000E+00 0. -1.
         11    1    3    3    0    0 -0.36717915716E+00  0.42891915975E+01  0.59857956680E+01  0.73730411049E+01  0.51100000000E-03 0. -1.
        -11    1    3    3    0    0 -0.61039745455E+01  0.18448995864E+02 -0.19322819574E+02  0.27404293645E+02  0.51100000000E-03 0.  1.
         12    1    3    3    0    0  0.61773597629E+01  0.13719952264E+02 -0.46597599206E+01  0.15751515048E+02  0.00000000000E+00 0. -1.
</event>
<event>
 7    1  0.3004200E-011  0.5052885E+02  0.7816164E-02  0.1300439E+00
        -11   -1    0    0    0    0  0.00000000000E+00  0.00000000000E+00  0.45593999997E+02  0.45594000000E+02  0.51100000000E-03 0.  1.
         11   -1    0    0    0    0 -0.00000000000E+00 -0.00000000000E+00 -0.45593999997E+02  0.45594000000E+02  0.51100000000E-03 0. -1.
    9900012    2    1    2    0    0 -0.26107389024E+02  0.17876240206E+02  0.25534499468E+02  0.50528851108E+02  0.29999973429E+02 0.  0.
         12    1    1    2    0    0  0.26107389024E+02 -0.17876240206E+02 -0.25534499468E+02  0.40659148892E+02  0.00000000000E+00 0. -1.
         11    1    3    3    0    0 -0.29856606700E+02  0.11569581775E+02  0.24781809315E+02  0.40489631504E+02  0.51100000000E-03 0. -1.
        -11    1    3    3    0    0  0.13866558679E+01  0.72095931669E+01  0.12882804218E+01  0.74539060119E+01  0.51100000000E-03 0.  1.
         12    1    3    3    0    0  0.23625618087E+01 -0.90293473535E+00 -0.53559026978E+00  0.25853135928E+01  0.00000000000E+00 0. -1.
</event>
<event>
 7    1  0.3004200E-011  0.5052885E+02  0.7816164E-02  0.1300439E+00
        -11   -1    0    0    0    0  0.00000000000E+00  0.00000000000E+00  0.45593999997E+02  0.45594000000E+02  0.51100000000E-03 0.  1.
         11   -1    0    0    0    0 -0.00000000000E+00 -0.00000000000E+00 -0.45593999997E+02  0.45594000000E+02  0.51100000000E-03 0. -1.
    9900012    2    1    2    0    0 -0.40596577627E+02 -0.38948780128E+00 -0.22209237370E+01  0.50528851976E+02  0.29999976066E+02 0.  0.
         12    1    1    2    0    0  0.40596577627E+02  0.38948780128E+00  0.22209237370E+01  0.40659148024E+02  0.00000000000E+00 0. -1.
         11    1    3    3    0    0 -0.67739954259E+01 -0.44250700107E+01  0.64368336313E+01  0.10339298143E+02  0.51100000000E-03 0. -1.
        -11    1    3    3    0    0 -0.27440620669E+02  0.10960627346E+02 -0.44768045818E+01  0.29885862778E+02  0.51100000000E-03 0.  1.
         12    1    3    3    0    0 -0.63819615329E+01 -0.69250451362E+01 -0.41809527864E+01  0.10303691055E+02  0.00000000000E+00 0. -1.
</event>
<event>
 7    1  0.3004200E-011  0.5052886E+02  0.7816164E-02  0.1300439E+00
        -11   -1    0    0    0    0  0.00000000000E+00  0.00000000000E+00  0.45593999997E+02  0.45594000000E+02  0.51100000000E-03 0.  1.
         11   -1    0    0    0    0 -0.00000000000E+00 -0.00000000000E+00 -0.45593999997E+02  0.45594000000E+02  0.51100000000E-03 0. -1.
    9900012    2    1    2    0    0 -0.38233905550E+02 -0.24393976349E+01  0.13615560806E+02  0.50528859693E+02  0.29999999523E+02 0.  0.
         12    1    1    2    0    0  0.38233905550E+02  0.24393976349E+01 -0.13615560806E+02  0.40659140307E+02  0.00000000000E+00 0. -1.
         11    1    3    3    0    0 -0.92526352938E+01  0.51377211827E+01  0.14997825509E+02  0.18355985648E+02  0.51100000000E-03 0. -1.
        -11    1    3    3    0    0 -0.27439127200E+02 -0.79872561638E+01  0.17772924904E+01  0.28633210288E+02  0.51100000000E-03 0.  1.
         12    1    3    3    0    0 -0.15421430562E+01  0.41013734620E+00 -0.31595571943E+01  0.35396637570E+01  0.00000000000E+00 0. -1.
</event>
<event>
 7    1  0.3004200E-011  0.5052885E+02  0.7816164E-02  0.1300439E+00
        -11   -1    0    0    0    0  0.00000000000E+00  0.00000000000E+00  0.45593999997E+02  0.45594000000E+02  0.51100000000E-03 0.  1.
         11   -1    0    0    0    0 -0.00000000000E+00 -0.00000000000E+00 -0.45593999997E+02  0.45594000000E+02  0.51100000000E-03 0. -1.
    9900012    2    1    2    0    0  0.18276547195E+02  0.11163450759E+02  0.34561702250E+02  0.50528854993E+02  0.29999985238E+02 0.  0.
         12    1    1    2    0    0 -0.18276547195E+02 -0.11163450759E+02 -0.34561702250E+02  0.40659145007E+02  0.00000000000E+00 0. -1.
         11    1    3    3    0    0  0.58210685654E+01  0.77717637256E+01 -0.31984876788E+01  0.10223280997E+02  0.51100000000E-03 0. -1.
        -11    1    3    3    0    0  0.69062441476E+01  0.45679411953E+01  0.25156839558E+02  0.26484502483E+02  0.51100000000E-03 0.  1.
         12    1    3    3    0    0  0.55492344822E+01 -0.11762541621E+01  0.12603350371E+02  0.13821071513E+02  0.00000000000E+00 0. -1.
</event>
<event>
 7    1  0.3004200E-011  0.5052886E+02  0.7816164E-02  0.1300439E+00
        -11   -1    0    0    0    0  0.00000000000E+00  0.00000000000E+00  0.45593999997E+02  0.45594000000E+02  0.51100000000E-03 0.  1.
         11   -1    0    0    0    0 -0.00000000000E+00 -0.00000000000E+00 -0.45593999997E+02  0.45594000000E+02  0.51100000000E-03 0. -1.
    9900012    2    1    2    0    0 -0.18670659678E+02  0.18695049066E+02  0.30904161352E+02  0.50528861037E+02  0.30000003607E+02 0.  0.
         12    1    1    2    0    0  0.18670659678E+02 -0.18695049066E+02 -0.30904161352E+02  0.40659138963E+02  0.00000000000E+00 0. -1.
         11    1    3    3    0    0 -0.50283564629E+01 -0.15749043770E+01 -0.33269141441E+01  0.62316170051E+01  0.51100000000E-03 0. -1.
        -11    1    3    3    0    0 -0.12904926584E+02  0.13682575139E+02  0.15319701310E+02  0.24257849061E+02  0.51100000000E-03 0.  1.
        -12    1    3    3    0    0 -0.73737663109E+00  0.65873783042E+01  0.18911374185E+02  0.20039394971E+02  0.00000000000E+00 0.  1.
</event>
<event>
 7    1  0.3004200E-011  0.5052885E+02  0.7816164E-02  0.1300439E+00
        -11   -1    0    0    0    0  0.00000000000E+00  0.00000000000E+00  0.45593999997E+02  0.45594000000E+02  0.51100000000E-03 0.  1.
         11   -1    0    0    0    0 -0.00000000000E+00 -0.00000000000E+00 -0.45593999997E+02  0.45594000000E+02  0.51100000000E-03 0. -1.
    9900012    2    1    2    0    0  0.27180998861E+02  0.24391451617E+02  0.17872229493E+02  0.50528853451E+02  0.29999980549E+02 0.  0.
         12    1    1    2    0    0 -0.27180998861E+02 -0.24391451617E+02 -0.17872229493E+02  0.40659146549E+02  0.00000000000E+00 0. -1.
         11    1    3    3    0    0  0.93531047832E+01  0.14337363836E+01  0.96613477725E+01  0.13523232237E+02  0.51100000000E-03 0. -1.
        -11    1    3    3    0    0  0.19081116706E+02  0.20506766313E+02 -0.34984737632E+00  0.28013191050E+02  0.51100000000E-03 0.  1.
        -12    1    3    3    0    0 -0.12532226286E+01  0.24509489203E+01  0.85607290971E+01  0.89924301633E+01  0.00000000000E+00 0.  1.
</event>
<event>
 7    1  0.3004200E-011  0.5052886E+02  0.7816164E-02  0.1300439E+00
        -11   -1    0    0    0    0  0.00000000000E+00  0.00000000000E+00  0.45593999997E+02  0.45594000000E+02  0.51100000000E-03 0. -1.
         11   -1    0    0    0    0 -0.00000000000E+00 -0.00000000000E+00 -0.45593999997E+02  0.45594000000E+02  0.51100000000E-03 0.  1.
    9900012    2    1    2    0    0 -0.12065721412E+02 -0.37307947725E+02 -0.10756454167E+02  0.50528857081E+02  0.29999991585E+02 0.  0.
         12    1    1    2    0    0  0.12065721412E+02  0.37307947725E+02  0.10756454167E+02  0.40659142919E+02  0.00000000000E+00 0. -1.
         11    1    3    3    0    0 -0.48052102526E-01 -0.88175263343E+01  0.13121386235E+01  0.89147511288E+01  0.51100000000E-03 0. -1.
        -11    1    3    3    0    0 -0.24204188404E+01  0.15060615075E+01 -0.96099940857E+01  0.10023903193E+02  0.51100000000E-03 0.  1.
        -12    1    3    3    0    0 -0.95972504690E+01 -0.29996482898E+02 -0.24585987045E+01  0.31590202760E+02  0.00000000000E+00 0.  1.
</event>
<event>
 7    1  0.3004200E-011  0.5052882E+02  0.7816164E-02  0.1300439E+00
        -11   -1    0    0    0    0  0.00000000000E+00  0.00000000000E+00  0.45593999997E+02  0.45594000000E+02  0.51100000000E-03 0. -1.
         11   -1    0    0    0    0 -0.00000000000E+00 -0.00000000000E+00 -0.45593999997E+02  0.45594000000E+02  0.51100000000E-03 0.  1.
    9900012    2    1    2    0    0  0.28300914366E+02  0.17302380461E+02 -0.23512863076E+02  0.50528820796E+02  0.29999881290E+02 0.  0.
         12    1    1    2    0    0 -0.28300914366E+02 -0.17302380461E+02  0.23512863076E+02  0.40659179204E+02  0.00000000000E+00 0. -1.
         11    1    3    3    0    0 -0.44084279984E+01  0.95002101786E+01 -0.39050398133E+01  0.11177547453E+02  0.51100000000E-03 0. -1.
        -11    1    3    3    0    0  0.96966286944E+01  0.35831909235E+01 -0.33724339786E+01  0.10873691941E+02  0.51100000000E-03 0.  1.
         12    1    3    3    0    0  0.23012713670E+02  0.42189793585E+01 -0.16235389284E+02  0.28477581402E+02  0.00000000000E+00 0. -1.
</event>
<event>
 7    1  0.3004200E-011  0.5052885E+02  0.7816164E-02  0.1300439E+00
        -11   -1    0    0    0    0  0.00000000000E+00  0.00000000000E+00  0.45593999997E+02  0.45594000000E+02  0.51100000000E-03 0.  1.
         11   -1    0    0    0    0 -0.00000000000E+00 -0.00000000000E+00 -0.45593999997E+02  0.45594000000E+02  0.51100000000E-03 0. -1.
    9900012    2    1    2    0    0  0.25571612659E+02 -0.18216072578E+02  0.25834739482E+02  0.50528850498E+02  0.29999971573E+02 0.  0.
         12    1    1    2    0    0 -0.25571612659E+02  0.18216072578E+02 -0.25834739482E+02  0.40659149502E+02  0.00000000000E+00 0. -1.
         11    1    3    3    0    0  0.26604135204E+01 -0.54783966503E+01  0.16527501137E+02  0.17613884411E+02  0.51100000000E-03 0. -1.
        -11    1    3    3    0    0  0.21092853492E+02 -0.16694493850E+02  0.95718162724E+01  0.28552307444E+02  0.51100000000E-03 0.  1.
        -12    1    3    3    0    0  0.18183456464E+01  0.39568179221E+01 -0.26457792681E+00  0.43626586432E+01  0.00000000000E+00 0.  1.
</event>
<event>
 7    1  0.3004200E-011  0.5052886E+02  0.7816164E-02  0.1300439E+00
        -11   -1    0    0    0    0  0.00000000000E+00  0.00000000000E+00  0.45593999997E+02  0.45594000000E+02  0.51100000000E-03 0.  1.
         11   -1    0    0    0    0 -0.00000000000E+00 -0.00000000000E+00 -0.45593999997E+02  0.45594000000E+02  0.51100000000E-03 0. -1.
    9900012    2    1    2    0    0  0.15162120918E+02  0.18522532574E+02  0.32866265325E+02  0.50528861788E+02  0.30000005892E+02 0.  0.
         12    1    1    2    0    0 -0.15162120918E+02 -0.18522532574E+02 -0.32866265325E+02  0.40659138212E+02  0.00000000000E+00 0. -1.
         11    1    3    3    0    0  0.18373714490E+02  0.23837097555E+02  0.26429852810E+02  0.40054184848E+02  0.51100000000E-03 0. -1.
        -11    1    3    3    0    0 -0.27431992432E+01 -0.49841248837E+01  0.74116783921E+01  0.93434265552E+01  0.51100000000E-03 0.  1.
         12    1    3    3    0    0 -0.46839432822E+00 -0.33044009762E+00 -0.97526587671E+00  0.11312503857E+01  0.00000000000E+00 0. -1.
</event>
<event>
 7    1  0.3004200E-011  0.5052891E+02  0.7816164E-02  0.1300439E+00
        -11   -1    0    0    0    0  0.00000000000E+00  0.00000000000E+00  0.45593999997E+02  0.45594000000E+02  0.51100000000E-03 0.  1.
         11   -1    0    0    0    0 -0.00000000000E+00 -0.00000000000E+00 -0.45593999997E+02  0.45594000000E+02  0.51100000000E-03 0. -1.
    9900012    2    1    2    0    0  0.19365712558E+02  0.24688764842E+02  0.25857223223E+02  0.50528905997E+02  0.30000140270E+02 0.  0.
         12    1    1    2    0    0 -0.19365712558E+02 -0.24688764842E+02 -0.25857223223E+02  0.40659094003E+02  0.00000000000E+00 0. -1.
         11    1    3    3    0    0  0.10665158846E+02  0.67305280576E-01 -0.61036360017E+00  0.10682822061E+02  0.51100000000E-03 0. -1.
        -11    1    3    3    0    0 -0.29126782957E+01  0.13081577549E+02  0.12472695715E+02  0.18307908255E+02  0.51100000000E-03 0.  1.
         12    1    3    3    0    0  0.11613232008E+02  0.11539882012E+02  0.13994891108E+02  0.21538175681E+02  0.00000000000E+00 0. -1.
</event>
<event>
 7    1  0.3004200E-011  0.5052886E+02  0.7816164E-02  0.1300439E+00
        -11   -1    0    0    0    0  0.00000000000E+00  0.00000000000E+00  0.45593999997E+02  0.45594000000E+02  0.51100000000E-03 0. -1.
         11   -1    0    0    0    0 -0.00000000000E+00 -0.00000000000E+00 -0.45593999997E+02  0.45594000000E+02  0.51100000000E-03 0.  1.
    9900012    2    1    2    0    0 -0.38709768703E+02  0.16424669049E+01 -0.12329698231E+02  0.50528863892E+02  0.30000012287E+02 0.  0.
         12    1    1    2    0    0  0.38709768703E+02 -0.16424669049E+01  0.12329698231E+02  0.40659136108E+02  0.00000000000E+00 0. -1.
         11    1    3    3    0    0 -0.89957292591E+01  0.71344371920E+01 -0.31197479226E+01  0.11897737865E+02  0.51100000000E-03 0. -1.
        -11    1    3    3    0    0 -0.18705574964E+02 -0.71826296351E+01  0.49269118720E+01  0.20634029274E+02  0.51100000000E-03 0.  1.
        -12    1    3    3    0    0 -0.11008464479E+02  0.16906593480E+01 -0.14136862181E+02  0.17997096753E+02  0.00000000000E+00 0.  1.
</event>
<event>
 7    1  0.3004200E-011  0.5052886E+02  0.7816164E-02  0.1300439E+00
        -11   -1    0    0    0    0  0.00000000000E+00  0.00000000000E+00  0.45593999997E+02  0.45594000000E+02  0.51100000000E-03 0.  1.
         11   -1    0    0    0    0 -0.00000000000E+00 -0.00000000000E+00 -0.45593999997E+02  0.45594000000E+02  0.51100000000E-03 0. -1.
    9900012    2    1    2    0    0  0.37492208469E+02  0.14760543903E+02 -0.54429687084E+01  0.50528864981E+02  0.30000015595E+02 0.  0.
         12    1    1    2    0    0 -0.37492208469E+02 -0.14760543903E+02  0.54429687084E+01  0.40659135019E+02  0.00000000000E+00 0. -1.
         11    1    3    3    0    0  0.15652823670E+01  0.10158222026E+02  0.16905803183E+01  0.10416220317E+02  0.51100000000E-03 0. -1.
        -11    1    3    3    0    0  0.12946168855E+02 -0.53640402915E+01 -0.53515640851E+01  0.15000515147E+02  0.51100000000E-03 0.  1.
        -12    1    3    3    0    0  0.22980757247E+02  0.99663621682E+01 -0.17819849416E+01  0.25112129516E+02  0.00000000000E+00 0.  1.
</event>
<event>
 7    1  0.3004200E-011  0.5052886E+02  0.7816164E-02  0.1300439E+00
        -11   -1    0    0    0    0  0.00000000000E+00  0.00000000000E+00  0.45593999997E+02  0.45594000000E+02  0.51100000000E-03 0.  1.
         11   -1    0    0    0    0 -0.00000000000E+00 -0.00000000000E+00 -0.45593999997E+02  0.45594000000E+02  0.51100000000E-03 0. -1.
    9900012    2    1    2    0    0 -0.82019017635E+01 -0.10639233822E+02  0.38375784508E+02  0.50528864182E+02  0.30000013168E+02 0.  0.
         12    1    1    2    0    0  0.82019017635E+01  0.10639233822E+02 -0.38375784508E+02  0.40659135818E+02  0.00000000000E+00 0. -1.
         11    1    3    3    0    0 -0.12261656521E+02 -0.11886374918E+02  0.64531826237E+01  0.18255894817E+02  0.51100000000E-03 0. -1.
        -11    1    3    3    0    0  0.25063518536E+01  0.15916719851E+01  0.16179557628E+02  0.16449720503E+02  0.51100000000E-03 0.  1.
         12    1    3    3    0    0  0.15534029036E+01 -0.34453088907E+00  0.15743044256E+02  0.15823248862E+02  0.00000000000E+00 0. -1.
</event>
<event>
 7    1  0.3004200E-011  0.5052886E+02  0.7816164E-02  0.1300439E+00
        -11   -1    0    0    0    0  0.00000000000E+00  0.00000000000E+00  0.45593999997E+02  0.45594000000E+02  0.51100000000E-03 0.  1.
         11   -1    0    0    0    0 -0.00000000000E+00 -0.00000000000E+00 -0.45593999997E+02  0.45594000000E+02  0.51100000000E-03 0. -1.
    9900012    2    1    2    0    0 -0.61408060555E+01  0.74707864476E+01  0.39492317313E+02  0.50528864792E+02  0.30000015021E+02 0.  0.
         12    1    1    2    0    0  0.61408060555E+01 -0.74707864476E+01 -0.39492317313E+02  0.40659135208E+02  0.00000000000E+00 0. -1.
         11    1    3    3    0    0 -0.10652709170E+02 -0.26964274843E+01  0.42843882798E+01  0.11794359543E+02  0.51100000000E-03 0. -1.
        -11    1    3    3    0    0  0.47148633859E+01 -0.24192906210E+00  0.18118786552E+02  0.18723752102E+02  0.51100000000E-03 0.  1.
         12    1    3    3    0    0 -0.20296027140E+00  0.10409142994E+02  0.17089142481E+02  0.20010753146E+02  0.00000000000E+00 0. -1.
</event>
<event>
 7    1  0.3004200E-011  0.5052886E+02  0.7816164E-02  0.1300439E+00
        -11   -1    0    0    0    0  0.00000000000E+00  0.00000000000E+00  0.45593999997E+02  0.45594000000E+02  0.51100000000E-03 0.  1.
         11   -1    0    0    0    0 -0.00000000000E+00 -0.00000000000E+00 -0.45593999997E+02  0.45594000000E+02  0.51100000000E-03 0. -1.
    9900012    2    1    2    0    0 -0.20416946348E+01  0.36631778745E+02  0.17524557877E+02  0.50528857611E+02  0.29999993194E+02 0.  0.
         12    1    1    2    0    0  0.20416946348E+01 -0.36631778745E+02 -0.17524557877E+02  0.40659142389E+02  0.00000000000E+00 0. -1.
         11    1    3    3    0    0 -0.15520515653E+02  0.19545623329E+02  0.12676987561E+02  0.27993281539E+02  0.51100000000E-03 0. -1.
        -11    1    3    3    0    0  0.27701479574E+01  0.39407072165E+01  0.24737752870E+01  0.54150214685E+01  0.51100000000E-03 0.  1.
         12    1    3    3    0    0  0.10708673060E+02  0.13145448200E+02  0.23737950298E+01  0.17120554603E+02  0.00000000000E+00 0. -1.
</event>
<event>
 7    1  0.3004200E-011  0.5052886E+02  0.7816164E-02  0.1300439E+00
        -11   -1    0    0    0    0  0.00000000000E+00  0.00000000000E+00  0.45593999997E+02  0.45594000000E+02  0.51100000000E-03 0.  1.
         11   -1    0    0    0    0 -0.00000000000E+00 -0.00000000000E+00 -0.45593999997E+02  0.45594000000E+02  0.51100000000E-03 0. -1.
    9900012    2    1    2    0    0  0.88346019806E+01  0.11174964817E+02  0.38081963006E+02  0.50528856659E+02  0.29999990300E+02 0.  0.
         12    1    1    2    0    0 -0.88346019806E+01 -0.11174964817E+02 -0.38081963006E+02  0.40659143341E+02  0.00000000000E+00 0. -1.
         11    1    3    3    0    0  0.85498697378E+01  0.11461725978E+02  0.47003757747E+01  0.15052075193E+02  0.51100000000E-03 0. -1.
        -11    1    3    3    0    0  0.33148160474E+01  0.26993151681E+00  0.31873736206E+02  0.32046777193E+02  0.51100000000E-03 0.  1.
         12    1    3    3    0    0 -0.30300838047E+01 -0.55669267781E+00  0.15078510258E+01  0.34300042736E+01  0.00000000000E+00 0. -1.
</event>
<event>
 7    1  0.3004200E-011  0.5052885E+02  0.7816164E-02  0.1300439E+00
        -11   -1    0    0    0    0  0.00000000000E+00  0.00000000000E+00  0.45593999997E+02  0.45594000000E+02  0.51100000000E-03 0.  1.
         11   -1    0    0    0    0 -0.00000000000E+00 -0.00000000000E+00 -0.45593999997E+02  0.45594000000E+02  0.51100000000E-03 0. -1.
    9900012    2    1    2    0    0 -0.39847403487E+02  0.78188688364E+01 -0.20532656719E+01  0.50528853742E+02  0.29999981433E+02 0.  0.
         12    1    1    2    0    0  0.39847403487E+02 -0.78188688364E+01  0.20532656719E+01  0.40659146258E+02  0.00000000000E+00 0. -1.
         11    1    3    3    0    0 -0.63096381142E+01 -0.81904234511E+01  0.25746810243E+01  0.10654743173E+02  0.51100000000E-03 0. -1.
        -11    1    3    3    0    0 -0.33283721710E+02  0.13294338796E+02 -0.66846717058E+01  0.36458612302E+02  0.51100000000E-03 0.  1.
        -12    1    3    3    0    0 -0.25404366261E+00  0.27149534918E+01  0.20567250096E+01  0.34154982668E+01  0.00000000000E+00 0.  1.
</event>
<event>
 7    1  0.3004200E-011  0.5052886E+02  0.7816164E-02  0.1300439E+00
        -11   -1    0    0    0    0  0.00000000000E+00  0.00000000000E+00  0.45593999997E+02  0.45594000000E+02  0.51100000000E-03 0.  1.
         11   -1    0    0    0    0 -0.00000000000E+00 -0.00000000000E+00 -0.45593999997E+02  0.45594000000E+02  0.51100000000E-03 0. -1.
    9900012    2    1    2    0    0  0.27747696203E+02 -0.34785978305E+01  0.29514916122E+02  0.50528861284E+02  0.30000004359E+02 0.  0.
         12    1    1    2    0    0 -0.27747696203E+02  0.34785978305E+01 -0.29514916122E+02  0.40659138716E+02  0.00000000000E+00 0. -1.
         11    1    3    3    0    0  0.21981551604E+02 -0.22883174490E+00  0.35654639750E+01  0.22270013662E+02  0.51100000000E-03 0. -1.
        -11    1    3    3    0    0  0.51590894765E+01 -0.61342247205E+01  0.16214551876E+02  0.18087471076E+02  0.51100000000E-03 0.  1.
        -12    1    3    3    0    0  0.60705512248E+00  0.28844586349E+01  0.97349002712E+01  0.10171376545E+02  0.00000000000E+00 0.  1.
</event>
<event>
 7    1  0.3004200E-011  0.5052886E+02  0.7816164E-02  0.1300439E+00
        -11   -1    0    0    0    0  0.00000000000E+00  0.00000000000E+00  0.45593999997E+02  0.45594000000E+02  0.51100000000E-03 0.  1.
         11   -1    0    0    0    0 -0.00000000000E+00 -0.00000000000E+00 -0.45593999997E+02  0.45594000000E+02  0.51100000000E-03 0. -1.
    9900012    2    1    2    0    0  0.24300750069E+02  0.58981968187E+01  0.32060109857E+02  0.50528858055E+02  0.29999994545E+02 0.  0.
         12    1    1    2    0    0 -0.24300750069E+02 -0.58981968187E+01 -0.32060109857E+02  0.40659141945E+02  0.00000000000E+00 0. -1.
         11    1    3    3    0    0  0.11773633975E+01  0.20921943188E+01  0.24686517407E+02  0.24802975700E+02  0.51100000000E-03 0. -1.
        -11    1    3    3    0    0  0.19278962995E+02  0.36597260489E+00  0.44242350579E+01  0.19783483167E+02  0.51100000000E-03 0.  1.
         12    1    3    3    0    0  0.38444236764E+01  0.34400298950E+01  0.29493573921E+01  0.59423991879E+01  0.00000000000E+00 0. -1.
</event>
<event>
 7    1  0.3004200E-011  0.5052888E+02  0.7816164E-02  0.1300439E+00
        -11   -1    0    0    0    0  0.00000000000E+00  0.00000000000E+00  0.45593999997E+02  0.45594000000E+02  0.51100000000E-03 0. -1.
         11   -1    0    0    0    0 -0.00000000000E+00 -0.00000000000E+00 -0.45593999997E+02  0.45594000000E+02  0.51100000000E-03 0.  1.
    9900012    2    1    2    0    0 -0.23827134443E+02  0.12921632377E+02 -0.30306159510E+02  0.50528877735E+02  0.30000054364E+02 0.  0.
         12    1    1    2    0    0  0.23827134443E+02 -0.12921632377E+02  0.30306159510E+02  0.40659122265E+02  0.00000000000E+00 0. -1.
         11    1    3    3    0    0 -0.53820727600E+01  0.44586057333E+01  0.47256549028E+01  0.84366869564E+01  0.51100000000E-03 0. -1.
        -11    1    3    3    0    0 -0.17465349256E+02  0.97141826353E+01 -0.25348012575E+02  0.32278870963E+02  0.51100000000E-03 0.  1.
         12    1    3    3    0    0 -0.97971242741E+00 -0.12511559916E+01 -0.96838018382E+01  0.98133198153E+01  0.00000000000E+00 0. -1.
</event>
<event>
 7    1  0.3004200E-011  0.5052886E+02  0.7816164E-02  0.1300439E+00
        -11   -1    0    0    0    0  0.00000000000E+00  0.00000000000E+00  0.45593999997E+02  0.45594000000E+02  0.51100000000E-03 0. -1.
         11   -1    0    0    0    0 -0.00000000000E+00 -0.00000000000E+00 -0.45593999997E+02  0.45594000000E+02  0.51100000000E-03 0.  1.
    9900012    2    1    2    0    0 -0.31038238955E+02 -0.18244070861E+01 -0.26200471110E+02  0.50528862958E+02  0.30000009446E+02 0.  0.
         12    1    1    2    0    0  0.31038238955E+02  0.18244070861E+01  0.26200471110E+02  0.40659137042E+02  0.00000000000E+00 0. -1.
         11    1    3    3    0    0  0.39989304382E+01  0.68211645267E+00 -0.94363078865E+00  0.41649930169E+01  0.51100000000E-03 0. -1.
        -11    1    3    3    0    0 -0.21281308464E+02 -0.43249663496E+01 -0.24098991450E+02  0.32440111175E+02  0.51100000000E-03 0.  1.
         12    1    3    3    0    0 -0.13755860929E+02  0.18184428108E+01 -0.11578488714E+01  0.13923758766E+02  0.00000000000E+00 0. -1.
</event>
<event>
 7    1  0.3004200E-011  0.5052886E+02  0.7816164E-02  0.1300439E+00
        -11   -1    0    0    0    0  0.00000000000E+00  0.00000000000E+00  0.45593999997E+02  0.45594000000E+02  0.51100000000E-03 0. -1.
         11   -1    0    0    0    0 -0.00000000000E+00 -0.00000000000E+00 -0.45593999997E+02  0.45594000000E+02  0.51100000000E-03 0.  1.
    9900012    2    1    2    0    0 -0.28282169143E+02 -0.18757620008E+02 -0.22392777281E+02  0.50528857434E+02  0.29999992656E+02 0.  0.
         12    1    1    2    0    0  0.28282169143E+02  0.18757620008E+02  0.22392777281E+02  0.40659142566E+02  0.00000000000E+00 0. -1.
         11    1    3    3    0    0 -0.22210673808E+02 -0.75123903668E+01 -0.11050924949E+02  0.25920512775E+02  0.51100000000E-03 0.  1.
        -11    1    3    3    0    0  0.43542291924E+01 -0.10237623166E+02 -0.40221072339E+01  0.11829859966E+02  0.51100000000E-03 0. -1.
         12    1    3    3    0    0 -0.10425724528E+02 -0.10076064749E+01 -0.73197450990E+01  0.12778484693E+02  0.00000000000E+00 0. -1.
</event>
<event>
 7    1  0.3004200E-011  0.5052887E+02  0.7816164E-02  0.1300439E+00
        -11   -1    0    0    0    0  0.00000000000E+00  0.00000000000E+00  0.45593999997E+02  0.45594000000E+02  0.51100000000E-03 0. -1.
         11   -1    0    0    0    0 -0.00000000000E+00 -0.00000000000E+00 -0.45593999997E+02  0.45594000000E+02  0.51100000000E-03 0.  1.
    9900012    2    1    2    0    0  0.29079786793E+02 -0.26128806459E+02 -0.11172121418E+02  0.50528870350E+02  0.30000031917E+02 0.  0.
         12    1    1    2    0    0 -0.29079786793E+02  0.26128806459E+02  0.11172121418E+02  0.40659129650E+02  0.00000000000E+00 0. -1.
         11    1    3    3    0    0  0.29349582753E+02 -0.27608133881E+02 -0.14245690733E+02  0.42738118453E+02  0.51100000000E-03 0.  1.
        -11    1    3    3    0    0  0.21407964945E+00 -0.16640869792E+01 -0.14794458149E+01  0.22369121017E+01  0.51100000000E-03 0. -1.
         12    1    3    3    0    0 -0.48387560970E+00  0.31434144010E+01  0.45530151302E+01  0.55538397958E+01  0.00000000000E+00 0. -1.
</event>
<event>
 7    1  0.3004200E-011  0.5052885E+02  0.7816164E-02  0.1300439E+00
        -11   -1    0    0    0    0  0.00000000000E+00  0.00000000000E+00  0.45593999997E+02  0.45594000000E+02  0.51100000000E-03 0.  1.
         11   -1    0    0    0    0 -0.00000000000E+00 -0.00000000000E+00 -0.45593999997E+02  0.45594000000E+02  0.51100000000E-03 0. -1.
    9900012    2    1    2    0    0  0.33322086672E+01 -0.21416621757E+02  0.34400456599E+02  0.50528847078E+02  0.29999961178E+02 0.  0.
         12    1    1    2    0    0 -0.33322086672E+01  0.21416621757E+02 -0.34400456599E+02  0.40659152922E+02  0.00000000000E+00 0. -1.
         11    1    3    3    0    0 -0.32604669084E+01 -0.12686086895E+02  0.14198600513E+01  0.13175107134E+02  0.51100000000E-03 0. -1.
        -11    1    3    3    0    0 -0.51292507571E+00 -0.93173935116E+01  0.24825742361E+02  0.26521583626E+02  0.51100000000E-03 0.  1.
         12    1    3    3    0    0  0.71056006512E+01  0.58685864883E+00  0.81548541873E+01  0.10832156318E+02  0.00000000000E+00 0. -1.
</event>
<event>
 7    1  0.3004200E-011  0.5052885E+02  0.7816164E-02  0.1300439E+00
        -11   -1    0    0    0    0  0.00000000000E+00  0.00000000000E+00  0.45593999997E+02  0.45594000000E+02  0.51100000000E-03 0.  1.
         11   -1    0    0    0    0 -0.00000000000E+00 -0.00000000000E+00 -0.45593999997E+02  0.45594000000E+02  0.51100000000E-03 0. -1.
    9900012    2    1    2    0    0 -0.39915679674E+02 -0.64969951910E+00 -0.77124941567E+01  0.50528853927E+02  0.29999981997E+02 0.  0.
         12    1    1    2    0    0  0.39915679674E+02  0.64969951910E+00  0.77124941567E+01  0.40659146073E+02  0.00000000000E+00 0. -1.
         11    1    3    3    0    0  0.13020541536E+01  0.86477535491E+00 -0.21070205234E+01  0.26234933163E+01  0.51100000000E-03 0. -1.
        -11    1    3    3    0    0 -0.22563822814E+02  0.11008644839E+02 -0.27134859673E+01  0.25252314103E+02  0.51100000000E-03 0.  1.
        -12    1    3    3    0    0 -0.18653911013E+02 -0.12523119713E+02 -0.28919876660E+01  0.22653046508E+02  0.00000000000E+00 0.  1.
</event>
<event>
 7    1  0.3078629E-011  0.5052889E+02  0.7816164E-02  0.1300439E+00
        -11   -1    0    0    0    0  0.00000000000E+00  0.00000000000E+00  0.45593999997E+02  0.45594000000E+02  0.51100000000E-03 0. -1.
         11   -1    0    0    0    0 -0.00000000000E+00 -0.00000000000E+00 -0.45593999997E+02  0.45594000000E+02  0.51100000000E-03 0.  1.
    9900012    2    1    2    0    0  0.12921084709E+02  0.88451617423E+00 -0.38541234132E+02  0.50528886295E+02  0.30000080381E+02 0.  0.
         12    1    1    2    0    0 -0.12921084709E+02 -0.88451617423E+00  0.38541234132E+02  0.40659113705E+02  0.00000000000E+00 0. -1.
         11    1    3    3    0    0 -0.42128427298E+01 -0.31550341391E+00 -0.72404720378E+01  0.83828409183E+01  0.51100000000E-03 0. -1.
        -11    1    3    3    0    0  0.11578795338E+02  0.11484637260E+02 -0.15567092793E+02  0.22545504492E+02  0.51100000000E-03 0.  1.
        -12    1    3    3    0    0  0.55551320999E+01 -0.10284617672E+02 -0.15733669301E+02  0.19600540885E+02  0.00000000000E+00 0.  1.
</event>
<event>
 7    1  0.3004200E-011  0.5052886E+02  0.7816164E-02  0.1300439E+00
        -11   -1    0    0    0    0  0.00000000000E+00  0.00000000000E+00  0.45593999997E+02  0.45594000000E+02  0.51100000000E-03 0.  1.
         11   -1    0    0    0    0 -0.00000000000E+00 -0.00000000000E+00 -0.45593999997E+02  0.45594000000E+02  0.51100000000E-03 0. -1.
    9900012    2    1    2    0    0  0.41705236081E+01 -0.38404696596E+02  0.12682731891E+02  0.50528859871E+02  0.30000000064E+02 0.  0.
         12    1    1    2    0    0 -0.41705236081E+01  0.38404696596E+02 -0.12682731891E+02  0.40659140129E+02  0.00000000000E+00 0. -1.
         11    1    3    3    0    0  0.74265886733E+01 -0.15177933442E+02 -0.69967392882E+01  0.18288746371E+02  0.51100000000E-03 0. -1.
        -11    1    3    3    0    0 -0.52259862364E+00 -0.15184808183E+02  0.64223507604E+01  0.16495396280E+02  0.51100000000E-03 0.  1.
         12    1    3    3    0    0 -0.27334664416E+01 -0.80419549704E+01  0.13257120419E+02  0.15744717220E+02  0.00000000000E+00 0. -1.
</event>
<event>
 7    1  0.3004200E-011  0.5052886E+02  0.7816164E-02  0.1300439E+00
        -11   -1    0    0    0    0  0.00000000000E+00  0.00000000000E+00  0.45593999997E+02  0.45594000000E+02  0.51100000000E-03 0.  1.
         11   -1    0    0    0    0 -0.00000000000E+00 -0.00000000000E+00 -0.45593999997E+02  0.45594000000E+02  0.51100000000E-03 0. -1.
    9900012    2    1    2    0    0 -0.34170692569E+01 -0.76205015825E+01  0.39792177219E+02  0.50528858660E+02  0.29999996383E+02 0.  0.
         12    1    1    2    0    0  0.34170692569E+01  0.76205015825E+01 -0.39792177219E+02  0.40659141340E+02  0.00000000000E+00 0. -1.
         11    1    3    3    0    0  0.39814086916E+01 -0.14280626179E+02  0.11066420122E+02  0.18500096049E+02  0.51100000000E-03 0. -1.
        -11    1    3    3    0    0 -0.87460148363E+01  0.52572243250E+01  0.14855009919E+02  0.18022277965E+02  0.51100000000E-03 0.  1.
         12    1    3    3    0    0  0.13475368878E+01  0.14029002718E+01  0.13870747179E+02  0.14006484646E+02  0.00000000000E+00 0. -1.
</event>
<event>
 7    1  0.3004200E-011  0.5052885E+02  0.7816164E-02  0.1300439E+00
        -11   -1    0    0    0    0  0.00000000000E+00  0.00000000000E+00  0.45593999997E+02  0.45594000000E+02  0.51100000000E-03 0.  1.
         11   -1    0    0    0    0 -0.00000000000E+00 -0.00000000000E+00 -0.45593999997E+02  0.45594000000E+02  0.51100000000E-03 0. -1.
    9900012    2    1    2    0    0 -0.15998254163E+02  0.27830243608E+02  0.24953958803E+02  0.50528847827E+02  0.29999963455E+02 0.  0.
         12    1    1    2    0    0  0.15998254163E+02 -0.27830243608E+02 -0.24953958803E+02  0.40659152173E+02  0.00000000000E+00 0. -1.
         11    1    3    3    0    0 -0.54240423407E+01  0.56256009670E+01  0.79135964981E+01  0.11121718903E+02  0.51100000000E-03 0.  1.
        -11    1    3    3    0    0  0.68608758777E+01  0.15070927586E+02  0.96893333255E+01  0.19185610667E+02  0.51100000000E-03 0. -1.
        -12    1    3    3    0    0 -0.17435087700E+02  0.71337150546E+01  0.73510289790E+01  0.20221518257E+02  0.00000000000E+00 0.  1.
</event>
<event>
 7    1  0.3004200E-011  0.5052887E+02  0.7816164E-02  0.1300439E+00
        -11   -1    0    0    0    0  0.00000000000E+00  0.00000000000E+00  0.45593999997E+02  0.45594000000E+02  0.51100000000E-03 0.  1.
         11   -1    0    0    0    0 -0.00000000000E+00 -0.00000000000E+00 -0.45593999997E+02  0.45594000000E+02  0.51100000000E-03 0. -1.
    9900012    2    1    2    0    0  0.13359568613E+02 -0.23323859863E+02  0.30507123079E+02  0.50528867311E+02  0.30000022680E+02 0.  0.
         12    1    1    2    0    0 -0.13359568613E+02  0.23323859863E+02 -0.30507123079E+02  0.40659132689E+02  0.00000000000E+00 0. -1.
         11    1    3    3    0    0 -0.88578612203E+00 -0.12718925314E+02  0.10391235173E+01  0.12792007510E+02  0.51100000000E-03 0. -1.
        -11    1    3    3    0    0  0.15163673602E+02 -0.50743449214E+01  0.13889498407E+02  0.21180277141E+02  0.51100000000E-03 0.  1.
        -12    1    3    3    0    0 -0.91831886695E+00 -0.55305896277E+01  0.15578501154E+02  0.16556582660E+02  0.00000000000E+00 0.  1.
</event>
<event>
 7    1  0.3004200E-011  0.5052886E+02  0.7816164E-02  0.1300439E+00
        -11   -1    0    0    0    0  0.00000000000E+00  0.00000000000E+00  0.45593999997E+02  0.45594000000E+02  0.51100000000E-03 0. -1.
         11   -1    0    0    0    0 -0.00000000000E+00 -0.00000000000E+00 -0.45593999997E+02  0.45594000000E+02  0.51100000000E-03 0.  1.
    9900012    2    1    2    0    0 -0.49077450528E+01 -0.33739990392E+02 -0.22151584968E+02  0.50528860440E+02  0.30000001793E+02 0.  0.
         12    1    1    2    0    0  0.49077450528E+01  0.33739990392E+02  0.22151584968E+02  0.40659139560E+02  0.00000000000E+00 0. -1.
         11    1    3    3    0    0 -0.68926532668E+01 -0.34171481980E+01 -0.36820180701E+01  0.85289406254E+01  0.51100000000E-03 0. -1.
        -11    1    3    3    0    0  0.10161237905E+02 -0.74399077745E+01 -0.22736219354E+01  0.12797356775E+02  0.51100000000E-03 0.  1.
        -12    1    3    3    0    0 -0.81763296907E+01 -0.22882934420E+02 -0.16195944963E+02  0.29202563040E+02  0.00000000000E+00 0.  1.
</event>
<event>
 7    1  0.3004200E-011  0.5052886E+02  0.7816164E-02  0.1300439E+00
        -11   -1    0    0    0    0  0.00000000000E+00  0.00000000000E+00  0.45593999997E+02  0.45594000000E+02  0.51100000000E-03 0. -1.
         11   -1    0    0    0    0 -0.00000000000E+00 -0.00000000000E+00 -0.45593999997E+02  0.45594000000E+02  0.51100000000E-03 0.  1.
    9900012    2    1    2    0    0  0.16601898266E+02 -0.31587468991E+02 -0.19487796805E+02  0.50528862680E+02  0.30000008603E+02 0.  0.
         12    1    1    2    0    0 -0.16601898266E+02  0.31587468991E+02  0.19487796805E+02  0.40659137320E+02  0.00000000000E+00 0. -1.
         11    1    3    3    0    0  0.20838342696E+02 -0.27360354764E+02 -0.96512271607E+01  0.35720746424E+02  0.51100000000E-03 0. -1.
        -11    1    3    3    0    0 -0.37309213693E+01 -0.43992400360E+01 -0.11605699193E+02  0.12960144335E+02  0.51100000000E-03 0.  1.
         12    1    3    3    0    0 -0.50552306096E+00  0.17212580956E+00  0.17691295490E+01  0.18479719209E+01  0.00000000000E+00 0. -1.
</event>
<event>
 7    1  0.3004200E-011  0.5052886E+02  0.7816164E-02  0.1300439E+00
        -11   -1    0    0    0    0  0.00000000000E+00  0.00000000000E+00  0.45593999997E+02  0.45594000000E+02  0.51100000000E-03 0.  1.
         11   -1    0    0    0    0 -0.00000000000E+00 -0.00000000000E+00 -0.45593999997E+02  0.45594000000E+02  0.51100000000E-03 0. -1.
    9900012    2    1    2    0    0  0.27374186394E+02 -0.15510896674E+02  0.25753279473E+02  0.50528863265E+02  0.30000010381E+02 0.  0.
         12    1    1    2    0    0 -0.27374186394E+02  0.15510896674E+02 -0.25753279473E+02  0.40659136735E+02  0.00000000000E+00 0. -1.
         11    1    3    3    0    0 -0.42035104738E+01 -0.71537528232E+01  0.17703551785E+01  0.84840932030E+01  0.51100000000E-03 0. -1.
        -11    1    3    3    0    0  0.13377493874E+02 -0.28019907582E+01  0.35459420680E+01  0.14120276201E+02  0.51100000000E-03 0.  1.
        -12    1    3    3    0    0  0.18200202994E+02 -0.55551530930E+01  0.20436982227E+02  0.27924493862E+02  0.00000000000E+00 0.  1.
</event>
<event>
 7    1  0.3004200E-011  0.5052887E+02  0.7816164E-02  0.1300439E+00
        -11   -1    0    0    0    0  0.00000000000E+00  0.00000000000E+00  0.45593999997E+02  0.45594000000E+02  0.51100000000E-03 0.  1.
         11   -1    0    0    0    0 -0.00000000000E+00 -0.00000000000E+00 -0.45593999997E+02  0.45594000000E+02  0.51100000000E-03 0. -1.
    9900012    2    1    2    0    0 -0.41448874403E+01  0.26097256102E+02  0.30901752508E+02  0.50528866019E+02  0.30000018753E+02 0.  0.
         12    1    1    2    0    0  0.41448874403E+01 -0.26097256102E+02 -0.30901752508E+02  0.40659133981E+02  0.00000000000E+00 0. -1.
         11    1    3    3    0    0  0.75490342846E+01  0.94046601786E+01  0.14356672802E+02  0.18749656154E+02  0.51100000000E-03 0. -1.
        -11    1    3    3    0    0 -0.89600039718E+01  0.24416651892E+01  0.14365146487E+02  0.17105579029E+02  0.51100000000E-03 0.  1.
        -12    1    3    3    0    0 -0.27339177531E+01  0.14250930734E+02  0.21799332200E+01  0.14673630836E+02  0.00000000000E+00 0.  1.
</event>
<event>
 7    1  0.3004200E-011  0.5052885E+02  0.7816164E-02  0.1300439E+00
        -11   -1    0    0    0    0  0.00000000000E+00  0.00000000000E+00  0.45593999997E+02  0.45594000000E+02  0.51100000000E-03 0. -1.
         11   -1    0    0    0    0 -0.00000000000E+00 -0.00000000000E+00 -0.45593999997E+02  0.45594000000E+02  0.51100000000E-03 0.  1.
    9900012    2    1    2    0    0 -0.38650236504E+02 -0.12275249562E+02  0.29400273411E+01  0.50528852267E+02  0.29999976950E+02 0.  0.
         12    1    1    2    0    0  0.38650236504E+02  0.12275249562E+02 -0.29400273411E+01  0.40659147733E+02  0.00000000000E+00 0. -1.
         11    1    3    3    0    0 -0.17501681104E+02 -0.52032924827E+01  0.98985393353E+01  0.20769308495E+02  0.51100000000E-03 0. -1.
        -11    1    3    3    0    0 -0.18431801075E+02 -0.81178310430E+01 -0.12355038798E+02  0.23627895710E+02  0.51100000000E-03 0.  1.
        -12    1    3    3    0    0 -0.27167543250E+01  0.10458739640E+01  0.53965268037E+01  0.61316480618E+01  0.00000000000E+00 0.  1.
</event>
<event>
 7    1  0.3004200E-011  0.5052879E+02  0.7816164E-02  0.1300439E+00
        -11   -1    0    0    0    0  0.00000000000E+00  0.00000000000E+00  0.45593999997E+02  0.45594000000E+02  0.51100000000E-03 0.  1.
         11   -1    0    0    0    0 -0.00000000000E+00 -0.00000000000E+00 -0.45593999997E+02  0.45594000000E+02  0.51100000000E-03 0. -1.
    9900012    2    1    2    0    0  0.40343611577E+02  0.22320527300E+01  0.45367852031E+01  0.50528788566E+02  0.29999783323E+02 0.  0.
         12    1    1    2    0    0 -0.40343611577E+02 -0.22320527300E+01 -0.45367852031E+01  0.40659211434E+02  0.00000000000E+00 0. -1.
         11    1    3    3    0    0  0.10724297964E+02  0.10125765963E+02 -0.77964595459E+00  0.14769886636E+02  0.51100000000E-03 0. -1.
        -11    1    3    3    0    0  0.31535570438E+02 -0.92625234363E+01  0.41429489388E+01  0.33127791497E+02  0.51100000000E-03 0.  1.
        -12    1    3    3    0    0 -0.19162568252E+01  0.13688102035E+01  0.11734822189E+01  0.26311104332E+01  0.00000000000E+00 0.  1.
</event>
<event>
 7    1  0.3004200E-011  0.5052886E+02  0.7816164E-02  0.1300439E+00
        -11   -1    0    0    0    0  0.00000000000E+00  0.00000000000E+00  0.45593999997E+02  0.45594000000E+02  0.51100000000E-03 0.  1.
         11   -1    0    0    0    0 -0.00000000000E+00 -0.00000000000E+00 -0.45593999997E+02  0.45594000000E+02  0.51100000000E-03 0. -1.
    9900012    2    1    2    0    0  0.22238821174E+01  0.90857639659E+01  0.39568536913E+02  0.50528857461E+02  0.29999992739E+02 0.  0.
         12    1    1    2    0    0 -0.22238821174E+01 -0.90857639659E+01 -0.39568536913E+02  0.40659142539E+02  0.00000000000E+00 0. -1.
         11    1    3    3    0    0  0.17771029998E+01  0.90145690509E+01  0.12726619194E+01  0.92757866980E+01  0.51100000000E-03 0. -1.
        -11    1    3    3    0    0  0.74356970929E+01 -0.24218724508E+00  0.12702921270E+02  0.14721156713E+02  0.51100000000E-03 0.  1.
         12    1    3    3    0    0 -0.69889179753E+01  0.31338216011E+00  0.25592953724E+02  0.26531914050E+02  0.00000000000E+00 0. -1.
</event>
<event>
 7    1  0.3004200E-011  0.5052885E+02  0.7816164E-02  0.1300439E+00
        -11   -1    0    0    0    0  0.00000000000E+00  0.00000000000E+00  0.45593999997E+02  0.45594000000E+02  0.51100000000E-03 0.  1.
         11   -1    0    0    0    0 -0.00000000000E+00 -0.00000000000E+00 -0.45593999997E+02  0.45594000000E+02  0.51100000000E-03 0. -1.
    9900012    2    1    2    0    0  0.17285974422E+02 -0.24307402526E+02  0.27631721428E+02  0.50528846562E+02  0.29999959608E+02 0.  0.
         12    1    1    2    0    0 -0.17285974422E+02  0.24307402526E+02 -0.27631721428E+02  0.40659153438E+02  0.00000000000E+00 0. -1.
         11    1    3    3    0    0  0.90923095554E+01 -0.18484416117E+02  0.69045807324E+01  0.21725951477E+02  0.51100000000E-03 0. -1.
        -11    1    3    3    0    0  0.10139603973E+02 -0.18399913883E+01  0.21912026177E+02  0.24214335186E+02  0.51100000000E-03 0.  1.
        -12    1    3    3    0    0 -0.19459391066E+01 -0.39829950206E+01 -0.11848854815E+01  0.45885598988E+01  0.00000000000E+00 0.  1.
</event>
<event>
 7    1  0.3004200E-011  0.5052883E+02  0.7816164E-02  0.1300439E+00
        -11   -1    0    0    0    0  0.00000000000E+00  0.00000000000E+00  0.45593999997E+02  0.45594000000E+02  0.51100000000E-03 0.  1.
         11   -1    0    0    0    0 -0.00000000000E+00 -0.00000000000E+00 -0.45593999997E+02  0.45594000000E+02  0.51100000000E-03 0. -1.
    9900012    2    1    2    0    0 -0.36069773428E+02  0.13715956026E+02  0.12806705764E+02  0.50528834768E+02  0.29999923760E+02 0.  0.
         12    1    1    2    0    0  0.36069773428E+02 -0.13715956026E+02 -0.12806705764E+02  0.40659165232E+02  0.00000000000E+00 0. -1.
         11    1    3    3    0    0 -0.10243682936E+02 -0.17042713387E+01 -0.52192940375E+01  0.11622332443E+02  0.51100000000E-03 0. -1.
        -11    1    3    3    0    0 -0.11815363935E+02  0.16202225261E+02  0.13453829423E+02  0.24147887169E+02  0.51100000000E-03 0.  1.
        -12    1    3    3    0    0 -0.14010726557E+02 -0.78199789648E+00  0.45721703785E+01  0.14758615156E+02  0.00000000000E+00 0.  1.
</event>
<event>
 7    1  0.3004200E-011  0.5052874E+02  0.7816164E-02  0.1300439E+00
        -11   -1    0    0    0    0  0.00000000000E+00  0.00000000000E+00  0.45593999997E+02  0.45594000000E+02  0.51100000000E-03 0.  1.
         11   -1    0    0    0    0 -0.00000000000E+00 -0.00000000000E+00 -0.45593999997E+02  0.45594000000E+02  0.51100000000E-03 0. -1.
    9900012    2    1    2    0    0 -0.22211243827E+01 -0.25730930307E+02  0.31403208724E+02  0.50528736773E+02  0.29999625892E+02 0.  0.
         12    1    1    2    0    0  0.22211243827E+01  0.25730930307E+02 -0.31403208724E+02  0.40659263227E+02  0.00000000000E+00 0. -1.
         11    1    3    3    0    0 -0.54657954624E+01 -0.25269894569E+01 -0.23665037401E+01  0.64700027794E+01  0.51100000000E-03 0. -1.
        -11    1    3    3    0    0  0.42808706929E+01 -0.22696293630E+02  0.20935600515E+02  0.31172856264E+02  0.51100000000E-03 0.  1.
         12    1    3    3    0    0 -0.10361996132E+01 -0.50764722021E+00  0.12834111949E+02  0.12885877730E+02  0.00000000000E+00 0. -1.
</event>
<event>
 7    1  0.3004200E-011  0.5052886E+02  0.7816164E-02  0.1300439E+00
        -11   -1    0    0    0    0  0.00000000000E+00  0.00000000000E+00  0.45593999997E+02  0.45594000000E+02  0.51100000000E-03 0.  1.
         11   -1    0    0    0    0 -0.00000000000E+00 -0.00000000000E+00 -0.45593999997E+02  0.45594000000E+02  0.51100000000E-03 0. -1.
    9900012    2    1    2    0    0  0.33837795910E+02  0.12383521882E+02 -0.18836607003E+02  0.50528858228E+02  0.29999995071E+02 0.  0.
         12    1    1    2    0    0 -0.33837795910E+02 -0.12383521882E+02  0.18836607003E+02  0.40659141772E+02  0.00000000000E+00 0. -1.
         11    1    3    3    0    0  0.54856075287E+01 -0.83938886899E+00 -0.14842757673E+02  0.15846258841E+02  0.51100000000E-03 0. -1.
        -11    1    3    3    0    0  0.18371125131E+02  0.15468695059E+02 -0.45226025695E+01  0.24438344864E+02  0.51100000000E-03 0.  1.
         12    1    3    3    0    0  0.99810632504E+01 -0.22457843086E+01  0.52875324014E+00  0.10244254524E+02  0.00000000000E+00 0. -1.
</event>
<event>
 7    1  0.3004200E-011  0.5052886E+02  0.7816164E-02  0.1300439E+00
        -11   -1    0    0    0    0  0.00000000000E+00  0.00000000000E+00  0.45593999997E+02  0.45594000000E+02  0.51100000000E-03 0.  1.
         11   -1    0    0    0    0 -0.00000000000E+00 -0.00000000000E+00 -0.45593999997E+02  0.45594000000E+02  0.51100000000E-03 0. -1.
    9900012    2    1    2    0    0  0.19968043052E+02  0.16197863348E+02  0.31497172810E+02  0.50528863076E+02  0.30000009805E+02 0.  0.
         12    1    1    2    0    0 -0.19968043052E+02 -0.16197863348E+02 -0.31497172810E+02  0.40659136924E+02  0.00000000000E+00 0. -1.
         11    1    3    3    0    0  0.17545041113E+02  0.46730853549E+01  0.11727888045E+02  0.21615030711E+02  0.51100000000E-03 0. -1.
        -11    1    3    3    0    0  0.43811638544E+00  0.15012767990E+02  0.92112812486E+01  0.17618820937E+02  0.51100000000E-03 0.  1.
        -12    1    3    3    0    0  0.19848855533E+01 -0.34879899973E+01  0.10558003517E+02  0.11295011428E+02  0.00000000000E+00 0.  1.
</event>
<event>
 7    1  0.3004200E-011  0.5052886E+02  0.7816164E-02  0.1300439E+00
        -11   -1    0    0    0    0  0.00000000000E+00  0.00000000000E+00  0.45593999997E+02  0.45594000000E+02  0.51100000000E-03 0.  1.
         11   -1    0    0    0    0 -0.00000000000E+00 -0.00000000000E+00 -0.45593999997E+02  0.45594000000E+02  0.51100000000E-03 0. -1.
    9900012    2    1    2    0    0 -0.20674840151E+02  0.20744695640E+02  0.28202380292E+02  0.50528859987E+02  0.30000000416E+02 0.  0.
         12    1    1    2    0    0  0.20674840151E+02 -0.20744695640E+02 -0.28202380292E+02  0.40659140013E+02  0.00000000000E+00 0. -1.
         11    1    3    3    0    0 -0.71310587392E+01 -0.64613466122E+01  0.62071947493E+01  0.11451212412E+02  0.51100000000E-03 0. -1.
        -11    1    3    3    0    0 -0.28038520633E+01  0.15411557525E+02  0.69036390732E+01  0.17118350518E+02  0.51100000000E-03 0.  1.
        -12    1    3    3    0    0 -0.10739929348E+02  0.11794484727E+02  0.15091546470E+02  0.21959297057E+02  0.00000000000E+00 0.  1.
</event>
<event>
 7    1  0.3004200E-011  0.5052886E+02  0.7816164E-02  0.1300439E+00
        -11   -1    0    0    0    0  0.00000000000E+00  0.00000000000E+00  0.45593999997E+02  0.45594000000E+02  0.51100000000E-03 0.  1.
         11   -1    0    0    0    0 -0.00000000000E+00 -0.00000000000E+00 -0.45593999997E+02  0.45594000000E+02  0.51100000000E-03 0. -1.
    9900012    2    1    2    0    0 -0.19042986228E+02 -0.22853767249E+02  0.27717063356E+02  0.50528860768E+02  0.30000002791E+02 0.  0.
         12    1    1    2    0    0  0.19042986228E+02  0.22853767249E+02 -0.27717063356E+02  0.40659139232E+02  0.00000000000E+00 0. -1.
         11    1    3    3    0    0 -0.37271834882E+01 -0.40211538219E+01 -0.58272466671E+00  0.55137231625E+01  0.51100000000E-03 0. -1.
        -11    1    3    3    0    0 -0.10316345875E+01 -0.12206472619E+02  0.26464706440E+02  0.29162354688E+02  0.51100000000E-03 0.  1.
        -12    1    3    3    0    0 -0.14284168153E+02 -0.66261408081E+01  0.18350815831E+01  0.15852782918E+02  0.00000000000E+00 0.  1.
</event>
<event>
 7    1  0.3004200E-011  0.5052886E+02  0.7816164E-02  0.1300439E+00
        -11   -1    0    0    0    0  0.00000000000E+00  0.00000000000E+00  0.45593999997E+02  0.45594000000E+02  0.51100000000E-03 0.  1.
         11   -1    0    0    0    0 -0.00000000000E+00 -0.00000000000E+00 -0.45593999997E+02  0.45594000000E+02  0.51100000000E-03 0. -1.
    9900012    2    1    2    0    0  0.39355625972E+01  0.14637335551E+02  0.37728313859E+02  0.50528856974E+02  0.29999991258E+02 0.  0.
         12    1    1    2    0    0 -0.39355625972E+01 -0.14637335551E+02 -0.37728313859E+02  0.40659143026E+02  0.00000000000E+00 0. -1.
         11    1    3    3    0    0  0.20786510391E+01  0.34705051419E+01 -0.35378043496E+01  0.53741283906E+01  0.51100000000E-03 0. -1.
        -11    1    3    3    0    0  0.79959206721E+01  0.81744046475E+01  0.23923582671E+02  0.26515909315E+02  0.51100000000E-03 0.  1.
        -12    1    3    3    0    0 -0.61390091140E+01  0.29924257612E+01  0.17342535537E+02  0.18638819268E+02  0.00000000000E+00 0.  1.
</event>
<event>
 7    1  0.3004200E-011  0.5052886E+02  0.7816164E-02  0.1300439E+00
        -11   -1    0    0    0    0  0.00000000000E+00  0.00000000000E+00  0.45593999997E+02  0.45594000000E+02  0.51100000000E-03 0. -1.
         11   -1    0    0    0    0 -0.00000000000E+00 -0.00000000000E+00 -0.45593999997E+02  0.45594000000E+02  0.51100000000E-03 0.  1.
    9900012    2    1    2    0    0  0.31048714725E+01  0.64764859009E+01 -0.40019753109E+02  0.50528859141E+02  0.29999997844E+02 0.  0.
         12    1    1    2    0    0 -0.31048714725E+01 -0.64764859009E+01  0.40019753109E+02  0.40659140859E+02  0.00000000000E+00 0. -1.
         11    1    3    3    0    0  0.22657537379E+01  0.28216709496E+01  0.79141275368E+00  0.37042949878E+01  0.51100000000E-03 0. -1.
        -11    1    3    3    0    0 -0.93642322792E+01  0.36119480864E+01 -0.31321495183E+02  0.32890288474E+02  0.51100000000E-03 0.  1.
        -12    1    3    3    0    0  0.10203350014E+02  0.42866864886E-01 -0.94896706797E+01  0.13934275678E+02  0.00000000000E+00 0.  1.
</event>
<event>
 7    1  0.3004200E-011  0.5052887E+02  0.7816164E-02  0.1300439E+00
        -11   -1    0    0    0    0  0.00000000000E+00  0.00000000000E+00  0.45593999997E+02  0.45594000000E+02  0.51100000000E-03 0.  1.
         11   -1    0    0    0    0 -0.00000000000E+00 -0.00000000000E+00 -0.45593999997E+02  0.45594000000E+02  0.51100000000E-03 0. -1.
    9900012    2    1    2    0    0  0.19362009610E+02  0.26482970830E+01  0.35654791169E+02  0.50528867854E+02  0.30000024329E+02 0.  0.
         12    1    1    2    0    0 -0.19362009610E+02 -0.26482970830E+01 -0.35654791169E+02  0.40659132146E+02  0.00000000000E+00 0. -1.
         11    1    3    3    0    0  0.11400552742E+01  0.49470929677E+00 -0.44329076753E+01  0.46038173330E+01  0.51100000000E-03 0. -1.
        -11    1    3    3    0    0  0.13040053995E+02 -0.45784609380E+01  0.22775463715E+02  0.26640703078E+02  0.51100000000E-03 0.  1.
        -12    1    3    3    0    0  0.51819003405E+01  0.67320487243E+01  0.17312235129E+02  0.19284347443E+02  0.00000000000E+00 0.  1.
</event>
<event>
 7    1  0.3004200E-011  0.5052886E+02  0.7816164E-02  0.1300439E+00
        -11   -1    0    0    0    0  0.00000000000E+00  0.00000000000E+00  0.45593999997E+02  0.45594000000E+02  0.51100000000E-03 0. -1.
         11   -1    0    0    0    0 -0.00000000000E+00 -0.00000000000E+00 -0.45593999997E+02  0.45594000000E+02  0.51100000000E-03 0.  1.
    9900012    2    1    2    0    0  0.23865515409E+02 -0.16409080434E+02 -0.28536724603E+02  0.50528863296E+02  0.30000010475E+02 0.  0.
         12    1    1    2    0    0 -0.23865515409E+02  0.16409080434E+02  0.28536724603E+02  0.40659136704E+02  0.00000000000E+00 0. -1.
         11    1    3    3    0    0 -0.56445256450E+01 -0.78975003680E+01 -0.65478132117E+01  0.11709186135E+02  0.51100000000E-03 0. -1.
        -11    1    3    3    0    0  0.18202230843E+02 -0.68389106192E+01 -0.87324107358E+01  0.21315414695E+02  0.51100000000E-03 0.  1.
        -12    1    3    3    0    0  0.11307810211E+02 -0.16726694472E+01 -0.13256500656E+02  0.17504262466E+02  0.00000000000E+00 0.  1.
</event>
<event>
 7    1  0.3004200E-011  0.5052888E+02  0.7816164E-02  0.1300439E+00
        -11   -1    0    0    0    0  0.00000000000E+00  0.00000000000E+00  0.45593999997E+02  0.45594000000E+02  0.51100000000E-03 0.  1.
         11   -1    0    0    0    0 -0.00000000000E+00 -0.00000000000E+00 -0.45593999997E+02  0.45594000000E+02  0.51100000000E-03 0. -1.
    9900012    2    1    2    0    0 -0.33944151678E+02  0.22249959648E+02 -0.24285452804E+01  0.50528880854E+02  0.30000063845E+02 0.  0.
         12    1    1    2    0    0  0.33944151678E+02 -0.22249959648E+02  0.24285452804E+01  0.40659119146E+02  0.00000000000E+00 0. -1.
         11    1    3    3    0    0 -0.28514631126E+00  0.13171837924E+01 -0.11053762076E+01  0.17430256404E+01  0.51100000000E-03 0.  1.
        -11    1    3    3    0    0 -0.19027237515E+02  0.13474497140E+02 -0.14735992745E+02  0.27581648302E+02  0.51100000000E-03 0. -1.
        -12    1    3    3    0    0 -0.14631767852E+02  0.74582787164E+01  0.13412823673E+02  0.21204206912E+02  0.00000000000E+00 0.  1.
</event>
<event>
 7    1  0.3004200E-011  0.5052886E+02  0.7816164E-02  0.1300439E+00
        -11   -1    0    0    0    0  0.00000000000E+00  0.00000000000E+00  0.45593999997E+02  0.45594000000E+02  0.51100000000E-03 0.  1.
         11   -1    0    0    0    0 -0.00000000000E+00 -0.00000000000E+00 -0.45593999997E+02  0.45594000000E+02  0.51100000000E-03 0. -1.
    9900012    2    1    2    0    0  0.28722120757E+02  0.15262162521E+02  0.24398193252E+02  0.50528860074E+02  0.30000000681E+02 0.  0.
         12    1    1    2    0    0 -0.28722120757E+02 -0.15262162521E+02 -0.24398193252E+02  0.40659139926E+02  0.00000000000E+00 0. -1.
         11    1    3    3    0    0  0.79319849774E+01  0.10117092388E+02 -0.17741147780E+01  0.12977651081E+02  0.51100000000E-03 0. -1.
        -11    1    3    3    0    0  0.73302224838E+01 -0.16689818781E+01  0.19790845587E+02  0.21170621896E+02  0.51100000000E-03 0.  1.
         12    1    3    3    0    0  0.13459913295E+02  0.68140520106E+01  0.63814624428E+01  0.16380587097E+02  0.00000000000E+00 0. -1.
</event>
<event>
 7    1  0.3004200E-011  0.5052887E+02  0.7816164E-02  0.1300439E+00
        -11   -1    0    0    0    0  0.00000000000E+00  0.00000000000E+00  0.45593999997E+02  0.45594000000E+02  0.51100000000E-03 0.  1.
         11   -1    0    0    0    0 -0.00000000000E+00 -0.00000000000E+00 -0.45593999997E+02  0.45594000000E+02  0.51100000000E-03 0. -1.
    9900012    2    1    2    0    0  0.37467362963E+02 -0.38950262509E+01  0.15303289793E+02  0.50528865782E+02  0.30000018031E+02 0.  0.
         12    1    1    2    0    0 -0.37467362963E+02  0.38950262509E+01 -0.15303289793E+02  0.40659134218E+02  0.00000000000E+00 0. -1.
         11    1    3    3    0    0  0.17037412902E+02  0.95875006445E+01  0.64674829931E+01  0.20591793111E+02  0.51100000000E-03 0.  1.
        -11    1    3    3    0    0  0.82130798541E+01 -0.96329463898E+01 -0.24165736951E+01  0.12887519758E+02  0.51100000000E-03 0. -1.
        -12    1    3    3    0    0  0.12216870206E+02 -0.38495805055E+01  0.11252380495E+02  0.17049552912E+02  0.00000000000E+00 0.  1.
</event>
<event>
 7    1  0.3004200E-011  0.5052886E+02  0.7816164E-02  0.1300439E+00
        -11   -1    0    0    0    0  0.00000000000E+00  0.00000000000E+00  0.45593999997E+02  0.45594000000E+02  0.51100000000E-03 0.  1.
         11   -1    0    0    0    0 -0.00000000000E+00 -0.00000000000E+00 -0.45593999997E+02  0.45594000000E+02  0.51100000000E-03 0. -1.
    9900012    2    1    2    0    0  0.38900126534E+02 -0.28943856232E+01  0.11470312822E+02  0.50528863404E+02  0.30000010803E+02 0.  0.
         12    1    1    2    0    0 -0.38900126534E+02  0.28943856232E+01 -0.11470312822E+02  0.40659136596E+02  0.00000000000E+00 0. -1.
         11    1    3    3    0    0  0.98640727291E+01 -0.33601367891E+01  0.78107002819E+01  0.13022960078E+02  0.51100000000E-03 0. -1.
        -11    1    3    3    0    0  0.46510037240E-01  0.11545387493E+01 -0.66351224213E+01  0.67349812705E+01  0.51100000000E-03 0.  1.
        -12    1    3    3    0    0  0.28989543768E+02 -0.68878758329E+00  0.10294734962E+02  0.30770922055E+02  0.00000000000E+00 0.  1.
</event>
<event>
 7    1  0.3004200E-011  0.5052886E+02  0.7816164E-02  0.1300439E+00
        -11   -1    0    0    0    0  0.00000000000E+00  0.00000000000E+00  0.45593999997E+02  0.45594000000E+02  0.51100000000E-03 0.  1.
         11   -1    0    0    0    0 -0.00000000000E+00 -0.00000000000E+00 -0.45593999997E+02  0.45594000000E+02  0.51100000000E-03 0. -1.
    9900012    2    1    2    0    0  0.10363143821E+02 -0.14601244944E+02  0.36504442156E+02  0.50528863254E+02  0.30000010348E+02 0.  0.
         12    1    1    2    0    0 -0.10363143821E+02  0.14601244944E+02 -0.36504442156E+02  0.40659136746E+02  0.00000000000E+00 0. -1.
         11    1    3    3    0    0  0.78423845341E+01 -0.15157532203E+02  0.61181472388E+01  0.18129685700E+02  0.51100000000E-03 0. -1.
        -11    1    3    3    0    0  0.58424208688E+01  0.31249550519E+01  0.14081634731E+02  0.15562508238E+02  0.51100000000E-03 0.  1.
         12    1    3    3    0    0 -0.33216615823E+01 -0.25686677923E+01  0.16304660186E+02  0.16836669317E+02  0.00000000000E+00 0. -1.
</event>
<event>
 7    1  0.3004200E-011  0.5052886E+02  0.7816164E-02  0.1300439E+00
        -11   -1    0    0    0    0  0.00000000000E+00  0.00000000000E+00  0.45593999997E+02  0.45594000000E+02  0.51100000000E-03 0.  1.
         11   -1    0    0    0    0 -0.00000000000E+00 -0.00000000000E+00 -0.45593999997E+02  0.45594000000E+02  0.51100000000E-03 0. -1.
    9900012    2    1    2    0    0 -0.13093223981E+02 -0.38031197090E+02  0.59465306471E+01  0.50528859662E+02  0.29999999429E+02 0.  0.
         12    1    1    2    0    0  0.13093223981E+02  0.38031197090E+02 -0.59465306471E+01  0.40659140338E+02  0.00000000000E+00 0. -1.
         11    1    3    3    0    0 -0.13475847025E+02 -0.94080445988E+01  0.84751589643E+01  0.18491567698E+02  0.51100000000E-03 0.  1.
        -11    1    3    3    0    0  0.30855992296E+01 -0.25039113310E+02  0.24338968063E+01  0.25345649959E+02  0.51100000000E-03 0. -1.
         12    1    3    3    0    0 -0.27029761855E+01 -0.35840391814E+01 -0.49625251235E+01  0.66916420044E+01  0.00000000000E+00 0. -1.
</event>
<event>
 7    1  0.3004200E-011  0.5052886E+02  0.7816164E-02  0.1300439E+00
        -11   -1    0    0    0    0  0.00000000000E+00  0.00000000000E+00  0.45593999997E+02  0.45594000000E+02  0.51100000000E-03 0.  1.
         11   -1    0    0    0    0 -0.00000000000E+00 -0.00000000000E+00 -0.45593999997E+02  0.45594000000E+02  0.51100000000E-03 0. -1.
    9900012    2    1    2    0    0  0.23179136330E+01  0.38671120948E+02 -0.12342497926E+02  0.50528861126E+02  0.30000003877E+02 0.  0.
         12    1    1    2    0    0 -0.23179136330E+01 -0.38671120948E+02  0.12342497926E+02  0.40659138874E+02  0.00000000000E+00 0. -1.
         11    1    3    3    0    0  0.36865679373E+01  0.66579057759E+00  0.53324642882E+01  0.65168424789E+01  0.51100000000E-03 0. -1.
        -11    1    3    3    0    0  0.14855187985E+01  0.36600103144E+02 -0.14161921190E+02  0.39272564575E+02  0.51100000000E-03 0.  1.
         12    1    3    3    0    0 -0.28541731027E+01  0.14052272262E+01 -0.35130410246E+01  0.47394540717E+01  0.00000000000E+00 0. -1.
</event>
<event>
 7    1  0.3004200E-011  0.5052886E+02  0.7816164E-02  0.1300439E+00
        -11   -1    0    0    0    0  0.00000000000E+00  0.00000000000E+00  0.45593999997E+02  0.45594000000E+02  0.51100000000E-03 0. -1.
         11   -1    0    0    0    0 -0.00000000000E+00 -0.00000000000E+00 -0.45593999997E+02  0.45594000000E+02  0.51100000000E-03 0.  1.
    9900012    2    1    2    0    0 -0.10531480317E+02 -0.14834719728E+02 -0.36361855104E+02  0.50528862113E+02  0.30000006879E+02 0.  0.
         12    1    1    2    0    0  0.10531480317E+02  0.14834719728E+02  0.36361855104E+02  0.40659137887E+02  0.00000000000E+00 0. -1.
         11    1    3    3    0    0  0.42771129615E+01 -0.39941546261E+01 -0.17308721763E+01  0.61026949141E+01  0.51100000000E-03 0.  1.
        -11    1    3    3    0    0 -0.19541090094E+02 -0.47578454569E+01 -0.25532659855E+02  0.32502430909E+02  0.51100000000E-03 0. -1.
         12    1    3    3    0    0  0.47324968151E+01 -0.60827196449E+01 -0.90983230727E+01  0.11923736290E+02  0.00000000000E+00 0. -1.
</event>
<event>
 7    1  0.3004200E-011  0.5052885E+02  0.7816164E-02  0.1300439E+00
        -11   -1    0    0    0    0  0.00000000000E+00  0.00000000000E+00  0.45593999997E+02  0.45594000000E+02  0.51100000000E-03 0. -1.
         11   -1    0    0    0    0 -0.00000000000E+00 -0.00000000000E+00 -0.45593999997E+02  0.45594000000E+02  0.51100000000E-03 0.  1.
    9900012    2    1    2    0    0  0.39684353677E+02  0.76748267292E+01 -0.44062817446E+01  0.50528853293E+02  0.29999980070E+02 0.  0.
         12    1    1    2    0    0 -0.39684353677E+02 -0.76748267292E+01  0.44062817446E+01  0.40659146707E+02  0.00000000000E+00 0. -1.
         11    1    3    3    0    0  0.93493408327E+01  0.22750231910E+00  0.11405717324E+02  0.14749654886E+02  0.51100000000E-03 0. -1.
        -11    1    3    3    0    0  0.57902968396E+01  0.19948676165E+01 -0.65948497961E+01  0.89999487994E+01  0.51100000000E-03 0.  1.
         12    1    3    3    0    0  0.24544716005E+02  0.54524567937E+01 -0.92171492726E+01  0.26779249608E+02  0.00000000000E+00 0. -1.
</event>
<event>
 7    1  0.3004200E-011  0.5052886E+02  0.7816164E-02  0.1300439E+00
        -11   -1    0    0    0    0  0.00000000000E+00  0.00000000000E+00  0.45593999997E+02  0.45594000000E+02  0.51100000000E-03 0.  1.
         11   -1    0    0    0    0 -0.00000000000E+00 -0.00000000000E+00 -0.45593999997E+02  0.45594000000E+02  0.51100000000E-03 0. -1.
    9900012    2    1    2    0    0  0.16976115835E+02  0.31102979402E+02 -0.19939451391E+02  0.50528861319E+02  0.30000004464E+02 0.  0.
         12    1    1    2    0    0 -0.16976115835E+02 -0.31102979402E+02  0.19939451391E+02  0.40659138681E+02  0.00000000000E+00 0. -1.
         11    1    3    3    0    0  0.29470440397E+01  0.13049344613E+02 -0.19282548510E+02  0.23468854695E+02  0.51100000000E-03 0. -1.
        -11    1    3    3    0    0  0.16299258991E+02  0.14764917319E+02 -0.33428296464E+01  0.22245069958E+02  0.51100000000E-03 0.  1.
         12    1    3    3    0    0 -0.22701871966E+01  0.32887174700E+01  0.26859267652E+01  0.48149366655E+01  0.00000000000E+00 0. -1.
</event>
<event>
 7    1  0.3004200E-011  0.5052885E+02  0.7816164E-02  0.1300439E+00
        -11   -1    0    0    0    0  0.00000000000E+00  0.00000000000E+00  0.45593999997E+02  0.45594000000E+02  0.51100000000E-03 0. -1.
         11   -1    0    0    0    0 -0.00000000000E+00 -0.00000000000E+00 -0.45593999997E+02  0.45594000000E+02  0.51100000000E-03 0.  1.
    9900012    2    1    2    0    0 -0.18887520888E+01  0.31588042717E+02 -0.25530265993E+02  0.50528852090E+02  0.29999976411E+02 0.  0.
         12    1    1    2    0    0  0.18887520888E+01 -0.31588042717E+02  0.25530265993E+02  0.40659147910E+02  0.00000000000E+00 0. -1.
         11    1    3    3    0    0  0.58842040125E+01  0.20920711940E+01 -0.16811340250E+01  0.64673665903E+01  0.51100000000E-03 0. -1.
        -11    1    3    3    0    0 -0.11998483948E+02  0.86405487220E+01 -0.14855758881E+02  0.20959872887E+02  0.51100000000E-03 0.  1.
        -12    1    3    3    0    0  0.42255278467E+01  0.20855422801E+02 -0.89933730871E+01  0.23101612612E+02  0.00000000000E+00 0.  1.
</event>
<event>
 7    1  0.3004200E-011  0.5052885E+02  0.7816164E-02  0.1300439E+00
        -11   -1    0    0    0    0  0.00000000000E+00  0.00000000000E+00  0.45593999997E+02  0.45594000000E+02  0.51100000000E-03 0. -1.
         11   -1    0    0    0    0 -0.00000000000E+00 -0.00000000000E+00 -0.45593999997E+02  0.45594000000E+02  0.51100000000E-03 0.  1.
    9900012    2    1    2    0    0 -0.27614602864E+02  0.26025324984E+02 -0.14604185758E+02  0.50528854983E+02  0.29999985206E+02 0.  0.
         12    1    1    2    0    0  0.27614602864E+02 -0.26025324984E+02  0.14604185758E+02  0.40659145017E+02  0.00000000000E+00 0. -1.
         11    1    3    3    0    0 -0.40918858579E+01 -0.52193319329E+01  0.54704212031E+00  0.66546383104E+01  0.51100000000E-03 0. -1.
        -11    1    3    3    0    0 -0.70200193193E+01  0.12915738941E+02  0.42059983159E+00  0.14706253368E+02  0.51100000000E-03 0.  1.
         12    1    3    3    0    0 -0.16502697687E+02  0.18328917976E+02 -0.15571827710E+02  0.29167963305E+02  0.00000000000E+00 0. -1.
</event>
<event>
 7    1  0.3004200E-011  0.5052886E+02  0.7816164E-02  0.1300439E+00
        -11   -1    0    0    0    0  0.00000000000E+00  0.00000000000E+00  0.45593999997E+02  0.45594000000E+02  0.51100000000E-03 0. -1.
         11   -1    0    0    0    0 -0.00000000000E+00 -0.00000000000E+00 -0.45593999997E+02  0.45594000000E+02  0.51100000000E-03 0.  1.
    9900012    2    1    2    0    0  0.25069360823E+01 -0.38752561579E+02 -0.12046581856E+02  0.50528857217E+02  0.29999991996E+02 0.  0.
         12    1    1    2    0    0 -0.25069360823E+01  0.38752561579E+02  0.12046581856E+02  0.40659142783E+02  0.00000000000E+00 0. -1.
         11    1    3    3    0    0  0.73775460175E+01 -0.29303143066E+01 -0.10240993422E+02  0.12957348251E+02  0.51100000000E-03 0. -1.
        -11    1    3    3    0    0 -0.37578063506E+01 -0.21039367897E+02 -0.59375087755E+01  0.22181751978E+02  0.51100000000E-03 0.  1.
         12    1    3    3    0    0 -0.11128035846E+01 -0.14782879375E+02  0.41319203409E+01  0.15389756988E+02  0.00000000000E+00 0. -1.
</event>
<event>
 7    1  0.3004200E-011  0.5052886E+02  0.7816164E-02  0.1300439E+00
        -11   -1    0    0    0    0  0.00000000000E+00  0.00000000000E+00  0.45593999997E+02  0.45594000000E+02  0.51100000000E-03 0.  1.
         11   -1    0    0    0    0 -0.00000000000E+00 -0.00000000000E+00 -0.45593999997E+02  0.45594000000E+02  0.51100000000E-03 0. -1.
    9900012    2    1    2    0    0 -0.90799633776E+01 -0.13241523539E+02  0.37354811972E+02  0.50528860092E+02  0.30000000737E+02 0.  0.
         12    1    1    2    0    0  0.90799633776E+01  0.13241523539E+02 -0.37354811972E+02  0.40659139908E+02  0.00000000000E+00 0. -1.
         11    1    3    3    0    0  0.31941904165E+01 -0.31970868305E+01  0.19370378824E+02  0.19890595584E+02  0.51100000000E-03 0. -1.
        -11    1    3    3    0    0 -0.13853246463E+02 -0.17867827654E+01  0.43672366911E+01  0.14634814204E+02  0.51100000000E-03 0.  1.
        -12    1    3    3    0    0  0.15790926691E+01 -0.82576539434E+01  0.13617196457E+02  0.16003450304E+02  0.00000000000E+00 0.  1.
</event>
<event>
 7    1  0.3004200E-011  0.5052886E+02  0.7816164E-02  0.1300439E+00
        -11   -1    0    0    0    0  0.00000000000E+00  0.00000000000E+00  0.45593999997E+02  0.45594000000E+02  0.51100000000E-03 0.  1.
         11   -1    0    0    0    0 -0.00000000000E+00 -0.00000000000E+00 -0.45593999997E+02  0.45594000000E+02  0.51100000000E-03 0. -1.
    9900012    2    1    2    0    0  0.83411961007E+01 -0.25316688350E+02  0.30702694070E+02  0.50528859766E+02  0.29999999746E+02 0.  0.
         12    1    1    2    0    0 -0.83411961007E+01  0.25316688350E+02 -0.30702694070E+02  0.40659140234E+02  0.00000000000E+00 0. -1.
         11    1    3    3    0    0  0.69170739704E+01  0.45958191468E+01  0.45066760742E+01  0.94486822065E+01  0.51100000000E-03 0. -1.
        -11    1    3    3    0    0  0.10334783243E+01 -0.28356396906E+02  0.27101158319E+02  0.39238069593E+02  0.51100000000E-03 0.  1.
         12    1    3    3    0    0  0.39064380607E+00 -0.15561105911E+01 -0.90514032341E+00  0.18421079665E+01  0.00000000000E+00 0. -1.
</event>
<event>
 7    1  0.3004200E-011  0.5052877E+02  0.7816164E-02  0.1300439E+00
        -11   -1    0    0    0    0  0.00000000000E+00  0.00000000000E+00  0.45593999997E+02  0.45594000000E+02  0.51100000000E-03 0.  1.
         11   -1    0    0    0    0 -0.00000000000E+00 -0.00000000000E+00 -0.45593999997E+02  0.45594000000E+02  0.51100000000E-03 0. -1.
    9900012    2    1    2    0    0  0.36071780831E+02 -0.13142500349E+02  0.13389349742E+02  0.50528765203E+02  0.29999712311E+02 0.  0.
         12    1    1    2    0    0 -0.36071780831E+02  0.13142500349E+02 -0.13389349742E+02  0.40659234797E+02  0.00000000000E+00 0. -1.
         11    1    3    3    0    0  0.18190327293E+00 -0.24895596421E+01  0.45389008526E+01  0.51800209674E+01  0.51100000000E-03 0. -1.
        -11    1    3    3    0    0  0.23017529995E+02  0.28540656261E+01 -0.27838342692E+01  0.23360267789E+02  0.51100000000E-03 0.  1.
        -12    1    3    3    0    0  0.12872347563E+02 -0.13507006333E+02  0.11634283158E+02  0.21988476447E+02  0.00000000000E+00 0.  1.
</event>
<event>
 7    1  0.3004200E-011  0.5052886E+02  0.7816164E-02  0.1300439E+00
        -11   -1    0    0    0    0  0.00000000000E+00  0.00000000000E+00  0.45593999997E+02  0.45594000000E+02  0.51100000000E-03 0.  1.
         11   -1    0    0    0    0 -0.00000000000E+00 -0.00000000000E+00 -0.45593999997E+02  0.45594000000E+02  0.51100000000E-03 0. -1.
    9900012    2    1    2    0    0 -0.19421879362E+02  0.20095000780E+01  0.35663961317E+02  0.50528860494E+02  0.30000001958E+02 0.  0.
         12    1    1    2    0    0  0.19421879362E+02 -0.20095000780E+01 -0.35663961317E+02  0.40659139506E+02  0.00000000000E+00 0. -1.
         11    1    3    3    0    0 -0.23523277629E+01  0.92149455925E+01  0.28752992956E+02  0.30285033802E+02  0.51100000000E-03 0. -1.
        -11    1    3    3    0    0 -0.15308756845E+02 -0.50720728170E+01  0.50098421160E+01  0.16887346656E+02  0.51100000000E-03 0.  1.
         12    1    3    3    0    0 -0.17607947538E+01 -0.21333726974E+01  0.19011262450E+01  0.33564800358E+01  0.00000000000E+00 0. -1.
</event>
<event>
 7    1  0.3004200E-011  0.5052886E+02  0.7816164E-02  0.1300439E+00
        -11   -1    0    0    0    0  0.00000000000E+00  0.00000000000E+00  0.45593999997E+02  0.45594000000E+02  0.51100000000E-03 0.  1.
         11   -1    0    0    0    0 -0.00000000000E+00 -0.00000000000E+00 -0.45593999997E+02  0.45594000000E+02  0.51100000000E-03 0. -1.
    9900012    2    1    2    0    0 -0.29868225161E+02 -0.21420104467E+02  0.17384875718E+02  0.50528860149E+02  0.30000000909E+02 0.  0.
         12    1    1    2    0    0  0.29868225161E+02  0.21420104467E+02 -0.17384875718E+02  0.40659139851E+02  0.00000000000E+00 0. -1.
         11    1    3    3    0    0 -0.62570731515E+01 -0.33315335429E+00 -0.37770901835E+01  0.73163082286E+01  0.51100000000E-03 0. -1.
        -11    1    3    3    0    0 -0.13181833011E+02 -0.15920017850E+02  0.23547036907E+02  0.31331623597E+02  0.51100000000E-03 0.  1.
        -12    1    3    3    0    0 -0.10429318999E+02 -0.51669332632E+01 -0.23850710052E+01  0.11880928324E+02  0.00000000000E+00 0.  1.
</event>
<event>
 7    1  0.3004200E-011  0.5052880E+02  0.7816164E-02  0.1300439E+00
        -11   -1    0    0    0    0  0.00000000000E+00  0.00000000000E+00  0.45593999997E+02  0.45594000000E+02  0.51100000000E-03 0. -1.
         11   -1    0    0    0    0 -0.00000000000E+00 -0.00000000000E+00 -0.45593999997E+02  0.45594000000E+02  0.51100000000E-03 0.  1.
    9900012    2    1    2    0    0 -0.86449554095E+01  0.95305086493E+01 -0.38569477830E+02  0.50528800928E+02  0.29999820899E+02 0.  0.
         12    1    1    2    0    0  0.86449554095E+01 -0.95305086493E+01  0.38569477830E+02  0.40659199072E+02  0.00000000000E+00 0. -1.
         11    1    3    3    0    0  0.36516026688E+00 -0.31030207492E+01  0.77497572111E+00  0.32191097247E+01  0.51100000000E-03 0. -1.
        -11    1    3    3    0    0 -0.50021961463E+01  0.17167097374E+02 -0.19027989878E+02  0.26111215935E+02  0.51100000000E-03 0.  1.
        -12    1    3    3    0    0 -0.40079195300E+01 -0.45335679750E+01 -0.20316463672E+02  0.21198475268E+02  0.00000000000E+00 0.  1.
</event>
<event>
 7    1  0.3004200E-011  0.5052889E+02  0.7816164E-02  0.1300439E+00
        -11   -1    0    0    0    0  0.00000000000E+00  0.00000000000E+00  0.45593999997E+02  0.45594000000E+02  0.51100000000E-03 0. -1.
         11   -1    0    0    0    0 -0.00000000000E+00 -0.00000000000E+00 -0.45593999997E+02  0.45594000000E+02  0.51100000000E-03 0.  1.
    9900012    2    1    2    0    0  0.26621228209E+02 -0.26276571775E+02 -0.15937855200E+02  0.50528889779E+02  0.30000090971E+02 0.  0.
         12    1    1    2    0    0 -0.26621228209E+02  0.26276571775E+02  0.15937855200E+02  0.40659110221E+02  0.00000000000E+00 0. -1.
         11    1    3    3    0    0 -0.87142411763E+00 -0.22912604057E+01  0.62381418453E+01  0.67025120800E+01  0.51100000000E-03 0. -1.
        -11    1    3    3    0    0  0.47110451011E+01 -0.73017490256E+01 -0.94989549343E+01  0.12873990441E+02  0.51100000000E-03 0.  1.
        -12    1    3    3    0    0  0.22781607226E+02 -0.16683562344E+02 -0.12677042111E+02  0.30952387258E+02  0.00000000000E+00 0.  1.
</event>
<event>
 7    1  0.3004200E-011  0.5052886E+02  0.7816164E-02  0.1300439E+00
        -11   -1    0    0    0    0  0.00000000000E+00  0.00000000000E+00  0.45593999997E+02  0.45594000000E+02  0.51100000000E-03 0. -1.
         11   -1    0    0    0    0 -0.00000000000E+00 -0.00000000000E+00 -0.45593999997E+02  0.45594000000E+02  0.51100000000E-03 0.  1.
    9900012    2    1    2    0    0  0.19520702170E+02  0.34278377022E+02 -0.98539817827E+01  0.50528857099E+02  0.29999991638E+02 0.  0.
         12    1    1    2    0    0 -0.19520702170E+02 -0.34278377022E+02  0.98539817827E+01  0.40659142901E+02  0.00000000000E+00 0. -1.
         11    1    3    3    0    0  0.23601656314E+01  0.14237472295E+02  0.52786428174E+01  0.15366849691E+02  0.51100000000E-03 0. -1.
        -11    1    3    3    0    0  0.62412057590E+01  0.15279860421E+02 -0.16294310162E+02  0.23193346627E+02  0.51100000000E-03 0.  1.
        -12    1    3    3    0    0  0.10919330780E+02  0.47610443057E+01  0.11616855623E+01  0.11968660781E+02  0.00000000000E+00 0.  1.
</event>
<event>
 7    1  0.3004200E-011  0.5052886E+02  0.7816164E-02  0.1300439E+00
        -11   -1    0    0    0    0  0.00000000000E+00  0.00000000000E+00  0.45593999997E+02  0.45594000000E+02  0.51100000000E-03 0.  1.
         11   -1    0    0    0    0 -0.00000000000E+00 -0.00000000000E+00 -0.45593999997E+02  0.45594000000E+02  0.51100000000E-03 0. -1.
    9900012    2    1    2    0    0 -0.55945598548E+01  0.35623585305E+02  0.18783688355E+02  0.50528857385E+02  0.29999992507E+02 0.  0.
         12    1    1    2    0    0  0.55945598548E+01 -0.35623585305E+02 -0.18783688355E+02  0.40659142615E+02  0.00000000000E+00 0. -1.
         11    1    3    3    0    0 -0.30073595845E+01  0.22587660381E+02  0.51330878340E+01  0.23357979454E+02  0.51100000000E-03 0. -1.
        -11    1    3    3    0    0  0.10312660310E+01 -0.43169943976E+01  0.68969956031E+01  0.82017375516E+01  0.51100000000E-03 0.  1.
        -12    1    3    3    0    0 -0.36184663013E+01  0.17352919322E+02  0.67536049179E+01  0.18969140380E+02  0.00000000000E+00 0.  1.
</event>
<event>
 7    1  0.3004200E-011  0.5052882E+02  0.7816164E-02  0.1300439E+00
        -11   -1    0    0    0    0  0.00000000000E+00  0.00000000000E+00  0.45593999997E+02  0.45594000000E+02  0.51100000000E-03 0. -1.
         11   -1    0    0    0    0 -0.00000000000E+00 -0.00000000000E+00 -0.45593999997E+02  0.45594000000E+02  0.51100000000E-03 0.  1.
    9900012    2    1    2    0    0 -0.12039725866E+02  0.11069997402E+02 -0.37224575295E+02  0.50528820872E+02  0.29999881523E+02 0.  0.
         12    1    1    2    0    0  0.12039725866E+02 -0.11069997402E+02  0.37224575295E+02  0.40659179128E+02  0.00000000000E+00 0. -1.
         11    1    3    3    0    0  0.26495379014E+01 -0.19676755329E+01 -0.37237320805E+01  0.49757390368E+01  0.51100000000E-03 0. -1.
        -11    1    3    3    0    0 -0.17693750326E+02  0.10475278830E+02 -0.35577100915E+02  0.41091731248E+02  0.51100000000E-03 0.  1.
        -12    1    3    3    0    0  0.30044865587E+01  0.25623941051E+01  0.20762576999E+01  0.44613505878E+01  0.00000000000E+00 0.  1.
</event>
<event>
 7    1  0.3004200E-011  0.5052886E+02  0.7816164E-02  0.1300439E+00
        -11   -1    0    0    0    0  0.00000000000E+00  0.00000000000E+00  0.45593999997E+02  0.45594000000E+02  0.51100000000E-03 0. -1.
         11   -1    0    0    0    0 -0.00000000000E+00 -0.00000000000E+00 -0.45593999997E+02  0.45594000000E+02  0.51100000000E-03 0.  1.
    9900012    2    1    2    0    0  0.27562341328E+02  0.28138430654E+02 -0.10085214336E+02  0.50528862192E+02  0.30000007118E+02 0.  0.
         12    1    1    2    0    0 -0.27562341328E+02 -0.28138430654E+02  0.10085214336E+02  0.40659137808E+02  0.00000000000E+00 0. -1.
         11    1    3    3    0    0  0.20064505856E+00  0.12166892380E+02  0.50890436835E+00  0.12179183575E+02  0.51100000000E-03 0. -1.
        -11    1    3    3    0    0  0.13242092135E+02 -0.11349755386E+00  0.21853031957E+01  0.13421677844E+02  0.51100000000E-03 0.  1.
        -12    1    3    3    0    0  0.14119604134E+02  0.16085035827E+02 -0.12779421900E+02  0.24928000773E+02  0.00000000000E+00 0.  1.
</event>
<event>
 7    1  0.3004200E-011  0.5052888E+02  0.7816164E-02  0.1300439E+00
        -11   -1    0    0    0    0  0.00000000000E+00  0.00000000000E+00  0.45593999997E+02  0.45594000000E+02  0.51100000000E-03 0.  1.
         11   -1    0    0    0    0 -0.00000000000E+00 -0.00000000000E+00 -0.45593999997E+02  0.45594000000E+02  0.51100000000E-03 0. -1.
    9900012    2    1    2    0    0  0.31184479418E+02  0.20094588850E+02  0.16640295496E+02  0.50528884272E+02  0.30000074233E+02 0.  0.
         12    1    1    2    0    0 -0.31184479418E+02 -0.20094588850E+02 -0.16640295496E+02  0.40659115728E+02  0.00000000000E+00 0. -1.
         11    1    3    3    0    0  0.33618029249E+01 -0.39771993430E+01 -0.37775881298E+01  0.64335064980E+01  0.51100000000E-03 0. -1.
        -11    1    3    3    0    0  0.15067605861E+02  0.10050577483E+02  0.16988978941E+02  0.24832886659E+02  0.51100000000E-03 0.  1.
         12    1    3    3    0    0  0.12755070632E+02  0.14021210710E+02  0.34289046845E+01  0.19262491114E+02  0.00000000000E+00 0. -1.
</event>
<event>
 7    1  0.3004200E-011  0.5052886E+02  0.7816164E-02  0.1300439E+00
        -11   -1    0    0    0    0  0.00000000000E+00  0.00000000000E+00  0.45593999997E+02  0.45594000000E+02  0.51100000000E-03 0. -1.
         11   -1    0    0    0    0 -0.00000000000E+00 -0.00000000000E+00 -0.45593999997E+02  0.45594000000E+02  0.51100000000E-03 0.  1.
    9900012    2    1    2    0    0  0.30330512616E+02 -0.40020554782E+01 -0.26780764728E+02  0.50528858310E+02  0.29999995318E+02 0.  0.
         12    1    1    2    0    0 -0.30330512616E+02  0.40020554782E+01  0.26780764728E+02  0.40659141690E+02  0.00000000000E+00 0. -1.
         11    1    3    3    0    0  0.56032051415E+00  0.50968725660E+01  0.27237781614E+01  0.58061206297E+01  0.51100000000E-03 0. -1.
        -11    1    3    3    0    0  0.13771111774E+02 -0.10186319116E+01 -0.20359910398E+02  0.24600956935E+02  0.51100000000E-03 0.  1.
         12    1    3    3    0    0  0.15999080328E+02 -0.80802961326E+01 -0.91446324908E+01  0.20121780745E+02  0.00000000000E+00 0. -1.
</event>
<event>
 7    1  0.3004200E-011  0.5052887E+02  0.7816164E-02  0.1300439E+00
        -11   -1    0    0    0    0  0.00000000000E+00  0.00000000000E+00  0.45593999997E+02  0.45594000000E+02  0.51100000000E-03 0.  1.
         11   -1    0    0    0    0 -0.00000000000E+00 -0.00000000000E+00 -0.45593999997E+02  0.45594000000E+02  0.51100000000E-03 0. -1.
    9900012    2    1    2    0    0 -0.24391218501E+02  0.12194965727E+01  0.32507637429E+02  0.50528865687E+02  0.30000017743E+02 0.  0.
         12    1    1    2    0    0  0.24391218501E+02 -0.12194965727E+01 -0.32507637429E+02  0.40659134313E+02  0.00000000000E+00 0. -1.
         11    1    3    3    0    0 -0.53333478322E+01  0.62090466367E+01  0.83197242711E+01  0.11671104123E+02  0.51100000000E-03 0. -1.
        -11    1    3    3    0    0 -0.21207680165E+02 -0.24442960301E+01  0.87621284018E+01  0.23076290331E+02  0.51100000000E-03 0.  1.
        -12    1    3    3    0    0  0.21498094958E+01 -0.25452540338E+01  0.15425784756E+02  0.15781471234E+02  0.00000000000E+00 0.  1.
</event>
<event>
 7    1  0.3004200E-011  0.5052887E+02  0.7816164E-02  0.1300439E+00
        -11   -1    0    0    0    0  0.00000000000E+00  0.00000000000E+00  0.45593999997E+02  0.45594000000E+02  0.51100000000E-03 0.  1.
         11   -1    0    0    0    0 -0.00000000000E+00 -0.00000000000E+00 -0.45593999997E+02  0.45594000000E+02  0.51100000000E-03 0. -1.
    9900012    2    1    2    0    0 -0.36077570111E+02  0.11597917262E+02  0.14733040190E+02  0.50528865439E+02  0.30000016990E+02 0.  0.
         12    1    1    2    0    0  0.36077570111E+02 -0.11597917262E+02 -0.14733040190E+02  0.40659134561E+02  0.00000000000E+00 0. -1.
         11    1    3    3    0    0 -0.13148210109E+00  0.75181551461E+01  0.93910934068E+01  0.12030485442E+02  0.51100000000E-03 0. -1.
        -11    1    3    3    0    0 -0.33784752069E+02  0.66855759109E+01  0.62288259272E+01  0.34998638121E+02  0.51100000000E-03 0.  1.
         12    1    3    3    0    0 -0.21613359413E+01 -0.26058137949E+01 -0.88687914367E+00  0.34997418763E+01  0.00000000000E+00 0. -1.
</event>
<event>
 7    1  0.3004200E-011  0.5052886E+02  0.7816164E-02  0.1300439E+00
        -11   -1    0    0    0    0  0.00000000000E+00  0.00000000000E+00  0.45593999997E+02  0.45594000000E+02  0.51100000000E-03 0.  1.
         11   -1    0    0    0    0 -0.00000000000E+00 -0.00000000000E+00 -0.45593999997E+02  0.45594000000E+02  0.51100000000E-03 0. -1.
    9900012    2    1    2    0    0  0.13386507577E+02 -0.19121065881E+02  0.33291915253E+02  0.50528863674E+02  0.30000011624E+02 0.  0.
         12    1    1    2    0    0 -0.13386507577E+02  0.19121065881E+02 -0.33291915253E+02  0.40659136326E+02  0.00000000000E+00 0. -1.
         11    1    3    3    0    0  0.20112670103E+01  0.42302540110E+01  0.17114585330E+02  0.17743992653E+02  0.51100000000E-03 0. -1.
        -11    1    3    3    0    0  0.93453814438E+01 -0.62434854357E+01  0.73291776287E+01  0.13417678998E+02  0.51100000000E-03 0.  1.
         12    1    3    3    0    0  0.20298591229E+01 -0.17107834456E+02  0.88481522948E+01  0.19367192024E+02  0.00000000000E+00 0. -1.
</event>
<event>
 7    1  0.3004200E-011  0.5052886E+02  0.7816164E-02  0.1300439E+00
        -11   -1    0    0    0    0  0.00000000000E+00  0.00000000000E+00  0.45593999997E+02  0.45594000000E+02  0.51100000000E-03 0.  1.
         11   -1    0    0    0    0 -0.00000000000E+00 -0.00000000000E+00 -0.45593999997E+02  0.45594000000E+02  0.51100000000E-03 0. -1.
    9900012    2    1    2    0    0 -0.57909860966E+01 -0.38354783263E+02  0.12187727465E+02  0.50528860562E+02  0.30000002164E+02 0.  0.
         12    1    1    2    0    0  0.57909860966E+01  0.38354783263E+02 -0.12187727465E+02  0.40659139438E+02  0.00000000000E+00 0. -1.
         11    1    3    3    0    0  0.26110126487E+00 -0.28660112732E+01 -0.80865508116E+01  0.85833850420E+01  0.51100000000E-03 0. -1.
        -11    1    3    3    0    0 -0.12142803601E+00 -0.13226223812E+02  0.10631821378E+02  0.16970072692E+02  0.51100000000E-03 0.  1.
         12    1    3    3    0    0 -0.59306593255E+01 -0.22262548177E+02  0.96424568991E+01  0.24975402828E+02  0.00000000000E+00 0. -1.
</event>
<event>
 7    1  0.3004200E-011  0.5052885E+02  0.7816164E-02  0.1300439E+00
        -11   -1    0    0    0    0  0.00000000000E+00  0.00000000000E+00  0.45593999997E+02  0.45594000000E+02  0.51100000000E-03 0.  1.
         11   -1    0    0    0    0 -0.00000000000E+00 -0.00000000000E+00 -0.45593999997E+02  0.45594000000E+02  0.51100000000E-03 0. -1.
    9900012    2    1    2    0    0 -0.32682397476E+02  0.15582947914E+01  0.24137092419E+02  0.50528848288E+02  0.29999964857E+02 0.  0.
         12    1    1    2    0    0  0.32682397476E+02 -0.15582947914E+01 -0.24137092419E+02  0.40659151712E+02  0.00000000000E+00 0. -1.
         11    1    3    3    0    0 -0.26327640265E+02  0.43261334997E+01  0.14544889171E+02  0.30387725716E+02  0.51100000000E-03 0. -1.
        -11    1    3    3    0    0  0.99152953306E+00 -0.83964082745E+01  0.44790635061E+01  0.95679053549E+01  0.51100000000E-03 0.  1.
         12    1    3    3    0    0 -0.73462867448E+01  0.56285695662E+01  0.51131397426E+01  0.10573217217E+02  0.00000000000E+00 0. -1.
</event>
<event>
 7    1  0.3004200E-011  0.5052886E+02  0.7816164E-02  0.1300439E+00
        -11   -1    0    0    0    0  0.00000000000E+00  0.00000000000E+00  0.45593999997E+02  0.45594000000E+02  0.51100000000E-03 0.  1.
         11   -1    0    0    0    0 -0.00000000000E+00 -0.00000000000E+00 -0.45593999997E+02  0.45594000000E+02  0.51100000000E-03 0. -1.
    9900012    2    1    2    0    0  0.22845448079E+02  0.31794840933E+02  0.10969932905E+02  0.50528857906E+02  0.29999994092E+02 0.  0.
         12    1    1    2    0    0 -0.22845448079E+02 -0.31794840933E+02 -0.10969932905E+02  0.40659142094E+02  0.00000000000E+00 0. -1.
         11    1    3    3    0    0  0.10398364806E+02  0.13195169101E+02  0.18639313450E+02  0.25093076424E+02  0.51100000000E-03 0.  1.
        -11    1    3    3    0    0  0.47728104399E+01  0.22271313770E+01  0.10354527903E+01  0.53676807289E+01  0.51100000000E-03 0. -1.
         12    1    3    3    0    0  0.76742728328E+01  0.16372540455E+02 -0.87048333359E+01  0.20068100754E+02  0.00000000000E+00 0. -1.
</event>
<event>
 7    1  0.3004200E-011  0.5052887E+02  0.7816164E-02  0.1300439E+00
        -11   -1    0    0    0    0  0.00000000000E+00  0.00000000000E+00  0.45593999997E+02  0.45594000000E+02  0.51100000000E-03 0.  1.
         11   -1    0    0    0    0 -0.00000000000E+00 -0.00000000000E+00 -0.45593999997E+02  0.45594000000E+02  0.51100000000E-03 0. -1.
    9900012    2    1    2    0    0 -0.15521477611E+02 -0.12601421360E+02  0.35404135917E+02  0.50528869075E+02  0.30000028040E+02 0.  0.
         12    1    1    2    0    0  0.15521477611E+02  0.12601421360E+02 -0.35404135917E+02  0.40659130925E+02  0.00000000000E+00 0. -1.
         11    1    3    3    0    0  0.10215076328E+01  0.43678639998E+01 -0.21099726689E+01  0.49571865699E+01  0.51100000000E-03 0. -1.
        -11    1    3    3    0    0 -0.98072871945E+01 -0.99624155882E+01  0.30605534314E+02  0.33647159425E+02  0.51100000000E-03 0.  1.
        -12    1    3    3    0    0 -0.67356980492E+01 -0.70068697720E+01  0.69085742721E+01  0.11924523080E+02  0.00000000000E+00 0.  1.
</event>
<event>
 7    1  0.3004200E-011  0.5052886E+02  0.7816164E-02  0.1300439E+00
        -11   -1    0    0    0    0  0.00000000000E+00  0.00000000000E+00  0.45593999997E+02  0.45594000000E+02  0.51100000000E-03 0. -1.
         11   -1    0    0    0    0 -0.00000000000E+00 -0.00000000000E+00 -0.45593999997E+02  0.45594000000E+02  0.51100000000E-03 0.  1.
    9900012    2    1    2    0    0  0.40087458583E+02 -0.16729309316E+01 -0.65850561520E+01  0.50528855911E+02  0.29999988026E+02 0.  0.
         12    1    1    2    0    0 -0.40087458583E+02  0.16729309316E+01  0.65850561520E+01  0.40659144089E+02  0.00000000000E+00 0. -1.
         11    1    3    3    0    0  0.74487330238E+01  0.54412238993E+01  0.69240144503E+01  0.11533972323E+02  0.51100000000E-03 0. -1.
        -11    1    3    3    0    0  0.22150282352E+02 -0.91286085214E+01 -0.14917456667E+02  0.28222278708E+02  0.51100000000E-03 0.  1.
        -12    1    3    3    0    0  0.10488443207E+02  0.20144536905E+01  0.14083860643E+01  0.10772604880E+02  0.00000000000E+00 0.  1.
</event>
<event>
 7    1  0.3004200E-011  0.5052886E+02  0.7816164E-02  0.1300439E+00
        -11   -1    0    0    0    0  0.00000000000E+00  0.00000000000E+00  0.45593999997E+02  0.45594000000E+02  0.51100000000E-03 0.  1.
         11   -1    0    0    0    0 -0.00000000000E+00 -0.00000000000E+00 -0.45593999997E+02  0.45594000000E+02  0.51100000000E-03 0. -1.
    9900012    2    1    2    0    0 -0.14554019545E+02  0.21674661510E+02  0.31169778704E+02  0.50528861532E+02  0.30000005113E+02 0.  0.
         12    1    1    2    0    0  0.14554019545E+02 -0.21674661510E+02 -0.31169778704E+02  0.40659138468E+02  0.00000000000E+00 0. -1.
         11    1    3    3    0    0  0.12175108483E+01 -0.57433895070E+01  0.40200061657E+01  0.71154272907E+01  0.51100000000E-03 0. -1.
        -11    1    3    3    0    0 -0.93440639217E+01  0.24551309401E+02  0.24414214441E+02  0.35862685216E+02  0.51100000000E-03 0.  1.
        -12    1    3    3    0    0 -0.64274664720E+01  0.28667416159E+01  0.27355580976E+01  0.75507490255E+01  0.00000000000E+00 0.  1.
</event>
<event>
 7    1  0.3004200E-011  0.5052886E+02  0.7816164E-02  0.1300439E+00
        -11   -1    0    0    0    0  0.00000000000E+00  0.00000000000E+00  0.45593999997E+02  0.45594000000E+02  0.51100000000E-03 0.  1.
         11   -1    0    0    0    0 -0.00000000000E+00 -0.00000000000E+00 -0.45593999997E+02  0.45594000000E+02  0.51100000000E-03 0. -1.
    9900012    2    1    2    0    0 -0.13822306817E+02 -0.35616763771E+02  0.13912424029E+02  0.50528861180E+02  0.30000004042E+02 0.  0.
         12    1    1    2    0    0  0.13822306817E+02  0.35616763771E+02 -0.13912424029E+02  0.40659138820E+02  0.00000000000E+00 0. -1.
         11    1    3    3    0    0 -0.71817373781E+01 -0.54851045182E+01 -0.52827059346E+01  0.10467602667E+02  0.51100000000E-03 0. -1.
        -11    1    3    3    0    0 -0.93276250015E+01 -0.30319158080E+02  0.15032547037E+02  0.35103182271E+02  0.51100000000E-03 0.  1.
        -12    1    3    3    0    0  0.26870555622E+01  0.18749882741E+00  0.41625829259E+01  0.49580762418E+01  0.00000000000E+00 0.  1.
</event>
<event>
 7    1  0.3004200E-011  0.5052886E+02  0.7816164E-02  0.1300439E+00
        -11   -1    0    0    0    0  0.00000000000E+00  0.00000000000E+00  0.45593999997E+02  0.45594000000E+02  0.51100000000E-03 0. -1.
         11   -1    0    0    0    0 -0.00000000000E+00 -0.00000000000E+00 -0.45593999997E+02  0.45594000000E+02  0.51100000000E-03 0.  1.
    9900012    2    1    2    0    0 -0.19177276063E+02 -0.32687716135E+02 -0.14727898393E+02  0.50528859645E+02  0.29999999376E+02 0.  0.
         12    1    1    2    0    0  0.19177276063E+02  0.32687716135E+02  0.14727898393E+02  0.40659140355E+02  0.00000000000E+00 0. -1.
         11    1    3    3    0    0  0.20072085967E+01 -0.16818807223E+01  0.18389140544E-01  0.26187683243E+01  0.51100000000E-03 0. -1.
        -11    1    3    3    0    0 -0.18457171451E+02 -0.19940103166E+02 -0.21512212474E+02  0.34656170851E+02  0.51100000000E-03 0.  1.
        -12    1    3    3    0    0 -0.27273132092E+01 -0.11065732247E+02  0.67659249412E+01  0.13253920470E+02  0.00000000000E+00 0.  1.
</event>
<event>
 7    1  0.3004200E-011  0.5052886E+02  0.7816164E-02  0.1300439E+00
        -11   -1    0    0    0    0  0.00000000000E+00  0.00000000000E+00  0.45593999997E+02  0.45594000000E+02  0.51100000000E-03 0. -1.
         11   -1    0    0    0    0 -0.00000000000E+00 -0.00000000000E+00 -0.45593999997E+02  0.45594000000E+02  0.51100000000E-03 0.  1.
    9900012    2    1    2    0    0 -0.35903170400E+02  0.84684214290E+01 -0.17100109021E+02  0.50528861608E+02  0.30000005343E+02 0.  0.
         12    1    1    2    0    0  0.35903170400E+02 -0.84684214290E+01  0.17100109021E+02  0.40659138392E+02  0.00000000000E+00 0. -1.
         11    1    3    3    0    0 -0.55236254057E+01  0.17399351292E+01  0.68996864051E+01  0.90079678411E+01  0.51100000000E-03 0. -1.
        -11    1    3    3    0    0 -0.28699256049E+02  0.86489857036E+01 -0.17908210014E+02  0.34916417881E+02  0.51100000000E-03 0.  1.
        -12    1    3    3    0    0 -0.16802889455E+01 -0.19204994039E+01 -0.60915854115E+01  0.66044758858E+01  0.00000000000E+00 0.  1.
</event>
<event>
 7    1  0.3004200E-011  0.5052886E+02  0.7816164E-02  0.1300439E+00
        -11   -1    0    0    0    0  0.00000000000E+00  0.00000000000E+00  0.45593999997E+02  0.45594000000E+02  0.51100000000E-03 0. -1.
         11   -1    0    0    0    0 -0.00000000000E+00 -0.00000000000E+00 -0.45593999997E+02  0.45594000000E+02  0.51100000000E-03 0.  1.
    9900012    2    1    2    0    0  0.29566420593E+02  0.27288821144E+02 -0.58576962843E+01  0.50528860906E+02  0.30000003209E+02 0.  0.
         12    1    1    2    0    0 -0.29566420593E+02 -0.27288821144E+02  0.58576962843E+01  0.40659139094E+02  0.00000000000E+00 0. -1.
         11    1    3    3    0    0 -0.46621850582E+01  0.21977239963E+01  0.28002601621E+01  0.58657836235E+01  0.51100000000E-03 0. -1.
        -11    1    3    3    0    0  0.20734514316E+02  0.94971207693E+01 -0.75042298717E+01  0.24008932776E+02  0.51100000000E-03 0.  1.
        -12    1    3    3    0    0  0.13494091335E+02  0.15593976378E+02 -0.11537265747E+01  0.20654144506E+02  0.00000000000E+00 0.  1.
</event>
<event>
 7    1  0.3004200E-011  0.5052886E+02  0.7816164E-02  0.1300439E+00
        -11   -1    0    0    0    0  0.00000000000E+00  0.00000000000E+00  0.45593999997E+02  0.45594000000E+02  0.51100000000E-03 0.  1.
         11   -1    0    0    0    0 -0.00000000000E+00 -0.00000000000E+00 -0.45593999997E+02  0.45594000000E+02  0.51100000000E-03 0. -1.
    9900012    2    1    2    0    0 -0.38789818626E+02 -0.16370805530E+01  0.12076243214E+02  0.50528859430E+02  0.29999998722E+02 0.  0.
         12    1    1    2    0    0  0.38789818626E+02  0.16370805530E+01 -0.12076243214E+02  0.40659140570E+02  0.00000000000E+00 0. -1.
         11    1    3    3    0    0 -0.50411417145E+01  0.77764989393E+01  0.12236304019E+02  0.15349729048E+02  0.51100000000E-03 0. -1.
        -11    1    3    3    0    0 -0.13418785804E+02 -0.29135516960E+01  0.12541450007E+01  0.13788599490E+02  0.51100000000E-03 0.  1.
         12    1    3    3    0    0 -0.20329891107E+02 -0.65000277963E+01 -0.14142058059E+01  0.21390530892E+02  0.00000000000E+00 0. -1.
</event>
<event>
 7    1  0.3004200E-011  0.5052886E+02  0.7816164E-02  0.1300439E+00
        -11   -1    0    0    0    0  0.00000000000E+00  0.00000000000E+00  0.45593999997E+02  0.45594000000E+02  0.51100000000E-03 0. -1.
         11   -1    0    0    0    0 -0.00000000000E+00 -0.00000000000E+00 -0.45593999997E+02  0.45594000000E+02  0.51100000000E-03 0.  1.
    9900012    2    1    2    0    0 -0.40392121574E+02  0.45808283697E+01 -0.81134326386E+00  0.50528858941E+02  0.29999997236E+02 0.  0.
         12    1    1    2    0    0  0.40392121574E+02 -0.45808283697E+01  0.81134326386E+00  0.40659141059E+02  0.00000000000E+00 0. -1.
         11    1    3    3    0    0 -0.34188963531E+02  0.11649061288E+02  0.26478618335E+01  0.36215977534E+02  0.51100000000E-03 0. -1.
        -11    1    3    3    0    0  0.10829800673E+01 -0.57821463695E+01 -0.36292997307E+01  0.69121544587E+01  0.51100000000E-03 0.  1.
        -12    1    3    3    0    0 -0.72861381106E+01 -0.12860865485E+01  0.17009463336E+00  0.74007269481E+01  0.00000000000E+00 0.  1.
</event>
<event>
 7    1  0.3004200E-011  0.5052886E+02  0.7816164E-02  0.1300439E+00
        -11   -1    0    0    0    0  0.00000000000E+00  0.00000000000E+00  0.45593999997E+02  0.45594000000E+02  0.51100000000E-03 0.  1.
         11   -1    0    0    0    0 -0.00000000000E+00 -0.00000000000E+00 -0.45593999997E+02  0.45594000000E+02  0.51100000000E-03 0. -1.
    9900012    2    1    2    0    0  0.32875887717E+02 -0.17827370303E+02  0.15953879794E+02  0.50528863197E+02  0.30000010173E+02 0.  0.
         12    1    1    2    0    0 -0.32875887717E+02  0.17827370303E+02 -0.15953879794E+02  0.40659136803E+02  0.00000000000E+00 0. -1.
         11    1    3    3    0    0  0.31741543622E+00  0.27175278484E+01  0.39282557550E+01  0.47871602964E+01  0.51100000000E-03 0. -1.
        -11    1    3    3    0    0  0.29336614127E+02 -0.24938309761E+02  0.91290333796E+01  0.39571397156E+02  0.51100000000E-03 0.  1.
        -12    1    3    3    0    0  0.32218581534E+01  0.43934116093E+01  0.28965906593E+01  0.61703057442E+01  0.00000000000E+00 0.  1.
</event>
<event>
 7    1  0.3004200E-011  0.5052890E+02  0.7816164E-02  0.1300439E+00
        -11   -1    0    0    0    0  0.00000000000E+00  0.00000000000E+00  0.45593999997E+02  0.45594000000E+02  0.51100000000E-03 0.  1.
         11   -1    0    0    0    0 -0.00000000000E+00 -0.00000000000E+00 -0.45593999997E+02  0.45594000000E+02  0.51100000000E-03 0. -1.
    9900012    2    1    2    0    0  0.13322414651E+01 -0.67696591001E+01  0.40069431953E+02  0.50528898575E+02  0.30000117709E+02 0.  0.
         12    1    1    2    0    0 -0.13322414651E+01  0.67696591001E+01 -0.40069431953E+02  0.40659101425E+02  0.00000000000E+00 0. -1.
         11    1    3    3    0    0  0.16823534489E+01 -0.29171550719E+01 -0.36227812461E+01  0.49461753970E+01  0.51100000000E-03 0. -1.
        -11    1    3    3    0    0 -0.49495040159E+00  0.28831851707E+01  0.31642451422E+02  0.31777389208E+02  0.51100000000E-03 0.  1.
         12    1    3    3    0    0  0.14483841788E+00 -0.67356891989E+01  0.12049761777E+02  0.13805333970E+02  0.00000000000E+00 0. -1.
</event>
<event>
 7    1  0.3004200E-011  0.5052886E+02  0.7816164E-02  0.1300439E+00
        -11   -1    0    0    0    0  0.00000000000E+00  0.00000000000E+00  0.45593999997E+02  0.45594000000E+02  0.51100000000E-03 0. -1.
         11   -1    0    0    0    0 -0.00000000000E+00 -0.00000000000E+00 -0.45593999997E+02  0.45594000000E+02  0.51100000000E-03 0.  1.
    9900012    2    1    2    0    0  0.35636192774E+02 -0.86614856401E-01 -0.19576007127E+02  0.50528858437E+02  0.29999995706E+02 0.  0.
         12    1    1    2    0    0 -0.35636192774E+02  0.86614856401E-01  0.19576007127E+02  0.40659141563E+02  0.00000000000E+00 0. -1.
         11    1    3    3    0    0  0.14450595821E+02  0.77930524837E+01 -0.10312431505E+02  0.19388079596E+02  0.51100000000E-03 0. -1.
        -11    1    3    3    0    0  0.60882657109E+01 -0.11525860735E+02  0.41850896512E-01  0.13035113993E+02  0.51100000000E-03 0.  1.
        -12    1    3    3    0    0  0.15097331242E+02  0.36461933952E+01 -0.93054265182E+01  0.18105664848E+02  0.00000000000E+00 0.  1.
</event>
<event>
 7    1  0.3004200E-011  0.5052886E+02  0.7816164E-02  0.1300439E+00
        -11   -1    0    0    0    0  0.00000000000E+00  0.00000000000E+00  0.45593999997E+02  0.45594000000E+02  0.51100000000E-03 0.  1.
         11   -1    0    0    0    0 -0.00000000000E+00 -0.00000000000E+00 -0.45593999997E+02  0.45594000000E+02  0.51100000000E-03 0. -1.
    9900012    2    1    2    0    0 -0.29635190566E+02 -0.22294290359E+02  0.16669913284E+02  0.50528856977E+02  0.29999991266E+02 0.  0.
         12    1    1    2    0    0  0.29635190566E+02  0.22294290359E+02 -0.16669913284E+02  0.40659143023E+02  0.00000000000E+00 0. -1.
         11    1    3    3    0    0  0.67832390334E+00 -0.92598766548E+01 -0.13761614997E+01  0.93861205892E+01  0.51100000000E-03 0. -1.
        -11    1    3    3    0    0 -0.31705184442E+02 -0.14076325655E+02  0.18543142176E+02  0.39334587661E+02  0.51100000000E-03 0.  1.
        -12    1    3    3    0    0  0.13916699722E+01  0.10419119510E+01 -0.49706739199E+00  0.18081487265E+01  0.00000000000E+00 0.  1.
</event>
<event>
 7    1  0.3004200E-011  0.5052886E+02  0.7816164E-02  0.1300439E+00
        -11   -1    0    0    0    0  0.00000000000E+00  0.00000000000E+00  0.45593999997E+02  0.45594000000E+02  0.51100000000E-03 0. -1.
         11   -1    0    0    0    0 -0.00000000000E+00 -0.00000000000E+00 -0.45593999997E+02  0.45594000000E+02  0.51100000000E-03 0.  1.
    9900012    2    1    2    0    0  0.30456834593E+02  0.22974244852E+02 -0.14061687292E+02  0.50528858968E+02  0.29999997320E+02 0.  0.
         12    1    1    2    0    0 -0.30456834593E+02 -0.22974244852E+02  0.14061687292E+02  0.40659141032E+02  0.00000000000E+00 0. -1.
         11    1    3    3    0    0  0.25528748496E+02  0.83007021779E+01 -0.19813831233E+02  0.33364750333E+02  0.51100000000E-03 0.  1.
        -11    1    3    3    0    0  0.24762738286E+01  0.12740255958E+02  0.39865034542E+01  0.13577122818E+02  0.51100000000E-03 0. -1.
        -12    1    3    3    0    0  0.24518122689E+01  0.19332867154E+01  0.17656404867E+01  0.35869858174E+01  0.00000000000E+00 0.  1.
</event>
<event>
 7    1  0.3004200E-011  0.5052883E+02  0.7816164E-02  0.1300439E+00
        -11   -1    0    0    0    0  0.00000000000E+00  0.00000000000E+00  0.45593999997E+02  0.45594000000E+02  0.51100000000E-03 0. -1.
         11   -1    0    0    0    0 -0.00000000000E+00 -0.00000000000E+00 -0.45593999997E+02  0.45594000000E+02  0.51100000000E-03 0.  1.
    9900012    2    1    2    0    0  0.14359136198E+02 -0.65478863911E+01 -0.37471435962E+02  0.50528829797E+02  0.29999908651E+02 0.  0.
         12    1    1    2    0    0 -0.14359136198E+02  0.65478863911E+01  0.37471435962E+02  0.40659170203E+02  0.00000000000E+00 0. -1.
         11    1    3    3    0    0  0.41504621718E+01  0.72005025811E+01 -0.98223384679E+00  0.83688922356E+01  0.51100000000E-03 0. -1.
        -11    1    3    3    0    0  0.77881377608E+00 -0.19707108604E+01 -0.18762558550E+02  0.18881839312E+02  0.51100000000E-03 0.  1.
         12    1    3    3    0    0  0.94298602500E+01 -0.11777678112E+02 -0.17726643565E+02  0.23278098250E+02  0.00000000000E+00 0. -1.
</event>
<event>
 7    1  0.3004200E-011  0.5052886E+02  0.7816164E-02  0.1300439E+00
        -11   -1    0    0    0    0  0.00000000000E+00  0.00000000000E+00  0.45593999997E+02  0.45594000000E+02  0.51100000000E-03 0. -1.
         11   -1    0    0    0    0 -0.00000000000E+00 -0.00000000000E+00 -0.45593999997E+02  0.45594000000E+02  0.51100000000E-03 0.  1.
    9900012    2    1    2    0    0 -0.37604922629E+02 -0.70285524560E+01 -0.13770793279E+02  0.50528861998E+02  0.30000006528E+02 0.  0.
         12    1    1    2    0    0  0.37604922629E+02  0.70285524560E+01  0.13770793279E+02  0.40659138002E+02  0.00000000000E+00 0. -1.
         11    1    3    3    0    0 -0.16702140527E+02 -0.40674957912E+00  0.49676417992E+01  0.17429985907E+02  0.51100000000E-03 0. -1.
        -11    1    3    3    0    0 -0.15891146245E+02 -0.11808659900E+02 -0.15719967292E+02  0.25280236342E+02  0.51100000000E-03 0.  1.
         12    1    3    3    0    0 -0.50116358572E+01  0.51868570228E+01 -0.30184677858E+01  0.78186397483E+01  0.00000000000E+00 0. -1.
</event>
<event>
 7    1  0.3004200E-011  0.5052885E+02  0.7816164E-02  0.1300439E+00
        -11   -1    0    0    0    0  0.00000000000E+00  0.00000000000E+00  0.45593999997E+02  0.45594000000E+02  0.51100000000E-03 0.  1.
         11   -1    0    0    0    0 -0.00000000000E+00 -0.00000000000E+00 -0.45593999997E+02  0.45594000000E+02  0.51100000000E-03 0. -1.
    9900012    2    1    2    0    0  0.36230974975E+02  0.17286223030E+02  0.64551595656E+01  0.50528854174E+02  0.29999982747E+02 0.  0.
         12    1    1    2    0    0 -0.36230974975E+02 -0.17286223030E+02 -0.64551595656E+01  0.40659145826E+02  0.00000000000E+00 0. -1.
         11    1    3    3    0    0  0.17040459351E+02  0.14212434802E+02 -0.83336935552E+01  0.23702763688E+02  0.51100000000E-03 0. -1.
        -11    1    3    3    0    0 -0.11181003970E+01 -0.65774056532E+00  0.24486885603E+01  0.27710732714E+01  0.51100000000E-03 0.  1.
         12    1    3    3    0    0  0.20308616021E+02  0.37315287933E+01  0.12340164561E+02  0.24055017214E+02  0.00000000000E+00 0. -1.
</event>
<event>
 7    1  0.3004200E-011  0.5052886E+02  0.7816164E-02  0.1300439E+00
        -11   -1    0    0    0    0  0.00000000000E+00  0.00000000000E+00  0.45593999997E+02  0.45594000000E+02  0.51100000000E-03 0.  1.
         11   -1    0    0    0    0 -0.00000000000E+00 -0.00000000000E+00 -0.45593999997E+02  0.45594000000E+02  0.51100000000E-03 0. -1.
    9900012    2    1    2    0    0 -0.17960951621E+02  0.16241160565E+02  0.32661823282E+02  0.50528858596E+02  0.29999996187E+02 0.  0.
         12    1    1    2    0    0  0.17960951621E+02 -0.16241160565E+02 -0.32661823282E+02  0.40659141404E+02  0.00000000000E+00 0. -1.
         11    1    3    3    0    0  0.75956547684E+01  0.46624406385E+01  0.41019223405E+01  0.98111207931E+01  0.51100000000E-03 0. -1.
        -11    1    3    3    0    0 -0.91501250550E+01  0.54325165827E+01  0.62148664252E+01  0.12323213456E+02  0.51100000000E-03 0.  1.
         12    1    3    3    0    0 -0.16406481334E+02  0.61462033441E+01  0.22345034516E+02  0.28394524346E+02  0.00000000000E+00 0. -1.
</event>
<event>
 7    1  0.3004200E-011  0.5052884E+02  0.7816164E-02  0.1300439E+00
        -11   -1    0    0    0    0  0.00000000000E+00  0.00000000000E+00  0.45593999997E+02  0.45594000000E+02  0.51100000000E-03 0.  1.
         11   -1    0    0    0    0 -0.00000000000E+00 -0.00000000000E+00 -0.45593999997E+02  0.45594000000E+02  0.51100000000E-03 0. -1.
    9900012    2    1    2    0    0  0.93703442236E+01  0.15792583415E+02  0.36276140415E+02  0.50528838607E+02  0.29999935430E+02 0.  0.
         12    1    1    2    0    0 -0.93703442236E+01 -0.15792583415E+02 -0.36276140415E+02  0.40659161393E+02  0.00000000000E+00 0. -1.
         11    1    3    3    0    0 -0.44715187432E+01  0.87351469814E+01  0.19185896243E+02  0.21549846579E+02  0.51100000000E-03 0. -1.
        -11    1    3    3    0    0  0.13458005946E+02  0.12150991803E+02  0.11847893301E+02  0.21659572983E+02  0.51100000000E-03 0.  1.
        -12    1    3    3    0    0  0.38385702053E+00 -0.50935553695E+01  0.52423508706E+01  0.73194190456E+01  0.00000000000E+00 0.  1.
</event>
<event>
 7    1  0.3004200E-011  0.5052886E+02  0.7816164E-02  0.1300439E+00
        -11   -1    0    0    0    0  0.00000000000E+00  0.00000000000E+00  0.45593999997E+02  0.45594000000E+02  0.51100000000E-03 0. -1.
         11   -1    0    0    0    0 -0.00000000000E+00 -0.00000000000E+00 -0.45593999997E+02  0.45594000000E+02  0.51100000000E-03 0.  1.
    9900012    2    1    2    0    0  0.22958868195E+02  0.36414439962E+01 -0.33358593794E+02  0.50528861751E+02  0.30000005780E+02 0.  0.
         12    1    1    2    0    0 -0.22958868195E+02 -0.36414439962E+01  0.33358593794E+02  0.40659138249E+02  0.00000000000E+00 0. -1.
         11    1    3    3    0    0  0.67733234851E+01  0.73206266553E+01  0.30649342662E+01  0.10433758095E+02  0.51100000000E-03 0. -1.
        -11    1    3    3    0    0  0.11554734407E+02 -0.36928013222E+01 -0.26411027638E+02  0.29063569120E+02  0.51100000000E-03 0.  1.
         12    1    3    3    0    0  0.46308103028E+01  0.13618663069E-01 -0.10012500423E+02  0.11031534537E+02  0.00000000000E+00 0. -1.
</event>
<event>
 7    1  0.3004200E-011  0.5052884E+02  0.7816164E-02  0.1300439E+00
        -11   -1    0    0    0    0  0.00000000000E+00  0.00000000000E+00  0.45593999997E+02  0.45594000000E+02  0.51100000000E-03 0. -1.
         11   -1    0    0    0    0 -0.00000000000E+00 -0.00000000000E+00 -0.45593999997E+02  0.45594000000E+02  0.51100000000E-03 0.  1.
    9900012    2    1    2    0    0  0.15765994334E+02  0.32708566693E+02  0.18296189662E+02  0.50528837827E+02  0.29999933059E+02 0.  0.
         12    1    1    2    0    0 -0.15765994334E+02 -0.32708566693E+02 -0.18296189662E+02  0.40659162173E+02  0.00000000000E+00 0. -1.
         11    1    3    3    0    0  0.45494251295E+01  0.19477383387E+02  0.18344251955E+02  0.27139957860E+02  0.51100000000E-03 0. -1.
        -11    1    3    3    0    0  0.24061362239E+01  0.28714078272E+00 -0.61297136578E+01  0.65913072410E+01  0.51100000000E-03 0.  1.
         12    1    3    3    0    0  0.88104329808E+01  0.12944042524E+02  0.60816513649E+01  0.16797572726E+02  0.00000000000E+00 0. -1.
</event>
<event>
 7    1  0.3004200E-011  0.5052882E+02  0.7816164E-02  0.1300439E+00
        -11   -1    0    0    0    0  0.00000000000E+00  0.00000000000E+00  0.45593999997E+02  0.45594000000E+02  0.51100000000E-03 0.  1.
         11   -1    0    0    0    0 -0.00000000000E+00 -0.00000000000E+00 -0.45593999997E+02  0.45594000000E+02  0.51100000000E-03 0. -1.
    9900012    2    1    2    0    0 -0.74928245575E+01 -0.83064328658E+01  0.39090015365E+02  0.50528824553E+02  0.29999892711E+02 0.  0.
         12    1    1    2    0    0  0.74928245575E+01  0.83064328658E+01 -0.39090015365E+02  0.40659175447E+02  0.00000000000E+00 0. -1.
         11    1    3    3    0    0  0.33961749926E+01 -0.94761401395E+01  0.63905337270E+00  0.10086606268E+02  0.51100000000E-03 0. -1.
        -11    1    3    3    0    0 -0.86186929212E+01 -0.17668503232E+01  0.28156502731E+02  0.29499021578E+02  0.51100000000E-03 0.  1.
         12    1    3    3    0    0 -0.22703066288E+01  0.29365575968E+01  0.10294459261E+02  0.10943196708E+02  0.00000000000E+00 0. -1.
</event>
<event>
 7    1  0.3004200E-011  0.5052885E+02  0.7816164E-02  0.1300439E+00
        -11   -1    0    0    0    0  0.00000000000E+00  0.00000000000E+00  0.45593999997E+02  0.45594000000E+02  0.51100000000E-03 0. -1.
         11   -1    0    0    0    0 -0.00000000000E+00 -0.00000000000E+00 -0.45593999997E+02  0.45594000000E+02  0.51100000000E-03 0.  1.
    9900012    2    1    2    0    0 -0.37466070421E+02  0.14142755428E+02  0.70315283551E+01  0.50528851523E+02  0.29999974688E+02 0.  0.
         12    1    1    2    0    0  0.37466070421E+02 -0.14142755428E+02 -0.70315283551E+01  0.40659148477E+02  0.00000000000E+00 0. -1.
         11    1    3    3    0    0  0.29383381745E+01 -0.24625911805E+01 -0.65040725502E-01  0.38343731048E+01  0.51100000000E-03 0. -1.
        -11    1    3    3    0    0 -0.17998955601E+02  0.50018281091E+01  0.10180372249E+02  0.21274883468E+02  0.51100000000E-03 0.  1.
         12    1    3    3    0    0 -0.22405452994E+02  0.11603518500E+02 -0.30838031688E+01  0.25419594950E+02  0.00000000000E+00 0. -1.
</event>
<event>
 7    1  0.3004200E-011  0.5052886E+02  0.7816164E-02  0.1300439E+00
        -11   -1    0    0    0    0  0.00000000000E+00  0.00000000000E+00  0.45593999997E+02  0.45594000000E+02  0.51100000000E-03 0.  1.
         11   -1    0    0    0    0 -0.00000000000E+00 -0.00000000000E+00 -0.45593999997E+02  0.45594000000E+02  0.51100000000E-03 0. -1.
    9900012    2    1    2    0    0  0.75956477343E+01 -0.13620181545E+02  0.37549462140E+02  0.50528864289E+02  0.30000013492E+02 0.  0.
         12    1    1    2    0    0 -0.75956477343E+01  0.13620181545E+02 -0.37549462140E+02  0.40659135711E+02  0.00000000000E+00 0. -1.
         11    1    3    3    0    0  0.51923683122E+01  0.24548166529E+01  0.46319681478E+01  0.73784783440E+01  0.51100000000E-03 0. -1.
        -11    1    3    3    0    0  0.58599954979E+01 -0.16151603007E+02  0.35087349104E+02  0.39068349010E+02  0.51100000000E-03 0.  1.
        -12    1    3    3    0    0 -0.34567160758E+01  0.76604809237E-01 -0.21698551126E+01  0.40820369346E+01  0.00000000000E+00 0.  1.
</event>
<event>
 7    1  0.3004200E-011  0.5052886E+02  0.7816164E-02  0.1300439E+00
        -11   -1    0    0    0    0  0.00000000000E+00  0.00000000000E+00  0.45593999997E+02  0.45594000000E+02  0.51100000000E-03 0.  1.
         11   -1    0    0    0    0 -0.00000000000E+00 -0.00000000000E+00 -0.45593999997E+02  0.45594000000E+02  0.51100000000E-03 0. -1.
    9900012    2    1    2    0    0  0.50106781439E+01 -0.14778621766E+02  0.37545325451E+02  0.50528855641E+02  0.29999987207E+02 0.  0.
         12    1    1    2    0    0 -0.50106781439E+01  0.14778621766E+02 -0.37545325451E+02  0.40659144359E+02  0.00000000000E+00 0. -1.
         11    1    3    3    0    0  0.13373009509E+02 -0.77095678868E+01  0.74303784991E+01  0.17131413988E+02  0.51100000000E-03 0. -1.
        -11    1    3    3    0    0 -0.52517544128E+01  0.94829181104E+00  0.16027224887E+02  0.16892368680E+02  0.51100000000E-03 0.  1.
         12    1    3    3    0    0 -0.31105769519E+01 -0.80173456900E+01  0.14087722065E+02  0.16505072974E+02  0.00000000000E+00 0. -1.
</event>
<event>
 7    1  0.3004200E-011  0.5052886E+02  0.7816164E-02  0.1300439E+00
        -11   -1    0    0    0    0  0.00000000000E+00  0.00000000000E+00  0.45593999997E+02  0.45594000000E+02  0.51100000000E-03 0.  1.
         11   -1    0    0    0    0 -0.00000000000E+00 -0.00000000000E+00 -0.45593999997E+02  0.45594000000E+02  0.51100000000E-03 0. -1.
    9900012    2    1    2    0    0 -0.96454122652E+01 -0.23735268551E+02  0.31571640622E+02  0.50528862742E+02  0.30000008792E+02 0.  0.
         12    1    1    2    0    0  0.96454122652E+01  0.23735268551E+02 -0.31571640622E+02  0.40659137258E+02  0.00000000000E+00 0. -1.
         11    1    3    3    0    0 -0.11415879984E+02 -0.24448955376E+01  0.92291932583E+01  0.14882131516E+02  0.51100000000E-03 0. -1.
        -11    1    3    3    0    0 -0.21535332207E+01 -0.20889813131E+02  0.11144491096E+02  0.23774391266E+02  0.51100000000E-03 0.  1.
        -12    1    3    3    0    0  0.39240009391E+01 -0.40055988247E+00  0.11197956267E+02  0.11872339961E+02  0.00000000000E+00 0.  1.
</event>
<event>
 7    1  0.3004200E-011  0.5052885E+02  0.7816164E-02  0.1300439E+00
        -11   -1    0    0    0    0  0.00000000000E+00  0.00000000000E+00  0.45593999997E+02  0.45594000000E+02  0.51100000000E-03 0. -1.
         11   -1    0    0    0    0 -0.00000000000E+00 -0.00000000000E+00 -0.45593999997E+02  0.45594000000E+02  0.51100000000E-03 0.  1.
    9900012    2    1    2    0    0  0.34778833338E+02 -0.19307382075E+02 -0.84157325194E+01  0.50528845990E+02  0.29999957872E+02 0.  0.
         12    1    1    2    0    0 -0.34778833338E+02  0.19307382075E+02  0.84157325194E+01  0.40659154010E+02  0.00000000000E+00 0. -1.
         11    1    3    3    0    0 -0.89199493473E+00 -0.36143046035E+00 -0.85407314471E+00  0.12867510011E+01  0.51100000000E-03 0. -1.
        -11    1    3    3    0    0  0.36286559218E+02 -0.13759273879E+02  0.14405773264E+01  0.38834356707E+02  0.51100000000E-03 0.  1.
        -12    1    3    3    0    0 -0.61573094472E+00 -0.51866777353E+01 -0.90022367011E+01  0.10407738282E+02  0.00000000000E+00 0.  1.
</event>
<event>
 7    1  0.3004200E-011  0.5052886E+02  0.7816164E-02  0.1300439E+00
        -11   -1    0    0    0    0  0.00000000000E+00  0.00000000000E+00  0.45593999997E+02  0.45594000000E+02  0.51100000000E-03 0.  1.
         11   -1    0    0    0    0 -0.00000000000E+00 -0.00000000000E+00 -0.45593999997E+02  0.45594000000E+02  0.51100000000E-03 0. -1.
    9900012    2    1    2    0    0  0.95405165842E+01  0.36163006827E+02  0.15949333971E+02  0.50528858671E+02  0.29999996418E+02 0.  0.
         12    1    1    2    0    0 -0.95405165842E+01 -0.36163006827E+02 -0.15949333971E+02  0.40659141329E+02  0.00000000000E+00 0. -1.
         11    1    3    3    0    0  0.13791294972E+02  0.84891851543E+01  0.67340679791E+01  0.17538921101E+02  0.51100000000E-03 0. -1.
        -11    1    3    3    0    0 -0.11778981289E+01  0.24885130090E+02  0.12333989064E+02  0.27799000523E+02  0.51100000000E-03 0.  1.
         12    1    3    3    0    0 -0.30728802591E+01  0.27886915821E+01 -0.31187230714E+01  0.51909370467E+01  0.00000000000E+00 0. -1.
</event>
<event>
 7    1  0.3004200E-011  0.5052886E+02  0.7816164E-02  0.1300439E+00
        -11   -1    0    0    0    0  0.00000000000E+00  0.00000000000E+00  0.45593999997E+02  0.45594000000E+02  0.51100000000E-03 0.  1.
         11   -1    0    0    0    0 -0.00000000000E+00 -0.00000000000E+00 -0.45593999997E+02  0.45594000000E+02  0.51100000000E-03 0. -1.
    9900012    2    1    2    0    0 -0.35147638161E+02 -0.18018588996E+02  0.96508862429E+01  0.50528860524E+02  0.30000002048E+02 0.  0.
         12    1    1    2    0    0  0.35147638161E+02  0.18018588996E+02 -0.96508862429E+01  0.40659139476E+02  0.00000000000E+00 0. -1.
         11    1    3    3    0    0 -0.10342136113E+02 -0.99555109768E+01 -0.85816985490E+01  0.16724757949E+02  0.51100000000E-03 0. -1.
        -11    1    3    3    0    0 -0.12146543699E+02 -0.17834792425E+01  0.22690667474E+01  0.12484710097E+02  0.51100000000E-03 0.  1.
         12    1    3    3    0    0 -0.12658958348E+02 -0.62795987765E+01  0.15963518045E+02  0.21319392478E+02  0.00000000000E+00 0. -1.
</event>
<event>
 7    1  0.3004200E-011  0.5052886E+02  0.7816164E-02  0.1300439E+00
        -11   -1    0    0    0    0  0.00000000000E+00  0.00000000000E+00  0.45593999997E+02  0.45594000000E+02  0.51100000000E-03 0. -1.
         11   -1    0    0    0    0 -0.00000000000E+00 -0.00000000000E+00 -0.45593999997E+02  0.45594000000E+02  0.51100000000E-03 0.  1.
    9900012    2    1    2    0    0  0.37800866748E+02 -0.14737737006E+02 -0.26569214158E+01  0.50528860186E+02  0.30000001023E+02 0.  0.
         12    1    1    2    0    0 -0.37800866748E+02  0.14737737006E+02  0.26569214158E+01  0.40659139814E+02  0.00000000000E+00 0. -1.
         11    1    3    3    0    0  0.12117815608E+02  0.78606053893E+00  0.11256331879E+02  0.16557909105E+02  0.51100000000E-03 0. -1.
        -11    1    3    3    0    0  0.33266775430E+01 -0.92263241301E+00 -0.44706908015E+01  0.56484609008E+01  0.51100000000E-03 0.  1.
         12    1    3    3    0    0  0.22356373597E+02 -0.14601165132E+02 -0.94425624932E+01  0.28322490181E+02  0.00000000000E+00 0. -1.
</event>
<event>
 7    1  0.3004200E-011  0.5052886E+02  0.7816164E-02  0.1300439E+00
        -11   -1    0    0    0    0  0.00000000000E+00  0.00000000000E+00  0.45593999997E+02  0.45594000000E+02  0.51100000000E-03 0.  1.
         11   -1    0    0    0    0 -0.00000000000E+00 -0.00000000000E+00 -0.45593999997E+02  0.45594000000E+02  0.51100000000E-03 0. -1.
    9900012    2    1    2    0    0  0.12147281670E+02 -0.14877826340E+02  0.35836566826E+02  0.50528859694E+02  0.29999999525E+02 0.  0.
         12    1    1    2    0    0 -0.12147281670E+02  0.14877826340E+02 -0.35836566826E+02  0.40659140306E+02  0.00000000000E+00 0. -1.
         11    1    3    3    0    0 -0.47524571833E+01 -0.19902162007E+01 -0.26745226218E+01  0.58051598876E+01  0.51100000000E-03 0. -1.
        -11    1    3    3    0    0  0.88833049178E+01 -0.10700102487E+02  0.28509569970E+02  0.31720669596E+02  0.51100000000E-03 0.  1.
         12    1    3    3    0    0  0.80164339353E+01 -0.21875076521E+01  0.10001519478E+02  0.13003030210E+02  0.00000000000E+00 0. -1.
</event>
<event>
 7    1  0.3004200E-011  0.5052885E+02  0.7816164E-02  0.1300439E+00
        -11   -1    0    0    0    0  0.00000000000E+00  0.00000000000E+00  0.45593999997E+02  0.45594000000E+02  0.51100000000E-03 0. -1.
         11   -1    0    0    0    0 -0.00000000000E+00 -0.00000000000E+00 -0.45593999997E+02  0.45594000000E+02  0.51100000000E-03 0.  1.
    9900012    2    1    2    0    0  0.35518456662E+02  0.15535556516E+02 -0.12257740980E+02  0.50528849814E+02  0.29999969494E+02 0.  0.
         12    1    1    2    0    0 -0.35518456662E+02 -0.15535556516E+02  0.12257740980E+02  0.40659150186E+02  0.00000000000E+00 0. -1.
         11    1    3    3    0    0  0.50949800025E+01  0.15018486056E+01 -0.13924707479E+02  0.14903417363E+02  0.51100000000E-03 0. -1.
        -11    1    3    3    0    0  0.81601424041E+00 -0.13979236098E+01 -0.13417464590E+01  0.21024636693E+01  0.51100000000E-03 0.  1.
         12    1    3    3    0    0  0.29607462419E+02  0.15431631521E+02  0.30087129579E+01  0.33522968782E+02  0.00000000000E+00 0. -1.
</event>
<event>
 7    1  0.3004200E-011  0.5052886E+02  0.7816164E-02  0.1300439E+00
        -11   -1    0    0    0    0  0.00000000000E+00  0.00000000000E+00  0.45593999997E+02  0.45594000000E+02  0.51100000000E-03 0.  1.
         11   -1    0    0    0    0 -0.00000000000E+00 -0.00000000000E+00 -0.45593999997E+02  0.45594000000E+02  0.51100000000E-03 0. -1.
    9900012    2    1    2    0    0 -0.58290230483E+01  0.24085194187E+02  0.32234937615E+02  0.50528864596E+02  0.30000014427E+02 0.  0.
         12    1    1    2    0    0  0.58290230483E+01 -0.24085194187E+02 -0.32234937615E+02  0.40659135404E+02  0.00000000000E+00 0. -1.
         11    1    3    3    0    0  0.67402910183E+01  0.13127228345E+01 -0.61094626262E+00  0.68940568498E+01  0.51100000000E-03 0. -1.
        -11    1    3    3    0    0 -0.98184486398E+01  0.14104091774E+02  0.12201858799E+02  0.21076353975E+02  0.51100000000E-03 0.  1.
         12    1    3    3    0    0 -0.27508654269E+01  0.86683795787E+01  0.20644025078E+02  0.22558453771E+02  0.00000000000E+00 0. -1.
</event>
<event>
 7    1  0.3004200E-011  0.5052886E+02  0.7816164E-02  0.1300439E+00
        -11   -1    0    0    0    0  0.00000000000E+00  0.00000000000E+00  0.45593999997E+02  0.45594000000E+02  0.51100000000E-03 0.  1.
         11   -1    0    0    0    0 -0.00000000000E+00 -0.00000000000E+00 -0.45593999997E+02  0.45594000000E+02  0.51100000000E-03 0. -1.
    9900012    2    1    2    0    0 -0.38864879194E+02 -0.17543643257E+01  0.11815619264E+02  0.50528862189E+02  0.30000007109E+02 0.  0.
         12    1    1    2    0    0  0.38864879194E+02  0.17543643257E+01 -0.11815619264E+02  0.40659137811E+02  0.00000000000E+00 0. -1.
         11    1    3    3    0    0 -0.33613555441E+01  0.33236917603E+01 -0.47033914992E+01  0.66683978486E+01  0.51100000000E-03 0. -1.
        -11    1    3    3    0    0 -0.35677356688E+02 -0.61556588649E+01  0.19189409287E+02  0.40975594508E+02  0.51100000000E-03 0.  1.
        -12    1    3    3    0    0  0.17383303793E+00  0.10776027789E+01 -0.26703985232E+01  0.28848698318E+01  0.00000000000E+00 0.  1.
</event>
<event>
 7    1  0.3004200E-011  0.5052885E+02  0.7816164E-02  0.1300439E+00
        -11   -1    0    0    0    0  0.00000000000E+00  0.00000000000E+00  0.45593999997E+02  0.45594000000E+02  0.51100000000E-03 0.  1.
         11   -1    0    0    0    0 -0.00000000000E+00 -0.00000000000E+00 -0.45593999997E+02  0.45594000000E+02  0.51100000000E-03 0. -1.
    9900012    2    1    2    0    0 -0.25432986245E+02  0.24842270108E+02  0.19727925162E+02  0.50528853370E+02  0.29999980304E+02 0.  0.
         12    1    1    2    0    0  0.25432986245E+02 -0.24842270108E+02 -0.19727925162E+02  0.40659146630E+02  0.00000000000E+00 0. -1.
         11    1    3    3    0    0 -0.12805712715E+02  0.10728478619E+00  0.12707841085E+02  0.18041258644E+02  0.51100000000E-03 0. -1.
        -11    1    3    3    0    0  0.47028443202E+00  0.11524007994E+02 -0.21737072707E+01  0.11736649064E+02  0.51100000000E-03 0.  1.
        -12    1    3    3    0    0 -0.13097557962E+02  0.13210977328E+02  0.91937913472E+01  0.20750945662E+02  0.00000000000E+00 0.  1.
</event>
<event>
 7    1  0.3004200E-011  0.5052885E+02  0.7816164E-02  0.1300439E+00
        -11   -1    0    0    0    0  0.00000000000E+00  0.00000000000E+00  0.45593999997E+02  0.45594000000E+02  0.51100000000E-03 0.  1.
         11   -1    0    0    0    0 -0.00000000000E+00 -0.00000000000E+00 -0.45593999997E+02  0.45594000000E+02  0.51100000000E-03 0. -1.
    9900012    2    1    2    0    0  0.37546756523E+02  0.97076410572E+00  0.15571282428E+02  0.50528854106E+02  0.29999982540E+02 0.  0.
         12    1    1    2    0    0 -0.37546756523E+02 -0.97076410572E+00 -0.15571282428E+02  0.40659145894E+02  0.00000000000E+00 0. -1.
         11    1    3    3    0    0  0.13428748055E+02  0.49710503841E+01 -0.74272827611E+01  0.16130937534E+02  0.51100000000E-03 0. -1.
        -11    1    3    3    0    0  0.18077404101E+02 -0.53865244448E+00  0.13255597986E+02  0.22423058750E+02  0.51100000000E-03 0.  1.
         12    1    3    3    0    0  0.60406043672E+01 -0.34616338339E+01  0.97429672037E+01  0.11974857822E+02  0.00000000000E+00 0. -1.
</event>
<event>
 7    1  0.3004200E-011  0.5052885E+02  0.7816164E-02  0.1300439E+00
        -11   -1    0    0    0    0  0.00000000000E+00  0.00000000000E+00  0.45593999997E+02  0.45594000000E+02  0.51100000000E-03 0. -1.
         11   -1    0    0    0    0 -0.00000000000E+00 -0.00000000000E+00 -0.45593999997E+02  0.45594000000E+02  0.51100000000E-03 0.  1.
    9900012    2    1    2    0    0  0.21350423664E+02 -0.33587544053E+02 -0.83188203906E+01  0.50528849999E+02  0.29999970057E+02 0.  0.
         12    1    1    2    0    0 -0.21350423664E+02  0.33587544053E+02  0.83188203906E+01  0.40659150001E+02  0.00000000000E+00 0. -1.
         11    1    3    3    0    0  0.17175429617E+01  0.48941623410E+01 -0.31870982823E+01  0.60877232664E+01  0.51100000000E-03 0. -1.
        -11    1    3    3    0    0  0.31353476892E+01 -0.15101088190E+02 -0.32670658487E+01  0.15765373106E+02  0.51100000000E-03 0.  1.
         12    1    3    3    0    0  0.16497533013E+02 -0.23380618204E+02 -0.18646562597E+01  0.28675753627E+02  0.00000000000E+00 0. -1.
</event>
<event>
 7    1  0.3004200E-011  0.5052886E+02  0.7816164E-02  0.1300439E+00
        -11   -1    0    0    0    0  0.00000000000E+00  0.00000000000E+00  0.45593999997E+02  0.45594000000E+02  0.51100000000E-03 0.  1.
         11   -1    0    0    0    0 -0.00000000000E+00 -0.00000000000E+00 -0.45593999997E+02  0.45594000000E+02  0.51100000000E-03 0. -1.
    9900012    2    1    2    0    0  0.11238357118E+02  0.60970898820E+01  0.38596507739E+02  0.50528860985E+02  0.30000003451E+02 0.  0.
         12    1    1    2    0    0 -0.11238357118E+02 -0.60970898820E+01 -0.38596507739E+02  0.40659139015E+02  0.00000000000E+00 0. -1.
         11    1    3    3    0    0  0.15590352358E+02  0.12614616899E+02  0.27276498850E+02  0.33855502299E+02  0.51100000000E-03 0. -1.
        -11    1    3    3    0    0 -0.25818032415E+01 -0.24856731438E+01  0.11716335776E+02  0.12252216258E+02  0.51100000000E-03 0.  1.
         12    1    3    3    0    0 -0.17701919982E+01 -0.40318538734E+01 -0.39632688691E+00  0.44211424280E+01  0.00000000000E+00 0. -1.
</event>
<event>
 7    1  0.3004200E-011  0.5052886E+02  0.7816164E-02  0.1300439E+00
        -11   -1    0    0    0    0  0.00000000000E+00  0.00000000000E+00  0.45593999997E+02  0.45594000000E+02  0.51100000000E-03 0. -1.
         11   -1    0    0    0    0 -0.00000000000E+00 -0.00000000000E+00 -0.45593999997E+02  0.45594000000E+02  0.51100000000E-03 0.  1.
    9900012    2    1    2    0    0 -0.33355302715E+02  0.15332554246E+02 -0.17478623184E+02  0.50528859487E+02  0.29999998896E+02 0.  0.
         12    1    1    2    0    0  0.33355302715E+02 -0.15332554246E+02  0.17478623184E+02  0.40659140513E+02  0.00000000000E+00 0. -1.
         11    1    3    3    0    0 -0.38152666064E+01 -0.65839609577E+01 -0.18830262387E+01  0.78390426232E+01  0.51100000000E-03 0. -1.
        -11    1    3    3    0    0 -0.21606155061E+02  0.21500648307E+02 -0.75918170744E+01  0.31412409983E+02  0.51100000000E-03 0.  1.
         12    1    3    3    0    0 -0.79338810469E+01  0.41586689606E+00 -0.80037798704E+01  0.11277406881E+02  0.00000000000E+00 0. -1.
</event>
<event>
 7    1  0.3004200E-011  0.5052888E+02  0.7816164E-02  0.1300439E+00
        -11   -1    0    0    0    0  0.00000000000E+00  0.00000000000E+00  0.45593999997E+02  0.45594000000E+02  0.51100000000E-03 0. -1.
         11   -1    0    0    0    0 -0.00000000000E+00 -0.00000000000E+00 -0.45593999997E+02  0.45594000000E+02  0.51100000000E-03 0.  1.
    9900012    2    1    2    0    0  0.28513432634E+02  0.15948151344E+02 -0.24203405600E+02  0.50528877844E+02  0.30000054695E+02 0.  0.
         12    1    1    2    0    0 -0.28513432634E+02 -0.15948151344E+02  0.24203405600E+02  0.40659122156E+02  0.00000000000E+00 0. -1.
         11    1    3    3    0    0  0.14730773874E+02  0.28893554403E+01 -0.10241051930E+02  0.18172044978E+02  0.51100000000E-03 0. -1.
        -11    1    3    3    0    0  0.11683474816E+02  0.10383594275E+02  0.22497914769E+01  0.15791902222E+02  0.51100000000E-03 0.  1.
        -12    1    3    3    0    0  0.20991839438E+01  0.26752016291E+01 -0.16212145147E+02  0.16564930645E+02  0.00000000000E+00 0.  1.
</event>
<event>
 7    1  0.3004200E-011  0.5052885E+02  0.7816164E-02  0.1300439E+00
        -11   -1    0    0    0    0  0.00000000000E+00  0.00000000000E+00  0.45593999997E+02  0.45594000000E+02  0.51100000000E-03 0.  1.
         11   -1    0    0    0    0 -0.00000000000E+00 -0.00000000000E+00 -0.45593999997E+02  0.45594000000E+02  0.51100000000E-03 0. -1.
    9900012    2    1    2    0    0  0.38731354351E+02 -0.12309972520E+02  0.12302041457E+01  0.50528848072E+02  0.29999964198E+02 0.  0.
         12    1    1    2    0    0 -0.38731354351E+02  0.12309972520E+02 -0.12302041457E+01  0.40659151928E+02  0.00000000000E+00 0. -1.
         11    1    3    3    0    0  0.19249696795E+02 -0.17031172021E+01 -0.11414322970E+02  0.22444112904E+02  0.51100000000E-03 0. -1.
        -11    1    3    3    0    0  0.16290010800E+02 -0.27344385338E+01  0.73859358263E+01  0.18094022611E+02  0.51100000000E-03 0.  1.
         12    1    3    3    0    0  0.31916467562E+01 -0.78724167842E+01  0.52585912899E+01  0.99907125569E+01  0.00000000000E+00 0. -1.
</event>
<event>
 7    1  0.3004200E-011  0.5052885E+02  0.7816164E-02  0.1300439E+00
        -11   -1    0    0    0    0  0.00000000000E+00  0.00000000000E+00  0.45593999997E+02  0.45594000000E+02  0.51100000000E-03 0.  1.
         11   -1    0    0    0    0 -0.00000000000E+00 -0.00000000000E+00 -0.45593999997E+02  0.45594000000E+02  0.51100000000E-03 0. -1.
    9900012    2    1    2    0    0 -0.14630927907E+02  0.23872841325E+02  0.29482022068E+02  0.50528853064E+02  0.29999979373E+02 0.  0.
         12    1    1    2    0    0  0.14630927907E+02 -0.23872841325E+02 -0.29482022068E+02  0.40659146936E+02  0.00000000000E+00 0. -1.
         11    1    3    3    0    0 -0.18856058324E+01  0.20382102670E+01 -0.29372146990E+01  0.40419105503E+01  0.51100000000E-03 0. -1.
        -11    1    3    3    0    0 -0.42162061838E+01  0.11866677405E+02  0.30791709130E+02  0.33267458253E+02  0.51100000000E-03 0.  1.
        -12    1    3    3    0    0 -0.85291158911E+01  0.99679536523E+01  0.16275276370E+01  0.13219484260E+02  0.00000000000E+00 0.  1.
</event>
<event>
 7    1  0.3004200E-011  0.5052888E+02  0.7816164E-02  0.1300439E+00
        -11   -1    0    0    0    0  0.00000000000E+00  0.00000000000E+00  0.45593999997E+02  0.45594000000E+02  0.51100000000E-03 0.  1.
         11   -1    0    0    0    0 -0.00000000000E+00 -0.00000000000E+00 -0.45593999997E+02  0.45594000000E+02  0.51100000000E-03 0. -1.
    9900012    2    1    2    0    0  0.20050648238E+01 -0.40085743034E+02  0.65020680617E+01  0.50528880867E+02  0.30000063885E+02 0.  0.
         12    1    1    2    0    0 -0.20050648238E+01  0.40085743034E+02 -0.65020680617E+01  0.40659119133E+02  0.00000000000E+00 0. -1.
         11    1    3    3    0    0 -0.30041300263E+01 -0.68074745232E-01  0.49186456501E+01  0.57638968310E+01  0.51100000000E-03 0. -1.
        -11    1    3    3    0    0 -0.36638838211E+01 -0.19118455162E+02 -0.68215364870E+01  0.20626990394E+02  0.51100000000E-03 0.  1.
        -12    1    3    3    0    0  0.86730786712E+01 -0.20899213127E+02  0.84049588986E+01  0.24137993642E+02  0.00000000000E+00 0.  1.
</event>
<event>
 7    1  0.3004200E-011  0.5052886E+02  0.7816164E-02  0.1300439E+00
        -11   -1    0    0    0    0  0.00000000000E+00  0.00000000000E+00  0.45593999997E+02  0.45594000000E+02  0.51100000000E-03 0. -1.
         11   -1    0    0    0    0 -0.00000000000E+00 -0.00000000000E+00 -0.45593999997E+02  0.45594000000E+02  0.51100000000E-03 0.  1.
    9900012    2    1    2    0    0 -0.13225553536E+02 -0.34556101193E+02 -0.16856042872E+02  0.50528861085E+02  0.30000003753E+02 0.  0.
         12    1    1    2    0    0  0.13225553536E+02  0.34556101193E+02  0.16856042872E+02  0.40659138915E+02  0.00000000000E+00 0. -1.
         11    1    3    3    0    0 -0.58961002743E+01 -0.72346835956E+01  0.62728445423E+01  0.11245142244E+02  0.51100000000E-03 0. -1.
        -11    1    3    3    0    0  0.23769438237E+01 -0.17348908111E+02 -0.15648813429E+02  0.23484459470E+02  0.51100000000E-03 0.  1.
         12    1    3    3    0    0 -0.97063970855E+01 -0.99725094870E+01 -0.74800739856E+01  0.15799259371E+02  0.00000000000E+00 0. -1.
</event>
<event>
 7    1  0.3004200E-011  0.5052886E+02  0.7816164E-02  0.1300439E+00
        -11   -1    0    0    0    0  0.00000000000E+00  0.00000000000E+00  0.45593999997E+02  0.45594000000E+02  0.51100000000E-03 0.  1.
         11   -1    0    0    0    0 -0.00000000000E+00 -0.00000000000E+00 -0.45593999997E+02  0.45594000000E+02  0.51100000000E-03 0. -1.
    9900012    2    1    2    0    0 -0.36107398740E+01  0.18158441126E+02  0.36199440725E+02  0.50528856681E+02  0.29999990369E+02 0.  0.
         12    1    1    2    0    0  0.36107398740E+01 -0.18158441126E+02 -0.36199440725E+02  0.40659143319E+02  0.00000000000E+00 0. -1.
         11    1    3    3    0    0 -0.89617668892E+01  0.12750837481E+02  0.33882014918E+02  0.37294611641E+02  0.51100000000E-03 0. -1.
        -11    1    3    3    0    0 -0.16173016509E+01  0.13947232497E+01  0.44319616505E+01  0.49196749798E+01  0.51100000000E-03 0.  1.
         12    1    3    3    0    0  0.69683286662E+01  0.40128803949E+01 -0.21145358435E+01  0.83145700609E+01  0.00000000000E+00 0. -1.
</event>
<event>
 7    1  0.3004200E-011  0.5052887E+02  0.7816164E-02  0.1300439E+00
        -11   -1    0    0    0    0  0.00000000000E+00  0.00000000000E+00  0.45593999997E+02  0.45594000000E+02  0.51100000000E-03 0.  1.
         11   -1    0    0    0    0 -0.00000000000E+00 -0.00000000000E+00 -0.45593999997E+02  0.45594000000E+02  0.51100000000E-03 0. -1.
    9900012    2    1    2    0    0  0.16461648378E+02 -0.18704702956E+02  0.32129630554E+02  0.50528868928E+02  0.30000027593E+02 0.  0.
         12    1    1    2    0    0 -0.16461648378E+02  0.18704702956E+02 -0.32129630554E+02  0.40659131072E+02  0.00000000000E+00 0. -1.
         11    1    3    3    0    0 -0.33474866411E+01  0.46668176556E+01  0.64279815064E+01  0.86199652175E+01  0.51100000000E-03 0. -1.
        -11    1    3    3    0    0  0.89823510048E+01 -0.30625891889E+01  0.40766803371E+01  0.10328669079E+02  0.51100000000E-03 0.  1.
         12    1    3    3    0    0  0.10826784014E+02 -0.20308931422E+02  0.21624968711E+02  0.31580234631E+02  0.00000000000E+00 0. -1.
</event>
<event>
 7    1  0.3004200E-011  0.5052886E+02  0.7816164E-02  0.1300439E+00
        -11   -1    0    0    0    0  0.00000000000E+00  0.00000000000E+00  0.45593999997E+02  0.45594000000E+02  0.51100000000E-03 0. -1.
         11   -1    0    0    0    0 -0.00000000000E+00 -0.00000000000E+00 -0.45593999997E+02  0.45594000000E+02  0.51100000000E-03 0.  1.
    9900012    2    1    2    0    0  0.16565397256E+02  0.15231404950E+02 -0.33863806728E+02  0.50528862170E+02  0.30000007051E+02 0.  0.
         12    1    1    2    0    0 -0.16565397256E+02 -0.15231404950E+02  0.33863806728E+02  0.40659137830E+02  0.00000000000E+00 0. -1.
         11    1    3    3    0    0 -0.20089048153E+01 -0.64783912178E+01 -0.13495014199E+02  0.15103663788E+02  0.51100000000E-03 0. -1.
        -11    1    3    3    0    0  0.14743498101E+02  0.16497554022E+02 -0.13176239468E+02  0.25751763274E+02  0.51100000000E-03 0.  1.
         12    1    3    3    0    0  0.38308039704E+01  0.52122421456E+01 -0.71925530612E+01  0.96734351077E+01  0.00000000000E+00 0. -1.
</event>
<event>
 7    1  0.3004200E-011  0.5052885E+02  0.7816164E-02  0.1300439E+00
        -11   -1    0    0    0    0  0.00000000000E+00  0.00000000000E+00  0.45593999997E+02  0.45594000000E+02  0.51100000000E-03 0.  1.
         11   -1    0    0    0    0 -0.00000000000E+00 -0.00000000000E+00 -0.45593999997E+02  0.45594000000E+02  0.51100000000E-03 0. -1.
    9900012    2    1    2    0    0 -0.10196134900E+02  0.14750839408E+02  0.36491337766E+02  0.50528853894E+02  0.29999981895E+02 0.  0.
         12    1    1    2    0    0  0.10196134900E+02 -0.14750839408E+02 -0.36491337766E+02  0.40659146106E+02  0.00000000000E+00 0. -1.
         11    1    3    3    0    0  0.33493109968E+01  0.45244919061E+01 -0.28951211410E+01  0.63301372690E+01  0.51100000000E-03 0. -1.
        -11    1    3    3    0    0 -0.75981450315E+01 -0.42305222229E+00  0.18619065676E+02  0.20114183752E+02  0.51100000000E-03 0.  1.
         12    1    3    3    0    0 -0.59473008657E+01  0.10649399724E+02  0.20767393231E+02  0.24084532873E+02  0.00000000000E+00 0. -1.
</event>
<event>
 7    1  0.3004200E-011  0.5052885E+02  0.7816164E-02  0.1300439E+00
        -11   -1    0    0    0    0  0.00000000000E+00  0.00000000000E+00  0.45593999997E+02  0.45594000000E+02  0.51100000000E-03 0.  1.
         11   -1    0    0    0    0 -0.00000000000E+00 -0.00000000000E+00 -0.45593999997E+02  0.45594000000E+02  0.51100000000E-03 0. -1.
    9900012    2    1    2    0    0  0.26538553872E+02 -0.49676160627E+01  0.30400560774E+02  0.50528854088E+02  0.29999982485E+02 0.  0.
         12    1    1    2    0    0 -0.26538553872E+02  0.49676160627E+01 -0.30400560774E+02  0.40659145912E+02  0.00000000000E+00 0. -1.
         11    1    3    3    0    0  0.54578885269E+01  0.11558862505E+02  0.96930154787E+01  0.16042144461E+02  0.51100000000E-03 0. -1.
        -11    1    3    3    0    0  0.12196451108E+02 -0.81176465330E+01  0.15068465900E+02  0.21016856799E+02  0.51100000000E-03 0.  1.
         12    1    3    3    0    0  0.88842142366E+01 -0.84088320342E+01  0.56390793947E+01  0.13469852828E+02  0.00000000000E+00 0. -1.
</event>
<event>
 7    1  0.3004200E-011  0.5052880E+02  0.7816164E-02  0.1300439E+00
        -11   -1    0    0    0    0  0.00000000000E+00  0.00000000000E+00  0.45593999997E+02  0.45594000000E+02  0.51100000000E-03 0. -1.
         11   -1    0    0    0    0 -0.00000000000E+00 -0.00000000000E+00 -0.45593999997E+02  0.45594000000E+02  0.51100000000E-03 0.  1.
    9900012    2    1    2    0    0 -0.21486942707E+02  0.19962693868E+02 -0.28159766264E+02  0.50528803139E+02  0.29999827620E+02 0.  0.
         12    1    1    2    0    0  0.21486942707E+02 -0.19962693868E+02  0.28159766264E+02  0.40659196861E+02  0.00000000000E+00 0. -1.
         11    1    3    3    0    0  0.30544418642E+01  0.16752442085E+02 -0.10455358185E+02  0.19982203230E+02  0.51100000000E-03 0. -1.
        -11    1    3    3    0    0 -0.17417059903E+02  0.23318269698E+01 -0.14007713333E+02  0.22472370274E+02  0.51100000000E-03 0.  1.
         12    1    3    3    0    0 -0.71243246681E+01  0.87842481290E+00 -0.36966947469E+01  0.80742296338E+01  0.00000000000E+00 0. -1.
</event>
<event>
 7    1  0.3004200E-011  0.5052886E+02  0.7816164E-02  0.1300439E+00
        -11   -1    0    0    0    0  0.00000000000E+00  0.00000000000E+00  0.45593999997E+02  0.45594000000E+02  0.51100000000E-03 0.  1.
         11   -1    0    0    0    0 -0.00000000000E+00 -0.00000000000E+00 -0.45593999997E+02  0.45594000000E+02  0.51100000000E-03 0. -1.
    9900012    2    1    2    0    0  0.27878431895E+02  0.22994033814E+02  0.18634187588E+02  0.50528861998E+02  0.30000006530E+02 0.  0.
         12    1    1    2    0    0 -0.27878431895E+02 -0.22994033814E+02 -0.18634187588E+02  0.40659138002E+02  0.00000000000E+00 0. -1.
         11    1    3    3    0    0  0.10443188429E+02 -0.60019394297E+01  0.95480412866E+01  0.15370379115E+02  0.51100000000E-03 0. -1.
        -11    1    3    3    0    0  0.15182856824E+02  0.23104470360E+02  0.70629287742E+01  0.28534551952E+02  0.51100000000E-03 0.  1.
         12    1    3    3    0    0  0.22523866427E+01  0.58915028839E+01  0.20232175269E+01  0.66239309312E+01  0.00000000000E+00 0. -1.
</event>
<event>
 7    1  0.3004200E-011  0.5052886E+02  0.7816164E-02  0.1300439E+00
        -11   -1    0    0    0    0  0.00000000000E+00  0.00000000000E+00  0.45593999997E+02  0.45594000000E+02  0.51100000000E-03 0. -1.
         11   -1    0    0    0    0 -0.00000000000E+00 -0.00000000000E+00 -0.45593999997E+02  0.45594000000E+02  0.51100000000E-03 0.  1.
    9900012    2    1    2    0    0 -0.24414992213E+02 -0.34910214299E+01 -0.32324701089E+02  0.50528863563E+02  0.30000011285E+02 0.  0.
         12    1    1    2    0    0  0.24414992213E+02  0.34910214299E+01  0.32324701089E+02  0.40659136437E+02  0.00000000000E+00 0. -1.
         11    1    3    3    0    0 -0.11255536080E+02  0.10876937442E+02 -0.57053142270E+01  0.16659696013E+02  0.51100000000E-03 0. -1.
        -11    1    3    3    0    0 -0.35822056418E+01 -0.70777573087E+01 -0.15823742228E+02  0.17700781456E+02  0.51100000000E-03 0.  1.
         12    1    3    3    0    0 -0.95772504913E+01 -0.72902015637E+01 -0.10795644633E+02  0.16168386093E+02  0.00000000000E+00 0. -1.
</event>
<event>
 7    1  0.3004200E-011  0.5052886E+02  0.7816164E-02  0.1300439E+00
        -11   -1    0    0    0    0  0.00000000000E+00  0.00000000000E+00  0.45593999997E+02  0.45594000000E+02  0.51100000000E-03 0.  1.
         11   -1    0    0    0    0 -0.00000000000E+00 -0.00000000000E+00 -0.45593999997E+02  0.45594000000E+02  0.51100000000E-03 0. -1.
    9900012    2    1    2    0    0  0.46252597819E+01 -0.15911396845E+02  0.37129508506E+02  0.50528856139E+02  0.29999988721E+02 0.  0.
         12    1    1    2    0    0 -0.46252597819E+01  0.15911396845E+02 -0.37129508506E+02  0.40659143861E+02  0.00000000000E+00 0. -1.
         11    1    3    3    0    0 -0.65164714924E+01 -0.99281442636E+01  0.16140361906E+02  0.20038556135E+02  0.51100000000E-03 0. -1.
        -11    1    3    3    0    0  0.22062587261E+01 -0.51089944101E+00 -0.33201601139E+01  0.40189624592E+01  0.51100000000E-03 0.  1.
        -12    1    3    3    0    0  0.89354725482E+01 -0.54723531402E+01  0.24309306713E+02  0.26471337545E+02  0.00000000000E+00 0.  1.
</event>
<event>
 7    1  0.3004200E-011  0.5052886E+02  0.7816164E-02  0.1300439E+00
        -11   -1    0    0    0    0  0.00000000000E+00  0.00000000000E+00  0.45593999997E+02  0.45594000000E+02  0.51100000000E-03 0.  1.
         11   -1    0    0    0    0 -0.00000000000E+00 -0.00000000000E+00 -0.45593999997E+02  0.45594000000E+02  0.51100000000E-03 0. -1.
    9900012    2    1    2    0    0  0.36976921001E+02 -0.16894255162E+02 -0.67589829410E+00  0.50528863478E+02  0.30000011028E+02 0.  0.
         12    1    1    2    0    0 -0.36976921001E+02  0.16894255162E+02  0.67589829410E+00  0.40659136522E+02  0.00000000000E+00 0. -1.
         11    1    3    3    0    0  0.27841041230E+01 -0.32305825922E+01  0.94219421642E+01  0.10342190003E+02  0.51100000000E-03 0. -1.
        -11    1    3    3    0    0  0.22245025083E+02 -0.24762742312E+01 -0.41023006170E+01  0.22755261932E+02  0.51100000000E-03 0.  1.
        -12    1    3    3    0    0  0.11947791795E+02 -0.11187398339E+02 -0.59955398413E+01  0.17431411543E+02  0.00000000000E+00 0.  1.
</event>
<event>
 7    1  0.3004200E-011  0.5052886E+02  0.7816164E-02  0.1300439E+00
        -11   -1    0    0    0    0  0.00000000000E+00  0.00000000000E+00  0.45593999997E+02  0.45594000000E+02  0.51100000000E-03 0.  1.
         11   -1    0    0    0    0 -0.00000000000E+00 -0.00000000000E+00 -0.45593999997E+02  0.45594000000E+02  0.51100000000E-03 0. -1.
    9900012    2    1    2    0    0 -0.23113069268E+02  0.42858576454E+01  0.33175036168E+02  0.50528861157E+02  0.30000003972E+02 0.  0.
         12    1    1    2    0    0  0.23113069268E+02 -0.42858576454E+01 -0.33175036168E+02  0.40659138843E+02  0.00000000000E+00 0. -1.
         11    1    3    3    0    0  0.38948582975E+01 -0.44912709842E+01  0.39228650497E+01  0.71225210895E+01  0.51100000000E-03 0. -1.
        -11    1    3    3    0    0 -0.16834013405E+02  0.11726645713E+02  0.24029062730E+02  0.31595792171E+02  0.51100000000E-03 0.  1.
         12    1    3    3    0    0 -0.10173914161E+02 -0.29495170831E+01  0.52231083878E+01  0.11810547896E+02  0.00000000000E+00 0. -1.
</event>
<event>
 7    1  0.3004200E-011  0.5052886E+02  0.7816164E-02  0.1300439E+00
        -11   -1    0    0    0    0  0.00000000000E+00  0.00000000000E+00  0.45593999997E+02  0.45594000000E+02  0.51100000000E-03 0. -1.
         11   -1    0    0    0    0 -0.00000000000E+00 -0.00000000000E+00 -0.45593999997E+02  0.45594000000E+02  0.51100000000E-03 0.  1.
    9900012    2    1    2    0    0 -0.26924336661E+02  0.25202435006E+02 -0.17119657318E+02  0.50528864476E+02  0.30000014062E+02 0.  0.
         12    1    1    2    0    0  0.26924336661E+02 -0.25202435006E+02  0.17119657318E+02  0.40659135524E+02  0.00000000000E+00 0. -1.
         11    1    3    3    0    0 -0.70296298816E+00  0.64592034110E-01  0.48864050773E+01  0.49371331695E+01  0.51100000000E-03 0. -1.
        -11    1    3    3    0    0 -0.34968640167E+01  0.13584548391E+02 -0.10993283766E+02  0.17821905093E+02  0.51100000000E-03 0.  1.
        -12    1    3    3    0    0 -0.22724509656E+02  0.11553294581E+02 -0.11012778630E+02  0.27769826213E+02  0.00000000000E+00 0.  1.
</event>
<event>
 7    1  0.3004200E-011  0.5052887E+02  0.7816164E-02  0.1300439E+00
        -11   -1    0    0    0    0  0.00000000000E+00  0.00000000000E+00  0.45593999997E+02  0.45594000000E+02  0.51100000000E-03 0. -1.
         11   -1    0    0    0    0 -0.00000000000E+00 -0.00000000000E+00 -0.45593999997E+02  0.45594000000E+02  0.51100000000E-03 0.  1.
    9900012    2    1    2    0    0  0.54726444619E+01  0.99898146846E+01 -0.39030998357E+02  0.50528867354E+02  0.30000022808E+02 0.  0.
         12    1    1    2    0    0 -0.54726444619E+01 -0.99898146846E+01  0.39030998357E+02  0.40659132646E+02  0.00000000000E+00 0. -1.
         11    1    3    3    0    0  0.76758846778E+01 -0.96675442395E-01 -0.61392774902E+01  0.98295106741E+01  0.51100000000E-03 0. -1.
        -11    1    3    3    0    0 -0.72947634694E+01  0.14420505288E+02 -0.16986246005E+02  0.23445620069E+02  0.51100000000E-03 0.  1.
        -12    1    3    3    0    0  0.50915232534E+01 -0.43340151606E+01 -0.15905474861E+02  0.17253736610E+02  0.00000000000E+00 0.  1.
</event>
<event>
 7    1  0.3004200E-011  0.5052887E+02  0.7816164E-02  0.1300439E+00
        -11   -1    0    0    0    0  0.00000000000E+00  0.00000000000E+00  0.45593999997E+02  0.45594000000E+02  0.51100000000E-03 0. -1.
         11   -1    0    0    0    0 -0.00000000000E+00 -0.00000000000E+00 -0.45593999997E+02  0.45594000000E+02  0.51100000000E-03 0.  1.
    9900012    2    1    2    0    0  0.33238137792E+02  0.23254596379E+02  0.27595494664E+01  0.50528866095E+02  0.30000018983E+02 0.  0.
         12    1    1    2    0    0 -0.33238137792E+02 -0.23254596379E+02 -0.27595494664E+01  0.40659133905E+02  0.00000000000E+00 0. -1.
         11    1    3    3    0    0 -0.99692474713E+00  0.23549169438E+00  0.52676881343E+01  0.53663631847E+01  0.51100000000E-03 0. -1.
        -11    1    3    3    0    0  0.16063429550E+02  0.21475602673E+02 -0.23924942938E+01  0.26925068399E+02  0.51100000000E-03 0.  1.
        -12    1    3    3    0    0  0.18171632989E+02  0.15435020123E+01 -0.11564437409E+00  0.18237434512E+02  0.00000000000E+00 0.  1.
</event>
<event>
 7    1  0.3004200E-011  0.5052886E+02  0.7816164E-02  0.1300439E+00
        -11   -1    0    0    0    0  0.00000000000E+00  0.00000000000E+00  0.45593999997E+02  0.45594000000E+02  0.51100000000E-03 0.  1.
         11   -1    0    0    0    0 -0.00000000000E+00 -0.00000000000E+00 -0.45593999997E+02  0.45594000000E+02  0.51100000000E-03 0. -1.
    9900012    2    1    2    0    0 -0.12470857455E+02  0.15801710229E+02  0.35326327009E+02  0.50528859432E+02  0.29999998728E+02 0.  0.
         12    1    1    2    0    0  0.12470857455E+02 -0.15801710229E+02 -0.35326327009E+02  0.40659140568E+02  0.00000000000E+00 0. -1.
         11    1    3    3    0    0 -0.98146608258E+01  0.28721821029E+01  0.10043765263E+02  0.14333674270E+02  0.51100000000E-03 0. -1.
        -11    1    3    3    0    0  0.37000274101E+01 -0.43272740678E+01  0.12684608212E+02  0.13903768894E+02  0.51100000000E-03 0.  1.
        -12    1    3    3    0    0 -0.63562240391E+01  0.17256802194E+02  0.12597953533E+02  0.22291416268E+02  0.00000000000E+00 0.  1.
</event>
<event>
 7    1  0.3004200E-011  0.5052887E+02  0.7816164E-02  0.1300439E+00
        -11   -1    0    0    0    0  0.00000000000E+00  0.00000000000E+00  0.45593999997E+02  0.45594000000E+02  0.51100000000E-03 0.  1.
         11   -1    0    0    0    0 -0.00000000000E+00 -0.00000000000E+00 -0.45593999997E+02  0.45594000000E+02  0.51100000000E-03 0. -1.
    9900012    2    1    2    0    0  0.13335210135E+01  0.12916335512E+01  0.40616722624E+02  0.50528871232E+02  0.30000034596E+02 0.  0.
         12    1    1    2    0    0 -0.13335210135E+01 -0.12916335512E+01 -0.40616722624E+02  0.40659128768E+02  0.00000000000E+00 0. -1.
         11    1    3    3    0    0  0.14229557650E+02 -0.16077281370E+01  0.16885442114E+02  0.22140082573E+02  0.51100000000E-03 0. -1.
        -11    1    3    3    0    0 -0.11100679363E+01  0.30526555061E+01  0.87037740534E+01  0.92901366780E+01  0.51100000000E-03 0.  1.
         12    1    3    3    0    0 -0.11785968700E+02 -0.15329381786E+00  0.15027506456E+02  0.19098651981E+02  0.00000000000E+00 0. -1.
</event>
<event>
 7    1  0.3004200E-011  0.5052886E+02  0.7816164E-02  0.1300439E+00
        -11   -1    0    0    0    0  0.00000000000E+00  0.00000000000E+00  0.45593999997E+02  0.45594000000E+02  0.51100000000E-03 0. -1.
         11   -1    0    0    0    0 -0.00000000000E+00 -0.00000000000E+00 -0.45593999997E+02  0.45594000000E+02  0.51100000000E-03 0.  1.
    9900012    2    1    2    0    0  0.29338790198E+02 -0.10754566150E+02 -0.26014237497E+02  0.50528857659E+02  0.29999993341E+02 0.  0.
         12    1    1    2    0    0 -0.29338790198E+02  0.10754566150E+02  0.26014237497E+02  0.40659142341E+02  0.00000000000E+00 0. -1.
         11    1    3    3    0    0  0.81963238533E+00 -0.93942279380E+01  0.20973229168E+01  0.96603353708E+01  0.51100000000E-03 0. -1.
        -11    1    3    3    0    0  0.14208713778E+02 -0.84719965233E+00 -0.84772167362E+01  0.16567090822E+02  0.51100000000E-03 0.  1.
         12    1    3    3    0    0  0.14310444035E+02 -0.51313855957E+00 -0.19634343677E+02  0.24301431466E+02  0.00000000000E+00 0. -1.
</event>
<event>
 7    1  0.3004200E-011  0.5052886E+02  0.7816164E-02  0.1300439E+00
        -11   -1    0    0    0    0  0.00000000000E+00  0.00000000000E+00  0.45593999997E+02  0.45594000000E+02  0.51100000000E-03 0.  1.
         11   -1    0    0    0    0 -0.00000000000E+00 -0.00000000000E+00 -0.45593999997E+02  0.45594000000E+02  0.51100000000E-03 0. -1.
    9900012    2    1    2    0    0  0.21644445802E+02  0.22037074605E+02 -0.26439568376E+02  0.50528862440E+02  0.30000007873E+02 0.  0.
         12    1    1    2    0    0 -0.21644445802E+02 -0.22037074605E+02  0.26439568376E+02  0.40659137560E+02  0.00000000000E+00 0. -1.
         11    1    3    3    0    0  0.12360355523E+01 -0.62620118794E+01 -0.29617070875E+01  0.70364966991E+01  0.51100000000E-03 0. -1.
        -11    1    3    3    0    0  0.19569793634E+02  0.19439338707E+02 -0.16146380307E+02  0.31962013540E+02  0.51100000000E-03 0.  1.
        -12    1    3    3    0    0  0.83861661547E+00  0.88597477776E+01 -0.73314809812E+01  0.11530352201E+02  0.00000000000E+00 0.  1.
</event>
<event>
 7    1  0.3004200E-011  0.5052886E+02  0.7816164E-02  0.1300439E+00
        -11   -1    0    0    0    0  0.00000000000E+00  0.00000000000E+00  0.45593999997E+02  0.45594000000E+02  0.51100000000E-03 0.  1.
         11   -1    0    0    0    0 -0.00000000000E+00 -0.00000000000E+00 -0.45593999997E+02  0.45594000000E+02  0.51100000000E-03 0. -1.
    9900012    2    1    2    0    0  0.12193377959E+02 -0.21353722025E+02  0.32380637467E+02  0.50528860890E+02  0.30000003162E+02 0.  0.
         12    1    1    2    0    0 -0.12193377959E+02  0.21353722025E+02 -0.32380637467E+02  0.40659139110E+02  0.00000000000E+00 0. -1.
         11    1    3    3    0    0  0.11346744640E+02 -0.19613535734E+02  0.15473999538E+02  0.27438732841E+02  0.51100000000E-03 0. -1.
        -11    1    3    3    0    0 -0.47067127850E+01 -0.13557644968E+01  0.16824394490E+02  0.17522884832E+02  0.51100000000E-03 0.  1.
         12    1    3    3    0    0  0.55533461037E+01 -0.38442179401E+00  0.82243438873E-01  0.55672432178E+01  0.00000000000E+00 0. -1.
</event>
<event>
 7    1  0.3004200E-011  0.5052886E+02  0.7816164E-02  0.1300439E+00
        -11   -1    0    0    0    0  0.00000000000E+00  0.00000000000E+00  0.45593999997E+02  0.45594000000E+02  0.51100000000E-03 0.  1.
         11   -1    0    0    0    0 -0.00000000000E+00 -0.00000000000E+00 -0.45593999997E+02  0.45594000000E+02  0.51100000000E-03 0. -1.
    9900012    2    1    2    0    0 -0.42379448931E+01  0.30963879089E+02  0.26008526284E+02  0.50528862963E+02  0.30000009462E+02 0.  0.
         12    1    1    2    0    0  0.42379448931E+01 -0.30963879089E+02 -0.26008526284E+02  0.40659137037E+02  0.00000000000E+00 0. -1.
         11    1    3    3    0    0  0.47594899064E+01 -0.21558230580E+01  0.99707104700E+01  0.11256792828E+02  0.51100000000E-03 0. -1.
        -11    1    3    3    0    0 -0.10036882728E+02  0.19753134134E+02  0.75671808246E+01  0.23413405324E+02  0.51100000000E-03 0.  1.
        -12    1    3    3    0    0  0.10394479286E+01  0.13366568014E+02  0.84706349889E+01  0.15858664811E+02  0.00000000000E+00 0.  1.
</event>
<event>
 7    1  0.3004200E-011  0.5052886E+02  0.7816164E-02  0.1300439E+00
        -11   -1    0    0    0    0  0.00000000000E+00  0.00000000000E+00  0.45593999997E+02  0.45594000000E+02  0.51100000000E-03 0.  1.
         11   -1    0    0    0    0 -0.00000000000E+00 -0.00000000000E+00 -0.45593999997E+02  0.45594000000E+02  0.51100000000E-03 0. -1.
    9900012    2    1    2    0    0 -0.32469866343E+02  0.11529736305E+02  0.21585603924E+02  0.50528864048E+02  0.30000012760E+02 0.  0.
         12    1    1    2    0    0  0.32469866343E+02 -0.11529736305E+02 -0.21585603924E+02  0.40659135952E+02  0.00000000000E+00 0. -1.
         11    1    3    3    0    0 -0.63330750377E+01 -0.20814173753E+01 -0.41201821656E+01  0.78368385885E+01  0.51100000000E-03 0. -1.
        -11    1    3    3    0    0 -0.24390528898E+02  0.16002113990E+02  0.17616550049E+02  0.34077975115E+02  0.51100000000E-03 0.  1.
        -12    1    3    3    0    0 -0.17462624074E+01 -0.23909603101E+01  0.80892360410E+01  0.86140503439E+01  0.00000000000E+00 0.  1.
</event>
<event>
 7    1  0.3004200E-011  0.5052887E+02  0.7816164E-02  0.1300439E+00
        -11   -1    0    0    0    0  0.00000000000E+00  0.00000000000E+00  0.45593999997E+02  0.45594000000E+02  0.51100000000E-03 0. -1.
         11   -1    0    0    0    0 -0.00000000000E+00 -0.00000000000E+00 -0.45593999997E+02  0.45594000000E+02  0.51100000000E-03 0.  1.
    9900012    2    1    2    0    0 -0.36547909642E+02 -0.15803548612E+02 -0.82257694252E+01  0.50528866579E+02  0.30000020454E+02 0.  0.
         12    1    1    2    0    0  0.36547909642E+02  0.15803548612E+02  0.82257694252E+01  0.40659133421E+02  0.00000000000E+00 0. -1.
         11    1    3    3    0    0 -0.17541670881E+01  0.21724560581E+01  0.31193942232E+01  0.41865604113E+01  0.51100000000E-03 0. -1.
        -11    1    3    3    0    0 -0.30151947224E+02 -0.90761837268E+01 -0.39932772670E+00  0.31490895436E+02  0.51100000000E-03 0.  1.
        -12    1    3    3    0    0 -0.46417953293E+01 -0.88998209429E+01 -0.10945835922E+02  0.14851410732E+02  0.00000000000E+00 0.  1.
</event>
<event>
 7    1  0.3004200E-011  0.5052886E+02  0.7816164E-02  0.1300439E+00
        -11   -1    0    0    0    0  0.00000000000E+00  0.00000000000E+00  0.45593999997E+02  0.45594000000E+02  0.51100000000E-03 0.  1.
         11   -1    0    0    0    0 -0.00000000000E+00 -0.00000000000E+00 -0.45593999997E+02  0.45594000000E+02  0.51100000000E-03 0. -1.
    9900012    2    1    2    0    0 -0.29004807140E+01  0.30613770819E+02  0.26599804228E+02  0.50528864039E+02  0.30000012733E+02 0.  0.
         12    1    1    2    0    0  0.29004807140E+01 -0.30613770819E+02 -0.26599804228E+02  0.40659135961E+02  0.00000000000E+00 0. -1.
         11    1    3    3    0    0 -0.52518266417E+01  0.20706956074E+02  0.19441468365E+02  0.28884778091E+02  0.51100000000E-03 0. -1.
        -11    1    3    3    0    0 -0.28438546208E+01 -0.18331008200E+01  0.80932539927E+01  0.87720310176E+01  0.51100000000E-03 0.  1.
         12    1    3    3    0    0  0.51952005485E+01  0.11739915565E+02 -0.93491812990E+00  0.12872054930E+02  0.00000000000E+00 0. -1.
</event>
<event>
 7    1  0.3004200E-011  0.5052886E+02  0.7816164E-02  0.1300439E+00
        -11   -1    0    0    0    0  0.00000000000E+00  0.00000000000E+00  0.45593999997E+02  0.45594000000E+02  0.51100000000E-03 0.  1.
         11   -1    0    0    0    0 -0.00000000000E+00 -0.00000000000E+00 -0.45593999997E+02  0.45594000000E+02  0.51100000000E-03 0. -1.
    9900012    2    1    2    0    0 -0.23903392586E+02  0.11652320237E+02  0.30757388424E+02  0.50528859739E+02  0.29999999663E+02 0.  0.
         12    1    1    2    0    0  0.23903392586E+02 -0.11652320237E+02 -0.30757388424E+02  0.40659140261E+02  0.00000000000E+00 0. -1.
         11    1    3    3    0    0  0.46397497043E+01 -0.19322856934E+01  0.11360322784E+00  0.50273165083E+01  0.51100000000E-03 0. -1.
        -11    1    3    3    0    0 -0.25449448469E+02  0.15072560884E+02  0.29756088530E+02  0.41955706689E+02  0.51100000000E-03 0.  1.
        -12    1    3    3    0    0 -0.30936938223E+01 -0.14879549530E+01  0.88769666701E+00  0.35458365417E+01  0.00000000000E+00 0.  1.
</event>
<event>
 7    1  0.3004200E-011  0.5052885E+02  0.7816164E-02  0.1300439E+00
        -11   -1    0    0    0    0  0.00000000000E+00  0.00000000000E+00  0.45593999997E+02  0.45594000000E+02  0.51100000000E-03 0.  1.
         11   -1    0    0    0    0 -0.00000000000E+00 -0.00000000000E+00 -0.45593999997E+02  0.45594000000E+02  0.51100000000E-03 0. -1.
    9900012    2    1    2    0    0  0.24854108019E+02 -0.29385784056E+02 -0.13111654803E+02  0.50528849964E+02  0.29999969949E+02 0.  0.
         12    1    1    2    0    0 -0.24854108019E+02  0.29385784056E+02  0.13111654803E+02  0.40659150036E+02  0.00000000000E+00 0. -1.
         11    1    3    3    0    0  0.40622095050E+01 -0.24802260738E+01  0.30057193081E+01  0.56291576865E+01  0.51100000000E-03 0. -1.
        -11    1    3    3    0    0  0.11227660474E+02 -0.22821227336E+02 -0.21396482210E+02  0.33236700018E+02  0.51100000000E-03 0.  1.
        -12    1    3    3    0    0  0.95642380402E+01 -0.40843306463E+01  0.52791080989E+01  0.11662992259E+02  0.00000000000E+00 0.  1.
</event>
<event>
 7    1  0.3004200E-011  0.5052887E+02  0.7816164E-02  0.1300439E+00
        -11   -1    0    0    0    0  0.00000000000E+00  0.00000000000E+00  0.45593999997E+02  0.45594000000E+02  0.51100000000E-03 0. -1.
         11   -1    0    0    0    0 -0.00000000000E+00 -0.00000000000E+00 -0.45593999997E+02  0.45594000000E+02  0.51100000000E-03 0.  1.
    9900012    2    1    2    0    0  0.35524300216E+02  0.18018303805E+02 -0.81565797606E+01  0.50528868538E+02  0.30000026407E+02 0.  0.
         12    1    1    2    0    0 -0.35524300216E+02 -0.18018303805E+02  0.81565797606E+01  0.40659131462E+02  0.00000000000E+00 0. -1.
         11    1    3    3    0    0  0.68266401411E+01  0.12051510762E+01  0.56622693333E+01  0.89507932048E+01  0.51100000000E-03 0. -1.
        -11    1    3    3    0    0  0.28448925007E+02  0.10903662640E+02 -0.16972168158E+02  0.34875287601E+02  0.51100000000E-03 0.  1.
        -12    1    3    3    0    0  0.24873506803E+00  0.59094900895E+01  0.31533190641E+01  0.67027877314E+01  0.00000000000E+00 0.  1.
</event>
<event>
 7    1  0.3004200E-011  0.5052887E+02  0.7816164E-02  0.1300439E+00
        -11   -1    0    0    0    0  0.00000000000E+00  0.00000000000E+00  0.45593999997E+02  0.45594000000E+02  0.51100000000E-03 0. -1.
         11   -1    0    0    0    0 -0.00000000000E+00 -0.00000000000E+00 -0.45593999997E+02  0.45594000000E+02  0.51100000000E-03 0.  1.
    9900012    2    1    2    0    0  0.16214406568E+02 -0.37277760786E+02 -0.79156630176E+00  0.50528868101E+02  0.30000025079E+02 0.  0.
         12    1    1    2    0    0 -0.16214406568E+02  0.37277760786E+02  0.79156630176E+00  0.40659131899E+02  0.00000000000E+00 0. -1.
         11    1    3    3    0    0  0.50207657959E+01  0.38763757643E+01 -0.86846620641E+00  0.64022349266E+01  0.51100000000E-03 0. -1.
        -11    1    3    3    0    0  0.11516297965E+02 -0.21011710265E+02  0.71683756978E+00  0.23971461021E+02  0.51100000000E-03 0.  1.
         12    1    3    3    0    0 -0.32265719326E+00 -0.20142426285E+02 -0.63993766513E+00  0.20155172153E+02  0.00000000000E+00 0. -1.
</event>
<event>
 7    1  0.3004200E-011  0.5052885E+02  0.7816164E-02  0.1300439E+00
        -11   -1    0    0    0    0  0.00000000000E+00  0.00000000000E+00  0.45593999997E+02  0.45594000000E+02  0.51100000000E-03 0.  1.
         11   -1    0    0    0    0 -0.00000000000E+00 -0.00000000000E+00 -0.45593999997E+02  0.45594000000E+02  0.51100000000E-03 0. -1.
    9900012    2    1    2    0    0 -0.33950875393E+02  0.12895909284E+01  0.22334755853E+02  0.50528852152E+02  0.29999976601E+02 0.  0.
         12    1    1    2    0    0  0.33950875393E+02 -0.12895909284E+01 -0.22334755853E+02  0.40659147848E+02  0.00000000000E+00 0. -1.
         11    1    3    3    0    0 -0.36121287364E+02 -0.62692026123E+00  0.16547585246E+02  0.39736167500E+02  0.51100000000E-03 0. -1.
        -11    1    3    3    0    0 -0.12275871952E+01 -0.28914231734E+01  0.27145108513E+01  0.41516102553E+01  0.51100000000E-03 0.  1.
         12    1    3    3    0    0  0.33979991660E+01  0.48079343631E+01  0.30726597555E+01  0.66410743969E+01  0.00000000000E+00 0. -1.
</event>
<event>
 7    1  0.3004200E-011  0.5052885E+02  0.7816164E-02  0.1300439E+00
        -11   -1    0    0    0    0  0.00000000000E+00  0.00000000000E+00  0.45593999997E+02  0.45594000000E+02  0.51100000000E-03 0.  1.
         11   -1    0    0    0    0 -0.00000000000E+00 -0.00000000000E+00 -0.45593999997E+02  0.45594000000E+02  0.51100000000E-03 0. -1.
    9900012    2    1    2    0    0 -0.11891411185E+02  0.31054512248E+02  0.23396107751E+02  0.50528852827E+02  0.29999978653E+02 0.  0.
         12    1    1    2    0    0  0.11891411185E+02 -0.31054512248E+02 -0.23396107751E+02  0.40659147173E+02  0.00000000000E+00 0. -1.
         11    1    3    3    0    0  0.82099330110E+00 -0.23014682944E+01  0.12597833078E+02  0.12832621900E+02  0.51100000000E-03 0. -1.
        -11    1    3    3    0    0 -0.30245651637E+01  0.11742061015E+02  0.60028242224E+01  0.13529888773E+02  0.51100000000E-03 0.  1.
         12    1    3    3    0    0 -0.96878393226E+01  0.21613919528E+02  0.47954504504E+01  0.24166342154E+02  0.00000000000E+00 0. -1.
</event>
<event>
 7    1  0.3004200E-011  0.5052886E+02  0.7816164E-02  0.1300439E+00
        -11   -1    0    0    0    0  0.00000000000E+00  0.00000000000E+00  0.45593999997E+02  0.45594000000E+02  0.51100000000E-03 0.  1.
         11   -1    0    0    0    0 -0.00000000000E+00 -0.00000000000E+00 -0.45593999997E+02  0.45594000000E+02  0.51100000000E-03 0. -1.
    9900012    2    1    2    0    0  0.28728729172E+02 -0.12368978906E+02  0.25977569414E+02  0.50528860417E+02  0.30000001722E+02 0.  0.
         12    1    1    2    0    0 -0.28728729172E+02  0.12368978906E+02 -0.25977569414E+02  0.40659139583E+02  0.00000000000E+00 0. -1.
         11    1    3    3    0    0  0.56970523654E+01 -0.66067617983E+01 -0.16330894101E+01  0.88753979289E+01  0.51100000000E-03 0. -1.
        -11    1    3    3    0    0  0.18753569646E+02  0.17935802304E+01  0.27034973691E+02  0.32951526630E+02  0.51100000000E-03 0.  1.
        -12    1    3    3    0    0  0.42781071607E+01 -0.75557973382E+01  0.57568513228E+00  0.87019358574E+01  0.00000000000E+00 0.  1.
</event>
<event>
 7    1  0.3004200E-011  0.5052886E+02  0.7816164E-02  0.1300439E+00
        -11   -1    0    0    0    0  0.00000000000E+00  0.00000000000E+00  0.45593999997E+02  0.45594000000E+02  0.51100000000E-03 0.  1.
         11   -1    0    0    0    0 -0.00000000000E+00 -0.00000000000E+00 -0.45593999997E+02  0.45594000000E+02  0.51100000000E-03 0. -1.
    9900012    2    1    2    0    0  0.33098675126E+02  0.22484444680E+02 -0.72175362669E+01  0.50528863544E+02  0.30000011227E+02 0.  0.
         12    1    1    2    0    0 -0.33098675126E+02 -0.22484444680E+02  0.72175362669E+01  0.40659136456E+02  0.00000000000E+00 0. -1.
         11    1    3    3    0    0  0.11737339697E+02 -0.32979390888E+01  0.29258005190E+01  0.12538016363E+02  0.51100000000E-03 0.  1.
        -11    1    3    3    0    0  0.12589373687E+02  0.18759084981E+02 -0.13430719851E+02  0.26282690790E+02  0.51100000000E-03 0. -1.
         12    1    3    3    0    0  0.87719617415E+01  0.70232987871E+01  0.32873830650E+01  0.11708156390E+02  0.00000000000E+00 0. -1.
</event>
<event>
 7    1  0.3004200E-011  0.5052885E+02  0.7816164E-02  0.1300439E+00
        -11   -1    0    0    0    0  0.00000000000E+00  0.00000000000E+00  0.45593999997E+02  0.45594000000E+02  0.51100000000E-03 0. -1.
         11   -1    0    0    0    0 -0.00000000000E+00 -0.00000000000E+00 -0.45593999997E+02  0.45594000000E+02  0.51100000000E-03 0.  1.
    9900012    2    1    2    0    0 -0.35263653601E+02 -0.40148315464E+01 -0.19837407440E+02  0.50528845169E+02  0.29999955377E+02 0.  0.
         12    1    1    2    0    0  0.35263653601E+02  0.40148315464E+01  0.19837407440E+02  0.40659154831E+02  0.00000000000E+00 0. -1.
         11    1    3    3    0    0  0.58440527335E-01  0.17468723806E+01  0.44932171711E+01  0.48212010139E+01  0.51100000000E-03 0. -1.
        -11    1    3    3    0    0 -0.32504008168E+02 -0.10756180313E+01 -0.17414015664E+02  0.36890587457E+02  0.51100000000E-03 0.  1.
        -12    1    3    3    0    0 -0.28180859602E+01 -0.46860858958E+01 -0.69166089462E+01  0.88170566981E+01  0.00000000000E+00 0.  1.
</event>
<event>
 7    1  0.3004200E-011  0.5052887E+02  0.7816164E-02  0.1300439E+00
        -11   -1    0    0    0    0  0.00000000000E+00  0.00000000000E+00  0.45593999997E+02  0.45594000000E+02  0.51100000000E-03 0. -1.
         11   -1    0    0    0    0 -0.00000000000E+00 -0.00000000000E+00 -0.45593999997E+02  0.45594000000E+02  0.51100000000E-03 0.  1.
    9900012    2    1    2    0    0  0.98175804226E+01  0.19186758650E+02 -0.34476774156E+02  0.50528873730E+02  0.30000042191E+02 0.  0.
         12    1    1    2    0    0 -0.98175804226E+01 -0.19186758650E+02  0.34476774156E+02  0.40659126270E+02  0.00000000000E+00 0. -1.
         11    1    3    3    0    0  0.40680934919E+01 -0.33903921827E+01  0.18437198986E+01  0.56074456874E+01  0.51100000000E-03 0. -1.
        -11    1    3    3    0    0  0.16460961586E+01  0.20132466708E+02 -0.22197412154E+02  0.30012513305E+02  0.51100000000E-03 0.  1.
        -12    1    3    3    0    0  0.41033907721E+01  0.24446841245E+01 -0.14123081900E+02  0.14908914738E+02  0.00000000000E+00 0.  1.
</event>
<event>
 7    1  0.3004200E-011  0.5052886E+02  0.7816164E-02  0.1300439E+00
        -11   -1    0    0    0    0  0.00000000000E+00  0.00000000000E+00  0.45593999997E+02  0.45594000000E+02  0.51100000000E-03 0. -1.
         11   -1    0    0    0    0 -0.00000000000E+00 -0.00000000000E+00 -0.45593999997E+02  0.45594000000E+02  0.51100000000E-03 0.  1.
    9900012    2    1    2    0    0 -0.85438265963E+01  0.17862901936E+02 -0.35511769436E+02  0.50528855802E+02  0.29999987694E+02 0.  0.
         12    1    1    2    0    0  0.85438265963E+01 -0.17862901936E+02  0.35511769436E+02  0.40659144198E+02  0.00000000000E+00 0. -1.
         11    1    3    3    0    0 -0.27317893207E+00  0.65491757651E+01  0.71398102032E-01  0.65552595587E+01  0.51100000000E-03 0. -1.
        -11    1    3    3    0    0 -0.21788518674E+01  0.12329530711E+02 -0.35663165548E+02  0.37797170531E+02  0.51100000000E-03 0.  1.
        -12    1    3    3    0    0 -0.60917957968E+01 -0.10158045396E+01  0.79998010014E-01  0.61764257118E+01  0.00000000000E+00 0.  1.
</event>
<event>
 7    1  0.3004200E-011  0.5052886E+02  0.7816164E-02  0.1300439E+00
        -11   -1    0    0    0    0  0.00000000000E+00  0.00000000000E+00  0.45593999997E+02  0.45594000000E+02  0.51100000000E-03 0.  1.
         11   -1    0    0    0    0 -0.00000000000E+00 -0.00000000000E+00 -0.45593999997E+02  0.45594000000E+02  0.51100000000E-03 0. -1.
    9900012    2    1    2    0    0 -0.37683453797E+01  0.35653652106E+02  0.19177655700E+02  0.50528858180E+02  0.29999994923E+02 0.  0.
         12    1    1    2    0    0  0.37683453797E+01 -0.35653652106E+02 -0.19177655700E+02  0.40659141820E+02  0.00000000000E+00 0. -1.
         11    1    3    3    0    0  0.95436370150E+01  0.24264687419E+02  0.13611270683E+02  0.29412969127E+02  0.51100000000E-03 0.  1.
        -11    1    3    3    0    0 -0.99819382262E+01  0.83095579471E+01 -0.11201257010E+01  0.13036200592E+02  0.51100000000E-03 0. -1.
         12    1    3    3    0    0 -0.33300441685E+01  0.30794067406E+01  0.66865107176E+01  0.80796884602E+01  0.00000000000E+00 0. -1.
</event>
<event>
 7    1  0.3004200E-011  0.5052886E+02  0.7816164E-02  0.1300439E+00
        -11   -1    0    0    0    0  0.00000000000E+00  0.00000000000E+00  0.45593999997E+02  0.45594000000E+02  0.51100000000E-03 0.  1.
         11   -1    0    0    0    0 -0.00000000000E+00 -0.00000000000E+00 -0.45593999997E+02  0.45594000000E+02  0.51100000000E-03 0. -1.
    9900012    2    1    2    0    0  0.17554260292E+02  0.10877416751E+02  0.35024211851E+02  0.50528860002E+02  0.30000000463E+02 0.  0.
         12    1    1    2    0    0 -0.17554260292E+02 -0.10877416751E+02 -0.35024211851E+02  0.40659139998E+02  0.00000000000E+00 0. -1.
         11    1    3    3    0    0 -0.29721129076E+01  0.20110070240E+01  0.10570615853E+01  0.37409870144E+01  0.51100000000E-03 0. -1.
        -11    1    3    3    0    0  0.14224947861E+02  0.16697450397E+02  0.25577581142E+02  0.33695202162E+02  0.51100000000E-03 0.  1.
        -12    1    3    3    0    0  0.63014253387E+01 -0.78310406696E+01  0.83895691233E+01  0.13092670825E+02  0.00000000000E+00 0.  1.
</event>
<event>
 7    1  0.3004200E-011  0.5052886E+02  0.7816164E-02  0.1300439E+00
        -11   -1    0    0    0    0  0.00000000000E+00  0.00000000000E+00  0.45593999997E+02  0.45594000000E+02  0.51100000000E-03 0.  1.
         11   -1    0    0    0    0 -0.00000000000E+00 -0.00000000000E+00 -0.45593999997E+02  0.45594000000E+02  0.51100000000E-03 0. -1.
    9900012    2    1    2    0    0  0.33005795727E+02  0.68536883860E+01  0.22733452839E+02  0.50528862355E+02  0.30000007614E+02 0.  0.
         12    1    1    2    0    0 -0.33005795727E+02 -0.68536883860E+01 -0.22733452839E+02  0.40659137645E+02  0.00000000000E+00 0. -1.
         11    1    3    3    0    0  0.11145146491E+02  0.11006143342E+02  0.11503450480E+02  0.19433961377E+02  0.51100000000E-03 0. -1.
        -11    1    3    3    0    0  0.16628764084E+02 -0.66992102569E+01 -0.57177374196E+00  0.17936614466E+02  0.51100000000E-03 0.  1.
        -12    1    3    3    0    0  0.52318851517E+01  0.25467553007E+01  0.11801776101E+02  0.13158286513E+02  0.00000000000E+00 0.  1.
</event>
<event>
 7    1  0.3004200E-011  0.5052886E+02  0.7816164E-02  0.1300439E+00
        -11   -1    0    0    0    0  0.00000000000E+00  0.00000000000E+00  0.45593999997E+02  0.45594000000E+02  0.51100000000E-03 0.  1.
         11   -1    0    0    0    0 -0.00000000000E+00 -0.00000000000E+00 -0.45593999997E+02  0.45594000000E+02  0.51100000000E-03 0. -1.
    9900012    2    1    2    0    0 -0.13878854337E+01 -0.23371775071E+02  0.33241531324E+02  0.50528862027E+02  0.30000006617E+02 0.  0.
         12    1    1    2    0    0  0.13878854337E+01  0.23371775071E+02 -0.33241531324E+02  0.40659137973E+02  0.00000000000E+00 0. -1.
         11    1    3    3    0    0 -0.31173122085E+01  0.38622788996E+01 -0.18234703203E+01  0.52877100879E+01  0.51100000000E-03 0. -1.
        -11    1    3    3    0    0 -0.18164312122E+01 -0.17066751553E+02  0.26060201787E+02  0.31204287339E+02  0.51100000000E-03 0.  1.
        -12    1    3    3    0    0  0.35458579869E+01 -0.10167302417E+02  0.90047998575E+01  0.14036864600E+02  0.00000000000E+00 0.  1.
</event>
<event>
 7    1  0.3004200E-011  0.5052887E+02  0.7816164E-02  0.1300439E+00
        -11   -1    0    0    0    0  0.00000000000E+00  0.00000000000E+00  0.45593999997E+02  0.45594000000E+02  0.51100000000E-03 0.  1.
         11   -1    0    0    0    0 -0.00000000000E+00 -0.00000000000E+00 -0.45593999997E+02  0.45594000000E+02  0.51100000000E-03 0. -1.
    9900012    2    1    2    0    0 -0.34762657505E+02 -0.20880815273E+02  0.29519834882E+01  0.50528868064E+02  0.30000024967E+02 0.  0.
         12    1    1    2    0    0  0.34762657505E+02  0.20880815273E+02 -0.29519834882E+01  0.40659131936E+02  0.00000000000E+00 0. -1.
         11    1    3    3    0    0 -0.20038101485E+00 -0.80250475627E+01  0.77143274220E+01  0.11133390713E+02  0.51100000000E-03 0. -1.
        -11    1    3    3    0    0 -0.33544054525E+02 -0.14955820922E+02 -0.40203846465E+01  0.36946497350E+02  0.51100000000E-03 0.  1.
        -12    1    3    3    0    0 -0.10182219651E+01  0.21000532115E+01 -0.74195928725E+00  0.24489800010E+01  0.00000000000E+00 0.  1.
</event>
<event>
 7    1  0.3004200E-011  0.5052885E+02  0.7816164E-02  0.1300439E+00
        -11   -1    0    0    0    0  0.00000000000E+00  0.00000000000E+00  0.45593999997E+02  0.45594000000E+02  0.51100000000E-03 0.  1.
         11   -1    0    0    0    0 -0.00000000000E+00 -0.00000000000E+00 -0.45593999997E+02  0.45594000000E+02  0.51100000000E-03 0. -1.
    9900012    2    1    2    0    0  0.24183553862E+02  0.12038307695E+02  0.30387513425E+02  0.50528854636E+02  0.29999984151E+02 0.  0.
         12    1    1    2    0    0 -0.24183553862E+02 -0.12038307695E+02 -0.30387513425E+02  0.40659145364E+02  0.00000000000E+00 0. -1.
         11    1    3    3    0    0  0.27084727380E+02  0.74273826237E+01  0.24774810997E+02  0.37450497060E+02  0.51100000000E-03 0. -1.
        -11    1    3    3    0    0 -0.67483986387E+01  0.40174840500E+01  0.43938412734E+01  0.89992723970E+01  0.51100000000E-03 0.  1.
        -12    1    3    3    0    0  0.38472251213E+01  0.59344102174E+00  0.12188611546E+01  0.40790851786E+01  0.00000000000E+00 0.  1.
</event>
<event>
 7    1  0.3004200E-011  0.5052886E+02  0.7816164E-02  0.1300439E+00
        -11   -1    0    0    0    0  0.00000000000E+00  0.00000000000E+00  0.45593999997E+02  0.45594000000E+02  0.51100000000E-03 0.  1.
         11   -1    0    0    0    0 -0.00000000000E+00 -0.00000000000E+00 -0.45593999997E+02  0.45594000000E+02  0.51100000000E-03 0. -1.
    9900012    2    1    2    0    0 -0.38952530854E+02 -0.71279487425E+01 -0.92227196879E+01  0.50528857465E+02  0.29999992752E+02 0.  0.
         12    1    1    2    0    0  0.38952530854E+02  0.71279487425E+01  0.92227196879E+01  0.40659142535E+02  0.00000000000E+00 0. -1.
         11    1    3    3    0    0 -0.19969003152E+02  0.76709276348E+01 -0.43392993882E+01  0.21827362119E+02  0.51100000000E-03 0. -1.
        -11    1    3    3    0    0 -0.18205413905E+02 -0.16729767189E+02 -0.15526069288E+01  0.24773631025E+02  0.51100000000E-03 0.  1.
         12    1    3    3    0    0 -0.77811379767E+00  0.19308908119E+01 -0.33308133709E+01  0.39278643206E+01  0.00000000000E+00 0. -1.
</event>
<event>
 7    1  0.3004200E-011  0.5052886E+02  0.7816164E-02  0.1300439E+00
        -11   -1    0    0    0    0  0.00000000000E+00  0.00000000000E+00  0.45593999997E+02  0.45594000000E+02  0.51100000000E-03 0.  1.
         11   -1    0    0    0    0 -0.00000000000E+00 -0.00000000000E+00 -0.45593999997E+02  0.45594000000E+02  0.51100000000E-03 0. -1.
    9900012    2    1    2    0    0  0.11463320279E+02 -0.24959113887E+02  0.29980001407E+02  0.50528861271E+02  0.30000004318E+02 0.  0.
         12    1    1    2    0    0 -0.11463320279E+02  0.24959113887E+02 -0.29980001407E+02  0.40659138729E+02  0.00000000000E+00 0. -1.
         11    1    3    3    0    0 -0.18974943373E+01 -0.93612997221E+01 -0.11810128655E+00  0.95524010292E+01  0.51100000000E-03 0. -1.
        -11    1    3    3    0    0  0.96900217189E+01 -0.18767885858E+02  0.29208577138E+02  0.36045402469E+02  0.51100000000E-03 0.  1.
        -12    1    3    3    0    0  0.36707928973E+01  0.31700716935E+01  0.88952555592E+00  0.49310577721E+01  0.00000000000E+00 0.  1.
</event>
<event>
 7    1  0.3004200E-011  0.5052887E+02  0.7816164E-02  0.1300439E+00
        -11   -1    0    0    0    0  0.00000000000E+00  0.00000000000E+00  0.45593999997E+02  0.45594000000E+02  0.51100000000E-03 0.  1.
         11   -1    0    0    0    0 -0.00000000000E+00 -0.00000000000E+00 -0.45593999997E+02  0.45594000000E+02  0.51100000000E-03 0. -1.
    9900012    2    1    2    0    0  0.16619835321E+01 -0.26089264741E+02  0.31140860223E+02  0.50528866962E+02  0.30000021617E+02 0.  0.
         12    1    1    2    0    0 -0.16619835321E+01  0.26089264741E+02 -0.31140860223E+02  0.40659133038E+02  0.00000000000E+00 0. -1.
         11    1    3    3    0    0  0.62349527064E+01  0.14608222346E+01 -0.21584312092E+01  0.67577705198E+01  0.51100000000E-03 0. -1.
        -11    1    3    3    0    0 -0.27813848878E+01 -0.82132576855E+01  0.73990049666E+01  0.11399077965E+02  0.51100000000E-03 0.  1.
         12    1    3    3    0    0 -0.17915842865E+01 -0.19336829291E+02  0.25900286465E+02  0.32372018477E+02  0.00000000000E+00 0. -1.
</event>
<event>
 7    1  0.3004200E-011  0.5052883E+02  0.7816164E-02  0.1300439E+00
        -11   -1    0    0    0    0  0.00000000000E+00  0.00000000000E+00  0.45593999997E+02  0.45594000000E+02  0.51100000000E-03 0.  1.
         11   -1    0    0    0    0 -0.00000000000E+00 -0.00000000000E+00 -0.45593999997E+02  0.45594000000E+02  0.51100000000E-03 0. -1.
    9900012    2    1    2    0    0 -0.15360052232E+02 -0.27843228760E+01  0.37543097578E+02  0.50528833331E+02  0.29999919394E+02 0.  0.
         12    1    1    2    0    0  0.15360052232E+02  0.27843228760E+01 -0.37543097578E+02  0.40659166669E+02  0.00000000000E+00 0. -1.
         11    1    3    3    0    0 -0.57824777694E+01 -0.98523352117E+01  0.17599071193E+02  0.20981726940E+02  0.51100000000E-03 0. -1.
        -11    1    3    3    0    0 -0.48556080425E+01  0.12461222905E+02  0.17389051840E+02  0.21937140422E+02  0.51100000000E-03 0.  1.
        -12    1    3    3    0    0 -0.47219664200E+01 -0.53932105698E+01  0.25549745451E+01  0.76099659689E+01  0.00000000000E+00 0.  1.
</event>
<event>
 7    1  0.3004200E-011  0.5052886E+02  0.7816164E-02  0.1300439E+00
        -11   -1    0    0    0    0  0.00000000000E+00  0.00000000000E+00  0.45593999997E+02  0.45594000000E+02  0.51100000000E-03 0.  1.
         11   -1    0    0    0    0 -0.00000000000E+00 -0.00000000000E+00 -0.45593999997E+02  0.45594000000E+02  0.51100000000E-03 0. -1.
    9900012    2    1    2    0    0  0.24846987282E+02  0.32179144046E+01  0.32022453392E+02  0.50528864848E+02  0.30000015192E+02 0.  0.
         12    1    1    2    0    0 -0.24846987282E+02 -0.32179144046E+01 -0.32022453392E+02  0.40659135152E+02  0.00000000000E+00 0. -1.
         11    1    3    3    0    0 -0.34608808954E+01 -0.44038864216E+01  0.18450386727E+01  0.58971247360E+01  0.51100000000E-03 0. -1.
        -11    1    3    3    0    0  0.18658268044E+02  0.10466503346E+02  0.26172928104E+02  0.33803858131E+02  0.51100000000E-03 0.  1.
         12    1    3    3    0    0  0.96496001333E+01 -0.28447025200E+01  0.40044866144E+01  0.10827881981E+02  0.00000000000E+00 0. -1.
</event>
<event>
 7    1  0.3004200E-011  0.5052887E+02  0.7816164E-02  0.1300439E+00
        -11   -1    0    0    0    0  0.00000000000E+00  0.00000000000E+00  0.45593999997E+02  0.45594000000E+02  0.51100000000E-03 0.  1.
         11   -1    0    0    0    0 -0.00000000000E+00 -0.00000000000E+00 -0.45593999997E+02  0.45594000000E+02  0.51100000000E-03 0. -1.
    9900012    2    1    2    0    0  0.34966809425E+02 -0.18709485528E+02  0.89689567707E+01  0.50528870697E+02  0.30000032971E+02 0.  0.
         12    1    1    2    0    0 -0.34966809425E+02  0.18709485528E+02 -0.89689567707E+01  0.40659129303E+02  0.00000000000E+00 0. -1.
         11    1    3    3    0    0  0.21404449269E+01 -0.10742596793E+02  0.10064778818E+02  0.14875639928E+02  0.51100000000E-03 0. -1.
        -11    1    3    3    0    0  0.71325131461E+01  0.66911573083E+00  0.37984677655E+01  0.81085644394E+01  0.51100000000E-03 0.  1.
         12    1    3    3    0    0  0.25693851352E+02 -0.86360044662E+01 -0.48942898129E+01  0.27544666330E+02  0.00000000000E+00 0. -1.
</event>
<event>
 7    1  0.3004200E-011  0.5052886E+02  0.7816164E-02  0.1300439E+00
        -11   -1    0    0    0    0  0.00000000000E+00  0.00000000000E+00  0.45593999997E+02  0.45594000000E+02  0.51100000000E-03 0.  1.
         11   -1    0    0    0    0 -0.00000000000E+00 -0.00000000000E+00 -0.45593999997E+02  0.45594000000E+02  0.51100000000E-03 0. -1.
    9900012    2    1    2    0    0 -0.15063797519E+02  0.37750754507E+02  0.10620975647E+01  0.50528861878E+02  0.30000006165E+02 0.  0.
         12    1    1    2    0    0  0.15063797519E+02 -0.37750754507E+02 -0.10620975647E+01  0.40659138122E+02  0.00000000000E+00 0. -1.
         11    1    3    3    0    0 -0.15357905913E+02  0.16296352474E+02  0.47237478862E+01  0.22885588748E+02  0.51100000000E-03 0.  1.
        -11    1    3    3    0    0  0.49276546590E+01  0.21884599287E+01  0.36621190914E+01  0.65178411916E+01  0.51100000000E-03 0. -1.
        -12    1    3    3    0    0 -0.46335462648E+01  0.19265942105E+02 -0.73237694129E+01  0.21125431938E+02  0.00000000000E+00 0.  1.
</event>
<event>
 7    1  0.3004200E-011  0.5052890E+02  0.7816164E-02  0.1300439E+00
        -11   -1    0    0    0    0  0.00000000000E+00  0.00000000000E+00  0.45593999997E+02  0.45594000000E+02  0.51100000000E-03 0.  1.
         11   -1    0    0    0    0 -0.00000000000E+00 -0.00000000000E+00 -0.45593999997E+02  0.45594000000E+02  0.51100000000E-03 0. -1.
    9900012    2    1    2    0    0  0.25692765600E+02  0.97075427052E+01  0.29980122167E+02  0.50528901206E+02  0.30000125707E+02 0.  0.
         12    1    1    2    0    0 -0.25692765600E+02 -0.97075427052E+01 -0.29980122167E+02  0.40659098794E+02  0.00000000000E+00 0. -1.
         11    1    3    3    0    0  0.20492976265E+02  0.10320951795E+02  0.29676042556E+02  0.37512019730E+02  0.51100000000E-03 0.  1.
        -11    1    3    3    0    0  0.16893449290E+00  0.52201400314E+01 -0.61524443341E+00  0.52589853379E+01  0.51100000000E-03 0. -1.
        -12    1    3    3    0    0  0.50308548418E+01 -0.58335491215E+01  0.91932404422E+00  0.77578961382E+01  0.00000000000E+00 0.  1.
</event>
<event>
 7    1  0.3004200E-011  0.5052883E+02  0.7816164E-02  0.1300439E+00
        -11   -1    0    0    0    0  0.00000000000E+00  0.00000000000E+00  0.45593999997E+02  0.45594000000E+02  0.51100000000E-03 0.  1.
         11   -1    0    0    0    0 -0.00000000000E+00 -0.00000000000E+00 -0.45593999997E+02  0.45594000000E+02  0.51100000000E-03 0. -1.
    9900012    2    1    2    0    0 -0.38786402202E+02 -0.60784481614E+01  0.10575222481E+02  0.50528833035E+02  0.29999918492E+02 0.  0.
         12    1    1    2    0    0  0.38786402202E+02  0.60784481614E+01 -0.10575222481E+02  0.40659166965E+02  0.00000000000E+00 0. -1.
         11    1    3    3    0    0 -0.27990203600E+02 -0.12849720619E+02  0.15188771200E+02  0.34340436636E+02  0.51100000000E-03 0. -1.
        -11    1    3    3    0    0 -0.84282270631E+01  0.35651452549E+01  0.11051554722E+01  0.92177351337E+01  0.51100000000E-03 0.  1.
         12    1    3    3    0    0 -0.23679715385E+01  0.32061272028E+01 -0.57187041905E+01  0.69706612647E+01  0.00000000000E+00 0. -1.
</event>
<event>
 7    1  0.3004200E-011  0.5052886E+02  0.7816164E-02  0.1300439E+00
        -11   -1    0    0    0    0  0.00000000000E+00  0.00000000000E+00  0.45593999997E+02  0.45594000000E+02  0.51100000000E-03 0.  1.
         11   -1    0    0    0    0 -0.00000000000E+00 -0.00000000000E+00 -0.45593999997E+02  0.45594000000E+02  0.51100000000E-03 0. -1.
    9900012    2    1    2    0    0 -0.20675196526E+02 -0.88666767713E+01  0.33868631944E+02  0.50528856648E+02  0.29999990268E+02 0.  0.
         12    1    1    2    0    0  0.20675196526E+02  0.88666767713E+01 -0.33868631944E+02  0.40659143352E+02  0.00000000000E+00 0. -1.
         11    1    3    3    0    0 -0.14195512370E+02 -0.75224825905E+01  0.21581985998E+01  0.16209816077E+02  0.51100000000E-03 0. -1.
        -11    1    3    3    0    0 -0.76346763006E+01  0.25173174004E+01  0.26726264902E+02  0.27909109713E+02  0.51100000000E-03 0.  1.
        -12    1    3    3    0    0  0.11549921454E+01 -0.38615115812E+01  0.49841684427E+01  0.64099308587E+01  0.00000000000E+00 0.  1.
</event>
<event>
 7    1  0.3004200E-011  0.5052886E+02  0.7816164E-02  0.1300439E+00
        -11   -1    0    0    0    0  0.00000000000E+00  0.00000000000E+00  0.45593999997E+02  0.45594000000E+02  0.51100000000E-03 0.  1.
         11   -1    0    0    0    0 -0.00000000000E+00 -0.00000000000E+00 -0.45593999997E+02  0.45594000000E+02  0.51100000000E-03 0. -1.
    9900012    2    1    2    0    0  0.14450271023E+02 -0.37940398220E+02  0.22093815272E+01  0.50528861833E+02  0.30000006029E+02 0.  0.
         12    1    1    2    0    0 -0.14450271023E+02  0.37940398220E+02 -0.22093815272E+01  0.40659138167E+02  0.00000000000E+00 0. -1.
         11    1    3    3    0    0  0.96974631228E+01 -0.38883317247E+00 -0.33652926008E+01  0.10272155412E+02  0.51100000000E-03 0. -1.
        -11    1    3    3    0    0  0.29656926293E+01 -0.22706283588E+02 -0.28798800621E+01  0.23079522451E+02  0.51100000000E-03 0.  1.
         12    1    3    3    0    0  0.17871152712E+01 -0.14845281460E+02  0.84545541902E+01  0.17177183971E+02  0.00000000000E+00 0. -1.
</event>
<event>
 7    1  0.3004200E-011  0.5052886E+02  0.7816164E-02  0.1300439E+00
        -11   -1    0    0    0    0  0.00000000000E+00  0.00000000000E+00  0.45593999997E+02  0.45594000000E+02  0.51100000000E-03 0.  1.
         11   -1    0    0    0    0 -0.00000000000E+00 -0.00000000000E+00 -0.45593999997E+02  0.45594000000E+02  0.51100000000E-03 0. -1.
    9900012    2    1    2    0    0 -0.34434083704E+01  0.18180916577E+02  0.36204458382E+02  0.50528860861E+02  0.30000003073E+02 0.  0.
         12    1    1    2    0    0  0.34434083704E+01 -0.18180916577E+02 -0.36204458382E+02  0.40659139139E+02  0.00000000000E+00 0. -1.
         11    1    3    3    0    0 -0.42558778659E+01  0.33423981653E+01  0.22889730447E+01  0.58756718565E+01  0.51100000000E-03 0. -1.
        -11    1    3    3    0    0  0.21668467031E+01 -0.67057461367E+01  0.11831904258E+02  0.13771572696E+02  0.51100000000E-03 0.  1.
        -12    1    3    3    0    0 -0.13543772076E+01  0.21544264548E+02  0.22083581079E+02  0.30881616308E+02  0.00000000000E+00 0.  1.
</event>
<event>
 7    1  0.3004200E-011  0.5052886E+02  0.7816164E-02  0.1300439E+00
        -11   -1    0    0    0    0  0.00000000000E+00  0.00000000000E+00  0.45593999997E+02  0.45594000000E+02  0.51100000000E-03 0.  1.
         11   -1    0    0    0    0 -0.00000000000E+00 -0.00000000000E+00 -0.45593999997E+02  0.45594000000E+02  0.51100000000E-03 0. -1.
    9900012    2    1    2    0    0 -0.15186911207E+02  0.22916496489E+02  0.29955930304E+02  0.50528857808E+02  0.29999993794E+02 0.  0.
         12    1    1    2    0    0  0.15186911207E+02 -0.22916496489E+02 -0.29955930304E+02  0.40659142192E+02  0.00000000000E+00 0. -1.
         11    1    3    3    0    0 -0.66725599962E+01  0.47239625237E+01 -0.39728701686E+01  0.90896961702E+01  0.51100000000E-03 0. -1.
        -11    1    3    3    0    0 -0.10089515397E+02  0.17162455992E+02  0.23308819866E+02  0.30653699621E+02  0.51100000000E-03 0.  1.
         12    1    3    3    0    0  0.15751641856E+01  0.10300779733E+01  0.10619980606E+02  0.10785462017E+02  0.00000000000E+00 0. -1.
</event>
<event>
 7    1  0.3004200E-011  0.5052887E+02  0.7816164E-02  0.1300439E+00
        -11   -1    0    0    0    0  0.00000000000E+00  0.00000000000E+00  0.45593999997E+02  0.45594000000E+02  0.51100000000E-03 0.  1.
         11   -1    0    0    0    0 -0.00000000000E+00 -0.00000000000E+00 -0.45593999997E+02  0.45594000000E+02  0.51100000000E-03 0. -1.
    9900012    2    1    2    0    0  0.32657702918E+02  0.19364887957E+02 -0.14547854239E+02  0.50528874230E+02  0.30000043708E+02 0.  0.
         12    1    1    2    0    0 -0.32657702918E+02 -0.19364887957E+02  0.14547854239E+02  0.40659125770E+02  0.00000000000E+00 0. -1.
         11    1    3    3    0    0 -0.26910747115E+01  0.95865209069E+01 -0.56793119268E+01  0.11462890143E+02  0.51100000000E-03 0. -1.
        -11    1    3    3    0    0  0.34075614078E+02  0.80614729147E+01 -0.10292635475E+02  0.36497577531E+02  0.51100000000E-03 0.  1.
        -12    1    3    3    0    0  0.12731635511E+01  0.17168941359E+01  0.14240931624E+01  0.25684065560E+01  0.00000000000E+00 0.  1.
</event>
<event>
 7    1  0.3004200E-011  0.5052887E+02  0.7816164E-02  0.1300439E+00
        -11   -1    0    0    0    0  0.00000000000E+00  0.00000000000E+00  0.45593999997E+02  0.45594000000E+02  0.51100000000E-03 0. -1.
         11   -1    0    0    0    0 -0.00000000000E+00 -0.00000000000E+00 -0.45593999997E+02  0.45594000000E+02  0.51100000000E-03 0.  1.
    9900012    2    1    2    0    0  0.39530971347E+02 -0.85853501799E+01  0.40937709165E+01  0.50528869492E+02  0.30000029309E+02 0.  0.
         12    1    1    2    0    0 -0.39530971347E+02  0.85853501799E+01 -0.40937709165E+01  0.40659130508E+02  0.00000000000E+00 0. -1.
         11    1    3    3    0    0  0.11470288252E+02 -0.74895537725E+01  0.37001609135E+00  0.13703935218E+02  0.51100000000E-03 0. -1.
        -11    1    3    3    0    0  0.24748894141E+02  0.84516436614E+01  0.50419533196E+01  0.26633800617E+02  0.51100000000E-03 0.  1.
        -12    1    3    3    0    0  0.33117889534E+01 -0.95474400689E+01 -0.13181984945E+01  0.10191133657E+02  0.00000000000E+00 0.  1.
</event>
<event>
 7    1  0.3004200E-011  0.5052886E+02  0.7816164E-02  0.1300439E+00
        -11   -1    0    0    0    0  0.00000000000E+00  0.00000000000E+00  0.45593999997E+02  0.45594000000E+02  0.51100000000E-03 0.  1.
         11   -1    0    0    0    0 -0.00000000000E+00 -0.00000000000E+00 -0.45593999997E+02  0.45594000000E+02  0.51100000000E-03 0. -1.
    9900012    2    1    2    0    0 -0.17882750998E+02 -0.29491155161E+02  0.21532405275E+02  0.50528862123E+02  0.30000006908E+02 0.  0.
         12    1    1    2    0    0  0.17882750998E+02  0.29491155161E+02 -0.21532405275E+02  0.40659137877E+02  0.00000000000E+00 0. -1.
         11    1    3    3    0    0 -0.76350657339E+01 -0.10631026380E+02 -0.45599310064E+01  0.13860228053E+02  0.51100000000E-03 0. -1.
        -11    1    3    3    0    0 -0.12076148529E+02 -0.16205336239E+02  0.26598618039E+02  0.33405579890E+02  0.51100000000E-03 0.  1.
         12    1    3    3    0    0  0.18284632656E+01 -0.26547925431E+01 -0.50628175807E+00  0.32630541796E+01  0.00000000000E+00 0. -1.
</event>
<event>
 7    1  0.3004200E-011  0.5052886E+02  0.7816164E-02  0.1300439E+00
        -11   -1    0    0    0    0  0.00000000000E+00  0.00000000000E+00  0.45593999997E+02  0.45594000000E+02  0.51100000000E-03 0.  1.
         11   -1    0    0    0    0 -0.00000000000E+00 -0.00000000000E+00 -0.45593999997E+02  0.45594000000E+02  0.51100000000E-03 0. -1.
    9900012    2    1    2    0    0  0.13298072209E+02  0.83547057521E+01  0.37503676236E+02  0.50528861250E+02  0.30000004256E+02 0.  0.
         12    1    1    2    0    0 -0.13298072209E+02 -0.83547057521E+01 -0.37503676236E+02  0.40659138750E+02  0.00000000000E+00 0. -1.
         11    1    3    3    0    0 -0.66216214102E+01  0.44103844139E+00  0.78209991127E+01  0.10257115208E+02  0.51100000000E-03 0. -1.
        -11    1    3    3    0    0  0.17755382702E+02  0.28347279702E+01  0.11678389580E+02  0.21440011218E+02  0.51100000000E-03 0.  1.
        -12    1    3    3    0    0  0.21643109174E+01  0.50789393405E+01  0.18004287543E+02  0.18831734824E+02  0.00000000000E+00 0.  1.
</event>
<event>
 7    1  0.3004200E-011  0.5052885E+02  0.7816164E-02  0.1300439E+00
        -11   -1    0    0    0    0  0.00000000000E+00  0.00000000000E+00  0.45593999997E+02  0.45594000000E+02  0.51100000000E-03 0. -1.
         11   -1    0    0    0    0 -0.00000000000E+00 -0.00000000000E+00 -0.45593999997E+02  0.45594000000E+02  0.51100000000E-03 0.  1.
    9900012    2    1    2    0    0 -0.15403956275E+02  0.56937575082E+01 -0.37194966319E+02  0.50528852653E+02  0.29999978124E+02 0.  0.
         12    1    1    2    0    0  0.15403956275E+02 -0.56937575082E+01  0.37194966319E+02  0.40659147347E+02  0.00000000000E+00 0. -1.
         11    1    3    3    0    0 -0.12347569814E+01  0.11652463536E+02 -0.95554694611E+01  0.15119905031E+02  0.51100000000E-03 0. -1.
        -11    1    3    3    0    0 -0.90051279875E+01 -0.11283749952E+02 -0.15493402443E+02  0.21176894545E+02  0.51100000000E-03 0.  1.
         12    1    3    3    0    0 -0.51640713065E+01  0.53250439236E+01 -0.12146094415E+02  0.14232053077E+02  0.00000000000E+00 0. -1.
</event>
<event>
 7    1  0.3004200E-011  0.5052885E+02  0.7816164E-02  0.1300439E+00
        -11   -1    0    0    0    0  0.00000000000E+00  0.00000000000E+00  0.45593999997E+02  0.45594000000E+02  0.51100000000E-03 0. -1.
         11   -1    0    0    0    0 -0.00000000000E+00 -0.00000000000E+00 -0.45593999997E+02  0.45594000000E+02  0.51100000000E-03 0.  1.
    9900012    2    1    2    0    0  0.19235806326E+02 -0.30720611049E+02 -0.18422648638E+02  0.50528853784E+02  0.29999981560E+02 0.  0.
         12    1    1    2    0    0 -0.19235806326E+02  0.30720611049E+02  0.18422648638E+02  0.40659146216E+02  0.00000000000E+00 0. -1.
         11    1    3    3    0    0  0.61168214644E+01 -0.20004379203E+02 -0.22434988311E+02  0.30674409414E+02  0.51100000000E-03 0. -1.
        -11    1    3    3    0    0  0.22385292437E+01 -0.31716292867E+01 -0.29681438696E+01  0.48867293560E+01  0.51100000000E-03 0.  1.
         12    1    3    3    0    0  0.10880455618E+02 -0.75446025585E+01  0.69804835428E+01  0.14967715013E+02  0.00000000000E+00 0. -1.
</event>
<event>
 7    1  0.3004200E-011  0.5052884E+02  0.7816164E-02  0.1300439E+00
        -11   -1    0    0    0    0  0.00000000000E+00  0.00000000000E+00  0.45593999997E+02  0.45594000000E+02  0.51100000000E-03 0.  1.
         11   -1    0    0    0    0 -0.00000000000E+00 -0.00000000000E+00 -0.45593999997E+02  0.45594000000E+02  0.51100000000E-03 0. -1.
    9900012    2    1    2    0    0 -0.30636033088E+02 -0.10994728928E+02  0.24366299389E+02  0.50528841948E+02  0.29999945586E+02 0.  0.
         12    1    1    2    0    0  0.30636033088E+02  0.10994728928E+02 -0.24366299389E+02  0.40659158052E+02  0.00000000000E+00 0. -1.
         11    1    3    3    0    0 -0.12450897862E+02  0.13611060691E+01  0.13566803985E+02  0.18464442530E+02  0.51100000000E-03 0. -1.
        -11    1    3    3    0    0 -0.20827111099E+02 -0.14030803675E+02  0.51921807352E+01  0.25643532314E+02  0.51100000000E-03 0.  1.
        -12    1    3    3    0    0  0.26419758727E+01  0.16749686779E+01  0.56073146679E+01  0.64208671041E+01  0.00000000000E+00 0.  1.
</event>
<event>
 7    1  0.3004200E-011  0.5052886E+02  0.7816164E-02  0.1300439E+00
        -11   -1    0    0    0    0  0.00000000000E+00  0.00000000000E+00  0.45593999997E+02  0.45594000000E+02  0.51100000000E-03 0. -1.
         11   -1    0    0    0    0 -0.00000000000E+00 -0.00000000000E+00 -0.45593999997E+02  0.45594000000E+02  0.51100000000E-03 0.  1.
    9900012    2    1    2    0    0  0.23816227940E+02 -0.30239183419E+02 -0.13097513279E+02  0.50528858577E+02  0.29999996131E+02 0.  0.
         12    1    1    2    0    0 -0.23816227940E+02  0.30239183419E+02  0.13097513279E+02  0.40659141423E+02  0.00000000000E+00 0. -1.
         11    1    3    3    0    0  0.71486617195E+01 -0.29497085193E+01 -0.14762411583E+02  0.16665321501E+02  0.51100000000E-03 0. -1.
        -11    1    3    3    0    0  0.37971170051E+01 -0.54069881364E+01  0.49628423216E+01  0.82633783907E+01  0.51100000000E-03 0.  1.
         12    1    3    3    0    0  0.12870449216E+02 -0.21882486763E+02 -0.32979440169E+01  0.25600158685E+02  0.00000000000E+00 0. -1.
</event>
<event>
 7    1  0.3004200E-011  0.5052885E+02  0.7816164E-02  0.1300439E+00
        -11   -1    0    0    0    0  0.00000000000E+00  0.00000000000E+00  0.45593999997E+02  0.45594000000E+02  0.51100000000E-03 0.  1.
         11   -1    0    0    0    0 -0.00000000000E+00 -0.00000000000E+00 -0.45593999997E+02  0.45594000000E+02  0.51100000000E-03 0. -1.
    9900012    2    1    2    0    0 -0.60607697729E+01  0.37134952684E+01  0.40033033325E+02  0.50528846854E+02  0.29999960498E+02 0.  0.
         12    1    1    2    0    0  0.60607697729E+01 -0.37134952684E+01 -0.40033033325E+02  0.40659153146E+02  0.00000000000E+00 0. -1.
         11    1    3    3    0    0 -0.24383981627E+01 -0.97335657084E+01  0.53772638661E+01  0.11384333707E+02  0.51100000000E-03 0. -1.
        -11    1    3    3    0    0 -0.16938847371E+01  0.14526212489E+02  0.33700568341E+02  0.36737016776E+02  0.51100000000E-03 0.  1.
        -12    1    3    3    0    0 -0.19284868730E+01 -0.10791515124E+01  0.95520111739E+00  0.24074963719E+01  0.00000000000E+00 0.  1.
</event>
<event>
 7    1  0.3004200E-011  0.5052888E+02  0.7816164E-02  0.1300439E+00
        -11   -1    0    0    0    0  0.00000000000E+00  0.00000000000E+00  0.45593999997E+02  0.45594000000E+02  0.51100000000E-03 0.  1.
         11   -1    0    0    0    0 -0.00000000000E+00 -0.00000000000E+00 -0.45593999997E+02  0.45594000000E+02  0.51100000000E-03 0. -1.
    9900012    2    1    2    0    0 -0.37273640054E+02  0.17518060815E+01  0.16148403981E+02  0.50528880253E+02  0.30000062018E+02 0.  0.
         12    1    1    2    0    0  0.37273640054E+02 -0.17518060815E+01 -0.16148403981E+02  0.40659119747E+02  0.00000000000E+00 0. -1.
         11    1    3    3    0    0  0.24592096370E+01 -0.14105458114E+01 -0.16026947735E+01  0.32566827175E+01  0.51100000000E-03 0. -1.
        -11    1    3    3    0    0 -0.35915323640E+02 -0.88319106108E+00  0.20176384631E+02  0.41204089550E+02  0.51100000000E-03 0.  1.
        -12    1    3    3    0    0 -0.38175260508E+01  0.40455429540E+01 -0.24252858764E+01  0.60681079855E+01  0.00000000000E+00 0.  1.
</event>
<event>
 7    1  0.3004200E-011  0.5052886E+02  0.7816164E-02  0.1300439E+00
        -11   -1    0    0    0    0  0.00000000000E+00  0.00000000000E+00  0.45593999997E+02  0.45594000000E+02  0.51100000000E-03 0. -1.
         11   -1    0    0    0    0 -0.00000000000E+00 -0.00000000000E+00 -0.45593999997E+02  0.45594000000E+02  0.51100000000E-03 0.  1.
    9900012    2    1    2    0    0  0.18388212823E+02 -0.13579284054E+02 -0.33625028765E+02  0.50528857293E+02  0.29999992228E+02 0.  0.
         12    1    1    2    0    0 -0.18388212823E+02  0.13579284054E+02  0.33625028765E+02  0.40659142707E+02  0.00000000000E+00 0. -1.
         11    1    3    3    0    0 -0.63950761646E+01 -0.41205917029E+01 -0.10869959120E+01  0.76849095965E+01  0.51100000000E-03 0. -1.
        -11    1    3    3    0    0  0.70201645158E+01 -0.27341069760E+01 -0.39092888931E+01  0.84876728669E+01  0.51100000000E-03 0.  1.
         12    1    3    3    0    0  0.17763124472E+02 -0.67245853751E+01 -0.28628743960E+02  0.34356274830E+02  0.00000000000E+00 0. -1.
</event>
<event>
 7    1  0.3004200E-011  0.5052886E+02  0.7816164E-02  0.1300439E+00
        -11   -1    0    0    0    0  0.00000000000E+00  0.00000000000E+00  0.45593999997E+02  0.45594000000E+02  0.51100000000E-03 0.  1.
         11   -1    0    0    0    0 -0.00000000000E+00 -0.00000000000E+00 -0.45593999997E+02  0.45594000000E+02  0.51100000000E-03 0. -1.
    9900012    2    1    2    0    0  0.15896245933E+02  0.34634008032E+02  0.14176056986E+02  0.50528859099E+02  0.29999997718E+02 0.  0.
         12    1    1    2    0    0 -0.15896245933E+02 -0.34634008032E+02 -0.14176056986E+02  0.40659140901E+02  0.00000000000E+00 0. -1.
         11    1    3    3    0    0 -0.81144841512E+00 -0.67596528264E+00  0.77514952714E+00  0.13100513899E+01  0.51100000000E-03 0. -1.
        -11    1    3    3    0    0  0.88911201102E+00  0.15113647100E+02 -0.67701967290E+01  0.16584583590E+02  0.51100000000E-03 0.  1.
        -12    1    3    3    0    0  0.15818582337E+02  0.20196326214E+02  0.20171104188E+02  0.32634224119E+02  0.00000000000E+00 0.  1.
</event>
<event>
 7    1  0.3004200E-011  0.5052886E+02  0.7816164E-02  0.1300439E+00
        -11   -1    0    0    0    0  0.00000000000E+00  0.00000000000E+00  0.45593999997E+02  0.45594000000E+02  0.51100000000E-03 0.  1.
         11   -1    0    0    0    0 -0.00000000000E+00 -0.00000000000E+00 -0.45593999997E+02  0.45594000000E+02  0.51100000000E-03 0. -1.
    9900012    2    1    2    0    0  0.35481699036E+02 -0.19193721773E+02  0.50809442714E+01  0.50528856911E+02  0.29999991068E+02 0.  0.
         12    1    1    2    0    0 -0.35481699036E+02  0.19193721773E+02 -0.50809442714E+01  0.40659143089E+02  0.00000000000E+00 0. -1.
         11    1    3    3    0    0  0.82031932950E+01 -0.88251838948E+01 -0.81092281342E+01  0.14523630132E+02  0.51100000000E-03 0. -1.
        -11    1    3    3    0    0  0.28346799416E+02 -0.11413396328E+02  0.14674426259E+02  0.33899047762E+02  0.51100000000E-03 0.  1.
        -12    1    3    3    0    0 -0.10682936745E+01  0.10448584496E+01 -0.14842538532E+01  0.21061790179E+01  0.00000000000E+00 0.  1.
</event>
<event>
 7    1  0.3004200E-011  0.5052886E+02  0.7816164E-02  0.1300439E+00
        -11   -1    0    0    0    0  0.00000000000E+00  0.00000000000E+00  0.45593999997E+02  0.45594000000E+02  0.51100000000E-03 0. -1.
         11   -1    0    0    0    0 -0.00000000000E+00 -0.00000000000E+00 -0.45593999997E+02  0.45594000000E+02  0.51100000000E-03 0.  1.
    9900012    2    1    2    0    0  0.26115735994E+02  0.10590775712E+02 -0.29308182295E+02  0.50528859009E+02  0.29999997444E+02 0.  0.
         12    1    1    2    0    0 -0.26115735994E+02 -0.10590775712E+02  0.29308182295E+02  0.40659140991E+02  0.00000000000E+00 0. -1.
         11    1    3    3    0    0 -0.53268568788E+01  0.43779762723E+01 -0.10186519621E+02  0.12300701715E+02  0.51100000000E-03 0. -1.
        -11    1    3    3    0    0  0.66415045399E+01 -0.64729325846E+00 -0.98211370323E+00  0.67448586866E+01  0.51100000000E-03 0.  1.
         12    1    3    3    0    0  0.24801088333E+02  0.68600926983E+01 -0.18139548971E+02  0.31483298607E+02  0.00000000000E+00 0. -1.
</event>
<event>
 7    1  0.3004200E-011  0.5052886E+02  0.7816164E-02  0.1300439E+00
        -11   -1    0    0    0    0  0.00000000000E+00  0.00000000000E+00  0.45593999997E+02  0.45594000000E+02  0.51100000000E-03 0.  1.
         11   -1    0    0    0    0 -0.00000000000E+00 -0.00000000000E+00 -0.45593999997E+02  0.45594000000E+02  0.51100000000E-03 0. -1.
    9900012    2    1    2    0    0  0.10355946072E+02 -0.56492190595E+01  0.38910234939E+02  0.50528859847E+02  0.29999999990E+02 0.  0.
         12    1    1    2    0    0 -0.10355946072E+02  0.56492190595E+01 -0.38910234939E+02  0.40659140153E+02  0.00000000000E+00 0. -1.
         11    1    3    3    0    0 -0.43706840303E+01 -0.43866669242E+01  0.13126510046E+01  0.63299904042E+01  0.51100000000E-03 0. -1.
        -11    1    3    3    0    0  0.14714520749E+02 -0.77769377520E+01  0.28608108458E+02  0.33097156244E+02  0.51100000000E-03 0.  1.
        -12    1    3    3    0    0  0.12109353169E-01  0.65143856167E+01  0.89894754765E+01  0.11101713198E+02  0.00000000000E+00 0.  1.
</event>
<event>
 7    1  0.3004200E-011  0.5052886E+02  0.7816164E-02  0.1300439E+00
        -11   -1    0    0    0    0  0.00000000000E+00  0.00000000000E+00  0.45593999997E+02  0.45594000000E+02  0.51100000000E-03 0.  1.
         11   -1    0    0    0    0 -0.00000000000E+00 -0.00000000000E+00 -0.45593999997E+02  0.45594000000E+02  0.51100000000E-03 0. -1.
    9900012    2    1    2    0    0  0.31527563263E+02 -0.16722280602E+02  0.19481877398E+02  0.50528862518E+02  0.30000008109E+02 0.  0.
         12    1    1    2    0    0 -0.31527563263E+02  0.16722280602E+02 -0.19481877398E+02  0.40659137482E+02  0.00000000000E+00 0. -1.
         11    1    3    3    0    0  0.40411713097E+01  0.69916928998E+01  0.84975908285E+01  0.11722793409E+02  0.51100000000E-03 0. -1.
        -11    1    3    3    0    0  0.99980056844E+01 -0.58141504335E+01  0.22934511783E+00  0.11567932502E+02  0.51100000000E-03 0.  1.
         12    1    3    3    0    0  0.17488386269E+02 -0.17899823068E+02  0.10754941452E+02  0.27238136607E+02  0.00000000000E+00 0. -1.
</event>
<event>
 7    1  0.3004200E-011  0.5052886E+02  0.7816164E-02  0.1300439E+00
        -11   -1    0    0    0    0  0.00000000000E+00  0.00000000000E+00  0.45593999997E+02  0.45594000000E+02  0.51100000000E-03 0. -1.
         11   -1    0    0    0    0 -0.00000000000E+00 -0.00000000000E+00 -0.45593999997E+02  0.45594000000E+02  0.51100000000E-03 0.  1.
    9900012    2    1    2    0    0  0.80708215088E+01 -0.34794368308E+02 -0.19426254989E+02  0.50528860699E+02  0.30000002580E+02 0.  0.
         12    1    1    2    0    0 -0.80708215088E+01  0.34794368308E+02  0.19426254989E+02  0.40659139301E+02  0.00000000000E+00 0. -1.
         11    1    3    3    0    0  0.50308829349E+01 -0.83840501316E+00 -0.46568080805E+01  0.69064149767E+01  0.51100000000E-03 0. -1.
        -11    1    3    3    0    0 -0.11067978966E+01 -0.19445112502E+02  0.36440211107E+01  0.19814547482E+02  0.51100000000E-03 0.  1.
        -12    1    3    3    0    0  0.41467364705E+01 -0.14510850794E+02 -0.18413468020E+02  0.23807898240E+02  0.00000000000E+00 0.  1.
</event>
<event>
 7    1  0.3004200E-011  0.5052886E+02  0.7816164E-02  0.1300439E+00
        -11   -1    0    0    0    0  0.00000000000E+00  0.00000000000E+00  0.45593999997E+02  0.45594000000E+02  0.51100000000E-03 0.  1.
         11   -1    0    0    0    0 -0.00000000000E+00 -0.00000000000E+00 -0.45593999997E+02  0.45594000000E+02  0.51100000000E-03 0. -1.
    9900012    2    1    2    0    0  0.20865854485E+02 -0.73336735717E+01  0.34117431718E+02  0.50528858365E+02  0.29999995485E+02 0.  0.
         12    1    1    2    0    0 -0.20865854485E+02  0.73336735717E+01 -0.34117431718E+02  0.40659141635E+02  0.00000000000E+00 0. -1.
         11    1    3    3    0    0  0.26181349474E+02 -0.45172975307E+01  0.17381863050E+02  0.31748987395E+02  0.51100000000E-03 0. -1.
        -11    1    3    3    0    0 -0.12513016870E+01 -0.37398893543E+01  0.11032694037E+02  0.11716350381E+02  0.51100000000E-03 0.  1.
         12    1    3    3    0    0 -0.40641933016E+01  0.92351331323E+00  0.57028746317E+01  0.70635205881E+01  0.00000000000E+00 0. -1.
</event>
<event>
 7    1  0.3004200E-011  0.5052886E+02  0.7816164E-02  0.1300439E+00
        -11   -1    0    0    0    0  0.00000000000E+00  0.00000000000E+00  0.45593999997E+02  0.45594000000E+02  0.51100000000E-03 0.  1.
         11   -1    0    0    0    0 -0.00000000000E+00 -0.00000000000E+00 -0.45593999997E+02  0.45594000000E+02  0.51100000000E-03 0. -1.
    9900012    2    1    2    0    0 -0.26205487768E+01  0.17114354752E+02  0.36788543892E+02  0.50528863558E+02  0.30000011272E+02 0.  0.
         12    1    1    2    0    0  0.26205487768E+01 -0.17114354752E+02 -0.36788543892E+02  0.40659136442E+02  0.00000000000E+00 0. -1.
         11    1    3    3    0    0  0.52994470688E+01  0.10661111899E+02  0.14425129446E+01  0.11992676516E+02  0.51100000000E-03 0. -1.
        -11    1    3    3    0    0 -0.10740742235E+02  0.41522029804E+01  0.23982891803E+02  0.26604199534E+02  0.51100000000E-03 0.  1.
        -12    1    3    3    0    0  0.28207463893E+01  0.23010398732E+01  0.11363139145E+02  0.11931987509E+02  0.00000000000E+00 0.  1.
</event>
<event>
 7    1  0.3004200E-011  0.5052887E+02  0.7816164E-02  0.1300439E+00
        -11   -1    0    0    0    0  0.00000000000E+00  0.00000000000E+00  0.45593999997E+02  0.45594000000E+02  0.51100000000E-03 0.  1.
         11   -1    0    0    0    0 -0.00000000000E+00 -0.00000000000E+00 -0.45593999997E+02  0.45594000000E+02  0.51100000000E-03 0. -1.
    9900012    2    1    2    0    0 -0.15008537776E+02  0.33923862199E+02 -0.16645721437E+02  0.50528872183E+02  0.30000037488E+02 0.  0.
         12    1    1    2    0    0  0.15008537776E+02 -0.33923862199E+02  0.16645721437E+02  0.40659127817E+02  0.00000000000E+00 0. -1.
         11    1    3    3    0    0 -0.14660815954E+02  0.22442121535E+02  0.32987137712E+01  0.27008699639E+02  0.51100000000E-03 0. -1.
        -11    1    3    3    0    0 -0.10114475431E+01  0.19660244378E+01 -0.12678700552E+01  0.25486806313E+01  0.51100000000E-03 0.  1.
         12    1    3    3    0    0  0.66372572059E+00  0.95157162266E+01 -0.18676565153E+02  0.20971491913E+02  0.00000000000E+00 0. -1.
</event>
<event>
 7    1  0.3004200E-011  0.5052886E+02  0.7816164E-02  0.1300439E+00
        -11   -1    0    0    0    0  0.00000000000E+00  0.00000000000E+00  0.45593999997E+02  0.45594000000E+02  0.51100000000E-03 0. -1.
         11   -1    0    0    0    0 -0.00000000000E+00 -0.00000000000E+00 -0.45593999997E+02  0.45594000000E+02  0.51100000000E-03 0.  1.
    9900012    2    1    2    0    0  0.19847527664E+01 -0.38794748435E+02 -0.12008068860E+02  0.50528862436E+02  0.30000007861E+02 0.  0.
         12    1    1    2    0    0 -0.19847527664E+01  0.38794748435E+02  0.12008068860E+02  0.40659137564E+02  0.00000000000E+00 0. -1.
         11    1    3    3    0    0  0.60547359577E+01 -0.28628805577E+02 -0.33967544261E+01  0.29458551852E+02  0.51100000000E-03 0. -1.
        -11    1    3    3    0    0 -0.48231493826E+01  0.27058217420E+01 -0.55144713849E+01  0.78098422636E+01  0.51100000000E-03 0.  1.
        -12    1    3    3    0    0  0.75316619127E+00 -0.12871764600E+02 -0.30968430490E+01  0.13260468321E+02  0.00000000000E+00 0.  1.
</event>
<event>
 7    1  0.3004200E-011  0.5052886E+02  0.7816164E-02  0.1300439E+00
        -11   -1    0    0    0    0  0.00000000000E+00  0.00000000000E+00  0.45593999997E+02  0.45594000000E+02  0.51100000000E-03 0.  1.
         11   -1    0    0    0    0 -0.00000000000E+00 -0.00000000000E+00 -0.45593999997E+02  0.45594000000E+02  0.51100000000E-03 0. -1.
    9900012    2    1    2    0    0  0.29193562472E+02  0.22766398331E+02  0.16810485977E+02  0.50528863001E+02  0.30000009576E+02 0.  0.
         12    1    1    2    0    0 -0.29193562472E+02 -0.22766398331E+02 -0.16810485977E+02  0.40659136999E+02  0.00000000000E+00 0. -1.
         11    1    3    3    0    0  0.36396196104E+01  0.14758970576E+02  0.14342732191E+01  0.15268633970E+02  0.51100000000E-03 0. -1.
        -11    1    3    3    0    0  0.23237235090E+02  0.12623649675E+02  0.11681955493E+02  0.28910097028E+02  0.51100000000E-03 0.  1.
        -12    1    3    3    0    0  0.23167077715E+01 -0.46162219203E+01  0.36942572647E+01  0.63501320029E+01  0.00000000000E+00 0.  1.
</event>
<event>
 7    1  0.3004200E-011  0.5052887E+02  0.7816164E-02  0.1300439E+00
        -11   -1    0    0    0    0  0.00000000000E+00  0.00000000000E+00  0.45593999997E+02  0.45594000000E+02  0.51100000000E-03 0. -1.
         11   -1    0    0    0    0 -0.00000000000E+00 -0.00000000000E+00 -0.45593999997E+02  0.45594000000E+02  0.51100000000E-03 0.  1.
    9900012    2    1    2    0    0  0.21295488034E+02  0.30585484627E+02 -0.16254089699E+02  0.50528866802E+02  0.30000021130E+02 0.  0.
         12    1    1    2    0    0 -0.21295488034E+02 -0.30585484627E+02  0.16254089699E+02  0.40659133198E+02  0.00000000000E+00 0. -1.
         11    1    3    3    0    0 -0.18960613485E+00  0.80785464942E+01 -0.75886749290E+01  0.11085434199E+02  0.51100000000E-03 0. -1.
        -11    1    3    3    0    0  0.25626969299E+02  0.22111128499E+02 -0.56756628604E+01  0.34319917076E+02  0.51100000000E-03 0.  1.
         12    1    3    3    0    0 -0.41418751307E+01  0.39580963435E+00 -0.29897519096E+01  0.51235155261E+01  0.00000000000E+00 0. -1.
</event>
<event>
 7    1  0.3004200E-011  0.5052889E+02  0.7816164E-02  0.1300439E+00
        -11   -1    0    0    0    0  0.00000000000E+00  0.00000000000E+00  0.45593999997E+02  0.45594000000E+02  0.51100000000E-03 0.  1.
         11   -1    0    0    0    0 -0.00000000000E+00 -0.00000000000E+00 -0.45593999997E+02  0.45594000000E+02  0.51100000000E-03 0. -1.
    9900012    2    1    2    0    0  0.38945421212E+01  0.36941312853E+02  0.16532851775E+02  0.50528889810E+02  0.30000091066E+02 0.  0.
         12    1    1    2    0    0 -0.38945421212E+01 -0.36941312853E+02 -0.16532851775E+02  0.40659110190E+02  0.00000000000E+00 0. -1.
         11    1    3    3    0    0  0.39066038079E+01  0.25777524235E+02  0.33797849615E+00  0.26074058732E+02  0.51100000000E-03 0. -1.
        -11    1    3    3    0    0 -0.63885566486E+01  0.69485748815E+01  0.13239067317E+02  0.16259435802E+02  0.51100000000E-03 0.  1.
         12    1    3    3    0    0  0.63764949619E+01  0.42152137363E+01  0.29558059624E+01  0.81953952759E+01  0.00000000000E+00 0. -1.
</event>
<event>
 7    1  0.3004200E-011  0.5052886E+02  0.7816164E-02  0.1300439E+00
        -11   -1    0    0    0    0  0.00000000000E+00  0.00000000000E+00  0.45593999997E+02  0.45594000000E+02  0.51100000000E-03 0.  1.
         11   -1    0    0    0    0 -0.00000000000E+00 -0.00000000000E+00 -0.45593999997E+02  0.45594000000E+02  0.51100000000E-03 0. -1.
    9900012    2    1    2    0    0  0.12722451620E+02  0.44837054320E+01  0.38356244111E+02  0.50528857708E+02  0.29999993491E+02 0.  0.
         12    1    1    2    0    0 -0.12722451620E+02 -0.44837054320E+01 -0.38356244111E+02  0.40659142292E+02  0.00000000000E+00 0. -1.
         11    1    3    3    0    0  0.10493837767E+02  0.83404695293E+01  0.15542623404E+02  0.20524551288E+02  0.51100000000E-03 0. -1.
        -11    1    3    3    0    0  0.62007632182E+01 -0.96244529090E+01  0.91711539691E+01  0.14669342987E+02  0.51100000000E-03 0.  1.
        -12    1    3    3    0    0 -0.39721493654E+01  0.57676888117E+01  0.13642466738E+02  0.15334963433E+02  0.00000000000E+00 0.  1.
</event>
<event>
 7    1  0.3004200E-011  0.5052886E+02  0.7816164E-02  0.1300439E+00
        -11   -1    0    0    0    0  0.00000000000E+00  0.00000000000E+00  0.45593999997E+02  0.45594000000E+02  0.51100000000E-03 0.  1.
         11   -1    0    0    0    0 -0.00000000000E+00 -0.00000000000E+00 -0.45593999997E+02  0.45594000000E+02  0.51100000000E-03 0. -1.
    9900012    2    1    2    0    0  0.11434393969E+02 -0.22095705169E+02  0.32158979102E+02  0.50528862168E+02  0.30000007046E+02 0.  0.
         12    1    1    2    0    0 -0.11434393969E+02  0.22095705169E+02 -0.32158979102E+02  0.40659137832E+02  0.00000000000E+00 0. -1.
         11    1    3    3    0    0 -0.83204922276E+01 -0.10286641867E+02  0.76955516672E+01  0.15305786734E+02  0.51100000000E-03 0.  1.
        -11    1    3    3    0    0  0.14226710929E+02 -0.13329285280E+02  0.20239711720E+02  0.28101869701E+02  0.51100000000E-03 0. -1.
         12    1    3    3    0    0  0.55281752677E+01  0.15202219786E+01  0.42237157150E+01  0.71212057333E+01  0.00000000000E+00 0. -1.
</event>
<event>
 7    1  0.3004200E-011  0.5052887E+02  0.7816164E-02  0.1300439E+00
        -11   -1    0    0    0    0  0.00000000000E+00  0.00000000000E+00  0.45593999997E+02  0.45594000000E+02  0.51100000000E-03 0. -1.
         11   -1    0    0    0    0 -0.00000000000E+00 -0.00000000000E+00 -0.45593999997E+02  0.45594000000E+02  0.51100000000E-03 0.  1.
    9900012    2    1    2    0    0  0.19104704756E+02  0.34487781765E+02 -0.99382029923E+01  0.50528871706E+02  0.30000036038E+02 0.  0.
         12    1    1    2    0    0 -0.19104704756E+02 -0.34487781765E+02  0.99382029923E+01  0.40659128294E+02  0.00000000000E+00 0. -1.
         11    1    3    3    0    0  0.18846187110E+02  0.63476599106E+01  0.17080992764E+00  0.19887200186E+02  0.51100000000E-03 0.  1.
        -11    1    3    3    0    0 -0.25739266433E+01  0.12190046664E+02 -0.64688547004E+01  0.14038105906E+02  0.51100000000E-03 0. -1.
        -12    1    3    3    0    0  0.28324442889E+01  0.15950075191E+02 -0.36401582196E+01  0.16603565614E+02  0.00000000000E+00 0.  1.
</event>
<event>
 7    1  0.3004200E-011  0.5052887E+02  0.7816164E-02  0.1300439E+00
        -11   -1    0    0    0    0  0.00000000000E+00  0.00000000000E+00  0.45593999997E+02  0.45594000000E+02  0.51100000000E-03 0. -1.
         11   -1    0    0    0    0 -0.00000000000E+00 -0.00000000000E+00 -0.45593999997E+02  0.45594000000E+02  0.51100000000E-03 0.  1.
    9900012    2    1    2    0    0  0.24405772685E+02 -0.15928828132E+02 -0.28351294634E+02  0.50528865560E+02  0.30000017357E+02 0.  0.
         12    1    1    2    0    0 -0.24405772685E+02  0.15928828132E+02  0.28351294634E+02  0.40659134440E+02  0.00000000000E+00 0. -1.
         11    1    3    3    0    0 -0.11722145195E+01  0.31551862205E+01  0.36542973976E+01  0.49682166516E+01  0.51100000000E-03 0. -1.
        -11    1    3    3    0    0  0.13333056094E+02 -0.12465112257E+02 -0.15305401402E+02  0.23820258620E+02  0.51100000000E-03 0.  1.
         12    1    3    3    0    0  0.12244931110E+02 -0.66189020946E+01 -0.16700190629E+02  0.21740390288E+02  0.00000000000E+00 0. -1.
</event>
<event>
 7    1  0.3004200E-011  0.5052881E+02  0.7816164E-02  0.1300439E+00
        -11   -1    0    0    0    0  0.00000000000E+00  0.00000000000E+00  0.45593999997E+02  0.45594000000E+02  0.51100000000E-03 0. -1.
         11   -1    0    0    0    0 -0.00000000000E+00 -0.00000000000E+00 -0.45593999997E+02  0.45594000000E+02  0.51100000000E-03 0.  1.
    9900012    2    1    2    0    0 -0.18918444357E+02  0.28711726125E+02  0.21700210632E+02  0.50528807984E+02  0.29999842347E+02 0.  0.
         12    1    1    2    0    0  0.18918444357E+02 -0.28711726125E+02 -0.21700210632E+02  0.40659192016E+02  0.00000000000E+00 0. -1.
         11    1    3    3    0    0  0.39943865071E+01  0.12569981683E+01  0.22586818685E+01  0.47578158863E+01  0.51100000000E-03 0. -1.
        -11    1    3    3    0    0 -0.26617860194E+02  0.26595826809E+02  0.17875483414E+02  0.41657909123E+02  0.51100000000E-03 0.  1.
        -12    1    3    3    0    0  0.37050293303E+01  0.85890114768E+00  0.15660453494E+01  0.41130829746E+01  0.00000000000E+00 0.  1.
</event>
<event>
 7    1  0.3004200E-011  0.5052888E+02  0.7816164E-02  0.1300439E+00
        -11   -1    0    0    0    0  0.00000000000E+00  0.00000000000E+00  0.45593999997E+02  0.45594000000E+02  0.51100000000E-03 0.  1.
         11   -1    0    0    0    0 -0.00000000000E+00 -0.00000000000E+00 -0.45593999997E+02  0.45594000000E+02  0.51100000000E-03 0. -1.
    9900012    2    1    2    0    0  0.10351792488E+02  0.38082234663E+02  0.97850867356E+01  0.50528878919E+02  0.30000057962E+02 0.  0.
         12    1    1    2    0    0 -0.10351792488E+02 -0.38082234663E+02 -0.97850867356E+01  0.40659121081E+02  0.00000000000E+00 0. -1.
         11    1    3    3    0    0 -0.29453685281E+01 -0.37394772881E+00 -0.51253260909E+00  0.30129259212E+01  0.51100000000E-03 0. -1.
        -11    1    3    3    0    0  0.14478846072E+02  0.16954722560E+02  0.13006740657E+02  0.25812301397E+02  0.51100000000E-03 0.  1.
        -12    1    3    3    0    0 -0.11816850559E+01  0.21501459833E+02 -0.27091213120E+01  0.21703651600E+02  0.00000000000E+00 0.  1.
</event>
<event>
 7    1  0.3157595E-011  0.5052886E+02  0.7816164E-02  0.1300439E+00
        -11   -1    0    0    0    0  0.00000000000E+00  0.00000000000E+00  0.45593999997E+02  0.45594000000E+02  0.51100000000E-03 0. -1.
         11   -1    0    0    0    0 -0.00000000000E+00 -0.00000000000E+00 -0.45593999997E+02  0.45594000000E+02  0.51100000000E-03 0.  1.
    9900012    2    1    2    0    0 -0.17111297983E+02 -0.23036777613E+02 -0.28804090966E+02  0.50528864522E+02  0.30000014201E+02 0.  0.
         12    1    1    2    0    0  0.17111297983E+02  0.23036777613E+02  0.28804090966E+02  0.40659135478E+02  0.00000000000E+00 0. -1.
         11    1    3    3    0    0  0.14555138942E+01 -0.25489803973E+01  0.36355767077E+01  0.46726052713E+01  0.51100000000E-03 0. -1.
        -11    1    3    3    0    0 -0.39131819286E+01 -0.12896359864E+02 -0.23492397063E+02  0.27083607783E+02  0.51100000000E-03 0.  1.
        -12    1    3    3    0    0 -0.14653629949E+02 -0.75914373518E+01 -0.89472706108E+01  0.18772651468E+02  0.00000000000E+00 0.  1.
</event>
<event>
 7    1  0.3004200E-011  0.5052886E+02  0.7816164E-02  0.1300439E+00
        -11   -1    0    0    0    0  0.00000000000E+00  0.00000000000E+00  0.45593999997E+02  0.45594000000E+02  0.51100000000E-03 0.  1.
         11   -1    0    0    0    0 -0.00000000000E+00 -0.00000000000E+00 -0.45593999997E+02  0.45594000000E+02  0.51100000000E-03 0. -1.
    9900012    2    1    2    0    0 -0.11654210243E+01 -0.14828519527E+02  0.37840755759E+02  0.50528855961E+02  0.29999988179E+02 0.  0.
         12    1    1    2    0    0  0.11654210243E+01  0.14828519527E+02 -0.37840755759E+02  0.40659144039E+02  0.00000000000E+00 0. -1.
         11    1    3    3    0    0 -0.40707699393E+01 -0.33725062931E+01  0.30158069655E+02  0.30617872757E+02  0.51100000000E-03 0. -1.
        -11    1    3    3    0    0  0.56958952407E+01 -0.24472859062E+00  0.59289159101E+01  0.82252756067E+01  0.51100000000E-03 0.  1.
         12    1    3    3    0    0 -0.27905463257E+01 -0.11211284644E+02  0.17537701948E+01  0.11685707598E+02  0.00000000000E+00 0. -1.
</event>
<event>
 7    1  0.3004200E-011  0.5052886E+02  0.7816164E-02  0.1300439E+00
        -11   -1    0    0    0    0  0.00000000000E+00  0.00000000000E+00  0.45593999997E+02  0.45594000000E+02  0.51100000000E-03 0. -1.
         11   -1    0    0    0    0 -0.00000000000E+00 -0.00000000000E+00 -0.45593999997E+02  0.45594000000E+02  0.51100000000E-03 0.  1.
    9900012    2    1    2    0    0 -0.14637145243E+02  0.37243831724E+02 -0.71984042164E+01  0.50528855327E+02  0.29999986251E+02 0.  0.
         12    1    1    2    0    0  0.14637145243E+02 -0.37243831724E+02  0.71984042164E+01  0.40659144673E+02  0.00000000000E+00 0. -1.
         11    1    3    3    0    0 -0.60740681137E+01  0.13004436965E+02  0.75361224287E+01  0.16211194458E+02  0.51100000000E-03 0. -1.
        -11    1    3    3    0    0  0.42714967588E+01  0.10776930435E+02 -0.95194971621E+01  0.15000291352E+02  0.51100000000E-03 0.  1.
         12    1    3    3    0    0 -0.12834573888E+02  0.13462464324E+02 -0.52150294830E+01  0.19317369517E+02  0.00000000000E+00 0. -1.
</event>
<event>
 7    1  0.3004200E-011  0.5052884E+02  0.7816164E-02  0.1300439E+00
        -11   -1    0    0    0    0  0.00000000000E+00  0.00000000000E+00  0.45593999997E+02  0.45594000000E+02  0.51100000000E-03 0.  1.
         11   -1    0    0    0    0 -0.00000000000E+00 -0.00000000000E+00 -0.45593999997E+02  0.45594000000E+02  0.51100000000E-03 0. -1.
    9900012    2    1    2    0    0 -0.36067423013E+01  0.37103994198E+02  0.16231210166E+02  0.50528841636E+02  0.29999944635E+02 0.  0.
         12    1    1    2    0    0  0.36067423013E+01 -0.37103994198E+02 -0.16231210166E+02  0.40659158364E+02  0.00000000000E+00 0. -1.
         11    1    3    3    0    0  0.86635128977E+00 -0.15652791674E+01 -0.37962114553E+01  0.41966516539E+01  0.51100000000E-03 0. -1.
        -11    1    3    3    0    0 -0.84537533440E+01  0.25193507123E+02  0.77721973764E+01  0.27687285874E+02  0.51100000000E-03 0.  1.
         12    1    3    3    0    0  0.39806597529E+01  0.13475766242E+02  0.12255224245E+02  0.18644904107E+02  0.00000000000E+00 0. -1.
</event>
<event>
 7    1  0.3004200E-011  0.5052887E+02  0.7816164E-02  0.1300439E+00
        -11   -1    0    0    0    0  0.00000000000E+00  0.00000000000E+00  0.45593999997E+02  0.45594000000E+02  0.51100000000E-03 0. -1.
         11   -1    0    0    0    0 -0.00000000000E+00 -0.00000000000E+00 -0.45593999997E+02  0.45594000000E+02  0.51100000000E-03 0.  1.
    9900012    2    1    2    0    0  0.30211583843E+02  0.40190212288E+01 -0.26912316555E+02  0.50528866804E+02  0.30000021137E+02 0.  0.
         12    1    1    2    0    0 -0.30211583843E+02 -0.40190212288E+01  0.26912316555E+02  0.40659133196E+02  0.00000000000E+00 0. -1.
         11    1    3    3    0    0  0.11758768966E+02 -0.99224807460E+01 -0.68941287088E+01  0.16859812652E+02  0.51100000000E-03 0. -1.
        -11    1    3    3    0    0  0.13864553454E+02  0.76961232461E+01 -0.20484926194E+02  0.25905373128E+02  0.51100000000E-03 0.  1.
         12    1    3    3    0    0  0.45882614230E+01  0.62453787286E+01  0.46673834813E+00  0.77636810235E+01  0.00000000000E+00 0. -1.
</event>
<event>
 7    1  0.3004200E-011  0.5052886E+02  0.7816164E-02  0.1300439E+00
        -11   -1    0    0    0    0  0.00000000000E+00  0.00000000000E+00  0.45593999997E+02  0.45594000000E+02  0.51100000000E-03 0.  1.
         11   -1    0    0    0    0 -0.00000000000E+00 -0.00000000000E+00 -0.45593999997E+02  0.45594000000E+02  0.51100000000E-03 0. -1.
    9900012    2    1    2    0    0  0.33545627027E+01 -0.75688178733E+01  0.39807355566E+02  0.50528860166E+02  0.30000000960E+02 0.  0.
         12    1    1    2    0    0 -0.33545627027E+01  0.75688178733E+01 -0.39807355566E+02  0.40659139834E+02  0.00000000000E+00 0. -1.
         11    1    3    3    0    0 -0.16291862416E+01 -0.15785032696E+02  0.16358865303E+02  0.22791094298E+02  0.51100000000E-03 0. -1.
        -11    1    3    3    0    0  0.14617940977E+00  0.86725032181E+01  0.90230583243E+01  0.12515960302E+02  0.51100000000E-03 0.  1.
         12    1    3    3    0    0  0.48375695346E+01 -0.45628839531E+00  0.14425431938E+02  0.15221805566E+02  0.00000000000E+00 0. -1.
</event>
<event>
 7    1  0.3004200E-011  0.5052886E+02  0.7816164E-02  0.1300439E+00
        -11   -1    0    0    0    0  0.00000000000E+00  0.00000000000E+00  0.45593999997E+02  0.45594000000E+02  0.51100000000E-03 0. -1.
         11   -1    0    0    0    0 -0.00000000000E+00 -0.00000000000E+00 -0.45593999997E+02  0.45594000000E+02  0.51100000000E-03 0.  1.
    9900012    2    1    2    0    0 -0.15800019037E+02  0.22877754048E+02 -0.29667036284E+02  0.50528864818E+02  0.30000015102E+02 0.  0.
         12    1    1    2    0    0  0.15800019037E+02 -0.22877754048E+02  0.29667036284E+02  0.40659135182E+02  0.00000000000E+00 0. -1.
         11    1    3    3    0    0  0.39613411822E+01  0.86382645141E+01 -0.45519226012E+01  0.10537164581E+02  0.51100000000E-03 0. -1.
        -11    1    3    3    0    0 -0.20526303558E+02  0.17552294704E+02 -0.19089248511E+02  0.33072822621E+02  0.51100000000E-03 0.  1.
        -12    1    3    3    0    0  0.76494333861E+00 -0.33128051702E+01 -0.60258651716E+01  0.69188776166E+01  0.00000000000E+00 0.  1.
</event>
<event>
 7    1  0.3004200E-011  0.5052886E+02  0.7816164E-02  0.1300439E+00
        -11   -1    0    0    0    0  0.00000000000E+00  0.00000000000E+00  0.45593999997E+02  0.45594000000E+02  0.51100000000E-03 0. -1.
         11   -1    0    0    0    0 -0.00000000000E+00 -0.00000000000E+00 -0.45593999997E+02  0.45594000000E+02  0.51100000000E-03 0.  1.
    9900012    2    1    2    0    0  0.14216737349E+02  0.37930891700E+02 -0.35067594108E+01  0.50528861696E+02  0.30000005613E+02 0.  0.
         12    1    1    2    0    0 -0.14216737349E+02 -0.37930891700E+02  0.35067594108E+01  0.40659138304E+02  0.00000000000E+00 0. -1.
         11    1    3    3    0    0  0.29321670750E+00  0.34492898218E+02  0.12691139609E+01  0.34517483310E+02  0.51100000000E-03 0. -1.
        -11    1    3    3    0    0  0.16071198168E+01  0.13376348559E+01 -0.25878655893E+01  0.33270331653E+01  0.51100000000E-03 0.  1.
         12    1    3    3    0    0  0.12316400825E+02  0.21003586260E+01 -0.21880077824E+01  0.12684345222E+02  0.00000000000E+00 0. -1.
</event>
<event>
 7    1  0.3004200E-011  0.5052884E+02  0.7816164E-02  0.1300439E+00
        -11   -1    0    0    0    0  0.00000000000E+00  0.00000000000E+00  0.45593999997E+02  0.45594000000E+02  0.51100000000E-03 0.  1.
         11   -1    0    0    0    0 -0.00000000000E+00 -0.00000000000E+00 -0.45593999997E+02  0.45594000000E+02  0.51100000000E-03 0. -1.
    9900012    2    1    2    0    0 -0.42704054262E+01  0.26122915911E+02  0.30862989180E+02  0.50528841139E+02  0.29999943125E+02 0.  0.
         12    1    1    2    0    0  0.42704054262E+01 -0.26122915911E+02 -0.30862989180E+02  0.40659158861E+02  0.00000000000E+00 0. -1.
         11    1    3    3    0    0  0.71897201614E+01  0.61820765725E+01  0.59297333637E+00  0.95006191581E+01  0.51100000000E-03 0. -1.
        -11    1    3    3    0    0 -0.14988044693E+02  0.12720563230E+02  0.21643409735E+02  0.29238525918E+02  0.51100000000E-03 0.  1.
        -12    1    3    3    0    0  0.35279191058E+01  0.72202761081E+01  0.86266061083E+01  0.11789696062E+02  0.00000000000E+00 0.  1.
</event>
<event>
 7    1  0.3004200E-011  0.5052886E+02  0.7816164E-02  0.1300439E+00
        -11   -1    0    0    0    0  0.00000000000E+00  0.00000000000E+00  0.45593999997E+02  0.45594000000E+02  0.51100000000E-03 0. -1.
         11   -1    0    0    0    0 -0.00000000000E+00 -0.00000000000E+00 -0.45593999997E+02  0.45594000000E+02  0.51100000000E-03 0.  1.
    9900012    2    1    2    0    0  0.58219945021E+01 -0.39108679589E+02  0.94753003164E+01  0.50528858897E+02  0.29999997103E+02 0.  0.
         12    1    1    2    0    0 -0.58219945021E+01  0.39108679589E+02 -0.94753003164E+01  0.40659141103E+02  0.00000000000E+00 0. -1.
         11    1    3    3    0    0 -0.81125556249E+01 -0.10822055467E+01  0.10908126884E+01  0.82567911560E+01  0.51100000000E-03 0. -1.
        -11    1    3    3    0    0  0.66775553270E+01 -0.29407604573E+02  0.64917091241E+01  0.30847029670E+02  0.51100000000E-03 0.  1.
         12    1    3    3    0    0  0.72569947999E+01 -0.86188694692E+01  0.18927785039E+01  0.11425038071E+02  0.00000000000E+00 0. -1.
</event>
<event>
 7    1  0.3004200E-011  0.5052888E+02  0.7816164E-02  0.1300439E+00
        -11   -1    0    0    0    0  0.00000000000E+00  0.00000000000E+00  0.45593999997E+02  0.45594000000E+02  0.51100000000E-03 0.  1.
         11   -1    0    0    0    0 -0.00000000000E+00 -0.00000000000E+00 -0.45593999997E+02  0.45594000000E+02  0.51100000000E-03 0. -1.
    9900012    2    1    2    0    0 -0.13570681168E+02  0.28661595819E+02  0.25446286593E+02  0.50528880929E+02  0.30000064070E+02 0.  0.
         12    1    1    2    0    0  0.13570681168E+02 -0.28661595819E+02 -0.25446286593E+02  0.40659119071E+02  0.00000000000E+00 0. -1.
         11    1    3    3    0    0 -0.93540191970E+01  0.82579724821E+01  0.83465881030E+01  0.15011905871E+02  0.51100000000E-03 0. -1.
        -11    1    3    3    0    0  0.78376634267E+01  0.94446373176E+01  0.14537414068E+02  0.19025418526E+02  0.51100000000E-03 0.  1.
        -12    1    3    3    0    0 -0.12054325398E+02  0.10958986020E+02  0.25622844224E+01  0.16491556532E+02  0.00000000000E+00 0.  1.
</event>
<event>
 7    1  0.3004200E-011  0.5052886E+02  0.7816164E-02  0.1300439E+00
        -11   -1    0    0    0    0  0.00000000000E+00  0.00000000000E+00  0.45593999997E+02  0.45594000000E+02  0.51100000000E-03 0.  1.
         11   -1    0    0    0    0 -0.00000000000E+00 -0.00000000000E+00 -0.45593999997E+02  0.45594000000E+02  0.51100000000E-03 0. -1.
    9900012    2    1    2    0    0  0.19386035401E+02 -0.35338117410E+02  0.53446061587E+01  0.50528859260E+02  0.29999998208E+02 0.  0.
         12    1    1    2    0    0 -0.19386035401E+02  0.35338117410E+02 -0.53446061587E+01  0.40659140740E+02  0.00000000000E+00 0. -1.
         11    1    3    3    0    0  0.13894247208E+02 -0.29933765614E+02  0.88093502193E+01  0.34156772108E+02  0.51100000000E-03 0.  1.
        -11    1    3    3    0    0  0.18830728972E+01  0.39297690143E+01  0.21905646197E+01  0.48772555455E+01  0.51100000000E-03 0. -1.
         12    1    3    3    0    0  0.36087152956E+01 -0.93341208107E+01 -0.56553086803E+01  0.11494831607E+02  0.00000000000E+00 0. -1.
</event>
<event>
 7    1  0.3004200E-011  0.5052886E+02  0.7816164E-02  0.1300439E+00
        -11   -1    0    0    0    0  0.00000000000E+00  0.00000000000E+00  0.45593999997E+02  0.45594000000E+02  0.51100000000E-03 0.  1.
         11   -1    0    0    0    0 -0.00000000000E+00 -0.00000000000E+00 -0.45593999997E+02  0.45594000000E+02  0.51100000000E-03 0. -1.
    9900012    2    1    2    0    0  0.33569283032E+02  0.11943525818E+02  0.19586251623E+02  0.50528858040E+02  0.29999994499E+02 0.  0.
         12    1    1    2    0    0 -0.33569283032E+02 -0.11943525818E+02 -0.19586251623E+02  0.40659141960E+02  0.00000000000E+00 0. -1.
         11    1    3    3    0    0 -0.31858093479E+01  0.50817070030E+01 -0.30266002686E+01  0.67181423558E+01  0.51100000000E-03 0. -1.
        -11    1    3    3    0    0  0.31467940351E+02  0.58981327229E+01  0.18004531682E+02  0.36731218342E+02  0.51100000000E-03 0.  1.
         12    1    3    3    0    0  0.52871520286E+01  0.96368609194E+00  0.46083202104E+01  0.70794973423E+01  0.00000000000E+00 0. -1.
</event>
<event>
 7    1  0.3004200E-011  0.5052886E+02  0.7816164E-02  0.1300439E+00
        -11   -1    0    0    0    0  0.00000000000E+00  0.00000000000E+00  0.45593999997E+02  0.45594000000E+02  0.51100000000E-03 0.  1.
         11   -1    0    0    0    0 -0.00000000000E+00 -0.00000000000E+00 -0.45593999997E+02  0.45594000000E+02  0.51100000000E-03 0. -1.
    9900012    2    1    2    0    0 -0.40300672628E+01 -0.23138193488E+02  0.33189580813E+02  0.50528859397E+02  0.29999998623E+02 0.  0.
         12    1    1    2    0    0  0.40300672628E+01  0.23138193488E+02 -0.33189580813E+02  0.40659140603E+02  0.00000000000E+00 0. -1.
         11    1    3    3    0    0 -0.14916454877E+02 -0.15018485802E+02  0.20646767415E+02  0.29569317659E+02  0.51100000000E-03 0. -1.
        -11    1    3    3    0    0  0.32244268972E+01  0.10965871001E+01 -0.26806645112E+00  0.34163272629E+01  0.51100000000E-03 0.  1.
         12    1    3    3    0    0  0.76619607168E+01 -0.92162947863E+01  0.12810879849E+02  0.17543214475E+02  0.00000000000E+00 0. -1.
</event>
<event>
 7    1  0.3004200E-011  0.5052886E+02  0.7816164E-02  0.1300439E+00
        -11   -1    0    0    0    0  0.00000000000E+00  0.00000000000E+00  0.45593999997E+02  0.45594000000E+02  0.51100000000E-03 0.  1.
         11   -1    0    0    0    0 -0.00000000000E+00 -0.00000000000E+00 -0.45593999997E+02  0.45594000000E+02  0.51100000000E-03 0. -1.
    9900012    2    1    2    0    0  0.23446709039E+02  0.32787470268E+02 -0.53291111970E+01  0.50528858377E+02  0.29999995524E+02 0.  0.
         12    1    1    2    0    0 -0.23446709039E+02 -0.32787470268E+02  0.53291111970E+01  0.40659141623E+02  0.00000000000E+00 0. -1.
         11    1    3    3    0    0 -0.93916430553E+00  0.19105967492E+02 -0.82972644188E+01  0.20851010060E+02  0.51100000000E-03 0. -1.
        -11    1    3    3    0    0  0.11847609464E+02  0.13541992256E+01  0.65003480007E+00  0.11942455822E+02  0.51100000000E-03 0.  1.
        -12    1    3    3    0    0  0.12538263880E+02  0.12327303550E+02  0.23181184217E+01  0.17735392495E+02  0.00000000000E+00 0.  1.
</event>
<event>
 7    1  0.3004200E-011  0.5052885E+02  0.7816164E-02  0.1300439E+00
        -11   -1    0    0    0    0  0.00000000000E+00  0.00000000000E+00  0.45593999997E+02  0.45594000000E+02  0.51100000000E-03 0.  1.
         11   -1    0    0    0    0 -0.00000000000E+00 -0.00000000000E+00 -0.45593999997E+02  0.45594000000E+02  0.51100000000E-03 0. -1.
    9900012    2    1    2    0    0  0.19808227452E+02 -0.32141176837E+02  0.15091221512E+02  0.50528854781E+02  0.29999984591E+02 0.  0.
         12    1    1    2    0    0 -0.19808227452E+02  0.32141176837E+02 -0.15091221512E+02  0.40659145219E+02  0.00000000000E+00 0. -1.
         11    1    3    3    0    0  0.24125616804E+02 -0.19742901670E+02  0.14311825319E+02  0.34302418235E+02  0.51100000000E-03 0. -1.
        -11    1    3    3    0    0 -0.19752878752E+01 -0.10724681851E+02  0.42618361922E+01  0.11708279591E+02  0.51100000000E-03 0.  1.
         12    1    3    3    0    0 -0.23421014768E+01 -0.16735933154E+01 -0.34824399993E+01  0.45181569541E+01  0.00000000000E+00 0. -1.
</event>
<event>
 7    1  0.3004200E-011  0.5052887E+02  0.7816164E-02  0.1300439E+00
        -11   -1    0    0    0    0  0.00000000000E+00  0.00000000000E+00  0.45593999997E+02  0.45594000000E+02  0.51100000000E-03 0.  1.
         11   -1    0    0    0    0 -0.00000000000E+00 -0.00000000000E+00 -0.45593999997E+02  0.45594000000E+02  0.51100000000E-03 0. -1.
    9900012    2    1    2    0    0  0.24716404040E+02  0.29183240984E+02 -0.13805885532E+02  0.50528872386E+02  0.30000038104E+02 0.  0.
         12    1    1    2    0    0 -0.24716404040E+02 -0.29183240984E+02  0.13805885532E+02  0.40659127614E+02  0.00000000000E+00 0. -1.
         11    1    3    3    0    0  0.30215741219E+01  0.53790869860E+01  0.86731301735E+01  0.10643668270E+02  0.51100000000E-03 0. -1.
        -11    1    3    3    0    0  0.14939387525E+02  0.18009312044E+02 -0.12554753222E+02  0.26554518422E+02  0.51100000000E-03 0.  1.
         12    1    3    3    0    0  0.67554423926E+01  0.57948419544E+01 -0.99242624845E+01  0.13330685693E+02  0.00000000000E+00 0. -1.
</event>
<event>
 7    1  0.3004200E-011  0.5052886E+02  0.7816164E-02  0.1300439E+00
        -11   -1    0    0    0    0  0.00000000000E+00  0.00000000000E+00  0.45593999997E+02  0.45594000000E+02  0.51100000000E-03 0. -1.
         11   -1    0    0    0    0 -0.00000000000E+00 -0.00000000000E+00 -0.45593999997E+02  0.45594000000E+02  0.51100000000E-03 0.  1.
    9900012    2    1    2    0    0 -0.37949260282E+02  0.13202139103E+02  0.62227625555E+01  0.50528860724E+02  0.30000002655E+02 0.  0.
         12    1    1    2    0    0  0.37949260282E+02 -0.13202139103E+02 -0.62227625555E+01  0.40659139276E+02  0.00000000000E+00 0. -1.
         11    1    3    3    0    0 -0.53666134621E+01  0.95210895762E+01  0.15711984707E+01  0.11041754918E+02  0.51100000000E-03 0. -1.
        -11    1    3    3    0    0 -0.15666269298E+02 -0.45655932754E+01  0.10938824379E+02  0.19645216077E+02  0.51100000000E-03 0.  1.
        -12    1    3    3    0    0 -0.16916377523E+02  0.82466428022E+01 -0.62872602943E+01  0.19841889729E+02  0.00000000000E+00 0.  1.
</event>
<event>
 7    1  0.3004200E-011  0.5052887E+02  0.7816164E-02  0.1300439E+00
        -11   -1    0    0    0    0  0.00000000000E+00  0.00000000000E+00  0.45593999997E+02  0.45594000000E+02  0.51100000000E-03 0.  1.
         11   -1    0    0    0    0 -0.00000000000E+00 -0.00000000000E+00 -0.45593999997E+02  0.45594000000E+02  0.51100000000E-03 0. -1.
    9900012    2    1    2    0    0 -0.21194661939E+02 -0.32110780707E+02  0.13147195926E+02  0.50528871959E+02  0.30000036807E+02 0.  0.
         12    1    1    2    0    0  0.21194661939E+02  0.32110780707E+02 -0.13147195926E+02  0.40659128041E+02  0.00000000000E+00 0. -1.
         11    1    3    3    0    0 -0.59495499095E+01 -0.12620812530E+02 -0.88530037530E+01  0.16524458501E+02  0.51100000000E-03 0. -1.
        -11    1    3    3    0    0 -0.13983186074E+02 -0.20085188595E+02  0.20241354688E+02  0.31759356630E+02  0.51100000000E-03 0.  1.
        -12    1    3    3    0    0 -0.12619259550E+01  0.59522041716E+00  0.17588449910E+01  0.22450568285E+01  0.00000000000E+00 0.  1.
</event>
<event>
 7    1  0.3004200E-011  0.5052885E+02  0.7816164E-02  0.1300439E+00
        -11   -1    0    0    0    0  0.00000000000E+00  0.00000000000E+00  0.45593999997E+02  0.45594000000E+02  0.51100000000E-03 0. -1.
         11   -1    0    0    0    0 -0.00000000000E+00 -0.00000000000E+00 -0.45593999997E+02  0.45594000000E+02  0.51100000000E-03 0.  1.
    9900012    2    1    2    0    0  0.29341827783E+02  0.18630547026E+02 -0.21098020300E+02  0.50528848500E+02  0.29999965500E+02 0.  0.
         12    1    1    2    0    0 -0.29341827783E+02 -0.18630547026E+02  0.21098020300E+02  0.40659151500E+02  0.00000000000E+00 0. -1.
         11    1    3    3    0    0 -0.14587358082E+01  0.97898553961E+00  0.55300461615E+01  0.58023903397E+01  0.51100000000E-03 0. -1.
        -11    1    3    3    0    0  0.18084041732E+02  0.10561412479E+02 -0.19061499004E+02  0.28318134534E+02  0.51100000000E-03 0.  1.
         12    1    3    3    0    0  0.12716521859E+02  0.70901490074E+01 -0.75665674573E+01  0.16408323626E+02  0.00000000000E+00 0. -1.
</event>
<event>
 7    1  0.3004200E-011  0.5052884E+02  0.7816164E-02  0.1300439E+00
        -11   -1    0    0    0    0  0.00000000000E+00  0.00000000000E+00  0.45593999997E+02  0.45594000000E+02  0.51100000000E-03 0. -1.
         11   -1    0    0    0    0 -0.00000000000E+00 -0.00000000000E+00 -0.45593999997E+02  0.45594000000E+02  0.51100000000E-03 0.  1.
    9900012    2    1    2    0    0 -0.30043335646E+02  0.26534432060E+02 -0.68182755842E+01  0.50528843794E+02  0.29999951195E+02 0.  0.
         12    1    1    2    0    0  0.30043335646E+02 -0.26534432060E+02  0.68182755842E+01  0.40659156206E+02  0.00000000000E+00 0. -1.
         11    1    3    3    0    0 -0.10324236291E+02 -0.64647148444E+00 -0.46448733285E+01  0.11339428066E+02  0.51100000000E-03 0. -1.
        -11    1    3    3    0    0 -0.11196314764E+02  0.28092897802E+02  0.38507554732E+00  0.30244283008E+02  0.51100000000E-03 0.  1.
        -12    1    3    3    0    0 -0.85227845911E+01 -0.91199425754E+00 -0.25584778030E+01  0.89451327201E+01  0.00000000000E+00 0.  1.
</event>
<event>
 7    1  0.3004200E-011  0.5052885E+02  0.7816164E-02  0.1300439E+00
        -11   -1    0    0    0    0  0.00000000000E+00  0.00000000000E+00  0.45593999997E+02  0.45594000000E+02  0.51100000000E-03 0.  1.
         11   -1    0    0    0    0 -0.00000000000E+00 -0.00000000000E+00 -0.45593999997E+02  0.45594000000E+02  0.51100000000E-03 0. -1.
    9900012    2    1    2    0    0 -0.15404502097E+02 -0.36886395470E+02  0.74338404326E+01  0.50528845567E+02  0.29999956586E+02 0.  0.
         12    1    1    2    0    0  0.15404502097E+02  0.36886395470E+02 -0.74338404326E+01  0.40659154433E+02  0.00000000000E+00 0. -1.
         11    1    3    3    0    0 -0.44504637692E+01  0.39991260136E+01  0.43647825864E+01  0.74061436606E+01  0.51100000000E-03 0. -1.
        -11    1    3    3    0    0 -0.41903154206E+01 -0.25152451989E+02  0.46680458583E+01  0.25922870921E+02  0.51100000000E-03 0.  1.
        -12    1    3    3    0    0 -0.67637229073E+01 -0.15733069494E+02 -0.15989880121E+01  0.17199830986E+02  0.00000000000E+00 0.  1.
</event>
<event>
 7    1  0.3004200E-011  0.5052888E+02  0.7816164E-02  0.1300439E+00
        -11   -1    0    0    0    0  0.00000000000E+00  0.00000000000E+00  0.45593999997E+02  0.45594000000E+02  0.51100000000E-03 0.  1.
         11   -1    0    0    0    0 -0.00000000000E+00 -0.00000000000E+00 -0.45593999997E+02  0.45594000000E+02  0.51100000000E-03 0. -1.
    9900012    2    1    2    0    0 -0.93718988529E+01  0.18309776739E+02  0.35072552314E+02  0.50528876323E+02  0.30000050072E+02 0.  0.
         12    1    1    2    0    0  0.93718988529E+01 -0.18309776739E+02 -0.35072552314E+02  0.40659123677E+02  0.00000000000E+00 0. -1.
         11    1    3    3    0    0 -0.14484813808E+02  0.11264479618E+02  0.18326237418E+02  0.25933555682E+02  0.51100000000E-03 0. -1.
        -11    1    3    3    0    0  0.10136228033E+01  0.13581275218E+00  0.16526707057E+02  0.16558318837E+02  0.51100000000E-03 0.  1.
         12    1    3    3    0    0  0.40992921522E+01  0.69094843692E+01  0.21960783837E+00  0.80370018042E+01  0.00000000000E+00 0. -1.
</event>
<event>
 7    1  0.3004200E-011  0.5052886E+02  0.7816164E-02  0.1300439E+00
        -11   -1    0    0    0    0  0.00000000000E+00  0.00000000000E+00  0.45593999997E+02  0.45594000000E+02  0.51100000000E-03 0.  1.
         11   -1    0    0    0    0 -0.00000000000E+00 -0.00000000000E+00 -0.45593999997E+02  0.45594000000E+02  0.51100000000E-03 0. -1.
    9900012    2    1    2    0    0 -0.77381722355E+01  0.30823296938E+02  0.25361593719E+02  0.50528863516E+02  0.30000011144E+02 0.  0.
         12    1    1    2    0    0  0.77381722355E+01 -0.30823296938E+02 -0.25361593719E+02  0.40659136484E+02  0.00000000000E+00 0. -1.
         11    1    3    3    0    0 -0.74965604501E+01  0.98450449254E+01  0.22395744554E+02  0.25586963528E+02  0.51100000000E-03 0. -1.
        -11    1    3    3    0    0  0.62416911816E+01  0.11192022170E+02  0.31702081683E+01  0.13201147267E+02  0.51100000000E-03 0.  1.
         12    1    3    3    0    0 -0.64833029670E+01  0.97862298419E+01 -0.20435900373E+00  0.11740752722E+02  0.00000000000E+00 0. -1.
</event>
<event>
 7    1  0.3004200E-011  0.5052886E+02  0.7816164E-02  0.1300439E+00
        -11   -1    0    0    0    0  0.00000000000E+00  0.00000000000E+00  0.45593999997E+02  0.45594000000E+02  0.51100000000E-03 0. -1.
         11   -1    0    0    0    0 -0.00000000000E+00 -0.00000000000E+00 -0.45593999997E+02  0.45594000000E+02  0.51100000000E-03 0.  1.
    9900012    2    1    2    0    0 -0.12334832396E+02  0.13751576387E+02 -0.36220320844E+02  0.50528860985E+02  0.30000003450E+02 0.  0.
         12    1    1    2    0    0  0.12334832396E+02 -0.13751576387E+02  0.36220320844E+02  0.40659139015E+02  0.00000000000E+00 0. -1.
         11    1    3    3    0    0 -0.13593492243E+02  0.34938809752E+01 -0.21885962999E+01  0.14204935398E+02  0.51100000000E-03 0. -1.
        -11    1    3    3    0    0  0.38080583637E+01  0.47880319300E+01 -0.11850316920E+02  0.13336287700E+02  0.51100000000E-03 0.  1.
         12    1    3    3    0    0 -0.25493985166E+01  0.54696634818E+01 -0.22181407625E+02  0.22987637887E+02  0.00000000000E+00 0. -1.
</event>
<event>
 7    1  0.3004200E-011  0.5052881E+02  0.7816164E-02  0.1300439E+00
        -11   -1    0    0    0    0  0.00000000000E+00  0.00000000000E+00  0.45593999997E+02  0.45594000000E+02  0.51100000000E-03 0. -1.
         11   -1    0    0    0    0 -0.00000000000E+00 -0.00000000000E+00 -0.45593999997E+02  0.45594000000E+02  0.51100000000E-03 0.  1.
    9900012    2    1    2    0    0 -0.74625274768E+01 -0.39720365202E+02 -0.44466770820E+01  0.50528810814E+02  0.29999850951E+02 0.  0.
         12    1    1    2    0    0  0.74625274768E+01  0.39720365202E+02  0.44466770820E+01  0.40659189186E+02  0.00000000000E+00 0. -1.
         11    1    3    3    0    0 -0.56382476509E+01 -0.52081989407E+01 -0.21434142815E+01  0.79692783753E+01  0.51100000000E-03 0. -1.
        -11    1    3    3    0    0  0.10568150701E+02 -0.23736539164E+02 -0.27749745979E+01  0.26130625424E+02  0.51100000000E-03 0.  1.
        -12    1    3    3    0    0 -0.12392430527E+02 -0.10775627097E+02  0.47171179739E+00  0.16428907016E+02  0.00000000000E+00 0.  1.
</event>
<event>
 7    1  0.3004200E-011  0.5052885E+02  0.7816164E-02  0.1300439E+00
        -11   -1    0    0    0    0  0.00000000000E+00  0.00000000000E+00  0.45593999997E+02  0.45594000000E+02  0.51100000000E-03 0.  1.
         11   -1    0    0    0    0 -0.00000000000E+00 -0.00000000000E+00 -0.45593999997E+02  0.45594000000E+02  0.51100000000E-03 0. -1.
    9900012    2    1    2    0    0 -0.39101273514E+01  0.14303809015E+02  0.37858662653E+02  0.50528851139E+02  0.29999973522E+02 0.  0.
         12    1    1    2    0    0  0.39101273514E+01 -0.14303809015E+02 -0.37858662653E+02  0.40659148861E+02  0.00000000000E+00 0. -1.
         11    1    3    3    0    0 -0.62542445055E+00 -0.65239711918E+01  0.60011613536E+01  0.88863543542E+01  0.51100000000E-03 0. -1.
        -11    1    3    3    0    0 -0.27500603399E+01  0.20420083700E+02  0.33800998943E+02  0.39585984640E+02  0.51100000000E-03 0.  1.
        -12    1    3    3    0    0 -0.53464256096E+00  0.40769650698E+00 -0.19434976433E+01  0.20565121443E+01  0.00000000000E+00 0.  1.
</event>
<event>
 7    1  0.3004200E-011  0.5052885E+02  0.7816164E-02  0.1300439E+00
        -11   -1    0    0    0    0  0.00000000000E+00  0.00000000000E+00  0.45593999997E+02  0.45594000000E+02  0.51100000000E-03 0.  1.
         11   -1    0    0    0    0 -0.00000000000E+00 -0.00000000000E+00 -0.45593999997E+02  0.45594000000E+02  0.51100000000E-03 0. -1.
    9900012    2    1    2    0    0  0.29574725924E+02 -0.23228913963E+02  0.15457019884E+02  0.50528851938E+02  0.29999975951E+02 0.  0.
         12    1    1    2    0    0 -0.29574725924E+02  0.23228913963E+02 -0.15457019884E+02  0.40659148062E+02  0.00000000000E+00 0. -1.
         11    1    3    3    0    0  0.28116080995E+02 -0.10697726735E+02  0.89883853713E+01  0.31396599174E+02  0.51100000000E-03 0. -1.
        -11    1    3    3    0    0  0.30207511001E+01 -0.61327930647E+01  0.96433244868E+01  0.11820735823E+02  0.51100000000E-03 0.  1.
         12    1    3    3    0    0 -0.15621061705E+01 -0.63983941630E+01 -0.31746899740E+01  0.73115169414E+01  0.00000000000E+00 0. -1.
</event>
<event>
 7    1  0.3004200E-011  0.5052886E+02  0.7816164E-02  0.1300439E+00
        -11   -1    0    0    0    0  0.00000000000E+00  0.00000000000E+00  0.45593999997E+02  0.45594000000E+02  0.51100000000E-03 0.  1.
         11   -1    0    0    0    0 -0.00000000000E+00 -0.00000000000E+00 -0.45593999997E+02  0.45594000000E+02  0.51100000000E-03 0. -1.
    9900012    2    1    2    0    0 -0.15298266913E+01  0.28937461260E+02  0.28521024636E+02  0.50528857360E+02  0.29999992433E+02 0.  0.
         12    1    1    2    0    0  0.15298266913E+01 -0.28937461260E+02 -0.28521024636E+02  0.40659142640E+02  0.00000000000E+00 0. -1.
         11    1    3    3    0    0 -0.47883560304E+00  0.16561682994E+02 -0.60605224089E+00  0.16579684156E+02  0.51100000000E-03 0. -1.
        -11    1    3    3    0    0  0.27205557064E+01  0.40879081616E+01  0.21552668995E+02  0.22104975855E+02  0.51100000000E-03 0.  1.
        -12    1    3    3    0    0 -0.37715467946E+01  0.82878701044E+01  0.75744078825E+01  0.11844197350E+02  0.00000000000E+00 0.  1.
</event>
<event>
 7    1  0.3004200E-011  0.5052886E+02  0.7816164E-02  0.1300439E+00
        -11   -1    0    0    0    0  0.00000000000E+00  0.00000000000E+00  0.45593999997E+02  0.45594000000E+02  0.51100000000E-03 0. -1.
         11   -1    0    0    0    0 -0.00000000000E+00 -0.00000000000E+00 -0.45593999997E+02  0.45594000000E+02  0.51100000000E-03 0.  1.
    9900012    2    1    2    0    0  0.32152710035E+02  0.15640934434E+02 -0.19357947039E+02  0.50528859501E+02  0.29999998939E+02 0.  0.
         12    1    1    2    0    0 -0.32152710035E+02 -0.15640934434E+02  0.19357947039E+02  0.40659140499E+02  0.00000000000E+00 0. -1.
         11    1    3    3    0    0  0.15698717699E+02  0.60238355090E+01  0.42802790629E+01  0.17350997688E+02  0.51100000000E-03 0. -1.
        -11    1    3    3    0    0  0.65427913315E+01  0.95779845427E+01 -0.18939402351E+02  0.22209161803E+02  0.51100000000E-03 0.  1.
         12    1    3    3    0    0  0.99112010036E+01  0.39114382467E-01 -0.46988237509E+01  0.10968700010E+02  0.00000000000E+00 0. -1.
</event>
<event>
 7    1  0.3004200E-011  0.5052876E+02  0.7816164E-02  0.1300439E+00
        -11   -1    0    0    0    0  0.00000000000E+00  0.00000000000E+00  0.45593999997E+02  0.45594000000E+02  0.51100000000E-03 0. -1.
         11   -1    0    0    0    0 -0.00000000000E+00 -0.00000000000E+00 -0.45593999997E+02  0.45594000000E+02  0.51100000000E-03 0.  1.
    9900012    2    1    2    0    0 -0.20252925813E+02  0.14900387387E+02 -0.31952643671E+02  0.50528757682E+02  0.29999689449E+02 0.  0.
         12    1    1    2    0    0  0.20252925813E+02 -0.14900387387E+02  0.31952643671E+02  0.40659242318E+02  0.00000000000E+00 0. -1.
         11    1    3    3    0    0 -0.76890109874E+01  0.11394983889E+02 -0.11647756500E+02  0.18017679639E+02  0.51100000000E-03 0. -1.
        -11    1    3    3    0    0 -0.14509979135E+02 -0.59830593524E+01 -0.12986288455E+02  0.20371062364E+02  0.51100000000E-03 0.  1.
        -12    1    3    3    0    0  0.19460643094E+01  0.94884628499E+01 -0.73185987154E+01  0.12140015680E+02  0.00000000000E+00 0.  1.
</event>
<event>
 7    1  0.3004200E-011  0.5052887E+02  0.7816164E-02  0.1300439E+00
        -11   -1    0    0    0    0  0.00000000000E+00  0.00000000000E+00  0.45593999997E+02  0.45594000000E+02  0.51100000000E-03 0.  1.
         11   -1    0    0    0    0 -0.00000000000E+00 -0.00000000000E+00 -0.45593999997E+02  0.45594000000E+02  0.51100000000E-03 0. -1.
    9900012    2    1    2    0    0  0.11476078203E+02  0.38222027148E+02  0.77808151022E+01  0.50528870473E+02  0.30000032291E+02 0.  0.
         12    1    1    2    0    0 -0.11476078203E+02 -0.38222027148E+02 -0.77808151022E+01  0.40659129527E+02  0.00000000000E+00 0. -1.
         11    1    3    3    0    0  0.16211432991E+02  0.37421190694E+02  0.26580878952E+01  0.40868343545E+02  0.51100000000E-03 0.  1.
        -11    1    3    3    0    0 -0.42773241752E+01  0.34139468544E+01  0.28669073460E+01  0.61781626085E+01  0.51100000000E-03 0. -1.
         12    1    3    3    0    0 -0.45803061282E+00 -0.26131104011E+01  0.22558198610E+01  0.34823643198E+01  0.00000000000E+00 0. -1.
</event>
<event>
 7    1  0.3004200E-011  0.5052886E+02  0.7816164E-02  0.1300439E+00
        -11   -1    0    0    0    0  0.00000000000E+00  0.00000000000E+00  0.45593999997E+02  0.45594000000E+02  0.51100000000E-03 0.  1.
         11   -1    0    0    0    0 -0.00000000000E+00 -0.00000000000E+00 -0.45593999997E+02  0.45594000000E+02  0.51100000000E-03 0. -1.
    9900012    2    1    2    0    0 -0.18161592297E+02  0.36200349571E+02 -0.35856593727E+01  0.50528859613E+02  0.29999999280E+02 0.  0.
         12    1    1    2    0    0  0.18161592297E+02 -0.36200349571E+02  0.35856593727E+01  0.40659140387E+02  0.00000000000E+00 0. -1.
         11    1    3    3    0    0 -0.14510907246E+02  0.28211136543E+01 -0.27206456120E+01  0.15030869042E+02  0.51100000000E-03 0. -1.
        -11    1    3    3    0    0 -0.55998733767E+01  0.26506704002E+02  0.31978452421E+01  0.27279848851E+02  0.51100000000E-03 0.  1.
         12    1    3    3    0    0  0.19491883254E+01  0.68725319148E+01 -0.40628590028E+01  0.82181417197E+01  0.00000000000E+00 0. -1.
</event>
<event>
 7    1  0.3004200E-011  0.5052887E+02  0.7816164E-02  0.1300439E+00
        -11   -1    0    0    0    0  0.00000000000E+00  0.00000000000E+00  0.45593999997E+02  0.45594000000E+02  0.51100000000E-03 0.  1.
         11   -1    0    0    0    0 -0.00000000000E+00 -0.00000000000E+00 -0.45593999997E+02  0.45594000000E+02  0.51100000000E-03 0. -1.
    9900012    2    1    2    0    0 -0.66068733851E+01  0.11905216107E+02  0.38311613311E+02  0.50528872354E+02  0.30000038006E+02 0.  0.
         12    1    1    2    0    0  0.66068733851E+01 -0.11905216107E+02 -0.38311613311E+02  0.40659127646E+02  0.00000000000E+00 0. -1.
         11    1    3    3    0    0 -0.10909670961E+02  0.85605369494E+01  0.63984856608E+01  0.15272338798E+02  0.51100000000E-03 0. -1.
        -11    1    3    3    0    0  0.35349433724E+00 -0.37832021121E+01  0.22445971865E+02  0.22765307591E+02  0.51100000000E-03 0.  1.
         12    1    3    3    0    0  0.39493032385E+01  0.71278812698E+01  0.94671557849E+01  0.12491225966E+02  0.00000000000E+00 0. -1.
</event>
<event>
 7    1  0.3004200E-011  0.5052886E+02  0.7816164E-02  0.1300439E+00
        -11   -1    0    0    0    0  0.00000000000E+00  0.00000000000E+00  0.45593999997E+02  0.45594000000E+02  0.51100000000E-03 0.  1.
         11   -1    0    0    0    0 -0.00000000000E+00 -0.00000000000E+00 -0.45593999997E+02  0.45594000000E+02  0.51100000000E-03 0. -1.
    9900012    2    1    2    0    0 -0.36590550764E+01 -0.34226696026E+02  0.21640470319E+02  0.50528863751E+02  0.30000011856E+02 0.  0.
         12    1    1    2    0    0  0.36590550764E+01  0.34226696026E+02 -0.21640470319E+02  0.40659136249E+02  0.00000000000E+00 0. -1.
         11    1    3    3    0    0 -0.10065286163E+02 -0.49282805510E+01  0.49220196969E+01  0.12240270131E+02  0.51100000000E-03 0. -1.
        -11    1    3    3    0    0  0.47029665821E+01 -0.25198221634E+02  0.54906273856E+01  0.26214790816E+02  0.51100000000E-03 0.  1.
        -12    1    3    3    0    0  0.17032645043E+01 -0.41001938416E+01  0.11227823236E+02  0.12073802804E+02  0.00000000000E+00 0.  1.
</event>
<event>
 7    1  0.3004200E-011  0.5052886E+02  0.7816164E-02  0.1300439E+00
        -11   -1    0    0    0    0  0.00000000000E+00  0.00000000000E+00  0.45593999997E+02  0.45594000000E+02  0.51100000000E-03 0.  1.
         11   -1    0    0    0    0 -0.00000000000E+00 -0.00000000000E+00 -0.45593999997E+02  0.45594000000E+02  0.51100000000E-03 0. -1.
    9900012    2    1    2    0    0 -0.16845486353E+02  0.21883179397E+02  0.29841606030E+02  0.50528863248E+02  0.30000010328E+02 0.  0.
         12    1    1    2    0    0  0.16845486353E+02 -0.21883179397E+02 -0.29841606030E+02  0.40659136752E+02  0.00000000000E+00 0. -1.
         11    1    3    3    0    0  0.29262542243E+01  0.21027168626E+01  0.10032290970E+02  0.10659795700E+02  0.51100000000E-03 0.  1.
        -11    1    3    3    0    0 -0.22235624064E+02  0.11518754051E+02  0.10423874922E+02  0.27124930249E+02  0.51100000000E-03 0. -1.
        -12    1    3    3    0    0  0.24638834867E+01  0.82617084832E+01  0.93854401385E+01  0.12744137299E+02  0.00000000000E+00 0.  1.
</event>
<event>
 7    1  0.3004200E-011  0.5052886E+02  0.7816164E-02  0.1300439E+00
        -11   -1    0    0    0    0  0.00000000000E+00  0.00000000000E+00  0.45593999997E+02  0.45594000000E+02  0.51100000000E-03 0.  1.
         11   -1    0    0    0    0 -0.00000000000E+00 -0.00000000000E+00 -0.45593999997E+02  0.45594000000E+02  0.51100000000E-03 0. -1.
    9900012    2    1    2    0    0  0.37953276520E+02 -0.99772930574E+01  0.10638030484E+02  0.50528864890E+02  0.30000015320E+02 0.  0.
         12    1    1    2    0    0 -0.37953276520E+02  0.99772930574E+01 -0.10638030484E+02  0.40659135110E+02  0.00000000000E+00 0. -1.
         11    1    3    3    0    0 -0.36714857386E+00 -0.11436684104E+01  0.76071532858E+01  0.77013996704E+01  0.51100000000E-03 0.  1.
        -11    1    3    3    0    0  0.32306329401E+02 -0.13258783325E+02  0.43994560333E+00  0.34924029078E+02  0.51100000000E-03 0. -1.
        -12    1    3    3    0    0  0.60140956922E+01  0.44251586778E+01  0.25909315946E+01  0.79034361418E+01  0.00000000000E+00 0.  1.
</event>
<event>
 7    1  0.3004200E-011  0.5052886E+02  0.7816164E-02  0.1300439E+00
        -11   -1    0    0    0    0  0.00000000000E+00  0.00000000000E+00  0.45593999997E+02  0.45594000000E+02  0.51100000000E-03 0. -1.
         11   -1    0    0    0    0 -0.00000000000E+00 -0.00000000000E+00 -0.45593999997E+02  0.45594000000E+02  0.51100000000E-03 0.  1.
    9900012    2    1    2    0    0  0.17949378910E+02  0.87870206852E+01 -0.35408661922E+02  0.50528864804E+02  0.30000015058E+02 0.  0.
         12    1    1    2    0    0 -0.17949378910E+02 -0.87870206852E+01  0.35408661922E+02  0.40659135196E+02  0.00000000000E+00 0. -1.
         11    1    3    3    0    0  0.11248130104E+02  0.14356122033E+02 -0.86668904695E+01  0.20192415936E+02  0.51100000000E-03 0. -1.
        -11    1    3    3    0    0  0.95059567020E+01 -0.24955997842E+01 -0.21532752901E+02  0.23669615097E+02  0.51100000000E-03 0.  1.
        -12    1    3    3    0    0 -0.28047078965E+01 -0.30735015636E+01 -0.52090185520E+01  0.66668337704E+01  0.00000000000E+00 0.  1.
</event>
<event>
 7    1  0.3004200E-011  0.5052886E+02  0.7816164E-02  0.1300439E+00
        -11   -1    0    0    0    0  0.00000000000E+00  0.00000000000E+00  0.45593999997E+02  0.45594000000E+02  0.51100000000E-03 0. -1.
         11   -1    0    0    0    0 -0.00000000000E+00 -0.00000000000E+00 -0.45593999997E+02  0.45594000000E+02  0.51100000000E-03 0.  1.
    9900012    2    1    2    0    0  0.37975571605E+02 -0.13768375098E+02 -0.46317971010E+01  0.50528859134E+02  0.29999997824E+02 0.  0.
         12    1    1    2    0    0 -0.37975571605E+02  0.13768375098E+02  0.46317971010E+01  0.40659140866E+02  0.00000000000E+00 0. -1.
         11    1    3    3    0    0  0.14835878579E+02 -0.72193062470E+01  0.49567745781E+01  0.17227631595E+02  0.51100000000E-03 0. -1.
        -11    1    3    3    0    0  0.12353813661E+02 -0.13083975338E+02 -0.10183044681E+02  0.20676109931E+02  0.51100000000E-03 0.  1.
        -12    1    3    3    0    0  0.10785879365E+02  0.65349064876E+01  0.59447300203E+00  0.12625117608E+02  0.00000000000E+00 0.  1.
</event>
<event>
 7    1  0.3004200E-011  0.5052888E+02  0.7816164E-02  0.1300439E+00
        -11   -1    0    0    0    0  0.00000000000E+00  0.00000000000E+00  0.45593999997E+02  0.45594000000E+02  0.51100000000E-03 0.  1.
         11   -1    0    0    0    0 -0.00000000000E+00 -0.00000000000E+00 -0.45593999997E+02  0.45594000000E+02  0.51100000000E-03 0. -1.
    9900012    2    1    2    0    0 -0.29956256665E+02  0.26075772391E+02  0.87086819122E+01  0.50528876057E+02  0.30000049262E+02 0.  0.
         12    1    1    2    0    0  0.29956256665E+02 -0.26075772391E+02 -0.87086819122E+01  0.40659123943E+02  0.00000000000E+00 0. -1.
         11    1    3    3    0    0 -0.28809602126E+02  0.20478869992E+02  0.11224762323E+02  0.37086015967E+02  0.51100000000E-03 0.  1.
        -11    1    3    3    0    0 -0.35031905085E+01  0.17945519422E+01 -0.64034294586E+01  0.75164266446E+01  0.51100000000E-03 0. -1.
        -12    1    3    3    0    0  0.23565359690E+01  0.38023504560E+01  0.38873490476E+01  0.59264334453E+01  0.00000000000E+00 0.  1.
</event>
<event>
 7    1  0.3004200E-011  0.5052886E+02  0.7816164E-02  0.1300439E+00
        -11   -1    0    0    0    0  0.00000000000E+00  0.00000000000E+00  0.45593999997E+02  0.45594000000E+02  0.51100000000E-03 0.  1.
         11   -1    0    0    0    0 -0.00000000000E+00 -0.00000000000E+00 -0.45593999997E+02  0.45594000000E+02  0.51100000000E-03 0. -1.
    9900012    2    1    2    0    0 -0.27875614753E+02  0.29109422238E+02 -0.53626011251E+01  0.50528857711E+02  0.29999993498E+02 0.  0.
         12    1    1    2    0    0  0.27875614753E+02 -0.29109422238E+02  0.53626011251E+01  0.40659142289E+02  0.00000000000E+00 0. -1.
         11    1    3    3    0    0 -0.37892301084E+01  0.44260877341E+01 -0.71536885650E+01  0.92262548085E+01  0.51100000000E-03 0. -1.
        -11    1    3    3    0    0 -0.47831679799E+01  0.16818784749E+02  0.84507259139E+01  0.19420735956E+02  0.51100000000E-03 0.  1.
        -12    1    3    3    0    0 -0.19303216664E+02  0.78645497553E+01 -0.66596384739E+01  0.21881866946E+02  0.00000000000E+00 0.  1.
</event>
<event>
 7    1  0.3004200E-011  0.5052886E+02  0.7816164E-02  0.1300439E+00
        -11   -1    0    0    0    0  0.00000000000E+00  0.00000000000E+00  0.45593999997E+02  0.45594000000E+02  0.51100000000E-03 0. -1.
         11   -1    0    0    0    0 -0.00000000000E+00 -0.00000000000E+00 -0.45593999997E+02  0.45594000000E+02  0.51100000000E-03 0.  1.
    9900012    2    1    2    0    0 -0.10188957120E+02  0.28127897483E+01 -0.39261160519E+02  0.50528863774E+02  0.30000011927E+02 0.  0.
         12    1    1    2    0    0  0.10188957120E+02 -0.28127897483E+01  0.39261160519E+02  0.40659136226E+02  0.00000000000E+00 0. -1.
         11    1    3    3    0    0 -0.14539508460E+01 -0.55197932454E+01 -0.22902590538E+02  0.23603193516E+02  0.51100000000E-03 0. -1.
        -11    1    3    3    0    0 -0.96167135891E+01  0.13194226890E+02 -0.11310283427E+02  0.19861805430E+02  0.51100000000E-03 0.  1.
        -12    1    3    3    0    0  0.88170731524E+00 -0.48616438967E+01 -0.50482865544E+01  0.70638648277E+01  0.00000000000E+00 0.  1.
</event>
<event>
 7    1  0.3004200E-011  0.5052887E+02  0.7816164E-02  0.1300439E+00
        -11   -1    0    0    0    0  0.00000000000E+00  0.00000000000E+00  0.45593999997E+02  0.45594000000E+02  0.51100000000E-03 0.  1.
         11   -1    0    0    0    0 -0.00000000000E+00 -0.00000000000E+00 -0.45593999997E+02  0.45594000000E+02  0.51100000000E-03 0. -1.
    9900012    2    1    2    0    0  0.27213490207E+02  0.22587711211E+02  0.20059569893E+02  0.50528867062E+02  0.30000021921E+02 0.  0.
         12    1    1    2    0    0 -0.27213490207E+02 -0.22587711211E+02 -0.20059569893E+02  0.40659132938E+02  0.00000000000E+00 0. -1.
         11    1    3    3    0    0  0.10238391023E+02  0.14512255482E+01 -0.37155824648E+01  0.10988005263E+02  0.51100000000E-03 0. -1.
        -11    1    3    3    0    0  0.10956755588E+02  0.36044411615E+01  0.15295490164E+02  0.19157100739E+02  0.51100000000E-03 0.  1.
        -12    1    3    3    0    0  0.60183435958E+01  0.17532044502E+02  0.84796621938E+01  0.20383761060E+02  0.00000000000E+00 0.  1.
</event>
<event>
 7    1  0.3004200E-011  0.5052888E+02  0.7816164E-02  0.1300439E+00
        -11   -1    0    0    0    0  0.00000000000E+00  0.00000000000E+00  0.45593999997E+02  0.45594000000E+02  0.51100000000E-03 0.  1.
         11   -1    0    0    0    0 -0.00000000000E+00 -0.00000000000E+00 -0.45593999997E+02  0.45594000000E+02  0.51100000000E-03 0. -1.
    9900012    2    1    2    0    0  0.38217585043E+02  0.12575673915E+02 -0.58679411520E+01  0.50528879076E+02  0.30000058439E+02 0.  0.
         12    1    1    2    0    0 -0.38217585043E+02 -0.12575673915E+02  0.58679411520E+01  0.40659120924E+02  0.00000000000E+00 0. -1.
         11    1    3    3    0    0 -0.60941548761E+00  0.33847961875E+01 -0.30216942104E+01  0.45780856949E+01  0.51100000000E-03 0. -1.
        -11    1    3    3    0    0  0.35849096143E+02  0.53782261125E+01 -0.97334338101E+01  0.37534287583E+02  0.51100000000E-03 0.  1.
        -12    1    3    3    0    0  0.29779043884E+01  0.38126516150E+01  0.68871868686E+01  0.84165057979E+01  0.00000000000E+00 0.  1.
</event>
<event>
 7    1  0.3004200E-011  0.5052885E+02  0.7816164E-02  0.1300439E+00
        -11   -1    0    0    0    0  0.00000000000E+00  0.00000000000E+00  0.45593999997E+02  0.45594000000E+02  0.51100000000E-03 0. -1.
         11   -1    0    0    0    0 -0.00000000000E+00 -0.00000000000E+00 -0.45593999997E+02  0.45594000000E+02  0.51100000000E-03 0.  1.
    9900012    2    1    2    0    0 -0.31835955426E+02  0.33921039649E+00 -0.25288791110E+02  0.50528854935E+02  0.29999985062E+02 0.  0.
         12    1    1    2    0    0  0.31835955426E+02 -0.33921039649E+00  0.25288791110E+02  0.40659145065E+02  0.00000000000E+00 0. -1.
         11    1    3    3    0    0 -0.88182018150E+01  0.10732290018E+02 -0.61646450413E+01  0.15196893795E+02  0.51100000000E-03 0. -1.
        -11    1    3    3    0    0 -0.23812379560E+02 -0.10978262534E+02 -0.13256181273E+02  0.29381593061E+02  0.51100000000E-03 0.  1.
         12    1    3    3    0    0  0.79462594899E+00  0.58518291316E+00 -0.58679647956E+01  0.59503680796E+01  0.00000000000E+00 0. -1.
</event>
<event>
 7    1  0.3004200E-011  0.5052885E+02  0.7816164E-02  0.1300439E+00
        -11   -1    0    0    0    0  0.00000000000E+00  0.00000000000E+00  0.45593999997E+02  0.45594000000E+02  0.51100000000E-03 0. -1.
         11   -1    0    0    0    0 -0.00000000000E+00 -0.00000000000E+00 -0.45593999997E+02  0.45594000000E+02  0.51100000000E-03 0.  1.
    9900012    2    1    2    0    0 -0.33917346026E+02 -0.69877425185E+01 -0.21306132544E+02  0.50528853539E+02  0.29999980816E+02 0.  0.
         12    1    1    2    0    0  0.33917346026E+02  0.69877425185E+01  0.21306132544E+02  0.40659146461E+02  0.00000000000E+00 0. -1.
         11    1    3    3    0    0 -0.19303339464E+02 -0.14035696116E+02 -0.19195360684E+02  0.30628117016E+02  0.51100000000E-03 0. -1.
        -11    1    3    3    0    0 -0.13789943049E+02  0.21630951343E+01 -0.41215289065E+01  0.14554329619E+02  0.51100000000E-03 0.  1.
         12    1    3    3    0    0 -0.82406351315E+00  0.48848584634E+01  0.20107570462E+01  0.53464069037E+01  0.00000000000E+00 0. -1.
</event>
<event>
 7    1  0.3004200E-011  0.5052886E+02  0.7816164E-02  0.1300439E+00
        -11   -1    0    0    0    0  0.00000000000E+00  0.00000000000E+00  0.45593999997E+02  0.45594000000E+02  0.51100000000E-03 0.  1.
         11   -1    0    0    0    0 -0.00000000000E+00 -0.00000000000E+00 -0.45593999997E+02  0.45594000000E+02  0.51100000000E-03 0. -1.
    9900012    2    1    2    0    0 -0.40516513088E+02  0.30819142411E+01  0.14420099599E+01  0.50528863008E+02  0.30000009599E+02 0.  0.
         12    1    1    2    0    0  0.40516513088E+02 -0.30819142411E+01 -0.14420099599E+01  0.40659136992E+02  0.00000000000E+00 0. -1.
         11    1    3    3    0    0 -0.78068003467E+01 -0.95740957880E+01 -0.60995047501E+01  0.13777278406E+02  0.51100000000E-03 0. -1.
        -11    1    3    3    0    0 -0.15296609623E+02  0.83597100588E+01  0.37046773626E+00  0.17435832783E+02  0.51100000000E-03 0.  1.
         12    1    3    3    0    0 -0.17413103119E+02  0.42962999703E+01  0.71710469738E+01  0.19315751820E+02  0.00000000000E+00 0. -1.
</event>
<event>
 7    1  0.3004200E-011  0.5052885E+02  0.7816164E-02  0.1300439E+00
        -11   -1    0    0    0    0  0.00000000000E+00  0.00000000000E+00  0.45593999997E+02  0.45594000000E+02  0.51100000000E-03 0. -1.
         11   -1    0    0    0    0 -0.00000000000E+00 -0.00000000000E+00 -0.45593999997E+02  0.45594000000E+02  0.51100000000E-03 0.  1.
    9900012    2    1    2    0    0  0.26476968958E+02 -0.71621476908E+01 -0.30013999195E+02  0.50528851061E+02  0.29999973286E+02 0.  0.
         12    1    1    2    0    0 -0.26476968958E+02  0.71621476908E+01  0.30013999195E+02  0.40659148939E+02  0.00000000000E+00 0. -1.
         11    1    3    3    0    0 -0.27691790594E+01  0.35737609944E-02  0.18931359559E+01  0.33544492012E+01  0.51100000000E-03 0. -1.
        -11    1    3    3    0    0  0.20384453221E+02  0.26837338642E+01 -0.24540114640E+02  0.32014771393E+02  0.51100000000E-03 0.  1.
         12    1    3    3    0    0  0.88616947963E+01 -0.98494553160E+01 -0.73670205108E+01  0.15159630467E+02  0.00000000000E+00 0. -1.
</event>
<event>
 7    1  0.3004200E-011  0.5052886E+02  0.7816164E-02  0.1300439E+00
        -11   -1    0    0    0    0  0.00000000000E+00  0.00000000000E+00  0.45593999997E+02  0.45594000000E+02  0.51100000000E-03 0. -1.
         11   -1    0    0    0    0 -0.00000000000E+00 -0.00000000000E+00 -0.45593999997E+02  0.45594000000E+02  0.51100000000E-03 0.  1.
    9900012    2    1    2    0    0 -0.15347180836E+02 -0.54103631319E+00 -0.37647532740E+02  0.50528863250E+02  0.30000010334E+02 0.  0.
         12    1    1    2    0    0  0.15347180836E+02  0.54103631319E+00  0.37647532740E+02  0.40659136750E+02  0.00000000000E+00 0. -1.
         11    1    3    3    0    0 -0.13048615576E+02 -0.66898111015E+01 -0.39099426885E+01  0.15175888544E+02  0.51100000000E-03 0. -1.
        -11    1    3    3    0    0 -0.35535679475E+01  0.77339135876E+01 -0.28274829963E+02  0.29528076034E+02  0.51100000000E-03 0.  1.
         12    1    3    3    0    0  0.12550026875E+01 -0.15851387993E+01 -0.54627600879E+01  0.58248986718E+01  0.00000000000E+00 0. -1.
</event>
<event>
 7    1  0.3004200E-011  0.5052886E+02  0.7816164E-02  0.1300439E+00
        -11   -1    0    0    0    0  0.00000000000E+00  0.00000000000E+00  0.45593999997E+02  0.45594000000E+02  0.51100000000E-03 0. -1.
         11   -1    0    0    0    0 -0.00000000000E+00 -0.00000000000E+00 -0.45593999997E+02  0.45594000000E+02  0.51100000000E-03 0.  1.
    9900012    2    1    2    0    0 -0.13286130739E+02  0.20173454750E+02 -0.32705902434E+02  0.50528860799E+02  0.30000002883E+02 0.  0.
         12    1    1    2    0    0  0.13286130739E+02 -0.20173454750E+02  0.32705902434E+02  0.40659139201E+02  0.00000000000E+00 0. -1.
         11    1    3    3    0    0  0.20456758845E+01 -0.51626844415E+01 -0.60064426612E+01  0.81801866831E+01  0.51100000000E-03 0. -1.
        -11    1    3    3    0    0 -0.91728497835E+01  0.12252509737E+02 -0.22641132004E+02  0.27329215626E+02  0.51100000000E-03 0.  1.
         12    1    3    3    0    0 -0.61589568403E+01  0.13083629454E+02 -0.40583277687E+01  0.15019458490E+02  0.00000000000E+00 0. -1.
</event>
<event>
 7    1  0.3004200E-011  0.5052887E+02  0.7816164E-02  0.1300439E+00
        -11   -1    0    0    0    0  0.00000000000E+00  0.00000000000E+00  0.45593999997E+02  0.45594000000E+02  0.51100000000E-03 0. -1.
         11   -1    0    0    0    0 -0.00000000000E+00 -0.00000000000E+00 -0.45593999997E+02  0.45594000000E+02  0.51100000000E-03 0.  1.
    9900012    2    1    2    0    0 -0.12166319105E+02 -0.13142657243E+02 -0.36502271592E+02  0.50528873209E+02  0.30000040607E+02 0.  0.
         12    1    1    2    0    0  0.12166319105E+02  0.13142657243E+02  0.36502271592E+02  0.40659126791E+02  0.00000000000E+00 0. -1.
         11    1    3    3    0    0  0.17640942390E+01  0.64500022134E+01 -0.32618821298E+00  0.66948454835E+01  0.51100000000E-03 0. -1.
        -11    1    3    3    0    0 -0.66501966557E+01 -0.13315166654E+02 -0.24974976480E+02  0.29073497021E+02  0.51100000000E-03 0.  1.
        -12    1    3    3    0    0 -0.72802166884E+01 -0.62774928031E+01 -0.11201106900E+02  0.14760530705E+02  0.00000000000E+00 0.  1.
</event>
<event>
 7    1  0.3004200E-011  0.5052887E+02  0.7816164E-02  0.1300439E+00
        -11   -1    0    0    0    0  0.00000000000E+00  0.00000000000E+00  0.45593999997E+02  0.45594000000E+02  0.51100000000E-03 0.  1.
         11   -1    0    0    0    0 -0.00000000000E+00 -0.00000000000E+00 -0.45593999997E+02  0.45594000000E+02  0.51100000000E-03 0. -1.
    9900012    2    1    2    0    0  0.31392750326E+02  0.20669131944E+02  0.15506357287E+02  0.50528869357E+02  0.30000028897E+02 0.  0.
         12    1    1    2    0    0 -0.31392750326E+02 -0.20669131944E+02 -0.15506357287E+02  0.40659130643E+02  0.00000000000E+00 0. -1.
         11    1    3    3    0    0  0.39467253796E+01  0.69040264885E+01 -0.76425319474E+01  0.11029529356E+02  0.51100000000E-03 0. -1.
        -11    1    3    3    0    0  0.15195212084E+02  0.44540901637E+01  0.73908129802E+01  0.17474481573E+02  0.51100000000E-03 0.  1.
         12    1    3    3    0    0  0.12250812862E+02  0.93110152917E+01  0.15758076255E+02  0.22024858428E+02  0.00000000000E+00 0. -1.
</event>
<event>
 7    1  0.3004200E-011  0.5052886E+02  0.7816164E-02  0.1300439E+00
        -11   -1    0    0    0    0  0.00000000000E+00  0.00000000000E+00  0.45593999997E+02  0.45594000000E+02  0.51100000000E-03 0.  1.
         11   -1    0    0    0    0 -0.00000000000E+00 -0.00000000000E+00 -0.45593999997E+02  0.45594000000E+02  0.51100000000E-03 0. -1.
    9900012    2    1    2    0    0 -0.15621907264E+02 -0.34426321174E+02  0.14964963098E+02  0.50528859617E+02  0.29999999292E+02 0.  0.
         12    1    1    2    0    0  0.15621907264E+02  0.34426321174E+02 -0.14964963098E+02  0.40659140383E+02  0.00000000000E+00 0. -1.
         11    1    3    3    0    0  0.26335111123E+01 -0.14867378724E+01 -0.52908512110E+00  0.30701305520E+01  0.51100000000E-03 0. -1.
        -11    1    3    3    0    0 -0.10497702511E+02 -0.19802465218E+02  0.21504368869E+02  0.31060863920E+02  0.51100000000E-03 0.  1.
        -12    1    3    3    0    0 -0.77577158653E+01 -0.13137118084E+02 -0.60103206503E+01  0.16397865145E+02  0.00000000000E+00 0.  1.
</event>
<event>
 7    1  0.3004200E-011  0.5052886E+02  0.7816164E-02  0.1300439E+00
        -11   -1    0    0    0    0  0.00000000000E+00  0.00000000000E+00  0.45593999997E+02  0.45594000000E+02  0.51100000000E-03 0.  1.
         11   -1    0    0    0    0 -0.00000000000E+00 -0.00000000000E+00 -0.45593999997E+02  0.45594000000E+02  0.51100000000E-03 0. -1.
    9900012    2    1    2    0    0 -0.38537127142E+02 -0.12656382626E+02  0.28055576869E+01  0.50528863961E+02  0.30000012495E+02 0.  0.
         12    1    1    2    0    0  0.38537127142E+02  0.12656382626E+02 -0.28055576869E+01  0.40659136039E+02  0.00000000000E+00 0. -1.
         11    1    3    3    0    0  0.43349631696E+01  0.16577677273E+00 -0.46484458424E+00  0.43629655475E+01  0.51100000000E-03 0. -1.
        -11    1    3    3    0    0 -0.39755910255E+02 -0.13245328907E+02  0.55660546813E+01  0.42272356252E+02  0.51100000000E-03 0.  1.
         12    1    3    3    0    0 -0.31161800563E+01  0.42316950797E+00 -0.22956524102E+01  0.38935421616E+01  0.00000000000E+00 0. -1.
</event>
<event>
 7    1  0.3004200E-011  0.5052885E+02  0.7816164E-02  0.1300439E+00
        -11   -1    0    0    0    0  0.00000000000E+00  0.00000000000E+00  0.45593999997E+02  0.45594000000E+02  0.51100000000E-03 0. -1.
         11   -1    0    0    0    0 -0.00000000000E+00 -0.00000000000E+00 -0.45593999997E+02  0.45594000000E+02  0.51100000000E-03 0.  1.
    9900012    2    1    2    0    0 -0.20381940715E+02 -0.34242305715E+02  0.80751002170E+01  0.50528852794E+02  0.29999978553E+02 0.  0.
         12    1    1    2    0    0  0.20381940715E+02  0.34242305715E+02 -0.80751002170E+01  0.40659147206E+02  0.00000000000E+00 0. -1.
         11    1    3    3    0    0 -0.89024507782E+01 -0.79697316870E+01 -0.10314287463E+02  0.15784637441E+02  0.51100000000E-03 0. -1.
        -11    1    3    3    0    0 -0.76373821637E+01 -0.10907740884E+02  0.58535791711E+01  0.14545542509E+02  0.51100000000E-03 0.  1.
         12    1    3    3    0    0 -0.38421077729E+01 -0.15364833145E+02  0.12535808509E+02  0.20198672844E+02  0.00000000000E+00 0. -1.
</event>
<event>
 7    1  0.3004200E-011  0.5052886E+02  0.7816164E-02  0.1300439E+00
        -11   -1    0    0    0    0  0.00000000000E+00  0.00000000000E+00  0.45593999997E+02  0.45594000000E+02  0.51100000000E-03 0.  1.
         11   -1    0    0    0    0 -0.00000000000E+00 -0.00000000000E+00 -0.45593999997E+02  0.45594000000E+02  0.51100000000E-03 0. -1.
    9900012    2    1    2    0    0 -0.54903971841E+01 -0.24314097325E+02  0.32122354747E+02  0.50528862473E+02  0.30000007972E+02 0.  0.
         12    1    1    2    0    0  0.54903971841E+01  0.24314097325E+02 -0.32122354747E+02  0.40659137527E+02  0.00000000000E+00 0. -1.
         11    1    3    3    0    0 -0.40729543872E+01 -0.16839694341E+02  0.31869523539E+00  0.17328180224E+02  0.51100000000E-03 0. -1.
        -11    1    3    3    0    0 -0.85823909959E+00 -0.83022872464E+01  0.25858516500E+02  0.27172181063E+02  0.51100000000E-03 0.  1.
         12    1    3    3    0    0 -0.55920369732E+00  0.82788426247E+00  0.59451430113E+01  0.60285011862E+01  0.00000000000E+00 0. -1.
</event>
<event>
 7    1  0.3004200E-011  0.5052886E+02  0.7816164E-02  0.1300439E+00
        -11   -1    0    0    0    0  0.00000000000E+00  0.00000000000E+00  0.45593999997E+02  0.45594000000E+02  0.51100000000E-03 0.  1.
         11   -1    0    0    0    0 -0.00000000000E+00 -0.00000000000E+00 -0.45593999997E+02  0.45594000000E+02  0.51100000000E-03 0. -1.
    9900012    2    1    2    0    0  0.59775979553E+00  0.27029430484E+02  0.30368043612E+02  0.50528862013E+02  0.30000006573E+02 0.  0.
         12    1    1    2    0    0 -0.59775979553E+00 -0.27029430484E+02 -0.30368043612E+02  0.40659137987E+02  0.00000000000E+00 0. -1.
         11    1    3    3    0    0 -0.93274286949E+01  0.10450770922E+02  0.17931678024E+02  0.22754441675E+02  0.51100000000E-03 0. -1.
        -11    1    3    3    0    0  0.11616018048E+01  0.15650786136E+02  0.57563849847E+01  0.16716231447E+02  0.51100000000E-03 0.  1.
         12    1    3    3    0    0  0.87635866856E+01  0.92787342656E+00  0.66799806036E+01  0.11058188891E+02  0.00000000000E+00 0. -1.
</event>
<event>
 7    1  0.3004200E-011  0.5052882E+02  0.7816164E-02  0.1300439E+00
        -11   -1    0    0    0    0  0.00000000000E+00  0.00000000000E+00  0.45593999997E+02  0.45594000000E+02  0.51100000000E-03 0.  1.
         11   -1    0    0    0    0 -0.00000000000E+00 -0.00000000000E+00 -0.45593999997E+02  0.45594000000E+02  0.51100000000E-03 0. -1.
    9900012    2    1    2    0    0  0.28931861979E+01  0.19238784025E+02  0.35702481871E+02  0.50528824543E+02  0.29999892680E+02 0.  0.
         12    1    1    2    0    0 -0.28931861979E+01 -0.19238784025E+02 -0.35702481871E+02  0.40659175457E+02  0.00000000000E+00 0. -1.
         11    1    3    3    0    0 -0.92841733638E+00 -0.79751611204E+01  0.10056928110E+02  0.12868836657E+02  0.51100000000E-03 0. -1.
        -11    1    3    3    0    0  0.33252982993E+01  0.24960908272E+02  0.24273275994E+02  0.34975655509E+02  0.51100000000E-03 0.  1.
        -12    1    3    3    0    0  0.49630523495E+00  0.22530368736E+01  0.13722777669E+01  0.26843323768E+01  0.00000000000E+00 0.  1.
</event>
<event>
 7    1  0.3004200E-011  0.5052886E+02  0.7816164E-02  0.1300439E+00
        -11   -1    0    0    0    0  0.00000000000E+00  0.00000000000E+00  0.45593999997E+02  0.45594000000E+02  0.51100000000E-03 0. -1.
         11   -1    0    0    0    0 -0.00000000000E+00 -0.00000000000E+00 -0.45593999997E+02  0.45594000000E+02  0.51100000000E-03 0.  1.
    9900012    2    1    2    0    0  0.24538136285E+02  0.30556778668E+02 -0.10831824702E+02  0.50528864726E+02  0.30000014820E+02 0.  0.
         12    1    1    2    0    0 -0.24538136285E+02 -0.30556778668E+02  0.10831824702E+02  0.40659135274E+02  0.00000000000E+00 0. -1.
         11    1    3    3    0    0  0.14480212715E+02  0.49731181889E+01 -0.35158477819E+01  0.15708903548E+02  0.51100000000E-03 0. -1.
        -11    1    3    3    0    0 -0.37512616184E+01  0.17223130045E+02 -0.60142489459E+01  0.18624697660E+02  0.51100000000E-03 0.  1.
        -12    1    3    3    0    0  0.13809185188E+02  0.83605304341E+01 -0.13017279743E+01  0.16195263518E+02  0.00000000000E+00 0.  1.
</event>
<event>
 7    1  0.3004200E-011  0.5052884E+02  0.7816164E-02  0.1300439E+00
        -11   -1    0    0    0    0  0.00000000000E+00  0.00000000000E+00  0.45593999997E+02  0.45594000000E+02  0.51100000000E-03 0.  1.
         11   -1    0    0    0    0 -0.00000000000E+00 -0.00000000000E+00 -0.45593999997E+02  0.45594000000E+02  0.51100000000E-03 0. -1.
    9900012    2    1    2    0    0 -0.29547706792E+02  0.82084638670E+01  0.26696845206E+02  0.50528838675E+02  0.29999935636E+02 0.  0.
         12    1    1    2    0    0  0.29547706792E+02 -0.82084638670E+01 -0.26696845206E+02  0.40659161325E+02  0.00000000000E+00 0. -1.
         11    1    3    3    0    0 -0.11529269230E+02  0.97114044503E+01 -0.24624460564E+01  0.15274130621E+02  0.51100000000E-03 0. -1.
        -11    1    3    3    0    0 -0.62176870706E+01  0.31033078557E+01  0.12793210754E+02  0.14558722259E+02  0.51100000000E-03 0.  1.
         12    1    3    3    0    0 -0.11800750491E+02 -0.46062484391E+01  0.16366080509E+02  0.20695985796E+02  0.00000000000E+00 0. -1.
</event>
<event>
 7    1  0.3004200E-011  0.5052886E+02  0.7816164E-02  0.1300439E+00
        -11   -1    0    0    0    0  0.00000000000E+00  0.00000000000E+00  0.45593999997E+02  0.45594000000E+02  0.51100000000E-03 0.  1.
         11   -1    0    0    0    0 -0.00000000000E+00 -0.00000000000E+00 -0.45593999997E+02  0.45594000000E+02  0.51100000000E-03 0. -1.
    9900012    2    1    2    0    0 -0.40119888697E+02  0.36810752063E+01  0.54781271561E+01  0.50528860058E+02  0.30000000631E+02 0.  0.
         12    1    1    2    0    0  0.40119888697E+02 -0.36810752063E+01 -0.54781271561E+01  0.40659139942E+02  0.00000000000E+00 0. -1.
         11    1    3    3    0    0 -0.11606597814E+02 -0.11287745150E+02  0.11211164984E+01  0.16229085182E+02  0.51100000000E-03 0. -1.
        -11    1    3    3    0    0 -0.20362968856E+02  0.65262943188E+01 -0.98588625058E+00  0.21405956884E+02  0.51100000000E-03 0.  1.
         12    1    3    3    0    0 -0.81503220268E+01  0.84425260371E+01  0.53428969083E+01  0.12893817992E+02  0.00000000000E+00 0. -1.
</event>
<event>
 7    1  0.3004200E-011  0.5052889E+02  0.7816164E-02  0.1300439E+00
        -11   -1    0    0    0    0  0.00000000000E+00  0.00000000000E+00  0.45593999997E+02  0.45594000000E+02  0.51100000000E-03 0.  1.
         11   -1    0    0    0    0 -0.00000000000E+00 -0.00000000000E+00 -0.45593999997E+02  0.45594000000E+02  0.51100000000E-03 0. -1.
    9900012    2    1    2    0    0  0.15840757638E+02  0.34214942604E+02  0.15217475907E+02  0.50528886964E+02  0.30000082415E+02 0.  0.
         12    1    1    2    0    0 -0.15840757638E+02 -0.34214942604E+02 -0.15217475907E+02  0.40659113036E+02  0.00000000000E+00 0. -1.
         11    1    3    3    0    0  0.59343046465E+01  0.21697650732E+02 -0.60219777875E+01  0.23286653595E+02  0.51100000000E-03 0. -1.
        -11    1    3    3    0    0  0.79111704207E+01  0.10878770074E+02  0.13392281732E+02  0.18981239843E+02  0.51100000000E-03 0.  1.
         12    1    3    3    0    0  0.19952825711E+01  0.16385217978E+01  0.78471719624E+01  0.82609935254E+01  0.00000000000E+00 0. -1.
</event>
<event>
 7    1  0.3004200E-011  0.5052884E+02  0.7816164E-02  0.1300439E+00
        -11   -1    0    0    0    0  0.00000000000E+00  0.00000000000E+00  0.45593999997E+02  0.45594000000E+02  0.51100000000E-03 0. -1.
         11   -1    0    0    0    0 -0.00000000000E+00 -0.00000000000E+00 -0.45593999997E+02  0.45594000000E+02  0.51100000000E-03 0.  1.
    9900012    2    1    2    0    0  0.25327961575E+02  0.85158423731E+01 -0.30645421512E+02  0.50528842747E+02  0.29999948014E+02 0.  0.
         12    1    1    2    0    0 -0.25327961575E+02 -0.85158423731E+01  0.30645421512E+02  0.40659157253E+02  0.00000000000E+00 0. -1.
         11    1    3    3    0    0 -0.35437992167E+01 -0.44929624876E+01  0.74786348312E+00  0.57710072651E+01  0.51100000000E-03 0. -1.
        -11    1    3    3    0    0  0.16886902371E+02  0.90767702066E+01 -0.20783196188E+02  0.28275368664E+02  0.51100000000E-03 0.  1.
         12    1    3    3    0    0  0.11984858421E+02  0.39320346541E+01 -0.10610088807E+02  0.16482466817E+02  0.00000000000E+00 0. -1.
</event>
<event>
 7    1  0.3004200E-011  0.5052886E+02  0.7816164E-02  0.1300439E+00
        -11   -1    0    0    0    0  0.00000000000E+00  0.00000000000E+00  0.45593999997E+02  0.45594000000E+02  0.51100000000E-03 0. -1.
         11   -1    0    0    0    0 -0.00000000000E+00 -0.00000000000E+00 -0.45593999997E+02  0.45594000000E+02  0.51100000000E-03 0.  1.
    9900012    2    1    2    0    0 -0.46968478255E+01  0.20840971745E+02 -0.34594206332E+02  0.50528860874E+02  0.30000003112E+02 0.  0.
         12    1    1    2    0    0  0.46968478255E+01 -0.20840971745E+02  0.34594206332E+02  0.40659139126E+02  0.00000000000E+00 0. -1.
         11    1    3    3    0    0  0.21640578354E+01  0.65403723752E+01 -0.55631252254E+01  0.88548280422E+01  0.51100000000E-03 0. -1.
        -11    1    3    3    0    0 -0.14552491242E+02  0.14651867682E+02 -0.26442740252E+02  0.33551016978E+02  0.51100000000E-03 0.  1.
        -12    1    3    3    0    0  0.76915855813E+01 -0.35126831278E+00 -0.25883408542E+01  0.81230158537E+01  0.00000000000E+00 0.  1.
</event>
<event>
 7    1  0.3004200E-011  0.5052886E+02  0.7816164E-02  0.1300439E+00
        -11   -1    0    0    0    0  0.00000000000E+00  0.00000000000E+00  0.45593999997E+02  0.45594000000E+02  0.51100000000E-03 0.  1.
         11   -1    0    0    0    0 -0.00000000000E+00 -0.00000000000E+00 -0.45593999997E+02  0.45594000000E+02  0.51100000000E-03 0. -1.
    9900012    2    1    2    0    0  0.18605282733E+02 -0.19500656139E+02  0.30442292966E+02  0.50528864047E+02  0.30000012757E+02 0.  0.
         12    1    1    2    0    0 -0.18605282733E+02  0.19500656139E+02 -0.30442292966E+02  0.40659135953E+02  0.00000000000E+00 0. -1.
         11    1    3    3    0    0 -0.63370641797E+01 -0.55945314628E+01  0.17968673059E+01  0.86421002703E+01  0.51100000000E-03 0. -1.
        -11    1    3    3    0    0  0.19915281279E+02 -0.56923060166E+01  0.21804614050E+02  0.30074274228E+02  0.51100000000E-03 0.  1.
        -12    1    3    3    0    0  0.50270656338E+01 -0.82138186591E+01  0.68408116103E+01  0.11812489549E+02  0.00000000000E+00 0.  1.
</event>
<event>
 7    1  0.3004200E-011  0.5052886E+02  0.7816164E-02  0.1300439E+00
        -11   -1    0    0    0    0  0.00000000000E+00  0.00000000000E+00  0.45593999997E+02  0.45594000000E+02  0.51100000000E-03 0. -1.
         11   -1    0    0    0    0 -0.00000000000E+00 -0.00000000000E+00 -0.45593999997E+02  0.45594000000E+02  0.51100000000E-03 0.  1.
    9900012    2    1    2    0    0  0.17171308567E+02  0.31713680303E+02 -0.18776432728E+02  0.50528858565E+02  0.29999996095E+02 0.  0.
         12    1    1    2    0    0 -0.17171308567E+02 -0.31713680303E+02  0.18776432728E+02  0.40659141435E+02  0.00000000000E+00 0. -1.
         11    1    3    3    0    0  0.12733433773E+02  0.25890830512E+01  0.24159413187E+01  0.13216673538E+02  0.51100000000E-03 0. -1.
        -11    1    3    3    0    0  0.11883466123E+00  0.10719774145E+02 -0.12608119811E+02  0.16549693799E+02  0.51100000000E-03 0.  1.
         12    1    3    3    0    0  0.43190401328E+01  0.18404823106E+02 -0.85842542355E+01  0.20762491229E+02  0.00000000000E+00 0. -1.
</event>
<event>
 7    1  0.3004200E-011  0.5052886E+02  0.7816164E-02  0.1300439E+00
        -11   -1    0    0    0    0  0.00000000000E+00  0.00000000000E+00  0.45593999997E+02  0.45594000000E+02  0.51100000000E-03 0. -1.
         11   -1    0    0    0    0 -0.00000000000E+00 -0.00000000000E+00 -0.45593999997E+02  0.45594000000E+02  0.51100000000E-03 0.  1.
    9900012    2    1    2    0    0 -0.87148165240E+01 -0.33572245577E+02 -0.21216078504E+02  0.50528859733E+02  0.29999999645E+02 0.  0.
         12    1    1    2    0    0  0.87148165240E+01  0.33572245577E+02  0.21216078504E+02  0.40659140267E+02  0.00000000000E+00 0. -1.
         11    1    3    3    0    0  0.47603008462E+01 -0.14060194556E+02 -0.27975264577E+01  0.15105485416E+02  0.51100000000E-03 0. -1.
        -11    1    3    3    0    0 -0.15995225484E+02 -0.18894947568E+02 -0.10147895975E+02  0.26755299939E+02  0.51100000000E-03 0.  1.
        -12    1    3    3    0    0  0.25201081135E+01 -0.61710345359E+00 -0.82706560713E+01  0.86680743782E+01  0.00000000000E+00 0.  1.
</event>
<event>
 7    1  0.3004200E-011  0.5052886E+02  0.7816164E-02  0.1300439E+00
        -11   -1    0    0    0    0  0.00000000000E+00  0.00000000000E+00  0.45593999997E+02  0.45594000000E+02  0.51100000000E-03 0.  1.
         11   -1    0    0    0    0 -0.00000000000E+00 -0.00000000000E+00 -0.45593999997E+02  0.45594000000E+02  0.51100000000E-03 0. -1.
    9900012    2    1    2    0    0 -0.15426102064E+02 -0.40662821897E+01  0.37398750495E+02  0.50528858170E+02  0.29999994895E+02 0.  0.
         12    1    1    2    0    0  0.15426102064E+02  0.40662821897E+01 -0.37398750495E+02  0.40659141830E+02  0.00000000000E+00 0. -1.
         11    1    3    3    0    0 -0.10988399795E+02 -0.58535063170E+01  0.23991041911E+01  0.12679281030E+02  0.51100000000E-03 0. -1.
        -11    1    3    3    0    0  0.46655439861E+01  0.17950456906E+01  0.16343908376E+02  0.17091308638E+02  0.51100000000E-03 0.  1.
         12    1    3    3    0    0 -0.91032462554E+01 -0.78215633281E-02  0.18655737928E+02  0.20758268502E+02  0.00000000000E+00 0. -1.
</event>
<event>
 7    1  0.3004200E-011  0.5052886E+02  0.7816164E-02  0.1300439E+00
        -11   -1    0    0    0    0  0.00000000000E+00  0.00000000000E+00  0.45593999997E+02  0.45594000000E+02  0.51100000000E-03 0. -1.
         11   -1    0    0    0    0 -0.00000000000E+00 -0.00000000000E+00 -0.45593999997E+02  0.45594000000E+02  0.51100000000E-03 0.  1.
    9900012    2    1    2    0    0  0.38975123304E+02 -0.19058077170E+01 -0.11422501933E+02  0.50528857239E+02  0.29999992065E+02 0.  0.
         12    1    1    2    0    0 -0.38975123304E+02  0.19058077170E+01  0.11422501933E+02  0.40659142761E+02  0.00000000000E+00 0. -1.
         11    1    3    3    0    0  0.20423412793E+02 -0.12135049903E+02 -0.11921810456E+01  0.23786477716E+02  0.51100000000E-03 0. -1.
        -11    1    3    3    0    0  0.10014902600E+02  0.62283058018E+01 -0.12352654548E+02  0.17078587233E+02  0.51100000000E-03 0.  1.
        -12    1    3    3    0    0  0.85368079107E+01  0.40009363840E+01  0.21223336599E+01  0.96637922896E+01  0.00000000000E+00 0.  1.
</event>
<event>
 7    1  0.3004200E-011  0.5052886E+02  0.7816164E-02  0.1300439E+00
        -11   -1    0    0    0    0  0.00000000000E+00  0.00000000000E+00  0.45593999997E+02  0.45594000000E+02  0.51100000000E-03 0.  1.
         11   -1    0    0    0    0 -0.00000000000E+00 -0.00000000000E+00 -0.45593999997E+02  0.45594000000E+02  0.51100000000E-03 0. -1.
    9900012    2    1    2    0    0 -0.25598965065E+02 -0.16504596623E+01  0.31545749211E+02  0.50528864215E+02  0.30000013269E+02 0.  0.
         12    1    1    2    0    0  0.25598965065E+02  0.16504596623E+01 -0.31545749211E+02  0.40659135785E+02  0.00000000000E+00 0. -1.
         11    1    3    3    0    0 -0.14170014771E+02 -0.57253598231E+01  0.47411738364E+01  0.16001493472E+02  0.51100000000E-03 0.  1.
        -11    1    3    3    0    0 -0.19885417958E+00  0.90928889135E+01  0.14590071129E+02  0.17192741131E+02  0.51100000000E-03 0. -1.
         12    1    3    3    0    0 -0.11230096114E+02 -0.50179887528E+01  0.12214504245E+02  0.17334629613E+02  0.00000000000E+00 0. -1.
</event>
<event>
 7    1  0.3004200E-011  0.5052885E+02  0.7816164E-02  0.1300439E+00
        -11   -1    0    0    0    0  0.00000000000E+00  0.00000000000E+00  0.45593999997E+02  0.45594000000E+02  0.51100000000E-03 0.  1.
         11   -1    0    0    0    0 -0.00000000000E+00 -0.00000000000E+00 -0.45593999997E+02  0.45594000000E+02  0.51100000000E-03 0. -1.
    9900012    2    1    2    0    0  0.10042254017E+01  0.38495335687E+02  0.13048643264E+02  0.50528850608E+02  0.29999971907E+02 0.  0.
         12    1    1    2    0    0 -0.10042254017E+01 -0.38495335687E+02 -0.13048643264E+02  0.40659149392E+02  0.00000000000E+00 0. -1.
         11    1    3    3    0    0 -0.70012904180E+01  0.41553096189E+01  0.10209860145E+02  0.13058556964E+02  0.51100000000E-03 0. -1.
        -11    1    3    3    0    0  0.57874506695E+01  0.12771692000E+02  0.65443737503E+01  0.15473833715E+02  0.51100000000E-03 0.  1.
         12    1    3    3    0    0  0.22180651502E+01  0.21568334068E+02 -0.37055906312E+01  0.21996459929E+02  0.00000000000E+00 0. -1.
</event>
<event>
 7    1  0.3004200E-011  0.5052884E+02  0.7816164E-02  0.1300439E+00
        -11   -1    0    0    0    0  0.00000000000E+00  0.00000000000E+00  0.45593999997E+02  0.45594000000E+02  0.51100000000E-03 0.  1.
         11   -1    0    0    0    0 -0.00000000000E+00 -0.00000000000E+00 -0.45593999997E+02  0.45594000000E+02  0.51100000000E-03 0. -1.
    9900012    2    1    2    0    0  0.34177302136E+02 -0.46775814602E+01  0.21522073884E+02  0.50528838500E+02  0.29999935104E+02 0.  0.
         12    1    1    2    0    0 -0.34177302136E+02  0.46775814602E+01 -0.21522073884E+02  0.40659161500E+02  0.00000000000E+00 0. -1.
         11    1    3    3    0    0  0.21162845083E+02 -0.90860138591E+01  0.10979409438E+01  0.23057040886E+02  0.51100000000E-03 0. -1.
        -11    1    3    3    0    0  0.66247057445E+01  0.82185420826E+01  0.91803289616E+01  0.13989624736E+02  0.51100000000E-03 0.  1.
        -12    1    3    3    0    0  0.63897513091E+01 -0.38101096836E+01  0.11243803978E+02  0.13482172877E+02  0.00000000000E+00 0.  1.
</event>
<event>
 7    1  0.3004200E-011  0.5052886E+02  0.7816164E-02  0.1300439E+00
        -11   -1    0    0    0    0  0.00000000000E+00  0.00000000000E+00  0.45593999997E+02  0.45594000000E+02  0.51100000000E-03 0. -1.
         11   -1    0    0    0    0 -0.00000000000E+00 -0.00000000000E+00 -0.45593999997E+02  0.45594000000E+02  0.51100000000E-03 0.  1.
    9900012    2    1    2    0    0  0.40595252578E+01  0.14884272587E+02 -0.37618404485E+02  0.50528859923E+02  0.30000000223E+02 0.  0.
         12    1    1    2    0    0 -0.40595252578E+01 -0.14884272587E+02  0.37618404485E+02  0.40659140077E+02  0.00000000000E+00 0. -1.
         11    1    3    3    0    0  0.17808889960E+01 -0.23780600815E+01 -0.61901258787E+01  0.68661775409E+01  0.51100000000E-03 0. -1.
        -11    1    3    3    0    0 -0.10127204987E+02  0.96412664849E+01 -0.80874585620E+01  0.16153058117E+02  0.51100000000E-03 0.  1.
        -12    1    3    3    0    0  0.12405841249E+02  0.76210661835E+01 -0.23340820044E+02  0.27509624265E+02  0.00000000000E+00 0.  1.
</event>
<event>
 7    1  0.3004200E-011  0.5052885E+02  0.7816164E-02  0.1300439E+00
        -11   -1    0    0    0    0  0.00000000000E+00  0.00000000000E+00  0.45593999997E+02  0.45594000000E+02  0.51100000000E-03 0. -1.
         11   -1    0    0    0    0 -0.00000000000E+00 -0.00000000000E+00 -0.45593999997E+02  0.45594000000E+02  0.51100000000E-03 0.  1.
    9900012    2    1    2    0    0 -0.28868297795E+02 -0.28548284031E+02  0.21869953742E+01  0.50528854812E+02  0.29999984686E+02 0.  0.
         12    1    1    2    0    0  0.28868297795E+02  0.28548284031E+02 -0.21869953742E+01  0.40659145188E+02  0.00000000000E+00 0. -1.
         11    1    3    3    0    0 -0.12824997060E+02 -0.64600638644E+01  0.11284948700E+02  0.18263708335E+02  0.51100000000E-03 0. -1.
        -11    1    3    3    0    0 -0.28561097287E+01 -0.75185158641E+01 -0.97048637075E+01  0.12604357319E+02  0.51100000000E-03 0.  1.
        -12    1    3    3    0    0 -0.13187191007E+02 -0.14569704302E+02  0.60691038137E+00  0.19660789158E+02  0.00000000000E+00 0.  1.
</event>
<event>
 7    1  0.3004200E-011  0.5052885E+02  0.7816164E-02  0.1300439E+00
        -11   -1    0    0    0    0  0.00000000000E+00  0.00000000000E+00  0.45593999997E+02  0.45594000000E+02  0.51100000000E-03 0.  1.
         11   -1    0    0    0    0 -0.00000000000E+00 -0.00000000000E+00 -0.45593999997E+02  0.45594000000E+02  0.51100000000E-03 0. -1.
    9900012    2    1    2    0    0 -0.32164572278E+02 -0.49013264056E+01  0.24384092553E+02  0.50528847525E+02  0.29999962536E+02 0.  0.
         12    1    1    2    0    0  0.32164572278E+02  0.49013264056E+01 -0.24384092553E+02  0.40659152475E+02  0.00000000000E+00 0. -1.
         11    1    3    3    0    0 -0.19777223350E+02 -0.10538052595E+02  0.51601381878E+01  0.22996002746E+02  0.51100000000E-03 0. -1.
        -11    1    3    3    0    0 -0.15098670898E+02  0.60869170993E+01  0.13370839130E+02  0.21066555532E+02  0.51100000000E-03 0.  1.
         12    1    3    3    0    0  0.27113219695E+01 -0.45019091044E+00  0.58531152346E+01  0.64662892472E+01  0.00000000000E+00 0. -1.
</event>
<event>
 7    1  0.3004200E-011  0.5052887E+02  0.7816164E-02  0.1300439E+00
        -11   -1    0    0    0    0  0.00000000000E+00  0.00000000000E+00  0.45593999997E+02  0.45594000000E+02  0.51100000000E-03 0.  1.
         11   -1    0    0    0    0 -0.00000000000E+00 -0.00000000000E+00 -0.45593999997E+02  0.45594000000E+02  0.51100000000E-03 0. -1.
    9900012    2    1    2    0    0 -0.37156419031E+02 -0.46871469277E+01  0.15830218624E+02  0.50528872572E+02  0.30000038670E+02 0.  0.
         12    1    1    2    0    0  0.37156419031E+02  0.46871469277E+01 -0.15830218624E+02  0.40659127428E+02  0.00000000000E+00 0. -1.
         11    1    3    3    0    0 -0.10082942204E+02 -0.96721311216E+01  0.22647098042E+01  0.14154319294E+02  0.51100000000E-03 0. -1.
        -11    1    3    3    0    0 -0.82585048426E+01  0.10248775258E+02  0.99633649858E+01  0.16507844760E+02  0.51100000000E-03 0.  1.
         12    1    3    3    0    0 -0.18814971984E+02 -0.52637910644E+01  0.36021438343E+01  0.19866708518E+02  0.00000000000E+00 0. -1.
</event>
<event>
 7    1  0.3004200E-011  0.5052884E+02  0.7816164E-02  0.1300439E+00
        -11   -1    0    0    0    0  0.00000000000E+00  0.00000000000E+00  0.45593999997E+02  0.45594000000E+02  0.51100000000E-03 0.  1.
         11   -1    0    0    0    0 -0.00000000000E+00 -0.00000000000E+00 -0.45593999997E+02  0.45594000000E+02  0.51100000000E-03 0. -1.
    9900012    2    1    2    0    0 -0.18311037859E+02 -0.23779427940E+02  0.27430124558E+02  0.50528843172E+02  0.29999949307E+02 0.  0.
         12    1    1    2    0    0  0.18311037859E+02  0.23779427940E+02 -0.27430124558E+02  0.40659156828E+02  0.00000000000E+00 0. -1.
         11    1    3    3    0    0  0.82451165252E+00  0.20099488059E+01  0.18615814104E+01  0.28609787270E+01  0.51100000000E-03 0. -1.
        -11    1    3    3    0    0 -0.22961672370E+02 -0.12796984484E+02  0.19970731447E+02  0.33012593426E+02  0.51100000000E-03 0.  1.
        -12    1    3    3    0    0  0.38261228582E+01 -0.12992392262E+02  0.55978117011E+01  0.14655271020E+02  0.00000000000E+00 0.  1.
</event>
<event>
 7    1  0.3004200E-011  0.5052880E+02  0.7816164E-02  0.1300439E+00
        -11   -1    0    0    0    0  0.00000000000E+00  0.00000000000E+00  0.45593999997E+02  0.45594000000E+02  0.51100000000E-03 0.  1.
         11   -1    0    0    0    0 -0.00000000000E+00 -0.00000000000E+00 -0.45593999997E+02  0.45594000000E+02  0.51100000000E-03 0. -1.
    9900012    2    1    2    0    0  0.20374036692E+02  0.25851680110E+02  0.23869633603E+02  0.50528804927E+02  0.29999833056E+02 0.  0.
         12    1    1    2    0    0 -0.20374036692E+02 -0.25851680110E+02 -0.23869633603E+02  0.40659195073E+02  0.00000000000E+00 0. -1.
         11    1    3    3    0    0 -0.24270905393E+01  0.16670407930E+02  0.14479510844E+02  0.22213723316E+02  0.51100000000E-03 0. -1.
        -11    1    3    3    0    0  0.16385898130E+02  0.92056696794E+01  0.10896937814E+02  0.21725221881E+02  0.51100000000E-03 0.  1.
         12    1    3    3    0    0  0.64152291008E+01 -0.24397498764E-01 -0.15068150551E+01  0.65898597302E+01  0.00000000000E+00 0. -1.
</event>
<event>
 7    1  0.3004200E-011  0.5052886E+02  0.7816164E-02  0.1300439E+00
        -11   -1    0    0    0    0  0.00000000000E+00  0.00000000000E+00  0.45593999997E+02  0.45594000000E+02  0.51100000000E-03 0.  1.
         11   -1    0    0    0    0 -0.00000000000E+00 -0.00000000000E+00 -0.45593999997E+02  0.45594000000E+02  0.51100000000E-03 0. -1.
    9900012    2    1    2    0    0  0.25930435109E+01 -0.25065971467E+02  0.31908290530E+02  0.50528858288E+02  0.29999995253E+02 0.  0.
         12    1    1    2    0    0 -0.25930435109E+01  0.25065971467E+02 -0.31908290530E+02  0.40659141712E+02  0.00000000000E+00 0. -1.
         11    1    3    3    0    0 -0.26770826080E+01 -0.25251034882E+01  0.97411711452E+00  0.38068127521E+01  0.51100000000E-03 0. -1.
        -11    1    3    3    0    0  0.72987456237E+01 -0.13796777237E+01  0.22768431703E+02  0.23949460970E+02  0.51100000000E-03 0.  1.
        -12    1    3    3    0    0 -0.20286195048E+01 -0.21161190255E+02  0.81657417123E+01  0.22772584566E+02  0.00000000000E+00 0.  1.
</event>
<event>
 7    1  0.3004200E-011  0.5052886E+02  0.7816164E-02  0.1300439E+00
        -11   -1    0    0    0    0  0.00000000000E+00  0.00000000000E+00  0.45593999997E+02  0.45594000000E+02  0.51100000000E-03 0.  1.
         11   -1    0    0    0    0 -0.00000000000E+00 -0.00000000000E+00 -0.45593999997E+02  0.45594000000E+02  0.51100000000E-03 0. -1.
    9900012    2    1    2    0    0  0.16490337515E+02 -0.61861085645E+01  0.36646505710E+02  0.50528861405E+02  0.30000004725E+02 0.  0.
         12    1    1    2    0    0 -0.16490337515E+02  0.61861085645E+01 -0.36646505710E+02  0.40659138595E+02  0.00000000000E+00 0. -1.
         11    1    3    3    0    0  0.10231493368E+02  0.35335060325E+01  0.32638832597E+02  0.34386952685E+02  0.51100000000E-03 0.  1.
        -11    1    3    3    0    0 -0.23057561915E+01 -0.54910608246E+01  0.53853013252E+00  0.59798223685E+01  0.51100000000E-03 0. -1.
         12    1    3    3    0    0  0.85646003393E+01 -0.42285537725E+01  0.34691429804E+01  0.10162086351E+02  0.00000000000E+00 0. -1.
</event>
<event>
 7    1  0.3004200E-011  0.5052886E+02  0.7816164E-02  0.1300439E+00
        -11   -1    0    0    0    0  0.00000000000E+00  0.00000000000E+00  0.45593999997E+02  0.45594000000E+02  0.51100000000E-03 0.  1.
         11   -1    0    0    0    0 -0.00000000000E+00 -0.00000000000E+00 -0.45593999997E+02  0.45594000000E+02  0.51100000000E-03 0. -1.
    9900012    2    1    2    0    0  0.20367323242E+02  0.23819969017E+02  0.25902648861E+02  0.50528855911E+02  0.29999988028E+02 0.  0.
         12    1    1    2    0    0 -0.20367323242E+02 -0.23819969017E+02 -0.25902648861E+02  0.40659144089E+02  0.00000000000E+00 0. -1.
         11    1    3    3    0    0  0.15304954548E+02  0.15099544285E+01  0.49420500141E+01  0.16153806199E+02  0.51100000000E-03 0. -1.
        -11    1    3    3    0    0  0.96265335597E+01  0.19124396978E+02  0.18473661100E+02  0.28278770533E+02  0.51100000000E-03 0.  1.
        -12    1    3    3    0    0 -0.45641648658E+01  0.31856176104E+01  0.24869377470E+01  0.60962791799E+01  0.00000000000E+00 0.  1.
</event>
<event>
 7    1  0.3004200E-011  0.5052885E+02  0.7816164E-02  0.1300439E+00
        -11   -1    0    0    0    0  0.00000000000E+00  0.00000000000E+00  0.45593999997E+02  0.45594000000E+02  0.51100000000E-03 0.  1.
         11   -1    0    0    0    0 -0.00000000000E+00 -0.00000000000E+00 -0.45593999997E+02  0.45594000000E+02  0.51100000000E-03 0. -1.
    9900012    2    1    2    0    0 -0.39556427366E+02  0.92911091204E+01 -0.14596037587E+01  0.50528854685E+02  0.29999984300E+02 0.  0.
         12    1    1    2    0    0  0.39556427366E+02 -0.92911091204E+01  0.14596037587E+01  0.40659145315E+02  0.00000000000E+00 0. -1.
         11    1    3    3    0    0 -0.19704483970E+01 -0.32162905623E+01  0.30829631053E+01  0.48715350390E+01  0.51100000000E-03 0. -1.
        -11    1    3    3    0    0 -0.27909189532E+02  0.12330137690E+02 -0.12651865403E+02  0.33030665362E+02  0.51100000000E-03 0.  1.
        -12    1    3    3    0    0 -0.96767894368E+01  0.17726199260E+00  0.81092985393E+01  0.12626654284E+02  0.00000000000E+00 0.  1.
</event>
<event>
 7    1  0.3004200E-011  0.5052887E+02  0.7816164E-02  0.1300439E+00
        -11   -1    0    0    0    0  0.00000000000E+00  0.00000000000E+00  0.45593999997E+02  0.45594000000E+02  0.51100000000E-03 0. -1.
         11   -1    0    0    0    0 -0.00000000000E+00 -0.00000000000E+00 -0.45593999997E+02  0.45594000000E+02  0.51100000000E-03 0.  1.
    9900012    2    1    2    0    0  0.35719310499E+02  0.87828916995E+01 -0.17325037329E+02  0.50528865140E+02  0.30000016080E+02 0.  0.
         12    1    1    2    0    0 -0.35719310499E+02 -0.87828916995E+01  0.17325037329E+02  0.40659134860E+02  0.00000000000E+00 0. -1.
         11    1    3    3    0    0 -0.14231601425E+01 -0.12261473828E+01 -0.11841133130E+01  0.22205735283E+01  0.51100000000E-03 0. -1.
        -11    1    3    3    0    0  0.38576090384E+02  0.12366476429E+02 -0.10224596626E+02  0.41780220979E+02  0.51100000000E-03 0.  1.
        -12    1    3    3    0    0 -0.14336197428E+01 -0.23574373471E+01 -0.59163273893E+01  0.65280706331E+01  0.00000000000E+00 0.  1.
</event>
<event>
 7    1  0.3004200E-011  0.5052885E+02  0.7816164E-02  0.1300439E+00
        -11   -1    0    0    0    0  0.00000000000E+00  0.00000000000E+00  0.45593999997E+02  0.45594000000E+02  0.51100000000E-03 0.  1.
         11   -1    0    0    0    0 -0.00000000000E+00 -0.00000000000E+00 -0.45593999997E+02  0.45594000000E+02  0.51100000000E-03 0. -1.
    9900012    2    1    2    0    0  0.19963088172E+02  0.20469871087E+02  0.28907188900E+02  0.50528854881E+02  0.29999984896E+02 0.  0.
         12    1    1    2    0    0 -0.19963088172E+02 -0.20469871087E+02 -0.28907188900E+02  0.40659145119E+02  0.00000000000E+00 0. -1.
         11    1    3    3    0    0 -0.34072946640E+01  0.60118662638E+00 -0.18826394195E+01  0.39389609965E+01  0.51100000000E-03 0. -1.
        -11    1    3    3    0    0  0.15830523261E+02  0.12350337863E+02  0.29749978086E+02  0.35891468463E+02  0.51100000000E-03 0.  1.
        -12    1    3    3    0    0  0.75398595754E+01  0.75183465981E+01  0.10398502332E+01  0.10698425421E+02  0.00000000000E+00 0.  1.
</event>
<event>
 7    1  0.3004200E-011  0.5052886E+02  0.7816164E-02  0.1300439E+00
        -11   -1    0    0    0    0  0.00000000000E+00  0.00000000000E+00  0.45593999997E+02  0.45594000000E+02  0.51100000000E-03 0. -1.
         11   -1    0    0    0    0 -0.00000000000E+00 -0.00000000000E+00 -0.45593999997E+02  0.45594000000E+02  0.51100000000E-03 0.  1.
    9900012    2    1    2    0    0 -0.33812510472E+02 -0.21377284179E+02  0.72726466991E+01  0.50528861626E+02  0.30000005397E+02 0.  0.
         12    1    1    2    0    0  0.33812510472E+02  0.21377284179E+02 -0.72726466991E+01  0.40659138374E+02  0.00000000000E+00 0. -1.
         11    1    3    3    0    0 -0.48201252687E+01 -0.80482623441E+01  0.14207716525E+02  0.17025490991E+02  0.51100000000E-03 0. -1.
        -11    1    3    3    0    0 -0.23706561330E+02 -0.12379210699E+02 -0.31410371090E+01  0.26927904151E+02  0.51100000000E-03 0.  1.
         12    1    3    3    0    0 -0.52858238739E+01 -0.94981113659E+00 -0.37940327166E+01  0.65754664835E+01  0.00000000000E+00 0. -1.
</event>
<event>
 7    1  0.3004200E-011  0.5052886E+02  0.7816164E-02  0.1300439E+00
        -11   -1    0    0    0    0  0.00000000000E+00  0.00000000000E+00  0.45593999997E+02  0.45594000000E+02  0.51100000000E-03 0. -1.
         11   -1    0    0    0    0 -0.00000000000E+00 -0.00000000000E+00 -0.45593999997E+02  0.45594000000E+02  0.51100000000E-03 0.  1.
    9900012    2    1    2    0    0 -0.23429393728E+02 -0.33044684880E+02 -0.35039828926E+01  0.50528860986E+02  0.30000003453E+02 0.  0.
         12    1    1    2    0    0  0.23429393728E+02  0.33044684880E+02  0.35039828926E+01  0.40659139014E+02  0.00000000000E+00 0. -1.
         11    1    3    3    0    0  0.49581324444E+01 -0.37004492353E+01  0.39328682056E+01  0.73310200152E+01  0.51100000000E-03 0. -1.
        -11    1    3    3    0    0 -0.24730437133E+02 -0.17892016601E+02 -0.56835913470E+01  0.31048703511E+02  0.51100000000E-03 0.  1.
         12    1    3    3    0    0 -0.36570890391E+01 -0.11452219044E+02 -0.17532597512E+01  0.12149137460E+02  0.00000000000E+00 0. -1.
</event>
<event>
 7    1  0.3004200E-011  0.5052899E+02  0.7816164E-02  0.1300438E+00
        -11   -1    0    0    0    0  0.00000000000E+00  0.00000000000E+00  0.45593999997E+02  0.45594000000E+02  0.51100000000E-03 0. -1.
         11   -1    0    0    0    0 -0.00000000000E+00 -0.00000000000E+00 -0.45593999997E+02  0.45594000000E+02  0.51100000000E-03 0.  1.
    9900012    2    1    2    0    0 -0.14933083571E+02 -0.34383735866E+02 -0.15745382906E+02  0.50528986733E+02  0.30000385671E+02 0.  0.
         12    1    1    2    0    0  0.14933083571E+02  0.34383735866E+02  0.15745382906E+02  0.40659013267E+02  0.00000000000E+00 0. -1.
         11    1    3    3    0    0  0.53246282518E+00  0.13213887843E+01  0.25673520215E+00  0.14475835743E+01  0.51100000000E-03 0. -1.
        -11    1    3    3    0    0 -0.75524033857E+01 -0.37292819490E+02 -0.15189776385E+02  0.40969775315E+02  0.51100000000E-03 0.  1.
        -12    1    3    3    0    0 -0.79131430101E+01  0.15876948405E+01 -0.81234172318E+00  0.81116278440E+01  0.00000000000E+00 0.  1.
</event>
<event>
 7    1  0.3004200E-011  0.5052887E+02  0.7816164E-02  0.1300439E+00
        -11   -1    0    0    0    0  0.00000000000E+00  0.00000000000E+00  0.45593999997E+02  0.45594000000E+02  0.51100000000E-03 0.  1.
         11   -1    0    0    0    0 -0.00000000000E+00 -0.00000000000E+00 -0.45593999997E+02  0.45594000000E+02  0.51100000000E-03 0. -1.
    9900012    2    1    2    0    0 -0.84138820809E+01 -0.17937765685E+02  0.35505044765E+02  0.50528867530E+02  0.30000023343E+02 0.  0.
         12    1    1    2    0    0  0.84138820809E+01  0.17937765685E+02 -0.35505044765E+02  0.40659132470E+02  0.00000000000E+00 0. -1.
         11    1    3    3    0    0 -0.64406329585E+01 -0.32060861055E+00 -0.23387351408E+01  0.68596082328E+01  0.51100000000E-03 0. -1.
        -11    1    3    3    0    0 -0.40628721384E+01 -0.18325613999E+02  0.28926088243E+02  0.34482657087E+02  0.51100000000E-03 0.  1.
        -12    1    3    3    0    0  0.20896230160E+01  0.70845692448E+00  0.89176916635E+01  0.91866022102E+01  0.00000000000E+00 0.  1.
</event>
<event>
 7    1  0.3004200E-011  0.5052878E+02  0.7816164E-02  0.1300439E+00
        -11   -1    0    0    0    0  0.00000000000E+00  0.00000000000E+00  0.45593999997E+02  0.45594000000E+02  0.51100000000E-03 0.  1.
         11   -1    0    0    0    0 -0.00000000000E+00 -0.00000000000E+00 -0.45593999997E+02  0.45594000000E+02  0.51100000000E-03 0. -1.
    9900012    2    1    2    0    0  0.10663235064E+00  0.38049169991E+02  0.14332518746E+02  0.50528784549E+02  0.29999771116E+02 0.  0.
         12    1    1    2    0    0 -0.10663235064E+00 -0.38049169991E+02 -0.14332518746E+02  0.40659215451E+02  0.00000000000E+00 0. -1.
         11    1    3    3    0    0  0.30773950971E+01  0.30474623241E+01 -0.22578260182E+01  0.48841750368E+01  0.51100000000E-03 0. -1.
        -11    1    3    3    0    0 -0.89283789864E+01  0.17176368281E+02  0.18470331272E+02  0.26756246303E+02  0.51100000000E-03 0.  1.
        -12    1    3    3    0    0  0.59576162399E+01  0.17825339385E+02 -0.18799865080E+01  0.18888363209E+02  0.00000000000E+00 0.  1.
</event>
<event>
 7    1  0.3004200E-011  0.5052887E+02  0.7816164E-02  0.1300439E+00
        -11   -1    0    0    0    0  0.00000000000E+00  0.00000000000E+00  0.45593999997E+02  0.45594000000E+02  0.51100000000E-03 0.  1.
         11   -1    0    0    0    0 -0.00000000000E+00 -0.00000000000E+00 -0.45593999997E+02  0.45594000000E+02  0.51100000000E-03 0. -1.
    9900012    2    1    2    0    0 -0.15350730062E+02 -0.19462766350E+02  0.32229188387E+02  0.50528870994E+02  0.30000033874E+02 0.  0.
         12    1    1    2    0    0  0.15350730062E+02  0.19462766350E+02 -0.32229188387E+02  0.40659129006E+02  0.00000000000E+00 0. -1.
         11    1    3    3    0    0  0.53943586762E+01 -0.44799816935E+01  0.15313222756E+02  0.16842331577E+02  0.51100000000E-03 0. -1.
        -11    1    3    3    0    0 -0.40643566349E+01 -0.10628955079E+02  0.98668370771E+01  0.15061479180E+02  0.51100000000E-03 0.  1.
         12    1    3    3    0    0 -0.16680732103E+02 -0.43538295771E+01  0.70491285538E+01  0.18625060237E+02  0.00000000000E+00 0. -1.
</event>
<event>
 7    1  0.3004200E-011  0.5052886E+02  0.7816164E-02  0.1300439E+00
        -11   -1    0    0    0    0  0.00000000000E+00  0.00000000000E+00  0.45593999997E+02  0.45594000000E+02  0.51100000000E-03 0.  1.
         11   -1    0    0    0    0 -0.00000000000E+00 -0.00000000000E+00 -0.45593999997E+02  0.45594000000E+02  0.51100000000E-03 0. -1.
    9900012    2    1    2    0    0  0.23038914253E+02 -0.17031946866E+01  0.33458534671E+02  0.50528856078E+02  0.29999988535E+02 0.  0.
         12    1    1    2    0    0 -0.23038914253E+02  0.17031946866E+01 -0.33458534671E+02  0.40659143922E+02  0.00000000000E+00 0. -1.
         11    1    3    3    0    0 -0.45467450724E+01 -0.96904801353E+00  0.16010462424E+02  0.16671738125E+02  0.51100000000E-03 0.  1.
        -11    1    3    3    0    0  0.21605997389E+02 -0.40686981302E+01  0.14865204351E+02  0.26539550266E+02  0.51100000000E-03 0. -1.
         12    1    3    3    0    0  0.59796619364E+01  0.33345514571E+01  0.25828678959E+01  0.73175676875E+01  0.00000000000E+00 0. -1.
</event>
<event>
 7    1  0.3004200E-011  0.5052888E+02  0.7816164E-02  0.1300439E+00
        -11   -1    0    0    0    0  0.00000000000E+00  0.00000000000E+00  0.45593999997E+02  0.45594000000E+02  0.51100000000E-03 0.  1.
         11   -1    0    0    0    0 -0.00000000000E+00 -0.00000000000E+00 -0.45593999997E+02  0.45594000000E+02  0.51100000000E-03 0. -1.
    9900012    2    1    2    0    0  0.34628267552E+02 -0.15979506814E+02 -0.14096182825E+02  0.50528881443E+02  0.30000065633E+02 0.  0.
         12    1    1    2    0    0 -0.34628267552E+02  0.15979506814E+02  0.14096182825E+02  0.40659118557E+02  0.00000000000E+00 0. -1.
         11    1    3    3    0    0  0.27737452550E+02 -0.35092899973E+01  0.10592091907E+01  0.27978622457E+02  0.51100000000E-03 0. -1.
        -11    1    3    3    0    0  0.40794758750E+01 -0.83519902660E+01 -0.36052293725E+01  0.99697313859E+01  0.51100000000E-03 0.  1.
         12    1    3    3    0    0  0.28113391272E+01 -0.41182265504E+01 -0.11550162643E+02  0.12580527599E+02  0.00000000000E+00 0. -1.
</event>
<event>
 7    1  0.3004200E-011  0.5052886E+02  0.7816164E-02  0.1300439E+00
        -11   -1    0    0    0    0  0.00000000000E+00  0.00000000000E+00  0.45593999997E+02  0.45594000000E+02  0.51100000000E-03 0.  1.
         11   -1    0    0    0    0 -0.00000000000E+00 -0.00000000000E+00 -0.45593999997E+02  0.45594000000E+02  0.51100000000E-03 0. -1.
    9900012    2    1    2    0    0 -0.13240906059E+02 -0.30382825374E+02  0.23552659127E+02  0.50528862984E+02  0.30000009525E+02 0.  0.
         12    1    1    2    0    0  0.13240906059E+02  0.30382825374E+02 -0.23552659127E+02  0.40659137016E+02  0.00000000000E+00 0. -1.
         11    1    3    3    0    0  0.18898966417E+01  0.18146656007E+01 -0.19320054045E+01  0.32553595351E+01  0.51100000000E-03 0. -1.
        -11    1    3    3    0    0 -0.89942457840E+01 -0.31834140078E+02  0.24216059183E+02  0.40996663942E+02  0.51100000000E-03 0.  1.
        -12    1    3    3    0    0 -0.61365569165E+01 -0.36335089585E+00  0.12686053491E+01  0.62768395068E+01  0.00000000000E+00 0.  1.
</event>
<event>
 7    1  0.3004200E-011  0.5052884E+02  0.7816164E-02  0.1300439E+00
        -11   -1    0    0    0    0  0.00000000000E+00  0.00000000000E+00  0.45593999997E+02  0.45594000000E+02  0.51100000000E-03 0.  1.
         11   -1    0    0    0    0 -0.00000000000E+00 -0.00000000000E+00 -0.45593999997E+02  0.45594000000E+02  0.51100000000E-03 0. -1.
    9900012    2    1    2    0    0  0.22327612532E+02  0.18335519951E+02  0.28608631144E+02  0.50528839296E+02  0.29999937523E+02 0.  0.
         12    1    1    2    0    0 -0.22327612532E+02 -0.18335519951E+02 -0.28608631144E+02  0.40659160704E+02  0.00000000000E+00 0. -1.
         11    1    3    3    0    0  0.85152157460E+01  0.63465011636E+01  0.24051780541E+02  0.26292111435E+02  0.51100000000E-03 0. -1.
        -11    1    3    3    0    0  0.14317041964E+02  0.12917897810E+02 -0.28026993795E+00  0.19285443369E+02  0.51100000000E-03 0.  1.
        -12    1    3    3    0    0 -0.50464517865E+00 -0.92887902251E+00  0.48371205409E+01  0.49512844921E+01  0.00000000000E+00 0.  1.
</event>
<event>
 7    1  0.3004200E-011  0.5052886E+02  0.7816164E-02  0.1300439E+00
        -11   -1    0    0    0    0  0.00000000000E+00  0.00000000000E+00  0.45593999997E+02  0.45594000000E+02  0.51100000000E-03 0.  1.
         11   -1    0    0    0    0 -0.00000000000E+00 -0.00000000000E+00 -0.45593999997E+02  0.45594000000E+02  0.51100000000E-03 0. -1.
    9900012    2    1    2    0    0 -0.24910721569E+02  0.26249176875E+02  0.18536508748E+02  0.50528862131E+02  0.30000006933E+02 0.  0.
         12    1    1    2    0    0  0.24910721569E+02 -0.26249176875E+02 -0.18536508748E+02  0.40659137869E+02  0.00000000000E+00 0. -1.
         11    1    3    3    0    0  0.16742643866E+01 -0.18023212068E+01 -0.13565363597E+01  0.28092194868E+01  0.51100000000E-03 0. -1.
        -11    1    3    3    0    0 -0.17748822328E+02  0.29101452057E+02  0.13070774171E+02  0.36506990338E+02  0.51100000000E-03 0.  1.
        -12    1    3    3    0    0 -0.88361636277E+01 -0.10499539754E+01  0.68222709362E+01  0.11212652306E+02  0.00000000000E+00 0.  1.
</event>
<event>
 7    1  0.3004200E-011  0.5052886E+02  0.7816164E-02  0.1300439E+00
        -11   -1    0    0    0    0  0.00000000000E+00  0.00000000000E+00  0.45593999997E+02  0.45594000000E+02  0.51100000000E-03 0.  1.
         11   -1    0    0    0    0 -0.00000000000E+00 -0.00000000000E+00 -0.45593999997E+02  0.45594000000E+02  0.51100000000E-03 0. -1.
    9900012    2    1    2    0    0  0.87023752808E+01  0.35250185195E+02  0.18299155427E+02  0.50528856119E+02  0.29999988660E+02 0.  0.
         12    1    1    2    0    0 -0.87023752808E+01 -0.35250185195E+02 -0.18299155427E+02  0.40659143881E+02  0.00000000000E+00 0. -1.
         11    1    3    3    0    0 -0.45682243849E+01 -0.17087725001E+01 -0.89067070370E+00  0.49580108967E+01  0.51100000000E-03 0. -1.
        -11    1    3    3    0    0  0.62122293267E+01  0.30544443161E+02  0.11174058200E+02  0.33112148498E+02  0.51100000000E-03 0.  1.
        -12    1    3    3    0    0  0.70583703390E+01  0.64145145332E+01  0.80157679313E+01  0.12458696724E+02  0.00000000000E+00 0.  1.
</event>
<event>
 7    1  0.3004200E-011  0.5052882E+02  0.7816164E-02  0.1300439E+00
        -11   -1    0    0    0    0  0.00000000000E+00  0.00000000000E+00  0.45593999997E+02  0.45594000000E+02  0.51100000000E-03 0.  1.
         11   -1    0    0    0    0 -0.00000000000E+00 -0.00000000000E+00 -0.45593999997E+02  0.45594000000E+02  0.51100000000E-03 0. -1.
    9900012    2    1    2    0    0 -0.22206731842E+02 -0.19131053671E+02  0.28178582600E+02  0.50528823040E+02  0.29999888112E+02 0.  0.
         12    1    1    2    0    0  0.22206731842E+02  0.19131053671E+02 -0.28178582600E+02  0.40659176960E+02  0.00000000000E+00 0. -1.
         11    1    3    3    0    0 -0.12004067405E+02  0.34148028636E+01  0.84714108184E+01  0.15083875973E+02  0.51100000000E-03 0. -1.
        -11    1    3    3    0    0  0.42697889779E+01 -0.49107525463E+01  0.29856989238E+01  0.71596778427E+01  0.51100000000E-03 0.  1.
         12    1    3    3    0    0 -0.14472453416E+02 -0.17635103988E+02  0.16721472858E+02  0.28285269224E+02  0.00000000000E+00 0. -1.
</event>
<event>
 7    1  0.3004200E-011  0.5052885E+02  0.7816164E-02  0.1300439E+00
        -11   -1    0    0    0    0  0.00000000000E+00  0.00000000000E+00  0.45593999997E+02  0.45594000000E+02  0.51100000000E-03 0.  1.
         11   -1    0    0    0    0 -0.00000000000E+00 -0.00000000000E+00 -0.45593999997E+02  0.45594000000E+02  0.51100000000E-03 0. -1.
    9900012    2    1    2    0    0  0.36072859480E+02 -0.10188625194E+02  0.15751412220E+02  0.50528852674E+02  0.29999978187E+02 0.  0.
         12    1    1    2    0    0 -0.36072859480E+02  0.10188625194E+02 -0.15751412220E+02  0.40659147326E+02  0.00000000000E+00 0. -1.
         11    1    3    3    0    0  0.18002219086E+02 -0.66845034952E+01 -0.71509328571E+01  0.20491420643E+02  0.51100000000E-03 0.  1.
        -11    1    3    3    0    0  0.10261894172E+02 -0.70511407122E+00  0.16952428957E+02  0.19828981458E+02  0.51100000000E-03 0. -1.
        -12    1    3    3    0    0  0.78087462220E+01 -0.27990076278E+01  0.59499161202E+01  0.10208450573E+02  0.00000000000E+00 0.  1.
</event>
<event>
 7    1  0.3004200E-011  0.5052885E+02  0.7816164E-02  0.1300439E+00
        -11   -1    0    0    0    0  0.00000000000E+00  0.00000000000E+00  0.45593999997E+02  0.45594000000E+02  0.51100000000E-03 0. -1.
         11   -1    0    0    0    0 -0.00000000000E+00 -0.00000000000E+00 -0.45593999997E+02  0.45594000000E+02  0.51100000000E-03 0.  1.
    9900012    2    1    2    0    0 -0.91757784552E+01  0.29421378104E+02 -0.26520822072E+02  0.50528850929E+02  0.29999972884E+02 0.  0.
         12    1    1    2    0    0  0.91757784552E+01 -0.29421378104E+02  0.26520822072E+02  0.40659149071E+02  0.00000000000E+00 0. -1.
         11    1    3    3    0    0 -0.54141372125E+01  0.87714466827E+01  0.78297104333E+00  0.10337514333E+02  0.51100000000E-03 0. -1.
        -11    1    3    3    0    0  0.82174312249E+01  0.10368220630E+02 -0.16073512755E+02  0.20817876633E+02  0.51100000000E-03 0.  1.
        -12    1    3    3    0    0 -0.11979072468E+02  0.10281710791E+02 -0.11230280361E+02  0.19373459964E+02  0.00000000000E+00 0.  1.
</event>
<event>
 7    1  0.3004200E-011  0.5052885E+02  0.7816164E-02  0.1300439E+00
        -11   -1    0    0    0    0  0.00000000000E+00  0.00000000000E+00  0.45593999997E+02  0.45594000000E+02  0.51100000000E-03 0.  1.
         11   -1    0    0    0    0 -0.00000000000E+00 -0.00000000000E+00 -0.45593999997E+02  0.45594000000E+02  0.51100000000E-03 0. -1.
    9900012    2    1    2    0    0 -0.21251159395E+02 -0.19274793898E+01  0.34609812793E+02  0.50528854731E+02  0.29999984440E+02 0.  0.
         12    1    1    2    0    0  0.21251159395E+02  0.19274793898E+01 -0.34609812793E+02  0.40659145269E+02  0.00000000000E+00 0. -1.
         11    1    3    3    0    0  0.14472780922E+01 -0.99189560781E+01  0.80888769889E+01  0.12880614689E+02  0.51100000000E-03 0. -1.
        -11    1    3    3    0    0 -0.23313386095E+02  0.65575930290E+01  0.26735261769E+02  0.36073400445E+02  0.51100000000E-03 0.  1.
         12    1    3    3    0    0  0.61494860779E+00  0.14338836593E+01 -0.21432596460E+00  0.15748395975E+01  0.00000000000E+00 0. -1.
</event>
<event>
 7    1  0.3004200E-011  0.5052886E+02  0.7816164E-02  0.1300439E+00
        -11   -1    0    0    0    0  0.00000000000E+00  0.00000000000E+00  0.45593999997E+02  0.45594000000E+02  0.51100000000E-03 0. -1.
         11   -1    0    0    0    0 -0.00000000000E+00 -0.00000000000E+00 -0.45593999997E+02  0.45594000000E+02  0.51100000000E-03 0.  1.
    9900012    2    1    2    0    0 -0.10469269220E+02  0.33346452606E+02 -0.20774360443E+02  0.50528861406E+02  0.30000004730E+02 0.  0.
         12    1    1    2    0    0  0.10469269220E+02 -0.33346452606E+02  0.20774360443E+02  0.40659138594E+02  0.00000000000E+00 0. -1.
         11    1    3    3    0    0  0.33624888111E+00  0.16247279859E+01  0.19963856628E+01  0.25958351862E+01  0.51100000000E-03 0. -1.
        -11    1    3    3    0    0 -0.88801007893E+01  0.22815602046E+02 -0.28185230469E+02  0.37333833230E+02  0.51100000000E-03 0.  1.
        -12    1    3    3    0    0 -0.19254173121E+01  0.89061225732E+01  0.54144843639E+01  0.10599192990E+02  0.00000000000E+00 0.  1.
</event>
<event>
 7    1  0.3004200E-011  0.5052886E+02  0.7816164E-02  0.1300439E+00
        -11   -1    0    0    0    0  0.00000000000E+00  0.00000000000E+00  0.45593999997E+02  0.45594000000E+02  0.51100000000E-03 0. -1.
         11   -1    0    0    0    0 -0.00000000000E+00 -0.00000000000E+00 -0.45593999997E+02  0.45594000000E+02  0.51100000000E-03 0.  1.
    9900012    2    1    2    0    0 -0.20785803671E+02 -0.55901277632E+01 -0.34494443649E+02  0.50528858281E+02  0.29999995232E+02 0.  0.
         12    1    1    2    0    0  0.20785803671E+02  0.55901277632E+01  0.34494443649E+02  0.40659141719E+02  0.00000000000E+00 0. -1.
         11    1    3    3    0    0 -0.88899562102E+01  0.61628960945E+01 -0.24765388378E+02  0.27024749240E+02  0.51100000000E-03 0.  1.
        -11    1    3    3    0    0 -0.14391840414E+02 -0.70329595886E+01 -0.66793642572E+01  0.17355157683E+02  0.51100000000E-03 0. -1.
         12    1    3    3    0    0  0.24959929533E+01 -0.47200642691E+01 -0.30496910135E+01  0.61489513582E+01  0.00000000000E+00 0. -1.
</event>
<event>
 7    1  0.3004200E-011  0.5052886E+02  0.7816164E-02  0.1300439E+00
        -11   -1    0    0    0    0  0.00000000000E+00  0.00000000000E+00  0.45593999997E+02  0.45594000000E+02  0.51100000000E-03 0.  1.
         11   -1    0    0    0    0 -0.00000000000E+00 -0.00000000000E+00 -0.45593999997E+02  0.45594000000E+02  0.51100000000E-03 0. -1.
    9900012    2    1    2    0    0  0.12441982662E+02  0.12094380391E+02  0.36770756442E+02  0.50528862049E+02  0.30000006685E+02 0.  0.
         12    1    1    2    0    0 -0.12441982662E+02 -0.12094380391E+02 -0.36770756442E+02  0.40659137951E+02  0.00000000000E+00 0. -1.
         11    1    3    3    0    0  0.53078844173E+01 -0.37247385559E+01  0.50124496692E+01  0.81958505504E+01  0.51100000000E-03 0. -1.
        -11    1    3    3    0    0 -0.63780445947E+01  0.10209336414E+02  0.20880122036E+02  0.24101649308E+02  0.51100000000E-03 0.  1.
        -12    1    3    3    0    0  0.13512142839E+02  0.56097825330E+01  0.10878184737E+02  0.18231362191E+02  0.00000000000E+00 0.  1.
</event>
<event>
 7    1  0.3004200E-011  0.5052886E+02  0.7816164E-02  0.1300439E+00
        -11   -1    0    0    0    0  0.00000000000E+00  0.00000000000E+00  0.45593999997E+02  0.45594000000E+02  0.51100000000E-03 0.  1.
         11   -1    0    0    0    0 -0.00000000000E+00 -0.00000000000E+00 -0.45593999997E+02  0.45594000000E+02  0.51100000000E-03 0. -1.
    9900012    2    1    2    0    0  0.55919490906E+01 -0.27053991125E+02  0.29832483707E+02  0.50528863087E+02  0.30000009838E+02 0.  0.
         12    1    1    2    0    0 -0.55919490906E+01  0.27053991125E+02 -0.29832483707E+02  0.40659136913E+02  0.00000000000E+00 0. -1.
         11    1    3    3    0    0  0.14177759170E+02 -0.18090287793E+02  0.26118080112E+02  0.34791112034E+02  0.51100000000E-03 0. -1.
        -11    1    3    3    0    0 -0.80341906449E+01 -0.20040775946E+01  0.15131485317E+01  0.84174916136E+01  0.51100000000E-03 0.  1.
        -12    1    3    3    0    0 -0.55161943488E+00 -0.69596257376E+01  0.22012550630E+01  0.73202594395E+01  0.00000000000E+00 0.  1.
</event>
<event>
 7    1  0.3004200E-011  0.5052886E+02  0.7816164E-02  0.1300439E+00
        -11   -1    0    0    0    0  0.00000000000E+00  0.00000000000E+00  0.45593999997E+02  0.45594000000E+02  0.51100000000E-03 0. -1.
         11   -1    0    0    0    0 -0.00000000000E+00 -0.00000000000E+00 -0.45593999997E+02  0.45594000000E+02  0.51100000000E-03 0.  1.
    9900012    2    1    2    0    0  0.15736855859E+02  0.36180796816E+02 -0.98217679836E+01  0.50528858139E+02  0.29999994799E+02 0.  0.
         12    1    1    2    0    0 -0.15736855859E+02 -0.36180796816E+02  0.98217679836E+01  0.40659141861E+02  0.00000000000E+00 0. -1.
         11    1    3    3    0    0  0.62635951152E+01  0.21251908484E+02  0.10654834190E+01  0.22181332087E+02  0.51100000000E-03 0. -1.
        -11    1    3    3    0    0 -0.39610874735E+01 -0.20004866883E+01 -0.29271825742E+01  0.53160661251E+01  0.51100000000E-03 0.  1.
        -12    1    3    3    0    0  0.13434348218E+02  0.16929375020E+02 -0.79600688284E+01  0.23031459927E+02  0.00000000000E+00 0.  1.
</event>
<event>
 7    1  0.3004200E-011  0.5052894E+02  0.7816164E-02  0.1300439E+00
        -11   -1    0    0    0    0  0.00000000000E+00  0.00000000000E+00  0.45593999997E+02  0.45594000000E+02  0.51100000000E-03 0.  1.
         11   -1    0    0    0    0 -0.00000000000E+00 -0.00000000000E+00 -0.45593999997E+02  0.45594000000E+02  0.51100000000E-03 0. -1.
    9900012    2    1    2    0    0  0.34362448789E+02 -0.92569872080E+01  0.19664425665E+02  0.50528937841E+02  0.30000237060E+02 0.  0.
         12    1    1    2    0    0 -0.34362448789E+02  0.92569872080E+01 -0.19664425665E+02  0.40659062159E+02  0.00000000000E+00 0. -1.
         11    1    3    3    0    0  0.14082893055E+02 -0.15797723142E+02  0.54325170665E+01  0.21849672199E+02  0.51100000000E-03 0. -1.
        -11    1    3    3    0    0  0.14543505932E+01  0.51520227879E+01  0.61276092875E+01  0.81367112704E+01  0.51100000000E-03 0.  1.
        -12    1    3    3    0    0  0.18825205141E+02  0.13887131458E+01  0.81042993105E+01  0.20542554371E+02  0.00000000000E+00 0.  1.
</event>
<event>
 7    1  0.3004200E-011  0.5052889E+02  0.7816164E-02  0.1300439E+00
        -11   -1    0    0    0    0  0.00000000000E+00  0.00000000000E+00  0.45593999997E+02  0.45594000000E+02  0.51100000000E-03 0.  1.
         11   -1    0    0    0    0 -0.00000000000E+00 -0.00000000000E+00 -0.45593999997E+02  0.45594000000E+02  0.51100000000E-03 0. -1.
    9900012    2    1    2    0    0  0.51758356253E+01 -0.66892692978E+01  0.39769683735E+02  0.50528888567E+02  0.30000087288E+02 0.  0.
         12    1    1    2    0    0 -0.51758356253E+01  0.66892692978E+01 -0.39769683735E+02  0.40659111433E+02  0.00000000000E+00 0. -1.
         11    1    3    3    0    0  0.10473312799E+02  0.51619305491E+01  0.40004062975E+01  0.12342570996E+02  0.51100000000E-03 0. -1.
        -11    1    3    3    0    0 -0.40373712767E+01 -0.53862814540E+01  0.19757468390E+02  0.20872708309E+02  0.51100000000E-03 0.  1.
         12    1    3    3    0    0 -0.12601058969E+01 -0.64649183929E+01  0.16011809047E+02  0.17313609262E+02  0.00000000000E+00 0. -1.
</event>
<event>
 7    1  0.3004200E-011  0.5052886E+02  0.7816164E-02  0.1300439E+00
        -11   -1    0    0    0    0  0.00000000000E+00  0.00000000000E+00  0.45593999997E+02  0.45594000000E+02  0.51100000000E-03 0. -1.
         11   -1    0    0    0    0 -0.00000000000E+00 -0.00000000000E+00 -0.45593999997E+02  0.45594000000E+02  0.51100000000E-03 0.  1.
    9900012    2    1    2    0    0 -0.11172207209E+02  0.36323475205E+02 -0.14455199140E+02  0.50528857768E+02  0.29999993672E+02 0.  0.
         12    1    1    2    0    0  0.11172207209E+02 -0.36323475205E+02  0.14455199140E+02  0.40659142232E+02  0.00000000000E+00 0. -1.
         11    1    3    3    0    0 -0.15415248393E+02  0.20421336636E+02  0.17542130632E+01  0.25646405923E+02  0.51100000000E-03 0. -1.
        -11    1    3    3    0    0  0.75312925435E+00  0.72034793980E-01 -0.52753121059E+01  0.53292880163E+01  0.51100000000E-03 0.  1.
         12    1    3    3    0    0  0.34899119299E+01  0.15830103774E+02 -0.10934100097E+02  0.19553163829E+02  0.00000000000E+00 0. -1.
</event>
<event>
 7    1  0.3004200E-011  0.5052885E+02  0.7816164E-02  0.1300439E+00
        -11   -1    0    0    0    0  0.00000000000E+00  0.00000000000E+00  0.45593999997E+02  0.45594000000E+02  0.51100000000E-03 0.  1.
         11   -1    0    0    0    0 -0.00000000000E+00 -0.00000000000E+00 -0.45593999997E+02  0.45594000000E+02  0.51100000000E-03 0. -1.
    9900012    2    1    2    0    0  0.18392580721E+02  0.35614742667E+01  0.36085942342E+02  0.50528851469E+02  0.29999974526E+02 0.  0.
         12    1    1    2    0    0 -0.18392580721E+02 -0.35614742667E+01 -0.36085942342E+02  0.40659148531E+02  0.00000000000E+00 0. -1.
         11    1    3    3    0    0  0.10258265474E+02 -0.47601709154E+01  0.10455717174E+02  0.15401729109E+02  0.51100000000E-03 0. -1.
        -11    1    3    3    0    0  0.84740093948E+01  0.13136571749E+02  0.25944305297E+02  0.30290020306E+02  0.51100000000E-03 0.  1.
        -12    1    3    3    0    0 -0.33969414778E+00 -0.48149265666E+01 -0.31408012842E+00  0.48371020542E+01  0.00000000000E+00 0.  1.
</event>
<event>
 7    1  0.3004200E-011  0.5052887E+02  0.7816164E-02  0.1300439E+00
        -11   -1    0    0    0    0  0.00000000000E+00  0.00000000000E+00  0.45593999997E+02  0.45594000000E+02  0.51100000000E-03 0.  1.
         11   -1    0    0    0    0 -0.00000000000E+00 -0.00000000000E+00 -0.45593999997E+02  0.45594000000E+02  0.51100000000E-03 0. -1.
    9900012    2    1    2    0    0 -0.39614776585E+02  0.81178089099E+01  0.42350091827E+01  0.50528872511E+02  0.30000038485E+02 0.  0.
         12    1    1    2    0    0  0.39614776585E+02 -0.81178089099E+01 -0.42350091827E+01  0.40659127489E+02  0.00000000000E+00 0. -1.
         11    1    3    3    0    0  0.27373701322E+01 -0.16969123518E+01 -0.44486256503E+01  0.54920831392E+01  0.51100000000E-03 0. -1.
        -11    1    3    3    0    0 -0.18650572588E+02  0.76221171715E+00  0.18283237483E+01  0.18755468337E+02  0.51100000000E-03 0.  1.
         12    1    3    3    0    0 -0.23701574130E+02  0.90525095446E+01  0.68553110846E+01  0.26281321035E+02  0.00000000000E+00 0. -1.
</event>
<event>
 7    1  0.3004200E-011  0.5052886E+02  0.7816164E-02  0.1300439E+00
        -11   -1    0    0    0    0  0.00000000000E+00  0.00000000000E+00  0.45593999997E+02  0.45594000000E+02  0.51100000000E-03 0.  1.
         11   -1    0    0    0    0 -0.00000000000E+00 -0.00000000000E+00 -0.45593999997E+02  0.45594000000E+02  0.51100000000E-03 0. -1.
    9900012    2    1    2    0    0 -0.37209680870E+02  0.10858397898E+02  0.12276012766E+02  0.50528860256E+02  0.30000001233E+02 0.  0.
         12    1    1    2    0    0  0.37209680870E+02 -0.10858397898E+02 -0.12276012766E+02  0.40659139744E+02  0.00000000000E+00 0. -1.
         11    1    3    3    0    0 -0.41477758330E+01  0.55173492851E+01 -0.16065773411E+01  0.70870500569E+01  0.51100000000E-03 0. -1.
        -11    1    3    3    0    0 -0.14191981336E+02  0.25696890461E+01  0.18848515629E+02  0.23733566477E+02  0.51100000000E-03 0.  1.
        -12    1    3    3    0    0 -0.18869923701E+02  0.27713595665E+01 -0.49659255219E+01  0.19708243722E+02  0.00000000000E+00 0.  1.
</event>
<event>
 7    1  0.3004200E-011  0.5052886E+02  0.7816164E-02  0.1300439E+00
        -11   -1    0    0    0    0  0.00000000000E+00  0.00000000000E+00  0.45593999997E+02  0.45594000000E+02  0.51100000000E-03 0.  1.
         11   -1    0    0    0    0 -0.00000000000E+00 -0.00000000000E+00 -0.45593999997E+02  0.45594000000E+02  0.51100000000E-03 0. -1.
    9900012    2    1    2    0    0 -0.49288194396E+01 -0.34174360196E+02  0.21470578321E+02  0.50528857248E+02  0.29999992092E+02 0.  0.
         12    1    1    2    0    0  0.49288194396E+01  0.34174360196E+02 -0.21470578321E+02  0.40659142752E+02  0.00000000000E+00 0. -1.
         11    1    3    3    0    0  0.10807095070E+01 -0.20213573277E+01 -0.62798024617E+01  0.66850383473E+01  0.51100000000E-03 0. -1.
        -11    1    3    3    0    0 -0.45431492089E+00 -0.22115704222E+02  0.15194510326E+02  0.26836242650E+02  0.51100000000E-03 0.  1.
        -12    1    3    3    0    0 -0.55552140257E+01 -0.10037298646E+02  0.12555870457E+02  0.17007576251E+02  0.00000000000E+00 0.  1.
</event>
<event>
 7    1  0.3004200E-011  0.5052883E+02  0.7816164E-02  0.1300439E+00
        -11   -1    0    0    0    0  0.00000000000E+00  0.00000000000E+00  0.45593999997E+02  0.45594000000E+02  0.51100000000E-03 0. -1.
         11   -1    0    0    0    0 -0.00000000000E+00 -0.00000000000E+00 -0.45593999997E+02  0.45594000000E+02  0.51100000000E-03 0.  1.
    9900012    2    1    2    0    0  0.36283403119E+02 -0.26599265924E+01 -0.18155107925E+02  0.50528825203E+02  0.29999894688E+02 0.  0.
         12    1    1    2    0    0 -0.36283403119E+02  0.26599265924E+01  0.18155107925E+02  0.40659174797E+02  0.00000000000E+00 0. -1.
         11    1    3    3    0    0  0.57573223528E+01  0.85535406494E+01  0.19158429829E+01  0.10487147987E+02  0.51100000000E-03 0. -1.
        -11    1    3    3    0    0  0.15028073963E+02 -0.76162006634E+01 -0.37721646061E+01  0.17264957157E+02  0.51100000000E-03 0.  1.
         12    1    3    3    0    0  0.15498006804E+02 -0.35972665784E+01 -0.16298786302E+02  0.22776720059E+02  0.00000000000E+00 0. -1.
</event>
<event>
 7    1  0.3004200E-011  0.5052886E+02  0.7816164E-02  0.1300439E+00
        -11   -1    0    0    0    0  0.00000000000E+00  0.00000000000E+00  0.45593999997E+02  0.45594000000E+02  0.51100000000E-03 0.  1.
         11   -1    0    0    0    0 -0.00000000000E+00 -0.00000000000E+00 -0.45593999997E+02  0.45594000000E+02  0.51100000000E-03 0. -1.
    9900012    2    1    2    0    0  0.27511297263E+00 -0.39006945590E+02  0.11469456831E+02  0.50528856731E+02  0.29999990519E+02 0.  0.
         12    1    1    2    0    0 -0.27511297263E+00  0.39006945590E+02 -0.11469456831E+02  0.40659143269E+02  0.00000000000E+00 0. -1.
         11    1    3    3    0    0 -0.91903921144E+01 -0.20794010100E+02 -0.23274814173E+01  0.22853256513E+02  0.51100000000E-03 0. -1.
        -11    1    3    3    0    0  0.28362024204E+01 -0.12557345579E+02  0.13920455550E+02  0.18960750384E+02  0.51100000000E-03 0.  1.
        -12    1    3    3    0    0  0.66293026666E+01 -0.56555899116E+01 -0.12351730197E+00  0.87148498334E+01  0.00000000000E+00 0.  1.
</event>
<event>
 7    1  0.3004200E-011  0.5052879E+02  0.7816164E-02  0.1300439E+00
        -11   -1    0    0    0    0  0.00000000000E+00  0.00000000000E+00  0.45593999997E+02  0.45594000000E+02  0.51100000000E-03 0.  1.
         11   -1    0    0    0    0 -0.00000000000E+00 -0.00000000000E+00 -0.45593999997E+02  0.45594000000E+02  0.51100000000E-03 0. -1.
    9900012    2    1    2    0    0 -0.35557691421E+02 -0.19622647899E+02  0.19426360496E+01  0.50528787458E+02  0.29999779956E+02 0.  0.
         12    1    1    2    0    0  0.35557691421E+02  0.19622647899E+02 -0.19426360496E+01  0.40659212542E+02  0.00000000000E+00 0. -1.
         11    1    3    3    0    0 -0.28979898639E+02 -0.14680037992E+02 -0.76247787550E+01  0.33368777202E+02  0.51100000000E-03 0. -1.
        -11    1    3    3    0    0 -0.40410490131E+01  0.29121102988E+01  0.68509717211E+01  0.84703174264E+01  0.51100000000E-03 0.  1.
         12    1    3    3    0    0 -0.25367437683E+01 -0.78547202053E+01  0.27164430834E+01  0.86896928297E+01  0.00000000000E+00 0. -1.
</event>
<event>
 7    1  0.3004200E-011  0.5052886E+02  0.7816164E-02  0.1300439E+00
        -11   -1    0    0    0    0  0.00000000000E+00  0.00000000000E+00  0.45593999997E+02  0.45594000000E+02  0.51100000000E-03 0.  1.
         11   -1    0    0    0    0 -0.00000000000E+00 -0.00000000000E+00 -0.45593999997E+02  0.45594000000E+02  0.51100000000E-03 0. -1.
    9900012    2    1    2    0    0  0.55577398578E+01 -0.18464152602E+02  0.35795984103E+02  0.50528857344E+02  0.29999992382E+02 0.  0.
         12    1    1    2    0    0 -0.55577398578E+01  0.18464152602E+02 -0.35795984103E+02  0.40659142656E+02  0.00000000000E+00 0. -1.
         11    1    3    3    0    0  0.37197271586E+01  0.68603967145E+01  0.27191348803E+01  0.82640854287E+01  0.51100000000E-03 0. -1.
        -11    1    3    3    0    0  0.18366360088E+01 -0.25607109918E+02  0.33190013457E+02  0.41960389700E+02  0.51100000000E-03 0.  1.
        -12    1    3    3    0    0  0.13766904725E-02  0.28256060205E+00 -0.11316423410E+00  0.30438221529E+00  0.00000000000E+00 0.  1.
</event>
<event>
 7    1  0.3004200E-011  0.5052886E+02  0.7816164E-02  0.1300439E+00
        -11   -1    0    0    0    0  0.00000000000E+00  0.00000000000E+00  0.45593999997E+02  0.45594000000E+02  0.51100000000E-03 0.  1.
         11   -1    0    0    0    0 -0.00000000000E+00 -0.00000000000E+00 -0.45593999997E+02  0.45594000000E+02  0.51100000000E-03 0. -1.
    9900012    2    1    2    0    0  0.29172050071E+02 -0.13705111911E+02  0.24785621005E+02  0.50528860727E+02  0.30000002665E+02 0.  0.
         12    1    1    2    0    0 -0.29172050071E+02  0.13705111911E+02 -0.24785621005E+02  0.40659139273E+02  0.00000000000E+00 0. -1.
         11    1    3    3    0    0  0.89409652644E+01  0.59674840127E+01  0.12323882370E+02  0.16353281085E+02  0.51100000000E-03 0. -1.
        -11    1    3    3    0    0  0.18691696062E+02 -0.21281889219E+02  0.13872256618E+02  0.31539464395E+02  0.51100000000E-03 0.  1.
        -12    1    3    3    0    0  0.15393887445E+01  0.16092932948E+01 -0.14105179831E+01  0.26361152471E+01  0.00000000000E+00 0.  1.
</event>
<event>
 7    1  0.3004200E-011  0.5052885E+02  0.7816164E-02  0.1300439E+00
        -11   -1    0    0    0    0  0.00000000000E+00  0.00000000000E+00  0.45593999997E+02  0.45594000000E+02  0.51100000000E-03 0.  1.
         11   -1    0    0    0    0 -0.00000000000E+00 -0.00000000000E+00 -0.45593999997E+02  0.45594000000E+02  0.51100000000E-03 0. -1.
    9900012    2    1    2    0    0  0.12393477400E+02  0.10058504645E+02  0.37395115054E+02  0.50528850628E+02  0.29999971968E+02 0.  0.
         12    1    1    2    0    0 -0.12393477400E+02 -0.10058504645E+02 -0.37395115054E+02  0.40659149372E+02  0.00000000000E+00 0. -1.
         11    1    3    3    0    0 -0.22476070934E+01 -0.69641798424E+01  0.95958617399E+01  0.12067812615E+02  0.51100000000E-03 0. -1.
        -11    1    3    3    0    0  0.16791629419E+02  0.11649684435E+02  0.18845758287E+02  0.27799938339E+02  0.51100000000E-03 0.  1.
        -12    1    3    3    0    0 -0.21505449254E+01  0.53730000523E+01  0.89534950271E+01  0.10661099673E+02  0.00000000000E+00 0.  1.
</event>
<event>
 7    1  0.3004200E-011  0.5052886E+02  0.7816164E-02  0.1300439E+00
        -11   -1    0    0    0    0  0.00000000000E+00  0.00000000000E+00  0.45593999997E+02  0.45594000000E+02  0.51100000000E-03 0.  1.
         11   -1    0    0    0    0 -0.00000000000E+00 -0.00000000000E+00 -0.45593999997E+02  0.45594000000E+02  0.51100000000E-03 0. -1.
    9900012    2    1    2    0    0  0.17968474605E+02 -0.13840203890E+02  0.33745344014E+02  0.50528861224E+02  0.30000004177E+02 0.  0.
         12    1    1    2    0    0 -0.17968474605E+02  0.13840203890E+02 -0.33745344014E+02  0.40659138776E+02  0.00000000000E+00 0. -1.
         11    1    3    3    0    0  0.21282024363E+01 -0.96155153832E+01 -0.25870453835E+01  0.10182346771E+02  0.51100000000E-03 0. -1.
        -11    1    3    3    0    0  0.13148411665E+02 -0.51665841691E+01  0.33356489561E+02  0.36224711419E+02  0.51100000000E-03 0.  1.
         12    1    3    3    0    0  0.26918605043E+01  0.94189566223E+00  0.29758998363E+01  0.41218030338E+01  0.00000000000E+00 0. -1.
</event>
<event>
 7    1  0.3004200E-011  0.5052886E+02  0.7816164E-02  0.1300439E+00
        -11   -1    0    0    0    0  0.00000000000E+00  0.00000000000E+00  0.45593999997E+02  0.45594000000E+02  0.51100000000E-03 0.  1.
         11   -1    0    0    0    0 -0.00000000000E+00 -0.00000000000E+00 -0.45593999997E+02  0.45594000000E+02  0.51100000000E-03 0. -1.
    9900012    2    1    2    0    0 -0.15314401232E+02  0.15388644863E+02  0.34377668538E+02  0.50528863635E+02  0.30000011505E+02 0.  0.
         12    1    1    2    0    0  0.15314401232E+02 -0.15388644863E+02 -0.34377668538E+02  0.40659136365E+02  0.00000000000E+00 0. -1.
         11    1    3    3    0    0  0.51205845373E+00 -0.10853353382E+01 -0.42079291701E+01  0.43757084933E+01  0.51100000000E-03 0. -1.
        -11    1    3    3    0    0 -0.14270554966E+02  0.12860978042E+02  0.37398703069E+02  0.42044220610E+02  0.51100000000E-03 0.  1.
        -12    1    3    3    0    0 -0.15559047199E+01  0.36130021593E+01  0.11868946394E+01  0.41089345317E+01  0.00000000000E+00 0.  1.
</event>
<event>
 7    1  0.3004200E-011  0.5052887E+02  0.7816164E-02  0.1300439E+00
        -11   -1    0    0    0    0  0.00000000000E+00  0.00000000000E+00  0.45593999997E+02  0.45594000000E+02  0.51100000000E-03 0.  1.
         11   -1    0    0    0    0 -0.00000000000E+00 -0.00000000000E+00 -0.45593999997E+02  0.45594000000E+02  0.51100000000E-03 0. -1.
    9900012    2    1    2    0    0  0.28443341100E+02 -0.20495213407E+02  0.20593384813E+02  0.50528869124E+02  0.30000028190E+02 0.  0.
         12    1    1    2    0    0 -0.28443341100E+02  0.20495213407E+02 -0.20593384813E+02  0.40659130876E+02  0.00000000000E+00 0. -1.
         11    1    3    3    0    0  0.26898219326E+01 -0.88233883283E+01 -0.38872535728E+01  0.10009898312E+02  0.51100000000E-03 0. -1.
        -11    1    3    3    0    0  0.23208252922E+02 -0.33066079023E+01  0.16369232898E+02  0.28592104599E+02  0.51100000000E-03 0.  1.
         12    1    3    3    0    0  0.25452662456E+01 -0.83652171762E+01  0.81114054878E+01  0.11926866213E+02  0.00000000000E+00 0. -1.
</event>
<event>
 7    1  0.3004200E-011  0.5052885E+02  0.7816164E-02  0.1300439E+00
        -11   -1    0    0    0    0  0.00000000000E+00  0.00000000000E+00  0.45593999997E+02  0.45594000000E+02  0.51100000000E-03 0.  1.
         11   -1    0    0    0    0 -0.00000000000E+00 -0.00000000000E+00 -0.45593999997E+02  0.45594000000E+02  0.51100000000E-03 0. -1.
    9900012    2    1    2    0    0  0.17613190485E+02 -0.29713359494E+02  0.21448970991E+02  0.50528848902E+02  0.29999966721E+02 0.  0.
         12    1    1    2    0    0 -0.17613190485E+02  0.29713359494E+02 -0.21448970991E+02  0.40659151098E+02  0.00000000000E+00 0. -1.
         11    1    3    3    0    0 -0.63567683136E+01 -0.33348594390E+01 -0.13375830914E+01  0.73019805298E+01  0.51100000000E-03 0. -1.
        -11    1    3    3    0    0  0.72082340583E+01 -0.14424874428E+02  0.92989354796E+01  0.18614667384E+02  0.51100000000E-03 0.  1.
         12    1    3    3    0    0  0.16761724740E+02 -0.11953625627E+02  0.13487618603E+02  0.24612200988E+02  0.00000000000E+00 0. -1.
</event>
<event>
 7    1  0.3004200E-011  0.5052885E+02  0.7816164E-02  0.1300439E+00
        -11   -1    0    0    0    0  0.00000000000E+00  0.00000000000E+00  0.45593999997E+02  0.45594000000E+02  0.51100000000E-03 0.  1.
         11   -1    0    0    0    0 -0.00000000000E+00 -0.00000000000E+00 -0.45593999997E+02  0.45594000000E+02  0.51100000000E-03 0. -1.
    9900012    2    1    2    0    0  0.30081667572E+02 -0.22268594633E+02 -0.15886137461E+02  0.50528851038E+02  0.29999973216E+02 0.  0.
         12    1    1    2    0    0 -0.30081667572E+02  0.22268594633E+02  0.15886137461E+02  0.40659148962E+02  0.00000000000E+00 0. -1.
         11    1    3    3    0    0  0.84788824728E+01 -0.15670139757E+02 -0.16886000634E+02  0.24547540521E+02  0.51100000000E-03 0. -1.
        -11    1    3    3    0    0  0.20688130951E+02 -0.31910967537E+01 -0.24146071893E+01  0.21071596733E+02  0.51100000000E-03 0.  1.
        -12    1    3    3    0    0  0.91465414861E+00 -0.34073581231E+01  0.34144703623E+01  0.49097137844E+01  0.00000000000E+00 0.  1.
</event>
<event>
 7    1  0.3004200E-011  0.5052886E+02  0.7816164E-02  0.1300439E+00
        -11   -1    0    0    0    0  0.00000000000E+00  0.00000000000E+00  0.45593999997E+02  0.45594000000E+02  0.51100000000E-03 0. -1.
         11   -1    0    0    0    0 -0.00000000000E+00 -0.00000000000E+00 -0.45593999997E+02  0.45594000000E+02  0.51100000000E-03 0.  1.
    9900012    2    1    2    0    0 -0.34195355279E+02 -0.20921274943E+02 -0.67929018685E+01  0.50528861006E+02  0.30000003514E+02 0.  0.
         12    1    1    2    0    0  0.34195355279E+02  0.20921274943E+02  0.67929018685E+01  0.40659138994E+02  0.00000000000E+00 0. -1.
         11    1    3    3    0    0 -0.31577525496E+02 -0.17192270839E+02 -0.12608036588E+02  0.38100877679E+02  0.51100000000E-03 0.  1.
        -11    1    3    3    0    0 -0.26956681210E+01  0.26649341754E+01  0.45282145205E+01  0.59053558557E+01  0.51100000000E-03 0. -1.
        -12    1    3    3    0    0  0.77838337436E-01 -0.63939382799E+01  0.12869201989E+01  0.65226274715E+01  0.00000000000E+00 0.  1.
</event>
<event>
 7    1  0.3004200E-011  0.5052886E+02  0.7816164E-02  0.1300439E+00
        -11   -1    0    0    0    0  0.00000000000E+00  0.00000000000E+00  0.45593999997E+02  0.45594000000E+02  0.51100000000E-03 0.  1.
         11   -1    0    0    0    0 -0.00000000000E+00 -0.00000000000E+00 -0.45593999997E+02  0.45594000000E+02  0.51100000000E-03 0. -1.
    9900012    2    1    2    0    0 -0.18881789089E+02  0.32976003393E+01  0.35857629398E+02  0.50528859414E+02  0.29999998673E+02 0.  0.
         12    1    1    2    0    0  0.18881789089E+02 -0.32976003393E+01 -0.35857629398E+02  0.40659140586E+02  0.00000000000E+00 0. -1.
         11    1    3    3    0    0  0.25653311789E+01 -0.74561810141E+00 -0.23885892724E+01  0.35836056401E+01  0.51100000000E-03 0. -1.
        -11    1    3    3    0    0 -0.18018209997E+02 -0.34748299273E+01  0.30638090742E+02  0.35713063983E+02  0.51100000000E-03 0.  1.
        -12    1    3    3    0    0 -0.34289102713E+01  0.75180483679E+01  0.76081279286E+01  0.11232189790E+02  0.00000000000E+00 0.  1.
</event>
<event>
 7    1  0.3004200E-011  0.5052887E+02  0.7816164E-02  0.1300439E+00
        -11   -1    0    0    0    0  0.00000000000E+00  0.00000000000E+00  0.45593999997E+02  0.45594000000E+02  0.51100000000E-03 0.  1.
         11   -1    0    0    0    0 -0.00000000000E+00 -0.00000000000E+00 -0.45593999997E+02  0.45594000000E+02  0.51100000000E-03 0. -1.
    9900012    2    1    2    0    0 -0.72460755970E+01 -0.15643581570E+02  0.36823054028E+02  0.50528873548E+02  0.30000041635E+02 0.  0.
         12    1    1    2    0    0  0.72460755970E+01  0.15643581570E+02 -0.36823054028E+02  0.40659126452E+02  0.00000000000E+00 0. -1.
         11    1    3    3    0    0 -0.57110683661E+01  0.68821510600E+01  0.83550412488E+01  0.12238750738E+02  0.51100000000E-03 0. -1.
        -11    1    3    3    0    0 -0.49193351431E+01 -0.11338290480E+02  0.80082787297E+01  0.14727159187E+02  0.51100000000E-03 0.  1.
         12    1    3    3    0    0  0.33843279122E+01 -0.11187442150E+02  0.20459734050E+02  0.23562963622E+02  0.00000000000E+00 0. -1.
</event>
<event>
 7    1  0.3004200E-011  0.5052881E+02  0.7816164E-02  0.1300439E+00
        -11   -1    0    0    0    0  0.00000000000E+00  0.00000000000E+00  0.45593999997E+02  0.45594000000E+02  0.51100000000E-03 0.  1.
         11   -1    0    0    0    0 -0.00000000000E+00 -0.00000000000E+00 -0.45593999997E+02  0.45594000000E+02  0.51100000000E-03 0. -1.
    9900012    2    1    2    0    0  0.13337526826E+02  0.43940266684E+01  0.38157212514E+02  0.50528807201E+02  0.29999839969E+02 0.  0.
         12    1    1    2    0    0 -0.13337526826E+02 -0.43940266684E+01 -0.38157212514E+02  0.40659192799E+02  0.00000000000E+00 0. -1.
         11    1    3    3    0    0  0.92633728833E+00  0.22687025238E+01 -0.41994635618E+01  0.48621606700E+01  0.51100000000E-03 0. -1.
        -11    1    3    3    0    0  0.94264538168E+01 -0.27144995866E+00  0.12993424238E+02  0.16054930406E+02  0.51100000000E-03 0.  1.
         12    1    3    3    0    0  0.29847357212E+01  0.23967741032E+01  0.29363251837E+02  0.29611716125E+02  0.00000000000E+00 0. -1.
</event>
<event>
 7    1  0.3004200E-011  0.5052885E+02  0.7816164E-02  0.1300439E+00
        -11   -1    0    0    0    0  0.00000000000E+00  0.00000000000E+00  0.45593999997E+02  0.45594000000E+02  0.51100000000E-03 0.  1.
         11   -1    0    0    0    0 -0.00000000000E+00 -0.00000000000E+00 -0.45593999997E+02  0.45594000000E+02  0.51100000000E-03 0. -1.
    9900012    2    1    2    0    0  0.40513409292E+02  0.32117441567E+01 -0.12309110231E+01  0.50528846357E+02  0.29999958987E+02 0.  0.
         12    1    1    2    0    0 -0.40513409292E+02 -0.32117441567E+01  0.12309110231E+01  0.40659153643E+02  0.00000000000E+00 0. -1.
         11    1    3    3    0    0 -0.40516971654E+01 -0.13863734005E+01  0.30059141135E+01  0.52319978063E+01  0.51100000000E-03 0. -1.
        -11    1    3    3    0    0  0.12537125807E+02  0.12827378201E+01  0.11315629030E+01  0.12653275255E+02  0.51100000000E-03 0.  1.
         12    1    3    3    0    0  0.32027980651E+02  0.33153797372E+01 -0.53683880396E+01  0.32643573296E+02  0.00000000000E+00 0. -1.
</event>
<event>
 7    1  0.3004200E-011  0.5052885E+02  0.7816164E-02  0.1300439E+00
        -11   -1    0    0    0    0  0.00000000000E+00  0.00000000000E+00  0.45593999997E+02  0.45594000000E+02  0.51100000000E-03 0.  1.
         11   -1    0    0    0    0 -0.00000000000E+00 -0.00000000000E+00 -0.45593999997E+02  0.45594000000E+02  0.51100000000E-03 0. -1.
    9900012    2    1    2    0    0 -0.22098918648E+02 -0.20208080011E+02  0.27503407899E+02  0.50528854052E+02  0.29999982377E+02 0.  0.
         12    1    1    2    0    0  0.22098918648E+02  0.20208080011E+02 -0.27503407899E+02  0.40659145948E+02  0.00000000000E+00 0. -1.
         11    1    3    3    0    0 -0.20733506341E+01 -0.93076113097E+01  0.11719509198E+01  0.96074908464E+01  0.51100000000E-03 0. -1.
        -11    1    3    3    0    0 -0.20068277980E+01  0.23678528936E+01  0.15957859590E+02  0.16256917546E+02  0.51100000000E-03 0.  1.
        -12    1    3    3    0    0 -0.18018740216E+02 -0.13268321595E+02  0.10373597389E+02  0.24664445660E+02  0.00000000000E+00 0.  1.
</event>
<event>
 7    1  0.3004200E-011  0.5052887E+02  0.7816164E-02  0.1300439E+00
        -11   -1    0    0    0    0  0.00000000000E+00  0.00000000000E+00  0.45593999997E+02  0.45594000000E+02  0.51100000000E-03 0.  1.
         11   -1    0    0    0    0 -0.00000000000E+00 -0.00000000000E+00 -0.45593999997E+02  0.45594000000E+02  0.51100000000E-03 0. -1.
    9900012    2    1    2    0    0  0.29636794263E+00 -0.32597622935E+01  0.40527161557E+02  0.50528871775E+02  0.30000036247E+02 0.  0.
         12    1    1    2    0    0 -0.29636794263E+00  0.32597622935E+01 -0.40527161557E+02  0.40659128225E+02  0.00000000000E+00 0. -1.
         11    1    3    3    0    0  0.14884869070E+01 -0.11224448654E+01  0.18060737984E+01  0.25956460804E+01  0.51100000000E-03 0. -1.
        -11    1    3    3    0    0  0.58677535237E+01 -0.11257953907E+02  0.32360912916E+02  0.34762058953E+02  0.51100000000E-03 0.  1.
        -12    1    3    3    0    0 -0.70598724881E+01  0.91206364785E+01  0.63601748421E+01  0.13171166742E+02  0.00000000000E+00 0.  1.
</event>
<event>
 7    1  0.3004200E-011  0.5052887E+02  0.7816164E-02  0.1300439E+00
        -11   -1    0    0    0    0  0.00000000000E+00  0.00000000000E+00  0.45593999997E+02  0.45594000000E+02  0.51100000000E-03 0. -1.
         11   -1    0    0    0    0 -0.00000000000E+00 -0.00000000000E+00 -0.45593999997E+02  0.45594000000E+02  0.51100000000E-03 0.  1.
    9900012    2    1    2    0    0  0.25728182947E+01 -0.26796309385E+02 -0.30471355962E+02  0.50528866650E+02  0.30000020669E+02 0.  0.
         12    1    1    2    0    0 -0.25728182947E+01  0.26796309385E+02  0.30471355962E+02  0.40659133350E+02  0.00000000000E+00 0. -1.
         11    1    3    3    0    0  0.25134087387E+00 -0.19681119892E+02 -0.45974235313E+01  0.20212519779E+02  0.51100000000E-03 0. -1.
        -11    1    3    3    0    0  0.70553674125E+01 -0.74691130414E+01 -0.21640663325E+02  0.23955879620E+02  0.51100000000E-03 0.  1.
         12    1    3    3    0    0 -0.47338899917E+01  0.35392354814E+00 -0.42332691054E+01  0.63604672509E+01  0.00000000000E+00 0. -1.
</event>
<event>
 7    1  0.3004200E-011  0.5052886E+02  0.7816164E-02  0.1300439E+00
        -11   -1    0    0    0    0  0.00000000000E+00  0.00000000000E+00  0.45593999997E+02  0.45594000000E+02  0.51100000000E-03 0.  1.
         11   -1    0    0    0    0 -0.00000000000E+00 -0.00000000000E+00 -0.45593999997E+02  0.45594000000E+02  0.51100000000E-03 0. -1.
    9900012    2    1    2    0    0 -0.34253525684E+02 -0.13622984569E+02  0.17154476697E+02  0.50528858333E+02  0.29999995390E+02 0.  0.
         12    1    1    2    0    0  0.34253525684E+02  0.13622984569E+02 -0.17154476697E+02  0.40659141667E+02  0.00000000000E+00 0. -1.
         11    1    3    3    0    0 -0.18290068218E+02 -0.10483353008E+02 -0.33304986488E+01  0.21342902971E+02  0.51100000000E-03 0. -1.
        -11    1    3    3    0    0 -0.77981270175E+01  0.38234174564E+01  0.41109957023E+01  0.96088288544E+01  0.51100000000E-03 0.  1.
         12    1    3    3    0    0 -0.81653304485E+01 -0.69630490171E+01  0.16373979644E+02  0.19577126508E+02  0.00000000000E+00 0. -1.
</event>
<event>
 7    1  0.3004200E-011  0.5052896E+02  0.7816164E-02  0.1300438E+00
        -11   -1    0    0    0    0  0.00000000000E+00  0.00000000000E+00  0.45593999997E+02  0.45594000000E+02  0.51100000000E-03 0.  1.
         11   -1    0    0    0    0 -0.00000000000E+00 -0.00000000000E+00 -0.45593999997E+02  0.45594000000E+02  0.51100000000E-03 0. -1.
    9900012    2    1    2    0    0  0.16536204544E+02 -0.29455704273E+02  0.22629026061E+02  0.50528961701E+02  0.30000309584E+02 0.  0.
         12    1    1    2    0    0 -0.16536204544E+02  0.29455704273E+02 -0.22629026061E+02  0.40659038299E+02  0.00000000000E+00 0. -1.
         11    1    3    3    0    0 -0.37430708587E+01 -0.11984869781E+02  0.27774721148E+01  0.12859317040E+02  0.51100000000E-03 0. -1.
        -11    1    3    3    0    0  0.18278177034E+02 -0.20445919747E+02  0.13961679312E+02  0.30774273013E+02  0.51100000000E-03 0.  1.
         12    1    3    3    0    0  0.20010983685E+01  0.29750852553E+01  0.58898746343E+01  0.68953716481E+01  0.00000000000E+00 0. -1.
</event>
<event>
 7    1  0.3004200E-011  0.5052882E+02  0.7816164E-02  0.1300439E+00
        -11   -1    0    0    0    0  0.00000000000E+00  0.00000000000E+00  0.45593999997E+02  0.45594000000E+02  0.51100000000E-03 0.  1.
         11   -1    0    0    0    0 -0.00000000000E+00 -0.00000000000E+00 -0.45593999997E+02  0.45594000000E+02  0.51100000000E-03 0. -1.
    9900012    2    1    2    0    0 -0.15176887429E+02  0.37546884023E+02  0.36141722726E+01  0.50528823261E+02  0.29999888784E+02 0.  0.
         12    1    1    2    0    0  0.15176887429E+02 -0.37546884023E+02 -0.36141722726E+01  0.40659176739E+02  0.00000000000E+00 0. -1.
         11    1    3    3    0    0 -0.95374384808E+01  0.54372774538E+01 -0.67930176406E+01  0.12910143602E+02  0.51100000000E-03 0. -1.
        -11    1    3    3    0    0 -0.52916176628E+01  0.35488795130E+01 -0.17021729641E+01  0.65949341428E+01  0.51100000000E-03 0.  1.
         12    1    3    3    0    0 -0.34783128541E+00  0.28560727056E+02  0.12109362877E+02  0.31023745517E+02  0.00000000000E+00 0. -1.
</event>
<event>
 7    1  0.3004200E-011  0.5052886E+02  0.7816164E-02  0.1300439E+00
        -11   -1    0    0    0    0  0.00000000000E+00  0.00000000000E+00  0.45593999997E+02  0.45594000000E+02  0.51100000000E-03 0.  1.
         11   -1    0    0    0    0 -0.00000000000E+00 -0.00000000000E+00 -0.45593999997E+02  0.45594000000E+02  0.51100000000E-03 0. -1.
    9900012    2    1    2    0    0 -0.16064483175E+02 -0.18887051980E+02  0.32223860364E+02  0.50528861680E+02  0.30000005561E+02 0.  0.
         12    1    1    2    0    0  0.16064483175E+02  0.18887051980E+02 -0.32223860364E+02  0.40659138320E+02  0.00000000000E+00 0. -1.
         11    1    3    3    0    0 -0.75644937637E+01 -0.19906174572E+02  0.31142834330E+02  0.37727357214E+02  0.51100000000E-03 0. -1.
        -11    1    3    3    0    0 -0.85186086320E+01  0.21296169834E+01  0.40217959613E+01  0.96579917445E+01  0.51100000000E-03 0.  1.
         12    1    3    3    0    0  0.18619220723E-01 -0.11104943918E+01 -0.29407699266E+01  0.31435127216E+01  0.00000000000E+00 0. -1.
</event>
<event>
 7    1  0.3004200E-011  0.5052886E+02  0.7816164E-02  0.1300439E+00
        -11   -1    0    0    0    0  0.00000000000E+00  0.00000000000E+00  0.45593999997E+02  0.45594000000E+02  0.51100000000E-03 0.  1.
         11   -1    0    0    0    0 -0.00000000000E+00 -0.00000000000E+00 -0.45593999997E+02  0.45594000000E+02  0.51100000000E-03 0. -1.
    9900012    2    1    2    0    0  0.34492032397E+02  0.10981878003E+02 -0.18516586094E+02  0.50528857069E+02  0.29999991546E+02 0.  0.
         12    1    1    2    0    0 -0.34492032397E+02 -0.10981878003E+02  0.18516586094E+02  0.40659142931E+02  0.00000000000E+00 0. -1.
         11    1    3    3    0    0  0.56649392427E+01  0.19847852683E+01 -0.14550906014E+02  0.15740386757E+02  0.51100000000E-03 0. -1.
        -11    1    3    3    0    0  0.46129889044E+01 -0.30708879062E+01  0.37064745088E+01  0.66669312813E+01  0.51100000000E-03 0.  1.
        -12    1    3    3    0    0  0.24214104250E+02  0.12067980641E+02 -0.76721545887E+01  0.28121539030E+02  0.00000000000E+00 0.  1.
</event>
<event>
 7    1  0.3004200E-011  0.5052886E+02  0.7816164E-02  0.1300439E+00
        -11   -1    0    0    0    0  0.00000000000E+00  0.00000000000E+00  0.45593999997E+02  0.45594000000E+02  0.51100000000E-03 0. -1.
         11   -1    0    0    0    0 -0.00000000000E+00 -0.00000000000E+00 -0.45593999997E+02  0.45594000000E+02  0.51100000000E-03 0.  1.
    9900012    2    1    2    0    0 -0.26020397523E+02  0.27139112465E+02 -0.15478154121E+02  0.50528858744E+02  0.29999996639E+02 0.  0.
         12    1    1    2    0    0  0.26020397523E+02 -0.27139112465E+02  0.15478154121E+02  0.40659141256E+02  0.00000000000E+00 0. -1.
         11    1    3    3    0    0 -0.51232315921E+01  0.15211299866E+00 -0.93146066721E+01  0.10631676163E+02  0.51100000000E-03 0. -1.
        -11    1    3    3    0    0 -0.22934588280E+02  0.16519137233E+02 -0.16363980289E+01  0.28311747266E+02  0.51100000000E-03 0.  1.
        -12    1    3    3    0    0  0.20374223493E+01  0.10467862234E+02 -0.45271494200E+01  0.11585435315E+02  0.00000000000E+00 0.  1.
</event>
<event>
 7    1  0.3004200E-011  0.5052885E+02  0.7816164E-02  0.1300439E+00
        -11   -1    0    0    0    0  0.00000000000E+00  0.00000000000E+00  0.45593999997E+02  0.45594000000E+02  0.51100000000E-03 0.  1.
         11   -1    0    0    0    0 -0.00000000000E+00 -0.00000000000E+00 -0.45593999997E+02  0.45594000000E+02  0.51100000000E-03 0. -1.
    9900012    2    1    2    0    0  0.14054416482E+02 -0.13996358704E+02  0.35492836588E+02  0.50528854305E+02  0.29999983145E+02 0.  0.
         12    1    1    2    0    0 -0.14054416482E+02  0.13996358704E+02 -0.35492836588E+02  0.40659145695E+02  0.00000000000E+00 0. -1.
         11    1    3    3    0    0  0.56353332615E+01 -0.99521281810E+01 -0.11672608651E+01  0.11496274809E+02  0.51100000000E-03 0. -1.
        -11    1    3    3    0    0 -0.81987456171E+00  0.21306680795E+01  0.58461765897E+01  0.62761231458E+01  0.51100000000E-03 0.  1.
         12    1    3    3    0    0  0.92389577820E+01 -0.61748986021E+01  0.30813920863E+02  0.32756456350E+02  0.00000000000E+00 0. -1.
</event>
<event>
 7    1  0.3004200E-011  0.5052887E+02  0.7816164E-02  0.1300439E+00
        -11   -1    0    0    0    0  0.00000000000E+00  0.00000000000E+00  0.45593999997E+02  0.45594000000E+02  0.51100000000E-03 0.  1.
         11   -1    0    0    0    0 -0.00000000000E+00 -0.00000000000E+00 -0.45593999997E+02  0.45594000000E+02  0.51100000000E-03 0. -1.
    9900012    2    1    2    0    0 -0.11035395612E+02 -0.28175721769E+02  0.27157206336E+02  0.50528866838E+02  0.30000021240E+02 0.  0.
         12    1    1    2    0    0  0.11035395612E+02  0.28175721769E+02 -0.27157206336E+02  0.40659133162E+02  0.00000000000E+00 0. -1.
         11    1    3    3    0    0  0.64714913076E+00 -0.18224088243E+02  0.50059443061E+01  0.18910200235E+02  0.51100000000E-03 0. -1.
        -11    1    3    3    0    0 -0.12785652631E+02 -0.33546898980E+01  0.21026416925E+02  0.24836204752E+02  0.51100000000E-03 0.  1.
        -12    1    3    3    0    0  0.11031078879E+01 -0.65969436282E+01  0.11248451055E+01  0.67824618507E+01  0.00000000000E+00 0.  1.
</event>
<event>
 7    1  0.3004200E-011  0.5052886E+02  0.7816164E-02  0.1300439E+00
        -11   -1    0    0    0    0  0.00000000000E+00  0.00000000000E+00  0.45593999997E+02  0.45594000000E+02  0.51100000000E-03 0.  1.
         11   -1    0    0    0    0 -0.00000000000E+00 -0.00000000000E+00 -0.45593999997E+02  0.45594000000E+02  0.51100000000E-03 0. -1.
    9900012    2    1    2    0    0 -0.22353548396E+02  0.63939645846E+01  0.33355691483E+02  0.50528855108E+02  0.29999985587E+02 0.  0.
         12    1    1    2    0    0  0.22353548396E+02 -0.63939645846E+01 -0.33355691483E+02  0.40659144892E+02  0.00000000000E+00 0. -1.
         11    1    3    3    0    0 -0.11795243458E+02 -0.97525175389E+01  0.11813721434E+02  0.19333995473E+02  0.51100000000E-03 0. -1.
        -11    1    3    3    0    0 -0.18900406387E+01  0.10382182730E+02  0.50660655056E+01  0.11705852888E+02  0.51100000000E-03 0.  1.
        -12    1    3    3    0    0 -0.86682642994E+01  0.57642993931E+01  0.16475904544E+02  0.19489006747E+02  0.00000000000E+00 0.  1.
</event>
<event>
 7    1  0.3004200E-011  0.5052886E+02  0.7816164E-02  0.1300439E+00
        -11   -1    0    0    0    0  0.00000000000E+00  0.00000000000E+00  0.45593999997E+02  0.45594000000E+02  0.51100000000E-03 0.  1.
         11   -1    0    0    0    0 -0.00000000000E+00 -0.00000000000E+00 -0.45593999997E+02  0.45594000000E+02  0.51100000000E-03 0. -1.
    9900012    2    1    2    0    0  0.26342958906E+02 -0.28344439900E+02  0.12482260425E+02  0.50528861021E+02  0.30000003559E+02 0.  0.
         12    1    1    2    0    0 -0.26342958906E+02  0.28344439900E+02 -0.12482260425E+02  0.40659138979E+02  0.00000000000E+00 0. -1.
         11    1    3    3    0    0  0.20871142882E+01  0.30070137860E+01  0.37573174114E+01  0.52455326090E+01  0.51100000000E-03 0. -1.
        -11    1    3    3    0    0  0.16932081868E+02 -0.32374124749E+02  0.97614920128E+01  0.37816214462E+02  0.51100000000E-03 0.  1.
        -12    1    3    3    0    0  0.73237627497E+01  0.10226710625E+01 -0.10365489989E+01  0.74671139501E+01  0.00000000000E+00 0.  1.
</event>
<event>
 7    1  0.3004200E-011  0.5052886E+02  0.7816164E-02  0.1300439E+00
        -11   -1    0    0    0    0  0.00000000000E+00  0.00000000000E+00  0.45593999997E+02  0.45594000000E+02  0.51100000000E-03 0.  1.
         11   -1    0    0    0    0 -0.00000000000E+00 -0.00000000000E+00 -0.45593999997E+02  0.45594000000E+02  0.51100000000E-03 0. -1.
    9900012    2    1    2    0    0  0.29104067615E+02 -0.27488962994E+02  0.71046382794E+01  0.50528859290E+02  0.29999998297E+02 0.  0.
         12    1    1    2    0    0 -0.29104067615E+02  0.27488962994E+02 -0.71046382794E+01  0.40659140710E+02  0.00000000000E+00 0. -1.
         11    1    3    3    0    0 -0.33558021815E+01 -0.17684482788E+01 -0.11342285964E+01  0.39592035015E+01  0.51100000000E-03 0. -1.
        -11    1    3    3    0    0  0.33476387944E+02 -0.23003821404E+02  0.11490493296E+02  0.42212270555E+02  0.51100000000E-03 0.  1.
        -12    1    3    3    0    0 -0.10165181474E+01 -0.27166933111E+01 -0.32516264204E+01  0.43573852329E+01  0.00000000000E+00 0.  1.
</event>
<event>
 7    1  0.3004200E-011  0.5052886E+02  0.7816164E-02  0.1300439E+00
        -11   -1    0    0    0    0  0.00000000000E+00  0.00000000000E+00  0.45593999997E+02  0.45594000000E+02  0.51100000000E-03 0. -1.
         11   -1    0    0    0    0 -0.00000000000E+00 -0.00000000000E+00 -0.45593999997E+02  0.45594000000E+02  0.51100000000E-03 0.  1.
    9900012    2    1    2    0    0 -0.27056423629E+02 -0.29157935240E+02 -0.84220311342E+01  0.50528857664E+02  0.29999993356E+02 0.  0.
         12    1    1    2    0    0  0.27056423629E+02  0.29157935240E+02  0.84220311342E+01  0.40659142336E+02  0.00000000000E+00 0. -1.
         11    1    3    3    0    0 -0.26656031925E+02 -0.73494752972E+01 -0.37724938590E+01  0.27906818796E+02  0.51100000000E-03 0. -1.
        -11    1    3    3    0    0  0.13722156744E+01 -0.90034152391E+01 -0.84416025719E+00  0.91464238162E+01  0.51100000000E-03 0.  1.
        -12    1    3    3    0    0 -0.17726073785E+01 -0.12805044704E+02 -0.38053770180E+01  0.13475615052E+02  0.00000000000E+00 0.  1.
</event>
<event>
 7    1  0.3004200E-011  0.5052886E+02  0.7816164E-02  0.1300439E+00
        -11   -1    0    0    0    0  0.00000000000E+00  0.00000000000E+00  0.45593999997E+02  0.45594000000E+02  0.51100000000E-03 0.  1.
         11   -1    0    0    0    0 -0.00000000000E+00 -0.00000000000E+00 -0.45593999997E+02  0.45594000000E+02  0.51100000000E-03 0. -1.
    9900012    2    1    2    0    0 -0.33855938746E+02  0.35697318442E+00  0.22512530916E+02  0.50528855070E+02  0.29999985470E+02 0.  0.
         12    1    1    2    0    0  0.33855938746E+02 -0.35697318442E+00 -0.22512530916E+02  0.40659144930E+02  0.00000000000E+00 0. -1.
         11    1    3    3    0    0 -0.84411820851E+01  0.67710272158E+01  0.50373912938E+00  0.10833010566E+02  0.51100000000E-03 0. -1.
        -11    1    3    3    0    0 -0.27718137409E+02 -0.62848136921E+01  0.14632569522E+02  0.31967266315E+02  0.51100000000E-03 0.  1.
        -12    1    3    3    0    0  0.23033807479E+01 -0.12924033922E+00  0.73762222638E+01  0.77285781887E+01  0.00000000000E+00 0.  1.
</event>
<event>
 7    1  0.3004200E-011  0.5052886E+02  0.7816164E-02  0.1300439E+00
        -11   -1    0    0    0    0  0.00000000000E+00  0.00000000000E+00  0.45593999997E+02  0.45594000000E+02  0.51100000000E-03 0.  1.
         11   -1    0    0    0    0 -0.00000000000E+00 -0.00000000000E+00 -0.45593999997E+02  0.45594000000E+02  0.51100000000E-03 0. -1.
    9900012    2    1    2    0    0 -0.20845233432E+02  0.93478369061E+01  0.33634206562E+02  0.50528860035E+02  0.30000000561E+02 0.  0.
         12    1    1    2    0    0  0.20845233432E+02 -0.93478369061E+01 -0.33634206562E+02  0.40659139965E+02  0.00000000000E+00 0. -1.
         11    1    3    3    0    0 -0.82267516408E+01 -0.98059244112E+01  0.57353855853E+01  0.14026055903E+02  0.51100000000E-03 0. -1.
        -11    1    3    3    0    0 -0.69181729998E+01  0.58346531776E+01  0.10507969181E+02  0.13868010381E+02  0.51100000000E-03 0.  1.
         12    1    3    3    0    0 -0.57003087918E+01  0.13319108140E+02  0.17390851796E+02  0.22634793751E+02  0.00000000000E+00 0. -1.
</event>
<event>
 7    1  0.3004200E-011  0.5052886E+02  0.7816164E-02  0.1300439E+00
        -11   -1    0    0    0    0  0.00000000000E+00  0.00000000000E+00  0.45593999997E+02  0.45594000000E+02  0.51100000000E-03 0.  1.
         11   -1    0    0    0    0 -0.00000000000E+00 -0.00000000000E+00 -0.45593999997E+02  0.45594000000E+02  0.51100000000E-03 0. -1.
    9900012    2    1    2    0    0 -0.33913831879E+02 -0.18096360758E+02  0.13249121800E+02  0.50528862111E+02  0.30000006874E+02 0.  0.
         12    1    1    2    0    0  0.33913831879E+02  0.18096360758E+02 -0.13249121800E+02  0.40659137889E+02  0.00000000000E+00 0. -1.
         11    1    3    3    0    0 -0.26510848466E+01  0.45130836260E+00 -0.31021164800E+01  0.41054910813E+01  0.51100000000E-03 0. -1.
        -11    1    3    3    0    0 -0.17583297690E+02 -0.10410422093E+02  0.21532103709E+02  0.29684688582E+02  0.51100000000E-03 0.  1.
        -12    1    3    3    0    0 -0.13679449343E+02 -0.81372470274E+01 -0.51808654295E+01  0.16738682448E+02  0.00000000000E+00 0.  1.
</event>
<event>
 7    1  0.3004200E-011  0.5052887E+02  0.7816164E-02  0.1300439E+00
        -11   -1    0    0    0    0  0.00000000000E+00  0.00000000000E+00  0.45593999997E+02  0.45594000000E+02  0.51100000000E-03 0.  1.
         11   -1    0    0    0    0 -0.00000000000E+00 -0.00000000000E+00 -0.45593999997E+02  0.45594000000E+02  0.51100000000E-03 0. -1.
    9900012    2    1    2    0    0  0.22860436276E+02  0.15901682014E+01  0.33586260421E+02  0.50528867315E+02  0.30000022690E+02 0.  0.
         12    1    1    2    0    0 -0.22860436276E+02 -0.15901682014E+01 -0.33586260421E+02  0.40659132685E+02  0.00000000000E+00 0. -1.
         11    1    3    3    0    0  0.26539795580E+02 -0.60898055574E+01  0.25342280771E+02  0.37197818163E+02  0.51100000000E-03 0. -1.
        -11    1    3    3    0    0 -0.48029539980E+01  0.32742646646E+01  0.36294748952E+01  0.68529019019E+01  0.51100000000E-03 0.  1.
         12    1    3    3    0    0  0.11235946937E+01  0.44057090942E+01  0.46145047550E+01  0.64781472499E+01  0.00000000000E+00 0. -1.
</event>
<event>
 7    1  0.3004200E-011  0.5052886E+02  0.7816164E-02  0.1300439E+00
        -11   -1    0    0    0    0  0.00000000000E+00  0.00000000000E+00  0.45593999997E+02  0.45594000000E+02  0.51100000000E-03 0. -1.
         11   -1    0    0    0    0 -0.00000000000E+00 -0.00000000000E+00 -0.45593999997E+02  0.45594000000E+02  0.51100000000E-03 0.  1.
    9900012    2    1    2    0    0  0.40464287631E+02 -0.24847766662E+01 -0.31037377436E+01  0.50528857405E+02  0.29999992568E+02 0.  0.
         12    1    1    2    0    0 -0.40464287631E+02  0.24847766662E+01  0.31037377436E+01  0.40659142595E+02  0.00000000000E+00 0. -1.
         11    1    3    3    0    0  0.24801708767E+02  0.12353511373E+02 -0.43225567856E+01  0.28043154217E+02  0.51100000000E-03 0. -1.
        -11    1    3    3    0    0  0.15100828109E+02 -0.11306702615E+02  0.75530458041E+00  0.18879804524E+02  0.51100000000E-03 0.  1.
        -12    1    3    3    0    0  0.56175075503E+00 -0.35315854243E+01  0.46351446159E+00  0.36058986641E+01  0.00000000000E+00 0.  1.
</event>
<event>
 7    1  0.3004200E-011  0.5052885E+02  0.7816164E-02  0.1300439E+00
        -11   -1    0    0    0    0  0.00000000000E+00  0.00000000000E+00  0.45593999997E+02  0.45594000000E+02  0.51100000000E-03 0. -1.
         11   -1    0    0    0    0 -0.00000000000E+00 -0.00000000000E+00 -0.45593999997E+02  0.45594000000E+02  0.51100000000E-03 0.  1.
    9900012    2    1    2    0    0 -0.39459580958E+02  0.49610220783E+01 -0.84555235960E+01  0.50528854058E+02  0.29999982396E+02 0.  0.
         12    1    1    2    0    0  0.39459580958E+02 -0.49610220783E+01  0.84555235960E+01  0.40659145942E+02  0.00000000000E+00 0. -1.
         11    1    3    3    0    0 -0.57658591984E+01  0.25397396700E+01 -0.10600538829E+02  0.12331538169E+02  0.51100000000E-03 0. -1.
        -11    1    3    3    0    0 -0.19946991088E+02  0.44765695947E+01  0.94199508429E+01  0.22509056020E+02  0.51100000000E-03 0.  1.
        -12    1    3    3    0    0 -0.13746730672E+02 -0.20552871864E+01 -0.72749356096E+01  0.15688259869E+02  0.00000000000E+00 0.  1.
</event>
<event>
 7    1  0.3004200E-011  0.5052885E+02  0.7816164E-02  0.1300439E+00
        -11   -1    0    0    0    0  0.00000000000E+00  0.00000000000E+00  0.45593999997E+02  0.45594000000E+02  0.51100000000E-03 0.  1.
         11   -1    0    0    0    0 -0.00000000000E+00 -0.00000000000E+00 -0.45593999997E+02  0.45594000000E+02  0.51100000000E-03 0. -1.
    9900012    2    1    2    0    0  0.20537685659E+01  0.19885587898E+02  0.35404964726E+02  0.50528854674E+02  0.29999984267E+02 0.  0.
         12    1    1    2    0    0 -0.20537685659E+01 -0.19885587898E+02 -0.35404964726E+02  0.40659145326E+02  0.00000000000E+00 0. -1.
         11    1    3    3    0    0 -0.50588415411E+01 -0.45587043418E+01  0.81497917527E+01  0.10620394008E+02  0.51100000000E-03 0. -1.
        -11    1    3    3    0    0  0.13441751536E+00  0.21046164443E+02  0.17044695344E+02  0.27082849655E+02  0.51100000000E-03 0.  1.
         12    1    3    3    0    0  0.69781925917E+01  0.33981277973E+01  0.10210477629E+02  0.12825611010E+02  0.00000000000E+00 0. -1.
</event>
<event>
 7    1  0.3004200E-011  0.5052877E+02  0.7816164E-02  0.1300439E+00
        -11   -1    0    0    0    0  0.00000000000E+00  0.00000000000E+00  0.45593999997E+02  0.45594000000E+02  0.51100000000E-03 0.  1.
         11   -1    0    0    0    0 -0.00000000000E+00 -0.00000000000E+00 -0.45593999997E+02  0.45594000000E+02  0.51100000000E-03 0. -1.
    9900012    2    1    2    0    0  0.94557645340E+01 -0.25480415976E+02  0.30240864275E+02  0.50528770379E+02  0.29999728044E+02 0.  0.
         12    1    1    2    0    0 -0.94557645340E+01  0.25480415976E+02 -0.30240864275E+02  0.40659229621E+02  0.00000000000E+00 0. -1.
         11    1    3    3    0    0 -0.57600963920E+01 -0.16151621524E+02  0.21621796837E+02  0.27596298430E+02  0.51100000000E-03 0.  1.
        -11    1    3    3    0    0  0.11190033428E+02 -0.70071372092E+01  0.71362922207E-01  0.13203102397E+02  0.51100000000E-03 0. -1.
        -12    1    3    3    0    0  0.40258274984E+01 -0.23216572426E+01  0.85477045159E+01  0.97293695525E+01  0.00000000000E+00 0.  1.
</event>
<event>
 7    1  0.3004200E-011  0.5052885E+02  0.7816164E-02  0.1300439E+00
        -11   -1    0    0    0    0  0.00000000000E+00  0.00000000000E+00  0.45593999997E+02  0.45594000000E+02  0.51100000000E-03 0. -1.
         11   -1    0    0    0    0 -0.00000000000E+00 -0.00000000000E+00 -0.45593999997E+02  0.45594000000E+02  0.51100000000E-03 0.  1.
    9900012    2    1    2    0    0 -0.65351233496E+01 -0.49102266767E+01 -0.39828984147E+02  0.50528854148E+02  0.29999982668E+02 0.  0.
         12    1    1    2    0    0  0.65351233496E+01  0.49102266767E+01  0.39828984147E+02  0.40659145852E+02  0.00000000000E+00 0. -1.
         11    1    3    3    0    0  0.11852517713E+01 -0.67469998841E+01 -0.26867043015E+00  0.68555826345E+01  0.51100000000E-03 0. -1.
        -11    1    3    3    0    0 -0.97619936609E+01  0.71796611579E+01 -0.31817308800E+02  0.34046808868E+02  0.51100000000E-03 0.  1.
        -12    1    3    3    0    0  0.20416185400E+01 -0.53428879505E+01 -0.77430049174E+01  0.96264626455E+01  0.00000000000E+00 0.  1.
</event>
<event>
 7    1  0.3004200E-011  0.5052885E+02  0.7816164E-02  0.1300439E+00
        -11   -1    0    0    0    0  0.00000000000E+00  0.00000000000E+00  0.45593999997E+02  0.45594000000E+02  0.51100000000E-03 0. -1.
         11   -1    0    0    0    0 -0.00000000000E+00 -0.00000000000E+00 -0.45593999997E+02  0.45594000000E+02  0.51100000000E-03 0.  1.
    9900012    2    1    2    0    0  0.31152652846E+02 -0.20631776356E+02 -0.16031473451E+02  0.50528854461E+02  0.29999983620E+02 0.  0.
         12    1    1    2    0    0 -0.31152652846E+02  0.20631776356E+02  0.16031473451E+02  0.40659145539E+02  0.00000000000E+00 0. -1.
         11    1    3    3    0    0  0.38441179768E+01 -0.94146124317E+01 -0.11415826948E+02  0.15288337889E+02  0.51100000000E-03 0. -1.
        -11    1    3    3    0    0  0.24788517051E+02 -0.40983342380E+01 -0.87821687835E+01  0.26615660989E+02  0.51100000000E-03 0.  1.
        -12    1    3    3    0    0  0.25200178181E+01 -0.71188296866E+01  0.41665222798E+01  0.86248555824E+01  0.00000000000E+00 0.  1.
</event>
<event>
 7    1  0.3004200E-011  0.5052885E+02  0.7816164E-02  0.1300439E+00
        -11   -1    0    0    0    0  0.00000000000E+00  0.00000000000E+00  0.45593999997E+02  0.45594000000E+02  0.51100000000E-03 0. -1.
         11   -1    0    0    0    0 -0.00000000000E+00 -0.00000000000E+00 -0.45593999997E+02  0.45594000000E+02  0.51100000000E-03 0.  1.
    9900012    2    1    2    0    0  0.20611839560E+02  0.29984505942E+02 -0.18145181603E+02  0.50528854140E+02  0.29999982645E+02 0.  0.
         12    1    1    2    0    0 -0.20611839560E+02 -0.29984505942E+02  0.18145181603E+02  0.40659145860E+02  0.00000000000E+00 0. -1.
         11    1    3    3    0    0  0.75628750431E+00  0.59174626331E+01 -0.13097249440E+02  0.14391882363E+02  0.51100000000E-03 0. -1.
        -11    1    3    3    0    0  0.42268749480E+01  0.18834864781E-01 -0.61183770020E+01  0.74364886860E+01  0.51100000000E-03 0.  1.
         12    1    3    3    0    0  0.15628677108E+02  0.24048208444E+02  0.10704448393E+01  0.28700483091E+02  0.00000000000E+00 0. -1.
</event>
<event>
 7    1  0.3004200E-011  0.5052886E+02  0.7816164E-02  0.1300439E+00
        -11   -1    0    0    0    0  0.00000000000E+00  0.00000000000E+00  0.45593999997E+02  0.45594000000E+02  0.51100000000E-03 0.  1.
         11   -1    0    0    0    0 -0.00000000000E+00 -0.00000000000E+00 -0.45593999997E+02  0.45594000000E+02  0.51100000000E-03 0. -1.
    9900012    2    1    2    0    0  0.10865806009E+02 -0.38266881262E+02  0.84110293569E+01  0.50528863799E+02  0.30000012004E+02 0.  0.
         12    1    1    2    0    0 -0.10865806009E+02  0.38266881262E+02 -0.84110293569E+01  0.40659136201E+02  0.00000000000E+00 0. -1.
         11    1    3    3    0    0  0.45001247429E+01  0.12327680557E+00  0.70925468522E+01  0.84006274161E+01  0.51100000000E-03 0. -1.
        -11    1    3    3    0    0  0.62807294692E+00 -0.31608731173E+02  0.58570571392E+01  0.32152938910E+02  0.51100000000E-03 0.  1.
        -12    1    3    3    0    0  0.57376083190E+01 -0.67814268953E+01 -0.45385746345E+01  0.99752974728E+01  0.00000000000E+00 0.  1.
</event>
<event>
 7    1  0.3004200E-011  0.5052888E+02  0.7816164E-02  0.1300439E+00
        -11   -1    0    0    0    0  0.00000000000E+00  0.00000000000E+00  0.45593999997E+02  0.45594000000E+02  0.51100000000E-03 0.  1.
         11   -1    0    0    0    0 -0.00000000000E+00 -0.00000000000E+00 -0.45593999997E+02  0.45594000000E+02  0.51100000000E-03 0. -1.
    9900012    2    1    2    0    0  0.26228860326E+02 -0.16843040039E+02  0.26105987424E+02  0.50528884280E+02  0.30000074256E+02 0.  0.
         12    1    1    2    0    0 -0.26228860326E+02  0.16843040039E+02 -0.26105987424E+02  0.40659115720E+02  0.00000000000E+00 0. -1.
         11    1    3    3    0    0  0.65200975372E+01  0.25531612885E+01 -0.23072538642E+00  0.70059645249E+01  0.51100000000E-03 0. -1.
        -11    1    3    3    0    0  0.17450874375E+02 -0.22523200586E+02  0.16426383544E+02  0.32888503427E+02  0.51100000000E-03 0.  1.
        -12    1    3    3    0    0  0.22578884147E+01  0.31269992587E+01  0.99103292662E+01  0.10634416327E+02  0.00000000000E+00 0.  1.
</event>
<event>
 7    1  0.3004200E-011  0.5052886E+02  0.7816164E-02  0.1300439E+00
        -11   -1    0    0    0    0  0.00000000000E+00  0.00000000000E+00  0.45593999997E+02  0.45594000000E+02  0.51100000000E-03 0.  1.
         11   -1    0    0    0    0 -0.00000000000E+00 -0.00000000000E+00 -0.45593999997E+02  0.45594000000E+02  0.51100000000E-03 0. -1.
    9900012    2    1    2    0    0 -0.63520123385E+01  0.39475810470E+02 -0.73809322892E+01  0.50528857923E+02  0.29999994143E+02 0.  0.
         12    1    1    2    0    0  0.63520123385E+01 -0.39475810470E+02  0.73809322892E+01  0.40659142077E+02  0.00000000000E+00 0. -1.
         11    1    3    3    0    0 -0.79310524376E+01  0.22433059594E+02 -0.13428755492E+02  0.27321698883E+02  0.51100000000E-03 0. -1.
        -11    1    3    3    0    0  0.66251997548E+01  0.54110536024E+01  0.61367939257E+01  0.10527725910E+02  0.51100000000E-03 0.  1.
         12    1    3    3    0    0 -0.50461596556E+01  0.11631697273E+02 -0.88970722405E-01  0.12679433130E+02  0.00000000000E+00 0. -1.
</event>
<event>
 7    1  0.3004200E-011  0.5052886E+02  0.7816164E-02  0.1300439E+00
        -11   -1    0    0    0    0  0.00000000000E+00  0.00000000000E+00  0.45593999997E+02  0.45594000000E+02  0.51100000000E-03 0.  1.
         11   -1    0    0    0    0 -0.00000000000E+00 -0.00000000000E+00 -0.45593999997E+02  0.45594000000E+02  0.51100000000E-03 0. -1.
    9900012    2    1    2    0    0  0.21561087092E+02  0.14371471012E+01  0.34441542699E+02  0.50528859185E+02  0.29999997978E+02 0.  0.
         12    1    1    2    0    0 -0.21561087092E+02 -0.14371471012E+01 -0.34441542699E+02  0.40659140815E+02  0.00000000000E+00 0. -1.
         11    1    3    3    0    0 -0.13897576322E+01 -0.32046482280E+01  0.11150322657E+02  0.11684643433E+02  0.51100000000E-03 0. -1.
        -11    1    3    3    0    0  0.20717772129E+02 -0.28632189061E+01  0.22886633060E+02  0.31003581689E+02  0.51100000000E-03 0.  1.
        -12    1    3    3    0    0  0.22330725952E+01  0.75050142352E+01  0.40458698239E+00  0.78406340632E+01  0.00000000000E+00 0.  1.
</event>
<event>
 7    1  0.3004200E-011  0.5052885E+02  0.7816164E-02  0.1300439E+00
        -11   -1    0    0    0    0  0.00000000000E+00  0.00000000000E+00  0.45593999997E+02  0.45594000000E+02  0.51100000000E-03 0.  1.
         11   -1    0    0    0    0 -0.00000000000E+00 -0.00000000000E+00 -0.45593999997E+02  0.45594000000E+02  0.51100000000E-03 0. -1.
    9900012    2    1    2    0    0  0.36505694174E+02 -0.16309861288E+02  0.73816603194E+01  0.50528853533E+02  0.29999980800E+02 0.  0.
         12    1    1    2    0    0 -0.36505694174E+02  0.16309861288E+02 -0.73816603194E+01  0.40659146467E+02  0.00000000000E+00 0. -1.
         11    1    3    3    0    0 -0.14543202253E+01 -0.97292294159E+00 -0.67639670456E+01  0.69866212738E+01  0.51100000000E-03 0. -1.
        -11    1    3    3    0    0  0.32879273295E+02 -0.14129876412E+02  0.10970735671E+02  0.37430696777E+02  0.51100000000E-03 0.  1.
         12    1    3    3    0    0  0.50807411041E+01 -0.12070619339E+01  0.31748916944E+01  0.61115354822E+01  0.00000000000E+00 0. -1.
</event>
<event>
 7    1  0.3004200E-011  0.5052885E+02  0.7816164E-02  0.1300439E+00
        -11   -1    0    0    0    0  0.00000000000E+00  0.00000000000E+00  0.45593999997E+02  0.45594000000E+02  0.51100000000E-03 0. -1.
         11   -1    0    0    0    0 -0.00000000000E+00 -0.00000000000E+00 -0.45593999997E+02  0.45594000000E+02  0.51100000000E-03 0.  1.
    9900012    2    1    2    0    0  0.19577313653E+02  0.28751190801E+02 -0.21053836855E+02  0.50528853075E+02  0.29999979406E+02 0.  0.
         12    1    1    2    0    0 -0.19577313653E+02 -0.28751190801E+02  0.21053836855E+02  0.40659146925E+02  0.00000000000E+00 0. -1.
         11    1    3    3    0    0 -0.47802477895E+01 -0.55935824194E-01 -0.61448171851E+01  0.77854143271E+01  0.51100000000E-03 0. -1.
        -11    1    3    3    0    0  0.16211385493E+02  0.23246081390E+02 -0.16437323031E+02  0.32762400832E+02  0.51100000000E-03 0.  1.
        -12    1    3    3    0    0  0.81461759498E+01  0.55610452349E+01  0.15283033609E+01  0.99810379156E+01  0.00000000000E+00 0.  1.
</event>
<event>
 7    1  0.3004200E-011  0.5052884E+02  0.7816164E-02  0.1300439E+00
        -11   -1    0    0    0    0  0.00000000000E+00  0.00000000000E+00  0.45593999997E+02  0.45594000000E+02  0.51100000000E-03 0. -1.
         11   -1    0    0    0    0 -0.00000000000E+00 -0.00000000000E+00 -0.45593999997E+02  0.45594000000E+02  0.51100000000E-03 0.  1.
    9900012    2    1    2    0    0 -0.33510355816E+00  0.15254354845E+02 -0.37687660090E+02  0.50528839173E+02  0.29999937149E+02 0.  0.
         12    1    1    2    0    0  0.33510355816E+00 -0.15254354845E+02  0.37687660090E+02  0.40659160827E+02  0.00000000000E+00 0. -1.
         11    1    3    3    0    0 -0.60156955018E+01 -0.19940199597E+01 -0.72644340063E+01  0.96403687514E+01  0.51100000000E-03 0. -1.
        -11    1    3    3    0    0  0.12513586253E+02  0.74206828292E+01 -0.21495738156E+02  0.25956177178E+02  0.51100000000E-03 0.  1.
        -12    1    3    3    0    0 -0.68329943094E+01  0.98276919755E+01 -0.89274879276E+01  0.14932293243E+02  0.00000000000E+00 0.  1.
</event>
<event>
 7    1  0.3004200E-011  0.5052886E+02  0.7816164E-02  0.1300439E+00
        -11   -1    0    0    0    0  0.00000000000E+00  0.00000000000E+00  0.45593999997E+02  0.45594000000E+02  0.51100000000E-03 0. -1.
         11   -1    0    0    0    0 -0.00000000000E+00 -0.00000000000E+00 -0.45593999997E+02  0.45594000000E+02  0.51100000000E-03 0.  1.
    9900012    2    1    2    0    0 -0.10795342377E+02 -0.37127751174E+02 -0.12576030702E+02  0.50528857455E+02  0.29999992720E+02 0.  0.
         12    1    1    2    0    0  0.10795342377E+02  0.37127751174E+02  0.12576030702E+02  0.40659142545E+02  0.00000000000E+00 0. -1.
         11    1    3    3    0    0 -0.80777446531E+01  0.10063301987E+01 -0.64799742160E+01  0.10404456990E+02  0.51100000000E-03 0. -1.
        -11    1    3    3    0    0 -0.24471534698E+01 -0.22188073684E+02 -0.87130469328E+01  0.23962812043E+02  0.51100000000E-03 0.  1.
         12    1    3    3    0    0 -0.27044425426E+00 -0.15946007689E+02  0.26169904472E+01  0.16161588422E+02  0.00000000000E+00 0. -1.
</event>
<event>
 7    1  0.3004200E-011  0.5052887E+02  0.7816164E-02  0.1300439E+00
        -11   -1    0    0    0    0  0.00000000000E+00  0.00000000000E+00  0.45593999997E+02  0.45594000000E+02  0.51100000000E-03 0. -1.
         11   -1    0    0    0    0 -0.00000000000E+00 -0.00000000000E+00 -0.45593999997E+02  0.45594000000E+02  0.51100000000E-03 0.  1.
    9900012    2    1    2    0    0 -0.30369245658E+02  0.26758976708E+02  0.38510680605E+01  0.50528872592E+02  0.30000038732E+02 0.  0.
         12    1    1    2    0    0  0.30369245658E+02 -0.26758976708E+02 -0.38510680605E+01  0.40659127408E+02  0.00000000000E+00 0. -1.
         11    1    3    3    0    0 -0.39659667005E+01  0.19115456964E+01 -0.63050971017E+01  0.76900681753E+01  0.51100000000E-03 0. -1.
        -11    1    3    3    0    0 -0.17229555862E+02  0.28712398721E+01  0.69954366446E+01  0.18815890830E+02  0.51100000000E-03 0.  1.
        -12    1    3    3    0    0 -0.91737230959E+01  0.21976191140E+02  0.31607285176E+01  0.24022913587E+02  0.00000000000E+00 0.  1.
</event>
<event>
 7    1  0.3004200E-011  0.5052886E+02  0.7816164E-02  0.1300439E+00
        -11   -1    0    0    0    0  0.00000000000E+00  0.00000000000E+00  0.45593999997E+02  0.45594000000E+02  0.51100000000E-03 0.  1.
         11   -1    0    0    0    0 -0.00000000000E+00 -0.00000000000E+00 -0.45593999997E+02  0.45594000000E+02  0.51100000000E-03 0. -1.
    9900012    2    1    2    0    0  0.69847861680E+01 -0.68077266944E+01  0.39471933481E+02  0.50528856954E+02  0.29999991196E+02 0.  0.
         12    1    1    2    0    0 -0.69847861680E+01  0.68077266944E+01 -0.39471933481E+02  0.40659143046E+02  0.00000000000E+00 0. -1.
         11    1    3    3    0    0  0.80506013049E+01  0.26254189544E+01  0.21274660823E+02  0.22897951862E+02  0.51100000000E-03 0. -1.
        -11    1    3    3    0    0  0.22927621311E+01  0.24711264285E+01 -0.20201658509E+01  0.39299229435E+01  0.51100000000E-03 0.  1.
        -12    1    3    3    0    0 -0.33585772681E+01 -0.11904272077E+02  0.20217438508E+02  0.23700982148E+02  0.00000000000E+00 0.  1.
</event>
<event>
 7    1  0.3004200E-011  0.5052886E+02  0.7816164E-02  0.1300439E+00
        -11   -1    0    0    0    0  0.00000000000E+00  0.00000000000E+00  0.45593999997E+02  0.45594000000E+02  0.51100000000E-03 0.  1.
         11   -1    0    0    0    0 -0.00000000000E+00 -0.00000000000E+00 -0.45593999997E+02  0.45594000000E+02  0.51100000000E-03 0. -1.
    9900012    2    1    2    0    0  0.29668371334E+02  0.19495610836E+02  0.19821066301E+02  0.50528858730E+02  0.29999996595E+02 0.  0.
         12    1    1    2    0    0 -0.29668371334E+02 -0.19495610836E+02 -0.19821066301E+02  0.40659141270E+02  0.00000000000E+00 0. -1.
         11    1    3    3    0    0  0.14398925997E+02  0.17140386284E+02  0.31428508864E+01  0.22605296366E+02  0.51100000000E-03 0. -1.
        -11    1    3    3    0    0 -0.10784366840E+01 -0.20672872656E+01  0.90568136579E+01  0.93521428675E+01  0.51100000000E-03 0.  1.
        -12    1    3    3    0    0  0.16347882021E+02  0.44225118178E+01  0.76214017571E+01  0.18571419496E+02  0.00000000000E+00 0.  1.
</event>
<event>
 7    1  0.3004200E-011  0.5052886E+02  0.7816164E-02  0.1300439E+00
        -11   -1    0    0    0    0  0.00000000000E+00  0.00000000000E+00  0.45593999997E+02  0.45594000000E+02  0.51100000000E-03 0. -1.
         11   -1    0    0    0    0 -0.00000000000E+00 -0.00000000000E+00 -0.45593999997E+02  0.45594000000E+02  0.51100000000E-03 0.  1.
    9900012    2    1    2    0    0  0.21990176056E+02 -0.32639803364E+02 -0.10209854662E+02  0.50528859099E+02  0.29999997716E+02 0.  0.
         12    1    1    2    0    0 -0.21990176056E+02  0.32639803364E+02  0.10209854662E+02  0.40659140901E+02  0.00000000000E+00 0. -1.
         11    1    3    3    0    0  0.26546800302E+01 -0.41533990343E+01  0.84581101150E+01  0.97896719342E+01  0.51100000000E-03 0. -1.
        -11    1    3    3    0    0  0.15600192328E+02 -0.27573884022E+02 -0.13853085291E+02  0.34577348844E+02  0.51100000000E-03 0.  1.
         12    1    3    3    0    0  0.37353036975E+01 -0.91252030793E+00 -0.48148794858E+01  0.61618383205E+01  0.00000000000E+00 0. -1.
</event>
<event>
 7    1  0.3004200E-011  0.5052886E+02  0.7816164E-02  0.1300439E+00
        -11   -1    0    0    0    0  0.00000000000E+00  0.00000000000E+00  0.45593999997E+02  0.45594000000E+02  0.51100000000E-03 0.  1.
         11   -1    0    0    0    0 -0.00000000000E+00 -0.00000000000E+00 -0.45593999997E+02  0.45594000000E+02  0.51100000000E-03 0. -1.
    9900012    2    1    2    0    0 -0.10759258835E+02 -0.21400386826E+02  0.32854646647E+02  0.50528855724E+02  0.29999987458E+02 0.  0.
         12    1    1    2    0    0  0.10759258835E+02  0.21400386826E+02 -0.32854646647E+02  0.40659144276E+02  0.00000000000E+00 0. -1.
         11    1    3    3    0    0 -0.10034857982E+02 -0.34679073236E+01  0.22629062063E+01  0.10855666755E+02  0.51100000000E-03 0. -1.
        -11    1    3    3    0    0  0.51637768203E+01 -0.14809129720E+02  0.11490365940E+02  0.19442310146E+02  0.51100000000E-03 0.  1.
        -12    1    3    3    0    0 -0.58881776730E+01 -0.31233497829E+01  0.19101374500E+02  0.20230878823E+02  0.00000000000E+00 0.  1.
</event>
<event>
 7    1  0.3004200E-011  0.5052876E+02  0.7816164E-02  0.1300439E+00
        -11   -1    0    0    0    0  0.00000000000E+00  0.00000000000E+00  0.45593999997E+02  0.45594000000E+02  0.51100000000E-03 0. -1.
         11   -1    0    0    0    0 -0.00000000000E+00 -0.00000000000E+00 -0.45593999997E+02  0.45594000000E+02  0.51100000000E-03 0.  1.
    9900012    2    1    2    0    0 -0.35974382003E+02  0.11488542371E+02 -0.15067543577E+02  0.50528761988E+02  0.29999702536E+02 0.  0.
         12    1    1    2    0    0  0.35974382003E+02 -0.11488542371E+02  0.15067543577E+02  0.40659238012E+02  0.00000000000E+00 0. -1.
         11    1    3    3    0    0 -0.84403758534E+01  0.10827541952E+01  0.85155490533E+00  0.85520434524E+01  0.51100000000E-03 0. -1.
        -11    1    3    3    0    0 -0.12348641293E+02 -0.63563740604E+01 -0.13261828029E+02  0.19203346477E+02  0.51100000000E-03 0.  1.
        -12    1    3    3    0    0 -0.15185364856E+02  0.16762162236E+02 -0.26572704532E+01  0.22773372058E+02  0.00000000000E+00 0.  1.
</event>
<event>
 7    1  0.3004200E-011  0.5052889E+02  0.7816164E-02  0.1300439E+00
        -11   -1    0    0    0    0  0.00000000000E+00  0.00000000000E+00  0.45593999997E+02  0.45594000000E+02  0.51100000000E-03 0.  1.
         11   -1    0    0    0    0 -0.00000000000E+00 -0.00000000000E+00 -0.45593999997E+02  0.45594000000E+02  0.51100000000E-03 0. -1.
    9900012    2    1    2    0    0 -0.21649103901E+02  0.76055019294E+01  0.33565400892E+02  0.50528886675E+02  0.30000081538E+02 0.  0.
         12    1    1    2    0    0  0.21649103901E+02 -0.76055019294E+01 -0.33565400892E+02  0.40659113325E+02  0.00000000000E+00 0. -1.
         11    1    3    3    0    0 -0.31639444542E+01  0.65277109703E+01  0.22965602270E+01  0.76089252959E+01  0.51100000000E-03 0. -1.
        -11    1    3    3    0    0  0.12833179127E+01  0.97058945657E+00  0.20198697343E+02  0.20262683025E+02  0.51100000000E-03 0.  1.
        -12    1    3    3    0    0 -0.19768477360E+02  0.10720150258E+00  0.11070143322E+02  0.22657278355E+02  0.00000000000E+00 0.  1.
</event>
<event>
 7    1  0.3004200E-011  0.5052887E+02  0.7816164E-02  0.1300439E+00
        -11   -1    0    0    0    0  0.00000000000E+00  0.00000000000E+00  0.45593999997E+02  0.45594000000E+02  0.51100000000E-03 0.  1.
         11   -1    0    0    0    0 -0.00000000000E+00 -0.00000000000E+00 -0.45593999997E+02  0.45594000000E+02  0.51100000000E-03 0. -1.
    9900012    2    1    2    0    0  0.73638482746E+01 -0.39924311894E+02 -0.22334393415E+01  0.50528865812E+02  0.30000018121E+02 0.  0.
         12    1    1    2    0    0 -0.73638482746E+01  0.39924311894E+02  0.22334393415E+01  0.40659134188E+02  0.00000000000E+00 0. -1.
         11    1    3    3    0    0 -0.31634105426E+01 -0.23569481662E+02 -0.42471373802E+01  0.24157106786E+02  0.51100000000E-03 0. -1.
        -11    1    3    3    0    0  0.95355854880E+01 -0.66236737964E+01  0.87129082253E+01  0.14516033038E+02  0.51100000000E-03 0.  1.
        -12    1    3    3    0    0  0.99167332924E+00 -0.97311564360E+01 -0.66992101865E+01  0.11855725988E+02  0.00000000000E+00 0.  1.
</event>
<event>
 7    1  0.3004200E-011  0.5052886E+02  0.7816164E-02  0.1300439E+00
        -11   -1    0    0    0    0  0.00000000000E+00  0.00000000000E+00  0.45593999997E+02  0.45594000000E+02  0.51100000000E-03 0. -1.
         11   -1    0    0    0    0 -0.00000000000E+00 -0.00000000000E+00 -0.45593999997E+02  0.45594000000E+02  0.51100000000E-03 0.  1.
    9900012    2    1    2    0    0  0.17756359766E+02 -0.22005703487E+02 -0.29216890218E+02  0.50528856230E+02  0.29999988997E+02 0.  0.
         12    1    1    2    0    0 -0.17756359766E+02  0.22005703487E+02  0.29216890218E+02  0.40659143770E+02  0.00000000000E+00 0. -1.
         11    1    3    3    0    0  0.15191427070E+02  0.34410815936E+01 -0.12359109854E+02  0.19883865208E+02  0.51100000000E-03 0. -1.
        -11    1    3    3    0    0  0.49163424225E+00 -0.90995890383E+01 -0.59022017320E+01  0.10857265330E+02  0.51100000000E-03 0.  1.
         12    1    3    3    0    0  0.20732984535E+01 -0.16347196042E+02 -0.10955578632E+02  0.19787725692E+02  0.00000000000E+00 0. -1.
</event>
<event>
 7    1  0.3004200E-011  0.5052886E+02  0.7816164E-02  0.1300439E+00
        -11   -1    0    0    0    0  0.00000000000E+00  0.00000000000E+00  0.45593999997E+02  0.45594000000E+02  0.51100000000E-03 0.  1.
         11   -1    0    0    0    0 -0.00000000000E+00 -0.00000000000E+00 -0.45593999997E+02  0.45594000000E+02  0.51100000000E-03 0. -1.
    9900012    2    1    2    0    0 -0.24796689276E+02 -0.14427174583E+02  0.28812256940E+02  0.50528864305E+02  0.30000013542E+02 0.  0.
         12    1    1    2    0    0  0.24796689276E+02  0.14427174583E+02 -0.28812256940E+02  0.40659135695E+02  0.00000000000E+00 0. -1.
         11    1    3    3    0    0 -0.15192549763E+02  0.56778610754E+01  0.35085410437E+01  0.16594021068E+02  0.51100000000E-03 0. -1.
        -11    1    3    3    0    0 -0.51935468668E+01 -0.84790128211E+01  0.88517249771E+01  0.13312386067E+02  0.51100000000E-03 0.  1.
         12    1    3    3    0    0 -0.44105926456E+01 -0.11626022838E+02  0.16451990919E+02  0.20622457169E+02  0.00000000000E+00 0. -1.
</event>
<event>
 7    1  0.3004200E-011  0.5052886E+02  0.7816164E-02  0.1300439E+00
        -11   -1    0    0    0    0  0.00000000000E+00  0.00000000000E+00  0.45593999997E+02  0.45594000000E+02  0.51100000000E-03 0.  1.
         11   -1    0    0    0    0 -0.00000000000E+00 -0.00000000000E+00 -0.45593999997E+02  0.45594000000E+02  0.51100000000E-03 0. -1.
    9900012    2    1    2    0    0  0.13936446024E+02 -0.10959773079E+02  0.36589948515E+02  0.50528862208E+02  0.30000007166E+02 0.  0.
         12    1    1    2    0    0 -0.13936446024E+02  0.10959773079E+02 -0.36589948515E+02  0.40659137792E+02  0.00000000000E+00 0. -1.
         11    1    3    3    0    0  0.47501892966E+01 -0.16744370925E+02  0.32129937657E+02  0.36541362182E+02  0.51100000000E-03 0. -1.
        -11    1    3    3    0    0  0.86887765438E+01  0.27688118520E+01  0.56271650668E+01  0.10715696144E+02  0.51100000000E-03 0.  1.
         12    1    3    3    0    0  0.49748018324E+00  0.30157859938E+01 -0.11671542089E+01  0.32718038817E+01  0.00000000000E+00 0. -1.
</event>
<event>
 7    1  0.3004200E-011  0.5052886E+02  0.7816164E-02  0.1300439E+00
        -11   -1    0    0    0    0  0.00000000000E+00  0.00000000000E+00  0.45593999997E+02  0.45594000000E+02  0.51100000000E-03 0. -1.
         11   -1    0    0    0    0 -0.00000000000E+00 -0.00000000000E+00 -0.45593999997E+02  0.45594000000E+02  0.51100000000E-03 0.  1.
    9900012    2    1    2    0    0 -0.17855149166E+02  0.31786148852E+02  0.17999996779E+02  0.50528862102E+02  0.30000006844E+02 0.  0.
         12    1    1    2    0    0  0.17855149166E+02 -0.31786148852E+02 -0.17999996779E+02  0.40659137898E+02  0.00000000000E+00 0. -1.
         11    1    3    3    0    0 -0.21338818722E+02  0.15054182808E+02  0.84986681114E+01  0.27462719538E+02  0.51100000000E-03 0. -1.
        -11    1    3    3    0    0  0.20922337747E+00  0.15937943378E+02  0.37090453181E+01  0.16365171279E+02  0.51100000000E-03 0.  1.
         12    1    3    3    0    0  0.32744461781E+01  0.79402266530E+00  0.57922833493E+01  0.67009712852E+01  0.00000000000E+00 0. -1.
</event>
<event>
 7    1  0.3004200E-011  0.5052886E+02  0.7816164E-02  0.1300439E+00
        -11   -1    0    0    0    0  0.00000000000E+00  0.00000000000E+00  0.45593999997E+02  0.45594000000E+02  0.51100000000E-03 0. -1.
         11   -1    0    0    0    0 -0.00000000000E+00 -0.00000000000E+00 -0.45593999997E+02  0.45594000000E+02  0.51100000000E-03 0.  1.
    9900012    2    1    2    0    0 -0.30457208803E+02 -0.20833269670E+02 -0.17073329260E+02  0.50528864922E+02  0.30000015418E+02 0.  0.
         12    1    1    2    0    0  0.30457208803E+02  0.20833269670E+02  0.17073329260E+02  0.40659135078E+02  0.00000000000E+00 0. -1.
         11    1    3    3    0    0 -0.10115032103E+02 -0.15119712227E+02  0.45737799691E+01  0.18757372837E+02  0.51100000000E-03 0. -1.
        -11    1    3    3    0    0 -0.11239497514E+02  0.18872543819E+01 -0.10659155404E+02  0.15604666855E+02  0.51100000000E-03 0.  1.
         12    1    3    3    0    0 -0.91026791861E+01 -0.76008118255E+01 -0.10987953825E+02  0.16166825231E+02  0.00000000000E+00 0. -1.
</event>
<event>
 7    1  0.3004200E-011  0.5052886E+02  0.7816164E-02  0.1300439E+00
        -11   -1    0    0    0    0  0.00000000000E+00  0.00000000000E+00  0.45593999997E+02  0.45594000000E+02  0.51100000000E-03 0. -1.
         11   -1    0    0    0    0 -0.00000000000E+00 -0.00000000000E+00 -0.45593999997E+02  0.45594000000E+02  0.51100000000E-03 0.  1.
    9900012    2    1    2    0    0 -0.29623262236E+02  0.26892851829E+02  0.72389534959E+01  0.50528860895E+02  0.30000003177E+02 0.  0.
         12    1    1    2    0    0  0.29623262236E+02 -0.26892851829E+02 -0.72389534959E+01  0.40659139105E+02  0.00000000000E+00 0. -1.
         11    1    3    3    0    0 -0.22107625725E+02  0.12020414799E+02  0.16035525277E+02  0.29839161488E+02  0.51100000000E-03 0. -1.
        -11    1    3    3    0    0 -0.65556399502E+01  0.95354908783E+01 -0.98135023271E+01  0.15172568327E+02  0.51100000000E-03 0.  1.
         12    1    3    3    0    0 -0.95999656102E+00  0.53369461520E+01  0.10169305464E+01  0.55171310808E+01  0.00000000000E+00 0. -1.
</event>
<event>
 7    1  0.3004200E-011  0.5052885E+02  0.7816164E-02  0.1300439E+00
        -11   -1    0    0    0    0  0.00000000000E+00  0.00000000000E+00  0.45593999997E+02  0.45594000000E+02  0.51100000000E-03 0.  1.
         11   -1    0    0    0    0 -0.00000000000E+00 -0.00000000000E+00 -0.45593999997E+02  0.45594000000E+02  0.51100000000E-03 0. -1.
    9900012    2    1    2    0    0 -0.69820842864E+01  0.36096407707E+02  0.17362784923E+02  0.50528850346E+02  0.29999971112E+02 0.  0.
         12    1    1    2    0    0  0.69820842864E+01 -0.36096407707E+02 -0.17362784923E+02  0.40659149654E+02  0.00000000000E+00 0. -1.
         11    1    3    3    0    0 -0.84826379890E+01  0.30804289479E+02 -0.26761274592E+00  0.31952011117E+02  0.51100000000E-03 0. -1.
        -11    1    3    3    0    0  0.51434348080E+00  0.43045196596E+01  0.14786908117E+02  0.15409285857E+02  0.51100000000E-03 0.  1.
         12    1    3    3    0    0  0.98621022181E+00  0.98759856806E+00  0.28434895518E+01  0.31675533720E+01  0.00000000000E+00 0. -1.
</event>
<event>
 7    1  0.3004200E-011  0.5052886E+02  0.7816164E-02  0.1300439E+00
        -11   -1    0    0    0    0  0.00000000000E+00  0.00000000000E+00  0.45593999997E+02  0.45594000000E+02  0.51100000000E-03 0. -1.
         11   -1    0    0    0    0 -0.00000000000E+00 -0.00000000000E+00 -0.45593999997E+02  0.45594000000E+02  0.51100000000E-03 0.  1.
    9900012    2    1    2    0    0  0.15326128820E+02 -0.32537634063E+02 -0.18962531408E+02  0.50528862621E+02  0.30000008422E+02 0.  0.
         12    1    1    2    0    0 -0.15326128820E+02  0.32537634063E+02  0.18962531408E+02  0.40659137379E+02  0.00000000000E+00 0. -1.
         11    1    3    3    0    0 -0.11414921160E+01 -0.71191390024E+01  0.44360424591E+01  0.84654366306E+01  0.51100000000E-03 0. -1.
        -11    1    3    3    0    0  0.16284475969E+02 -0.27756800825E+02 -0.23272828690E+02  0.39714590582E+02  0.51100000000E-03 0.  1.
         12    1    3    3    0    0  0.18314496689E+00  0.23383057640E+01 -0.12574517724E+00  0.23488354082E+01  0.00000000000E+00 0. -1.
</event>
<event>
 7    1  0.3004200E-011  0.5052887E+02  0.7816164E-02  0.1300439E+00
        -11   -1    0    0    0    0  0.00000000000E+00  0.00000000000E+00  0.45593999997E+02  0.45594000000E+02  0.51100000000E-03 0. -1.
         11   -1    0    0    0    0 -0.00000000000E+00 -0.00000000000E+00 -0.45593999997E+02  0.45594000000E+02  0.51100000000E-03 0.  1.
    9900012    2    1    2    0    0  0.35382397957E+02 -0.75800187770E+01 -0.18541685899E+02  0.50528869589E+02  0.30000029602E+02 0.  0.
         12    1    1    2    0    0 -0.35382397957E+02  0.75800187770E+01  0.18541685899E+02  0.40659130411E+02  0.00000000000E+00 0. -1.
         11    1    3    3    0    0  0.74331141072E+01 -0.13983750537E+02 -0.93059117267E+01  0.18368354792E+02  0.51100000000E-03 0. -1.
        -11    1    3    3    0    0  0.27088875813E+02  0.78403079004E+01 -0.10468673179E+02  0.30081069449E+02  0.51100000000E-03 0.  1.
        -12    1    3    3    0    0  0.86040803667E+00 -0.14365761401E+01  0.12328990073E+01  0.20794453486E+01  0.00000000000E+00 0.  1.
</event>
<event>
 7    1  0.3004200E-011  0.5052887E+02  0.7816164E-02  0.1300439E+00
        -11   -1    0    0    0    0  0.00000000000E+00  0.00000000000E+00  0.45593999997E+02  0.45594000000E+02  0.51100000000E-03 0.  1.
         11   -1    0    0    0    0 -0.00000000000E+00 -0.00000000000E+00 -0.45593999997E+02  0.45594000000E+02  0.51100000000E-03 0. -1.
    9900012    2    1    2    0    0 -0.14168224000E+01  0.36554696331E+02  0.17745746341E+02  0.50528871594E+02  0.30000035698E+02 0.  0.
         12    1    1    2    0    0  0.14168224000E+01 -0.36554696331E+02 -0.17745746341E+02  0.40659128406E+02  0.00000000000E+00 0. -1.
         11    1    3    3    0    0  0.12115999401E+01 -0.29816011914E+01  0.26906607318E+01  0.41949464256E+01  0.51100000000E-03 0. -1.
        -11    1    3    3    0    0  0.16762027402E+01  0.34881129272E+02  0.18062881742E+02  0.39316288380E+02  0.51100000000E-03 0.  1.
         12    1    3    3    0    0 -0.43046250803E+01  0.46551682500E+01 -0.30077961329E+01  0.70176367885E+01  0.00000000000E+00 0. -1.
</event>
<event>
 7    1  0.3004200E-011  0.5052887E+02  0.7816164E-02  0.1300439E+00
        -11   -1    0    0    0    0  0.00000000000E+00  0.00000000000E+00  0.45593999997E+02  0.45594000000E+02  0.51100000000E-03 0. -1.
         11   -1    0    0    0    0 -0.00000000000E+00 -0.00000000000E+00 -0.45593999997E+02  0.45594000000E+02  0.51100000000E-03 0.  1.
    9900012    2    1    2    0    0  0.88338278788E+01  0.37404513609E+02 -0.13267667310E+02  0.50528866349E+02  0.30000019756E+02 0.  0.
         12    1    1    2    0    0 -0.88338278788E+01 -0.37404513609E+02  0.13267667310E+02  0.40659133651E+02  0.00000000000E+00 0. -1.
         11    1    3    3    0    0  0.78340179728E+01  0.30808850309E+02 -0.15820604058E+01  0.31828603651E+02  0.51100000000E-03 0. -1.
        -11    1    3    3    0    0  0.54394644344E+01  0.81232818167E+01 -0.66996271968E+01  0.11851602661E+02  0.51100000000E-03 0.  1.
         12    1    3    3    0    0 -0.44396545284E+01 -0.15276185161E+01 -0.49859797079E+01  0.68486600376E+01  0.00000000000E+00 0. -1.
</event>
<event>
 7    1  0.3004200E-011  0.5052887E+02  0.7816164E-02  0.1300439E+00
        -11   -1    0    0    0    0  0.00000000000E+00  0.00000000000E+00  0.45593999997E+02  0.45594000000E+02  0.51100000000E-03 0.  1.
         11   -1    0    0    0    0 -0.00000000000E+00 -0.00000000000E+00 -0.45593999997E+02  0.45594000000E+02  0.51100000000E-03 0. -1.
    9900012    2    1    2    0    0 -0.29978237559E+02  0.23224156261E+02  0.14666589542E+02  0.50528868062E+02  0.30000024961E+02 0.  0.
         12    1    1    2    0    0  0.29978237559E+02 -0.23224156261E+02 -0.14666589542E+02  0.40659131938E+02  0.00000000000E+00 0. -1.
         11    1    3    3    0    0 -0.67348903333E+01  0.22444321754E+02  0.65054628269E+01  0.24319279875E+02  0.51100000000E-03 0. -1.
        -11    1    3    3    0    0 -0.83071557205E+01 -0.17110345154E+01  0.70454144117E+01  0.11026075447E+02  0.51100000000E-03 0.  1.
         12    1    3    3    0    0 -0.14936191505E+02  0.24908690223E+01  0.11157123034E+01  0.15183512739E+02  0.00000000000E+00 0. -1.
</event>
<event>
 7    1  0.3004200E-011  0.5052885E+02  0.7816164E-02  0.1300439E+00
        -11   -1    0    0    0    0  0.00000000000E+00  0.00000000000E+00  0.45593999997E+02  0.45594000000E+02  0.51100000000E-03 0. -1.
         11   -1    0    0    0    0 -0.00000000000E+00 -0.00000000000E+00 -0.45593999997E+02  0.45594000000E+02  0.51100000000E-03 0.  1.
    9900012    2    1    2    0    0  0.31809807931E+02 -0.13969036403E+02 -0.21122694672E+02  0.50528854794E+02  0.29999984632E+02 0.  0.
         12    1    1    2    0    0 -0.31809807931E+02  0.13969036403E+02  0.21122694672E+02  0.40659145206E+02  0.00000000000E+00 0. -1.
         11    1    3    3    0    0  0.55075712397E+01  0.60205106895E+01  0.15313957213E+01  0.83021119626E+01  0.51100000000E-03 0. -1.
        -11    1    3    3    0    0  0.20478704939E+02 -0.13198441863E+02 -0.22672098012E+02  0.33280628782E+02  0.51100000000E-03 0.  1.
         12    1    3    3    0    0  0.58235317528E+01 -0.67911052291E+01  0.18007618634E-01  0.89461140493E+01  0.00000000000E+00 0. -1.
</event>
<event>
 7    1  0.3004200E-011  0.5052885E+02  0.7816164E-02  0.1300439E+00
        -11   -1    0    0    0    0  0.00000000000E+00  0.00000000000E+00  0.45593999997E+02  0.45594000000E+02  0.51100000000E-03 0.  1.
         11   -1    0    0    0    0 -0.00000000000E+00 -0.00000000000E+00 -0.45593999997E+02  0.45594000000E+02  0.51100000000E-03 0. -1.
    9900012    2    1    2    0    0  0.76141786089E+01 -0.31321290608E+02  0.24782402398E+02  0.50528850601E+02  0.29999971887E+02 0.  0.
         12    1    1    2    0    0 -0.76141786089E+01  0.31321290608E+02 -0.24782402398E+02  0.40659149399E+02  0.00000000000E+00 0. -1.
         11    1    3    3    0    0  0.54138567379E+00  0.19696703929E+01  0.22789678175E+01  0.30604565802E+01  0.51100000000E-03 0. -1.
        -11    1    3    3    0    0 -0.19353128303E+01 -0.32010109406E+02  0.13918156709E+02  0.34958655957E+02  0.51100000000E-03 0.  1.
        -12    1    3    3    0    0  0.90081057654E+01 -0.12808515954E+01  0.85852778716E+01  0.12509738064E+02  0.00000000000E+00 0.  1.
</event>
<event>
 7    1  0.3004200E-011  0.5052886E+02  0.7816164E-02  0.1300439E+00
        -11   -1    0    0    0    0  0.00000000000E+00  0.00000000000E+00  0.45593999997E+02  0.45594000000E+02  0.51100000000E-03 0.  1.
         11   -1    0    0    0    0 -0.00000000000E+00 -0.00000000000E+00 -0.45593999997E+02  0.45594000000E+02  0.51100000000E-03 0. -1.
    9900012    2    1    2    0    0 -0.18039291317E+02  0.34315492465E+02  0.12255481866E+02  0.50528857239E+02  0.29999992062E+02 0.  0.
         12    1    1    2    0    0  0.18039291317E+02 -0.34315492465E+02 -0.12255481866E+02  0.40659142761E+02  0.00000000000E+00 0. -1.
         11    1    3    3    0    0 -0.35658717936E+01 -0.14263452078E-01  0.20153625832E+01  0.40960141232E+01  0.51100000000E-03 0. -1.
        -11    1    3    3    0    0  0.32547041449E+01  0.16706316020E+02  0.12811846438E+02  0.21303462241E+02  0.51100000000E-03 0.  1.
        -12    1    3    3    0    0 -0.17728123668E+02  0.17623439897E+02 -0.25717271548E+01  0.25129380875E+02  0.00000000000E+00 0.  1.
</event>
<event>
 7    1  0.3004200E-011  0.5052887E+02  0.7816164E-02  0.1300439E+00
        -11   -1    0    0    0    0  0.00000000000E+00  0.00000000000E+00  0.45593999997E+02  0.45594000000E+02  0.51100000000E-03 0. -1.
         11   -1    0    0    0    0 -0.00000000000E+00 -0.00000000000E+00 -0.45593999997E+02  0.45594000000E+02  0.51100000000E-03 0.  1.
    9900012    2    1    2    0    0  0.23819413758E+00  0.38666392500E+02 -0.12570542800E+02  0.50528865827E+02  0.30000018169E+02 0.  0.
         12    1    1    2    0    0 -0.23819413758E+00 -0.38666392500E+02  0.12570542800E+02  0.40659134173E+02  0.00000000000E+00 0. -1.
         11    1    3    3    0    0 -0.20878439540E+01  0.10072755000E+01  0.89724258878E+00  0.24857073105E+01  0.51100000000E-03 0. -1.
        -11    1    3    3    0    0  0.13550738713E+02  0.28547503626E+02 -0.81049689093E+01  0.32623197333E+02  0.51100000000E-03 0.  1.
        -12    1    3    3    0    0 -0.11224700622E+02  0.91116133738E+01 -0.53628164796E+01  0.15419961184E+02  0.00000000000E+00 0.  1.
</event>
<event>
 7    1  0.3004200E-011  0.5052888E+02  0.7816164E-02  0.1300439E+00
        -11   -1    0    0    0    0  0.00000000000E+00  0.00000000000E+00  0.45593999997E+02  0.45594000000E+02  0.51100000000E-03 0.  1.
         11   -1    0    0    0    0 -0.00000000000E+00 -0.00000000000E+00 -0.45593999997E+02  0.45594000000E+02  0.51100000000E-03 0. -1.
    9900012    2    1    2    0    0  0.13821704761E+02 -0.31522663241E+01  0.38107583468E+02  0.50528877737E+02  0.30000054368E+02 0.  0.
         12    1    1    2    0    0 -0.13821704761E+02  0.31522663241E+01 -0.38107583468E+02  0.40659122263E+02  0.00000000000E+00 0. -1.
         11    1    3    3    0    0 -0.75295706686E+01 -0.61562761134E-01  0.26127655484E+01  0.79702426876E+01  0.51100000000E-03 0. -1.
        -11    1    3    3    0    0  0.16926585304E+02 -0.56923660952E+01  0.30798930855E+02  0.35601776134E+02  0.51100000000E-03 0.  1.
         12    1    3    3    0    0  0.44246901264E+01  0.26016625323E+01  0.46958870645E+01  0.69568589154E+01  0.00000000000E+00 0. -1.
</event>
<event>
 7    1  0.3004200E-011  0.5052886E+02  0.7816164E-02  0.1300439E+00
        -11   -1    0    0    0    0  0.00000000000E+00  0.00000000000E+00  0.45593999997E+02  0.45594000000E+02  0.51100000000E-03 0.  1.
         11   -1    0    0    0    0 -0.00000000000E+00 -0.00000000000E+00 -0.45593999997E+02  0.45594000000E+02  0.51100000000E-03 0. -1.
    9900012    2    1    2    0    0 -0.31884261370E+02  0.20337940017E+01  0.25148029019E+02  0.50528858289E+02  0.29999995254E+02 0.  0.
         12    1    1    2    0    0  0.31884261370E+02 -0.20337940017E+01 -0.25148029019E+02  0.40659141711E+02  0.00000000000E+00 0. -1.
         11    1    3    3    0    0 -0.12346456221E+02 -0.77599692690E+01  0.15765506523E+02  0.21475644355E+02  0.51100000000E-03 0. -1.
        -11    1    3    3    0    0 -0.11487579793E+02  0.38228961370E+01 -0.36195070386E+01  0.12636449495E+02  0.51100000000E-03 0.  1.
        -12    1    3    3    0    0 -0.80502253561E+01  0.59708671337E+01  0.13002029534E+02  0.16416764438E+02  0.00000000000E+00 0.  1.
</event>
<event>
 7    1  0.3004200E-011  0.5052885E+02  0.7816164E-02  0.1300439E+00
        -11   -1    0    0    0    0  0.00000000000E+00  0.00000000000E+00  0.45593999997E+02  0.45594000000E+02  0.51100000000E-03 0. -1.
         11   -1    0    0    0    0 -0.00000000000E+00 -0.00000000000E+00 -0.45593999997E+02  0.45594000000E+02  0.51100000000E-03 0.  1.
    9900012    2    1    2    0    0 -0.31635844217E+02 -0.21421980644E+02  0.13908215073E+02  0.50528851699E+02  0.29999975225E+02 0.  0.
         12    1    1    2    0    0  0.31635844217E+02  0.21421980644E+02 -0.13908215073E+02  0.40659148301E+02  0.00000000000E+00 0. -1.
         11    1    3    3    0    0 -0.12106853114E+02 -0.31092569614E+01  0.14667733571E+02  0.19271372021E+02  0.51100000000E-03 0. -1.
        -11    1    3    3    0    0 -0.21070709569E+02 -0.19865494141E+02 -0.13525993977E+01  0.28990380898E+02  0.51100000000E-03 0.  1.
        -12    1    3    3    0    0  0.15417184669E+01  0.15527704581E+01  0.59308089933E+00  0.22670987804E+01  0.00000000000E+00 0.  1.
</event>
<event>
 7    1  0.3004200E-011  0.5052887E+02  0.7816164E-02  0.1300439E+00
        -11   -1    0    0    0    0  0.00000000000E+00  0.00000000000E+00  0.45593999997E+02  0.45594000000E+02  0.51100000000E-03 0. -1.
         11   -1    0    0    0    0 -0.00000000000E+00 -0.00000000000E+00 -0.45593999997E+02  0.45594000000E+02  0.51100000000E-03 0.  1.
    9900012    2    1    2    0    0  0.25473410593E+02  0.29854479327E+02 -0.10629204035E+02  0.50528873576E+02  0.30000041722E+02 0.  0.
         12    1    1    2    0    0 -0.25473410593E+02 -0.29854479327E+02  0.10629204035E+02  0.40659126424E+02  0.00000000000E+00 0. -1.
         11    1    3    3    0    0  0.86773506336E+01  0.65737598794E+00 -0.48097467119E+01  0.99429483003E+01  0.51100000000E-03 0. -1.
        -11    1    3    3    0    0 -0.28447128123E+01  0.13751078600E+02  0.24744470191E+01  0.14258591864E+02  0.51100000000E-03 0.  1.
        -12    1    3    3    0    0  0.19640772771E+02  0.15446024740E+02 -0.82939043425E+01  0.26327333411E+02  0.00000000000E+00 0.  1.
</event>
<event>
 7    1  0.3004200E-011  0.5052887E+02  0.7816164E-02  0.1300439E+00
        -11   -1    0    0    0    0  0.00000000000E+00  0.00000000000E+00  0.45593999997E+02  0.45594000000E+02  0.51100000000E-03 0. -1.
         11   -1    0    0    0    0 -0.00000000000E+00 -0.00000000000E+00 -0.45593999997E+02  0.45594000000E+02  0.51100000000E-03 0.  1.
    9900012    2    1    2    0    0  0.81164632585E+01 -0.39043099641E+02 -0.79325053779E+01  0.50528865147E+02  0.30000016101E+02 0.  0.
         12    1    1    2    0    0 -0.81164632585E+01  0.39043099641E+02  0.79325053779E+01  0.40659134853E+02  0.00000000000E+00 0. -1.
         11    1    3    3    0    0 -0.38875314201E+01 -0.11031739025E+02  0.38282921786E+01  0.12307233147E+02  0.51100000000E-03 0. -1.
        -11    1    3    3    0    0  0.16641779507E+01 -0.20544129144E+01 -0.98691013063E+01  0.10217106319E+02  0.51100000000E-03 0.  1.
        -12    1    3    3    0    0  0.10339816728E+02 -0.25956947702E+02 -0.18916962502E+01  0.28004525682E+02  0.00000000000E+00 0.  1.
</event>
<event>
 7    1  0.3004200E-011  0.5052886E+02  0.7816164E-02  0.1300439E+00
        -11   -1    0    0    0    0  0.00000000000E+00  0.00000000000E+00  0.45593999997E+02  0.45594000000E+02  0.51100000000E-03 0.  1.
         11   -1    0    0    0    0 -0.00000000000E+00 -0.00000000000E+00 -0.45593999997E+02  0.45594000000E+02  0.51100000000E-03 0. -1.
    9900012    2    1    2    0    0 -0.54581175500E+01  0.40285530782E+02 -0.67156224442E+00  0.50528855476E+02  0.29999986705E+02 0.  0.
         12    1    1    2    0    0  0.54581175500E+01 -0.40285530782E+02  0.67156224442E+00  0.40659144524E+02  0.00000000000E+00 0. -1.
         11    1    3    3    0    0 -0.64319229794E+01  0.29087512557E+01 -0.39808078957E+01  0.81041531849E+01  0.51100000000E-03 0. -1.
        -11    1    3    3    0    0  0.88483876302E+01  0.30767622949E+02  0.25583881339E+01  0.32116754750E+02  0.51100000000E-03 0.  1.
        -12    1    3    3    0    0 -0.78745822008E+01  0.66091565772E+01  0.75085751742E+00  0.10307947541E+02  0.00000000000E+00 0.  1.
</event>
<event>
 7    1  0.3004200E-011  0.5052886E+02  0.7816164E-02  0.1300439E+00
        -11   -1    0    0    0    0  0.00000000000E+00  0.00000000000E+00  0.45593999997E+02  0.45594000000E+02  0.51100000000E-03 0.  1.
         11   -1    0    0    0    0 -0.00000000000E+00 -0.00000000000E+00 -0.45593999997E+02  0.45594000000E+02  0.51100000000E-03 0. -1.
    9900012    2    1    2    0    0  0.32957644063E+02  0.51195299545E+01  0.23254032040E+02  0.50528857175E+02  0.29999991868E+02 0.  0.
         12    1    1    2    0    0 -0.32957644063E+02 -0.51195299545E+01 -0.23254032040E+02  0.40659142825E+02  0.00000000000E+00 0. -1.
         11    1    3    3    0    0  0.40521580061E+01 -0.35085243830E+01  0.14336202686E+02  0.15305438104E+02  0.51100000000E-03 0. -1.
        -11    1    3    3    0    0  0.17677574091E+02  0.10418462306E+02 -0.40018064989E+00  0.20523185118E+02  0.51100000000E-03 0.  1.
        -12    1    3    3    0    0  0.11227911966E+02 -0.17904079683E+01  0.93180100044E+01  0.14700233952E+02  0.00000000000E+00 0.  1.
</event>
<event>
 7    1  0.3004200E-011  0.5052886E+02  0.7816164E-02  0.1300439E+00
        -11   -1    0    0    0    0  0.00000000000E+00  0.00000000000E+00  0.45593999997E+02  0.45594000000E+02  0.51100000000E-03 0.  1.
         11   -1    0    0    0    0 -0.00000000000E+00 -0.00000000000E+00 -0.45593999997E+02  0.45594000000E+02  0.51100000000E-03 0. -1.
    9900012    2    1    2    0    0 -0.38402186193E+02  0.10508317943E+01  0.13316669082E+02  0.50528858011E+02  0.29999994411E+02 0.  0.
         12    1    1    2    0    0  0.38402186193E+02 -0.10508317943E+01 -0.13316669082E+02  0.40659141989E+02  0.00000000000E+00 0. -1.
         11    1    3    3    0    0  0.32012396275E+01  0.20681313090E+01 -0.28538001490E+01  0.47612265032E+01  0.51100000000E-03 0. -1.
        -11    1    3    3    0    0 -0.28124048347E+02 -0.34036325559E+01  0.66670472125E+01  0.29103201350E+02  0.51100000000E-03 0.  1.
        -12    1    3    3    0    0 -0.13479377473E+02  0.23863330412E+01  0.95034220183E+01  0.16664430158E+02  0.00000000000E+00 0.  1.
</event>
<event>
 7    1  0.3004200E-011  0.5052885E+02  0.7816164E-02  0.1300439E+00
        -11   -1    0    0    0    0  0.00000000000E+00  0.00000000000E+00  0.45593999997E+02  0.45594000000E+02  0.51100000000E-03 0.  1.
         11   -1    0    0    0    0 -0.00000000000E+00 -0.00000000000E+00 -0.45593999997E+02  0.45594000000E+02  0.51100000000E-03 0. -1.
    9900012    2    1    2    0    0  0.25134512958E+01 -0.40156422825E+02 -0.58575032202E+01  0.50528854958E+02  0.29999985131E+02 0.  0.
         12    1    1    2    0    0 -0.25134512958E+01  0.40156422825E+02  0.58575032202E+01  0.40659145042E+02  0.00000000000E+00 0. -1.
         11    1    3    3    0    0  0.46766486747E+01  0.19422579248E+01  0.16859912857E+01  0.53372254542E+01  0.51100000000E-03 0. -1.
        -11    1    3    3    0    0 -0.30218236452E+01 -0.42021887580E+02 -0.93808047953E+01  0.43162135637E+02  0.51100000000E-03 0.  1.
        -12    1    3    3    0    0  0.85862626633E+00 -0.76793170521E-01  0.18373102894E+01  0.20294938669E+01  0.00000000000E+00 0.  1.
</event>
<event>
 7    1  0.3004200E-011  0.5052886E+02  0.7816164E-02  0.1300439E+00
        -11   -1    0    0    0    0  0.00000000000E+00  0.00000000000E+00  0.45593999997E+02  0.45594000000E+02  0.51100000000E-03 0.  1.
         11   -1    0    0    0    0 -0.00000000000E+00 -0.00000000000E+00 -0.45593999997E+02  0.45594000000E+02  0.51100000000E-03 0. -1.
    9900012    2    1    2    0    0  0.16214096156E+02  0.83548339803E+01  0.36338213748E+02  0.50528856584E+02  0.29999990072E+02 0.  0.
         12    1    1    2    0    0 -0.16214096156E+02 -0.83548339803E+01 -0.36338213748E+02  0.40659143416E+02  0.00000000000E+00 0. -1.
         11    1    3    3    0    0  0.69516519783E+01 -0.54779100676E+01  0.23447122796E+02  0.25061933916E+02  0.51100000000E-03 0. -1.
        -11    1    3    3    0    0  0.10024870989E+02  0.58477901990E+01  0.17474681244E+01  0.11736623606E+02  0.51100000000E-03 0.  1.
         12    1    3    3    0    0 -0.76242681149E+00  0.79849538489E+01  0.11143622827E+02  0.13730299062E+02  0.00000000000E+00 0. -1.
</event>
<event>
 7    1  0.3004200E-011  0.5052888E+02  0.7816164E-02  0.1300439E+00
        -11   -1    0    0    0    0  0.00000000000E+00  0.00000000000E+00  0.45593999997E+02  0.45594000000E+02  0.51100000000E-03 0. -1.
         11   -1    0    0    0    0 -0.00000000000E+00 -0.00000000000E+00 -0.45593999997E+02  0.45594000000E+02  0.51100000000E-03 0.  1.
    9900012    2    1    2    0    0  0.34840211020E+02 -0.20876001962E+02  0.18752321631E+01  0.50528877315E+02  0.30000053086E+02 0.  0.
         12    1    1    2    0    0 -0.34840211020E+02  0.20876001962E+02 -0.18752321631E+01  0.40659122685E+02  0.00000000000E+00 0. -1.
         11    1    3    3    0    0 -0.15396571156E+01 -0.37934072784E+01 -0.40857098698E+01  0.57839007784E+01  0.51100000000E-03 0. -1.
        -11    1    3    3    0    0  0.19225411612E+02  0.12148229390E+01  0.27456747052E+01  0.19458442288E+02  0.51100000000E-03 0.  1.
        -12    1    3    3    0    0  0.17154456524E+02 -0.18297417623E+02  0.32152673277E+01  0.25286534248E+02  0.00000000000E+00 0.  1.
</event>
<event>
 7    1  0.3004200E-011  0.5052884E+02  0.7816164E-02  0.1300439E+00
        -11   -1    0    0    0    0  0.00000000000E+00  0.00000000000E+00  0.45593999997E+02  0.45594000000E+02  0.51100000000E-03 0. -1.
         11   -1    0    0    0    0 -0.00000000000E+00 -0.00000000000E+00 -0.45593999997E+02  0.45594000000E+02  0.51100000000E-03 0.  1.
    9900012    2    1    2    0    0  0.13141688960E+01  0.12626028581E+02 -0.38626721128E+02  0.50528840850E+02  0.29999942249E+02 0.  0.
         12    1    1    2    0    0 -0.13141688960E+01 -0.12626028581E+02  0.38626721128E+02  0.40659159150E+02  0.00000000000E+00 0. -1.
         11    1    3    3    0    0  0.66887593440E+01 -0.33696592956E+01  0.24762114221E-02  0.74896002379E+01  0.51100000000E-03 0. -1.
        -11    1    3    3    0    0 -0.74988665764E+01  0.12211344391E+02 -0.32600452574E+02  0.35610945510E+02  0.51100000000E-03 0.  1.
        -12    1    3    3    0    0  0.21242761284E+01  0.37843434859E+01 -0.60287447654E+01  0.74282951029E+01  0.00000000000E+00 0.  1.
</event>
<event>
 7    1  0.3004200E-011  0.5052885E+02  0.7816164E-02  0.1300439E+00
        -11   -1    0    0    0    0  0.00000000000E+00  0.00000000000E+00  0.45593999997E+02  0.45594000000E+02  0.51100000000E-03 0. -1.
         11   -1    0    0    0    0 -0.00000000000E+00 -0.00000000000E+00 -0.45593999997E+02  0.45594000000E+02  0.51100000000E-03 0.  1.
    9900012    2    1    2    0    0  0.21051831651E+02 -0.31297885565E+02 -0.15179897203E+02  0.50528849298E+02  0.29999967927E+02 0.  0.
         12    1    1    2    0    0 -0.21051831651E+02  0.31297885565E+02  0.15179897203E+02  0.40659150702E+02  0.00000000000E+00 0. -1.
         11    1    3    3    0    0  0.10427880339E+02 -0.11361080271E+02  0.57293944278E+01  0.16451163912E+02  0.51100000000E-03 0. -1.
        -11    1    3    3    0    0  0.92608460103E+01 -0.66623430957E+01 -0.16428652964E+02  0.20001268030E+02  0.51100000000E-03 0.  1.
        -12    1    3    3    0    0  0.13631053015E+01 -0.13274462198E+02 -0.44806386674E+01  0.14076417356E+02  0.00000000000E+00 0.  1.
</event>
<event>
 7    1  0.3004200E-011  0.5052886E+02  0.7816164E-02  0.1300439E+00
        -11   -1    0    0    0    0  0.00000000000E+00  0.00000000000E+00  0.45593999997E+02  0.45594000000E+02  0.51100000000E-03 0. -1.
         11   -1    0    0    0    0 -0.00000000000E+00 -0.00000000000E+00 -0.45593999997E+02  0.45594000000E+02  0.51100000000E-03 0.  1.
    9900012    2    1    2    0    0  0.30536556878E+02  0.10694773534E+02 -0.24623284027E+02  0.50528860767E+02  0.30000002787E+02 0.  0.
         12    1    1    2    0    0 -0.30536556878E+02 -0.10694773534E+02  0.24623284027E+02  0.40659139233E+02  0.00000000000E+00 0. -1.
         11    1    3    3    0    0  0.16150346611E+02  0.25006547327E+01 -0.27481254143E+02  0.31973524974E+02  0.51100000000E-03 0. -1.
        -11    1    3    3    0    0  0.25805217154E+01 -0.26330247122E+00  0.30856380419E+01  0.40310771392E+01  0.51100000000E-03 0.  1.
         12    1    3    3    0    0  0.11805688552E+02  0.84574212723E+01 -0.22766792606E+00  0.14524258654E+02  0.00000000000E+00 0. -1.
</event>
<event>
 7    1  0.3004200E-011  0.5052886E+02  0.7816164E-02  0.1300439E+00
        -11   -1    0    0    0    0  0.00000000000E+00  0.00000000000E+00  0.45593999997E+02  0.45594000000E+02  0.51100000000E-03 0.  1.
         11   -1    0    0    0    0 -0.00000000000E+00 -0.00000000000E+00 -0.45593999997E+02  0.45594000000E+02  0.51100000000E-03 0. -1.
    9900012    2    1    2    0    0 -0.11733443756E+01  0.40293402319E+02  0.53132626776E+01  0.50528858744E+02  0.29999996637E+02 0.  0.
         12    1    1    2    0    0  0.11733443756E+01 -0.40293402319E+02 -0.53132626776E+01  0.40659141256E+02  0.00000000000E+00 0. -1.
         11    1    3    3    0    0 -0.18990399630E+01 -0.10459626894E+00 -0.63048135283E+01  0.65854359801E+01  0.51100000000E-03 0. -1.
        -11    1    3    3    0    0  0.65180200136E+01  0.15476627612E+02  0.44605927461E+01  0.17375484887E+02  0.51100000000E-03 0.  1.
         12    1    3    3    0    0 -0.57923244261E+01  0.24921370975E+02  0.71574834598E+01  0.26567937877E+02  0.00000000000E+00 0. -1.
</event>
<event>
 7    1  0.3004200E-011  0.5052886E+02  0.7816164E-02  0.1300439E+00
        -11   -1    0    0    0    0  0.00000000000E+00  0.00000000000E+00  0.45593999997E+02  0.45594000000E+02  0.51100000000E-03 0.  1.
         11   -1    0    0    0    0 -0.00000000000E+00 -0.00000000000E+00 -0.45593999997E+02  0.45594000000E+02  0.51100000000E-03 0. -1.
    9900012    2    1    2    0    0  0.33126826269E+00  0.45242259957E+01  0.40405286671E+02  0.50528861415E+02  0.30000004756E+02 0.  0.
         12    1    1    2    0    0 -0.33126826269E+00 -0.45242259957E+01 -0.40405286671E+02  0.40659138585E+02  0.00000000000E+00 0. -1.
         11    1    3    3    0    0  0.24817861082E+01  0.10703670716E+02  0.12151246342E+02  0.16382326362E+02  0.51100000000E-03 0. -1.
        -11    1    3    3    0    0 -0.55421434494E+01 -0.67763034932E+01  0.29274033672E+02  0.30554912710E+02  0.51100000000E-03 0.  1.
        -12    1    3    3    0    0  0.33916256039E+01  0.59685877289E+00 -0.10199933432E+01  0.35916223426E+01  0.00000000000E+00 0.  1.
</event>
<event>
 7    1  0.3004200E-011  0.5052886E+02  0.7816164E-02  0.1300439E+00
        -11   -1    0    0    0    0  0.00000000000E+00  0.00000000000E+00  0.45593999997E+02  0.45594000000E+02  0.51100000000E-03 0. -1.
         11   -1    0    0    0    0 -0.00000000000E+00 -0.00000000000E+00 -0.45593999997E+02  0.45594000000E+02  0.51100000000E-03 0.  1.
    9900012    2    1    2    0    0 -0.71910007353E+01  0.17506419935E+02 -0.35985840428E+02  0.50528856602E+02  0.29999990127E+02 0.  0.
         12    1    1    2    0    0  0.71910007353E+01 -0.17506419935E+02  0.35985840428E+02  0.40659143398E+02  0.00000000000E+00 0. -1.
         11    1    3    3    0    0 -0.67236063671E+01 -0.51043143261E+01 -0.92669848801E+00  0.84923305204E+01  0.51100000000E-03 0. -1.
        -11    1    3    3    0    0  0.15199082993E+01  0.14256411829E+02 -0.18735047451E+02  0.23591468855E+02  0.51100000000E-03 0.  1.
         12    1    3    3    0    0 -0.19873026675E+01  0.83543224328E+01 -0.16324094490E+02  0.18445057227E+02  0.00000000000E+00 0. -1.
</event>
<event>
 7    1  0.3004200E-011  0.5052886E+02  0.7816164E-02  0.1300439E+00
        -11   -1    0    0    0    0  0.00000000000E+00  0.00000000000E+00  0.45593999997E+02  0.45594000000E+02  0.51100000000E-03 0.  1.
         11   -1    0    0    0    0 -0.00000000000E+00 -0.00000000000E+00 -0.45593999997E+02  0.45594000000E+02  0.51100000000E-03 0. -1.
    9900012    2    1    2    0    0 -0.50848734762E+01 -0.39719766493E+02 -0.70462573408E+01  0.50528861654E+02  0.30000005482E+02 0.  0.
         12    1    1    2    0    0  0.50848734762E+01  0.39719766493E+02  0.70462573408E+01  0.40659138346E+02  0.00000000000E+00 0. -1.
         11    1    3    3    0    0 -0.17036211657E+02 -0.30265269906E+02 -0.49999340882E+01  0.35088721996E+02  0.51100000000E-03 0. -1.
        -11    1    3    3    0    0  0.99186816797E+01 -0.83466227710E+01 -0.20550762630E+01  0.13125155110E+02  0.51100000000E-03 0.  1.
         12    1    3    3    0    0  0.20326565012E+01 -0.11078738161E+01  0.87530103781E-02  0.23149845484E+01  0.00000000000E+00 0. -1.
</event>
<event>
 7    1  0.3004200E-011  0.5052882E+02  0.7816164E-02  0.1300439E+00
        -11   -1    0    0    0    0  0.00000000000E+00  0.00000000000E+00  0.45593999997E+02  0.45594000000E+02  0.51100000000E-03 0. -1.
         11   -1    0    0    0    0 -0.00000000000E+00 -0.00000000000E+00 -0.45593999997E+02  0.45594000000E+02  0.51100000000E-03 0.  1.
    9900012    2    1    2    0    0  0.35212966627E+02 -0.19152006118E+02  0.68129517340E+01  0.50528823074E+02  0.29999888214E+02 0.  0.
         12    1    1    2    0    0 -0.35212966627E+02  0.19152006118E+02 -0.68129517340E+01  0.40659176926E+02  0.00000000000E+00 0. -1.
         11    1    3    3    0    0  0.67324590315E+01 -0.32301150065E+00  0.13904568650E+02  0.15452099231E+02  0.51100000000E-03 0. -1.
        -11    1    3    3    0    0  0.12955749431E+02 -0.63212753175E+01 -0.29001250833E+01  0.14704444590E+02  0.51100000000E-03 0.  1.
         12    1    3    3    0    0  0.15524758165E+02 -0.12507719300E+02 -0.41914918325E+01  0.20372279253E+02  0.00000000000E+00 0. -1.
</event>
<event>
 7    1  0.3004200E-011  0.5052886E+02  0.7816164E-02  0.1300439E+00
        -11   -1    0    0    0    0  0.00000000000E+00  0.00000000000E+00  0.45593999997E+02  0.45594000000E+02  0.51100000000E-03 0.  1.
         11   -1    0    0    0    0 -0.00000000000E+00 -0.00000000000E+00 -0.45593999997E+02  0.45594000000E+02  0.51100000000E-03 0. -1.
    9900012    2    1    2    0    0 -0.14794242422E+02  0.37844489977E+02  0.14458613513E+01  0.50528861476E+02  0.30000004943E+02 0.  0.
         12    1    1    2    0    0  0.14794242422E+02 -0.37844489977E+02 -0.14458613513E+01  0.40659138524E+02  0.00000000000E+00 0. -1.
         11    1    3    3    0    0 -0.31298814555E+01  0.22705051041E+01  0.10818290707E+02  0.11488549319E+02  0.51100000000E-03 0. -1.
        -11    1    3    3    0    0 -0.71043121930E+01  0.18193371638E+02 -0.76982099428E+01  0.20993629031E+02  0.51100000000E-03 0.  1.
         12    1    3    3    0    0 -0.45600487739E+01  0.17380613234E+02 -0.16742194133E+01  0.18046683126E+02  0.00000000000E+00 0. -1.
</event>
<event>
 7    1  0.3004200E-011  0.5052884E+02  0.7816164E-02  0.1300439E+00
        -11   -1    0    0    0    0  0.00000000000E+00  0.00000000000E+00  0.45593999997E+02  0.45594000000E+02  0.51100000000E-03 0.  1.
         11   -1    0    0    0    0 -0.00000000000E+00 -0.00000000000E+00 -0.45593999997E+02  0.45594000000E+02  0.51100000000E-03 0. -1.
    9900012    2    1    2    0    0  0.28410509062E+02 -0.20611500104E+01  0.29013134651E+02  0.50528839325E+02  0.29999937611E+02 0.  0.
         12    1    1    2    0    0 -0.28410509062E+02  0.20611500104E+01 -0.29013134651E+02  0.40659160675E+02  0.00000000000E+00 0. -1.
         11    1    3    3    0    0  0.16589769287E+01 -0.25046448618E+01 -0.15028512476E+01  0.33591684190E+01  0.51100000000E-03 0. -1.
        -11    1    3    3    0    0  0.17372556477E+02  0.74613607848E+01  0.29979368843E+02  0.35443478664E+02  0.51100000000E-03 0.  1.
        -12    1    3    3    0    0  0.93789756568E+01 -0.70178659335E+01  0.53661705582E+00  0.11726192242E+02  0.00000000000E+00 0.  1.
</event>
<event>
 7    1  0.3004200E-011  0.5052887E+02  0.7816164E-02  0.1300439E+00
        -11   -1    0    0    0    0  0.00000000000E+00  0.00000000000E+00  0.45593999997E+02  0.45594000000E+02  0.51100000000E-03 0.  1.
         11   -1    0    0    0    0 -0.00000000000E+00 -0.00000000000E+00 -0.45593999997E+02  0.45594000000E+02  0.51100000000E-03 0. -1.
    9900012    2    1    2    0    0 -0.36114415823E+02 -0.13433276796E+01  0.18630879928E+02  0.50528865154E+02  0.30000016123E+02 0.  0.
         12    1    1    2    0    0  0.36114415823E+02  0.13433276796E+01 -0.18630879928E+02  0.40659134846E+02  0.00000000000E+00 0. -1.
         11    1    3    3    0    0 -0.17389358812E+01  0.16041013306E+01  0.15062245036E+02  0.15246910010E+02  0.51100000000E-03 0. -1.
        -11    1    3    3    0    0 -0.12190629151E+02  0.84841995455E+00  0.37213871569E+01  0.12774191878E+02  0.51100000000E-03 0.  1.
         12    1    3    3    0    0 -0.22184850791E+02 -0.37958489647E+01 -0.15275226416E+00  0.22507763266E+02  0.00000000000E+00 0. -1.
</event>
<event>
 7    1  0.3004200E-011  0.5052887E+02  0.7816164E-02  0.1300439E+00
        -11   -1    0    0    0    0  0.00000000000E+00  0.00000000000E+00  0.45593999997E+02  0.45594000000E+02  0.51100000000E-03 0.  1.
         11   -1    0    0    0    0 -0.00000000000E+00 -0.00000000000E+00 -0.45593999997E+02  0.45594000000E+02  0.51100000000E-03 0. -1.
    9900012    2    1    2    0    0  0.97185888914E+01 -0.32786297661E+02  0.21994825875E+02  0.50528872493E+02  0.30000038430E+02 0.  0.
         12    1    1    2    0    0 -0.97185888914E+01  0.32786297661E+02 -0.21994825875E+02  0.40659127507E+02  0.00000000000E+00 0. -1.
         11    1    3    3    0    0  0.27613550946E+01  0.18909049981E+01  0.77143708174E+01  0.84090499487E+01  0.51100000000E-03 0. -1.
        -11    1    3    3    0    0  0.84418370301E+01 -0.24791415136E+02  0.17637363934E+02  0.31574601877E+02  0.51100000000E-03 0.  1.
        -12    1    3    3    0    0 -0.14846032333E+01 -0.98857875231E+01 -0.33569088770E+01  0.10545220667E+02  0.00000000000E+00 0.  1.
</event>
<event>
 7    1  0.3004200E-011  0.5052886E+02  0.7816164E-02  0.1300439E+00
        -11   -1    0    0    0    0  0.00000000000E+00  0.00000000000E+00  0.45593999997E+02  0.45594000000E+02  0.51100000000E-03 0.  1.
         11   -1    0    0    0    0 -0.00000000000E+00 -0.00000000000E+00 -0.45593999997E+02  0.45594000000E+02  0.51100000000E-03 0. -1.
    9900012    2    1    2    0    0  0.10258396712E+02  0.15563548192E+02  0.36134569706E+02  0.50528857568E+02  0.29999993065E+02 0.  0.
         12    1    1    2    0    0 -0.10258396712E+02 -0.15563548192E+02 -0.36134569706E+02  0.40659142432E+02  0.00000000000E+00 0. -1.
         11    1    3    3    0    0  0.51722463687E+01 -0.11737224333E+01 -0.15307975636E+01  0.55202444050E+01  0.51100000000E-03 0. -1.
        -11    1    3    3    0    0 -0.16989330746E+01  0.17453678434E+02  0.23879795560E+02  0.29627046777E+02  0.51100000000E-03 0.  1.
        -12    1    3    3    0    0  0.67850834183E+01 -0.71640780861E+00  0.13785571710E+02  0.15381566387E+02  0.00000000000E+00 0.  1.
</event>
<event>
 7    1  0.3004200E-011  0.5052886E+02  0.7816164E-02  0.1300439E+00
        -11   -1    0    0    0    0  0.00000000000E+00  0.00000000000E+00  0.45593999997E+02  0.45594000000E+02  0.51100000000E-03 0. -1.
         11   -1    0    0    0    0 -0.00000000000E+00 -0.00000000000E+00 -0.45593999997E+02  0.45594000000E+02  0.51100000000E-03 0.  1.
    9900012    2    1    2    0    0  0.40206305260E+02 -0.14678705087E+01 -0.58705927473E+01  0.50528862211E+02  0.30000007178E+02 0.  0.
         12    1    1    2    0    0 -0.40206305260E+02  0.14678705087E+01  0.58705927473E+01  0.40659137789E+02  0.00000000000E+00 0. -1.
         11    1    3    3    0    0  0.96863613669E+00 -0.13077070881E+01  0.21702238634E+01  0.27126049606E+01  0.51100000000E-03 0. -1.
        -11    1    3    3    0    0  0.30990401355E+02  0.10985565649E+02 -0.28197624371E+01  0.33000586195E+02  0.51100000000E-03 0.  1.
        -12    1    3    3    0    0  0.82472677688E+01 -0.11145729070E+02 -0.52210541737E+01  0.14815671056E+02  0.00000000000E+00 0.  1.
</event>
<event>
 7    1  0.3004200E-011  0.5052887E+02  0.7816164E-02  0.1300439E+00
        -11   -1    0    0    0    0  0.00000000000E+00  0.00000000000E+00  0.45593999997E+02  0.45594000000E+02  0.51100000000E-03 0.  1.
         11   -1    0    0    0    0 -0.00000000000E+00 -0.00000000000E+00 -0.45593999997E+02  0.45594000000E+02  0.51100000000E-03 0. -1.
    9900012    2    1    2    0    0 -0.39823952835E+02 -0.70626147186E+01  0.41638256211E+01  0.50528865850E+02  0.30000018237E+02 0.  0.
         12    1    1    2    0    0  0.39823952835E+02  0.70626147186E+01 -0.41638256211E+01  0.40659134150E+02  0.00000000000E+00 0. -1.
         11    1    3    3    0    0 -0.25685615807E+02  0.19277936505E+01 -0.21635125865E+01  0.25848559626E+02  0.51100000000E-03 0. -1.
        -11    1    3    3    0    0  0.68270476485E+00 -0.87410630208E+01  0.59660767071E+00  0.87879582102E+01  0.51100000000E-03 0.  1.
        -12    1    3    3    0    0 -0.14821041792E+02 -0.24934534829E+00  0.57307305368E+01  0.15892348014E+02  0.00000000000E+00 0.  1.
</event>
<event>
 7    1  0.3004200E-011  0.5052886E+02  0.7816164E-02  0.1300439E+00
        -11   -1    0    0    0    0  0.00000000000E+00  0.00000000000E+00  0.45593999997E+02  0.45594000000E+02  0.51100000000E-03 0.  1.
         11   -1    0    0    0    0 -0.00000000000E+00 -0.00000000000E+00 -0.45593999997E+02  0.45594000000E+02  0.51100000000E-03 0. -1.
    9900012    2    1    2    0    0 -0.81467446491E+01 -0.49616580792E+01  0.39524399505E+02  0.50528860123E+02  0.30000000831E+02 0.  0.
         12    1    1    2    0    0  0.81467446491E+01  0.49616580792E+01 -0.39524399505E+02  0.40659139877E+02  0.00000000000E+00 0. -1.
         11    1    3    3    0    0  0.81277805638E+01  0.19155928814E+01  0.30072671753E+01  0.88754700780E+01  0.51100000000E-03 0. -1.
        -11    1    3    3    0    0 -0.92923137350E+01 -0.23831511023E+01  0.99604891159E+01  0.13828877301E+02  0.51100000000E-03 0.  1.
         12    1    3    3    0    0 -0.69822114779E+01 -0.44940998583E+01  0.26556643214E+02  0.27824512744E+02  0.00000000000E+00 0. -1.
</event>
<event>
 7    1  0.3004200E-011  0.5052885E+02  0.7816164E-02  0.1300439E+00
        -11   -1    0    0    0    0  0.00000000000E+00  0.00000000000E+00  0.45593999997E+02  0.45594000000E+02  0.51100000000E-03 0.  1.
         11   -1    0    0    0    0 -0.00000000000E+00 -0.00000000000E+00 -0.45593999997E+02  0.45594000000E+02  0.51100000000E-03 0. -1.
    9900012    2    1    2    0    0 -0.38939004725E+00 -0.40345655099E+02  0.50242524436E+01  0.50528848231E+02  0.29999964684E+02 0.  0.
         12    1    1    2    0    0  0.38939004725E+00  0.40345655099E+02 -0.50242524436E+01  0.40659151769E+02  0.00000000000E+00 0. -1.
         11    1    3    3    0    0  0.61510394000E+00  0.35475518392E-01  0.17446592190E+01  0.18502560420E+01  0.51100000000E-03 0. -1.
        -11    1    3    3    0    0  0.86896881131E+01 -0.29423496033E+02  0.10416988115E+02  0.32400099382E+02  0.51100000000E-03 0.  1.
        -12    1    3    3    0    0 -0.96941821003E+01 -0.10957634584E+02 -0.71373948899E+01  0.16278492807E+02  0.00000000000E+00 0.  1.
</event>
<event>
 7    1  0.3004200E-011  0.5052885E+02  0.7816164E-02  0.1300439E+00
        -11   -1    0    0    0    0  0.00000000000E+00  0.00000000000E+00  0.45593999997E+02  0.45594000000E+02  0.51100000000E-03 0.  1.
         11   -1    0    0    0    0 -0.00000000000E+00 -0.00000000000E+00 -0.45593999997E+02  0.45594000000E+02  0.51100000000E-03 0. -1.
    9900012    2    1    2    0    0  0.14416914156E+02 -0.14831422702E+01  0.37988414634E+02  0.50528846403E+02  0.29999959127E+02 0.  0.
         12    1    1    2    0    0 -0.14416914156E+02  0.14831422702E+01 -0.37988414634E+02  0.40659153597E+02  0.00000000000E+00 0. -1.
         11    1    3    3    0    0  0.67616936674E+01 -0.10822768726E+02  0.11716575140E+02  0.17324288078E+02  0.51100000000E-03 0. -1.
        -11    1    3    3    0    0 -0.23733157079E+01  0.96228844716E+01  0.99370611313E+01  0.14034875033E+02  0.51100000000E-03 0.  1.
         12    1    3    3    0    0  0.10028536197E+02 -0.28325801626E+00  0.16334778363E+02  0.19169683292E+02  0.00000000000E+00 0. -1.
</event>
<event>
 7    1  0.3004200E-011  0.5052886E+02  0.7816164E-02  0.1300439E+00
        -11   -1    0    0    0    0  0.00000000000E+00  0.00000000000E+00  0.45593999997E+02  0.45594000000E+02  0.51100000000E-03 0.  1.
         11   -1    0    0    0    0 -0.00000000000E+00 -0.00000000000E+00 -0.45593999997E+02  0.45594000000E+02  0.51100000000E-03 0. -1.
    9900012    2    1    2    0    0  0.79151593813E+01 -0.33378916161E+02  0.21825766859E+02  0.50528857226E+02  0.29999992025E+02 0.  0.
         12    1    1    2    0    0 -0.79151593813E+01  0.33378916161E+02 -0.21825766859E+02  0.40659142774E+02  0.00000000000E+00 0. -1.
         11    1    3    3    0    0 -0.23249052623E+00 -0.14374209059E+01  0.32560191035E+01  0.35667760470E+01  0.51100000000E-03 0. -1.
        -11    1    3    3    0    0 -0.19708649240E+01 -0.16504431324E+02  0.22614951325E+02  0.28066289131E+02  0.51100000000E-03 0.  1.
        -12    1    3    3    0    0  0.10118514832E+02 -0.15437063931E+02 -0.40452035698E+01  0.18895792049E+02  0.00000000000E+00 0.  1.
</event>
<event>
 7    1  0.3004200E-011  0.5052886E+02  0.7816164E-02  0.1300439E+00
        -11   -1    0    0    0    0  0.00000000000E+00  0.00000000000E+00  0.45593999997E+02  0.45594000000E+02  0.51100000000E-03 0. -1.
         11   -1    0    0    0    0 -0.00000000000E+00 -0.00000000000E+00 -0.45593999997E+02  0.45594000000E+02  0.51100000000E-03 0.  1.
    9900012    2    1    2    0    0  0.12437957951E+02  0.37654864879E+02  0.89762913387E+01  0.50528862611E+02  0.30000008392E+02 0.  0.
         12    1    1    2    0    0 -0.12437957951E+02 -0.37654864879E+02 -0.89762913387E+01  0.40659137389E+02  0.00000000000E+00 0. -1.
         11    1    3    3    0    0  0.11329702955E+02  0.84591156275E+01 -0.62048164360E+01  0.15440808059E+02  0.51100000000E-03 0. -1.
        -11    1    3    3    0    0 -0.38094250262E+01  0.19607992267E+02  0.57958418444E+01  0.20798482222E+02  0.51100000000E-03 0.  1.
        -12    1    3    3    0    0  0.49176800215E+01  0.95877569842E+01  0.93852659302E+01  0.14289572330E+02  0.00000000000E+00 0.  1.
</event>
<event>
 7    1  0.3004200E-011  0.5052886E+02  0.7816164E-02  0.1300439E+00
        -11   -1    0    0    0    0  0.00000000000E+00  0.00000000000E+00  0.45593999997E+02  0.45594000000E+02  0.51100000000E-03 0.  1.
         11   -1    0    0    0    0 -0.00000000000E+00 -0.00000000000E+00 -0.45593999997E+02  0.45594000000E+02  0.51100000000E-03 0. -1.
    9900012    2    1    2    0    0 -0.30861592551E+00 -0.37390627007E+02  0.15969080857E+02  0.50528858652E+02  0.29999996358E+02 0.  0.
         12    1    1    2    0    0  0.30861592551E+00  0.37390627007E+02 -0.15969080857E+02  0.40659141348E+02  0.00000000000E+00 0. -1.
         11    1    3    3    0    0  0.23381506050E+01 -0.86810002447E+00 -0.48448148292E+01  0.54491078989E+01  0.51100000000E-03 0. -1.
        -11    1    3    3    0    0  0.58218938753E+01 -0.25074655822E+02  0.13761618009E+02  0.29189295013E+02  0.51100000000E-03 0.  1.
         12    1    3    3    0    0 -0.84686604058E+01 -0.11447871160E+02  0.70522776772E+01  0.15890455740E+02  0.00000000000E+00 0. -1.
</event>
<event>
 7    1  0.3004200E-011  0.5052886E+02  0.7816164E-02  0.1300439E+00
        -11   -1    0    0    0    0  0.00000000000E+00  0.00000000000E+00  0.45593999997E+02  0.45594000000E+02  0.51100000000E-03 0.  1.
         11   -1    0    0    0    0 -0.00000000000E+00 -0.00000000000E+00 -0.45593999997E+02  0.45594000000E+02  0.51100000000E-03 0. -1.
    9900012    2    1    2    0    0 -0.70257610503E+01 -0.47644728064E+01  0.39763104887E+02  0.50528855522E+02  0.29999986845E+02 0.  0.
         12    1    1    2    0    0  0.70257610503E+01  0.47644728064E+01 -0.39763104887E+02  0.40659144478E+02  0.00000000000E+00 0. -1.
         11    1    3    3    0    0  0.53938051991E+01  0.32480548619E+01 -0.13638851302E+01  0.64422960054E+01  0.51100000000E-03 0. -1.
        -11    1    3    3    0    0 -0.14414888391E+01 -0.49457877295E+00  0.11605635113E+02  0.11705266544E+02  0.51100000000E-03 0.  1.
         12    1    3    3    0    0 -0.10978077410E+02 -0.75179488953E+01  0.29521354904E+02  0.32381292972E+02  0.00000000000E+00 0. -1.
</event>
<event>
 7    1  0.3004200E-011  0.5052886E+02  0.7816164E-02  0.1300439E+00
        -11   -1    0    0    0    0  0.00000000000E+00  0.00000000000E+00  0.45593999997E+02  0.45594000000E+02  0.51100000000E-03 0.  1.
         11   -1    0    0    0    0 -0.00000000000E+00 -0.00000000000E+00 -0.45593999997E+02  0.45594000000E+02  0.51100000000E-03 0. -1.
    9900012    2    1    2    0    0  0.20680961246E+02 -0.32319220097E+02  0.13451082212E+02  0.50528858858E+02  0.29999996983E+02 0.  0.
         12    1    1    2    0    0 -0.20680961246E+02  0.32319220097E+02 -0.13451082212E+02  0.40659141142E+02  0.00000000000E+00 0. -1.
         11    1    3    3    0    0  0.18294414676E+02 -0.16792051442E+02  0.64465956423E+01  0.25655743910E+02  0.51100000000E-03 0.  1.
        -11    1    3    3    0    0 -0.35466819193E+01 -0.16804919614E+02  0.75864789447E+01  0.18776020316E+02  0.51100000000E-03 0. -1.
         12    1    3    3    0    0  0.59332284896E+01  0.12777509580E+01 -0.58199237520E+00  0.60970946315E+01  0.00000000000E+00 0. -1.
</event>
<event>
 7    1  0.3004200E-011  0.5052886E+02  0.7816164E-02  0.1300439E+00
        -11   -1    0    0    0    0  0.00000000000E+00  0.00000000000E+00  0.45593999997E+02  0.45594000000E+02  0.51100000000E-03 0. -1.
         11   -1    0    0    0    0 -0.00000000000E+00 -0.00000000000E+00 -0.45593999997E+02  0.45594000000E+02  0.51100000000E-03 0.  1.
    9900012    2    1    2    0    0  0.32764833908E+02  0.74963097156E+01 -0.22878742692E+02  0.50528857516E+02  0.29999992906E+02 0.  0.
         12    1    1    2    0    0 -0.32764833908E+02 -0.74963097156E+01  0.22878742692E+02  0.40659142484E+02  0.00000000000E+00 0. -1.
         11    1    3    3    0    0 -0.50208371273E+01  0.47889091833E+01 -0.42650593221E+01  0.81445188874E+01  0.51100000000E-03 0. -1.
        -11    1    3    3    0    0  0.25739808485E+02  0.23548610618E+01 -0.14581474657E+02  0.29676632472E+02  0.51100000000E-03 0.  1.
         12    1    3    3    0    0  0.12045862551E+02  0.35253947056E+00 -0.40322087128E+01  0.12707706157E+02  0.00000000000E+00 0. -1.
</event>
<event>
 7    1  0.3004200E-011  0.5052884E+02  0.7816164E-02  0.1300439E+00
        -11   -1    0    0    0    0  0.00000000000E+00  0.00000000000E+00  0.45593999997E+02  0.45594000000E+02  0.51100000000E-03 0. -1.
         11   -1    0    0    0    0 -0.00000000000E+00 -0.00000000000E+00 -0.45593999997E+02  0.45594000000E+02  0.51100000000E-03 0.  1.
    9900012    2    1    2    0    0 -0.39435712223E+02  0.98929047442E+01  0.34935098825E+00  0.50528843480E+02  0.29999950241E+02 0.  0.
         12    1    1    2    0    0  0.39435712223E+02 -0.98929047442E+01 -0.34935098825E+00  0.40659156520E+02  0.00000000000E+00 0. -1.
         11    1    3    3    0    0 -0.18776884399E+02 -0.30146497501E+01  0.45355718306E+01  0.19550726660E+02  0.51100000000E-03 0. -1.
        -11    1    3    3    0    0 -0.11513911246E+02  0.16855476018E+02 -0.69905938438E+00  0.20424639734E+02  0.51100000000E-03 0.  1.
        -12    1    3    3    0    0 -0.91449165775E+01 -0.39479215234E+01 -0.34871614580E+01  0.10553477086E+02  0.00000000000E+00 0.  1.
</event>
<event>
 7    1  0.3004200E-011  0.5052892E+02  0.7816164E-02  0.1300439E+00
        -11   -1    0    0    0    0  0.00000000000E+00  0.00000000000E+00  0.45593999997E+02  0.45594000000E+02  0.51100000000E-03 0. -1.
         11   -1    0    0    0    0 -0.00000000000E+00 -0.00000000000E+00 -0.45593999997E+02  0.45594000000E+02  0.51100000000E-03 0.  1.
    9900012    2    1    2    0    0 -0.30438674351E+02  0.37233359730E+01 -0.26698026757E+02  0.50528920328E+02  0.30000183829E+02 0.  0.
         12    1    1    2    0    0  0.30438674351E+02 -0.37233359730E+01  0.26698026757E+02  0.40659079672E+02  0.00000000000E+00 0. -1.
         11    1    3    3    0    0 -0.89695132880E+01  0.65565724820E+01  0.41860360528E+01  0.11872813880E+02  0.51100000000E-03 0. -1.
        -11    1    3    3    0    0 -0.66504235246E+01  0.22123523940E+01 -0.13843867744E+02  0.15516936249E+02  0.51100000000E-03 0.  1.
         12    1    3    3    0    0 -0.14818737539E+02 -0.50455889030E+01 -0.17040195066E+02  0.23139170199E+02  0.00000000000E+00 0. -1.
</event>
<event>
 7    1  0.3004200E-011  0.5052887E+02  0.7816164E-02  0.1300439E+00
        -11   -1    0    0    0    0  0.00000000000E+00  0.00000000000E+00  0.45593999997E+02  0.45594000000E+02  0.51100000000E-03 0.  1.
         11   -1    0    0    0    0 -0.00000000000E+00 -0.00000000000E+00 -0.45593999997E+02  0.45594000000E+02  0.51100000000E-03 0. -1.
    9900012    2    1    2    0    0  0.18760352320E+00  0.16829879545E+02  0.37011953271E+02  0.50528871560E+02  0.30000035594E+02 0.  0.
         12    1    1    2    0    0 -0.18760352320E+00 -0.16829879545E+02 -0.37011953271E+02  0.40659128440E+02  0.00000000000E+00 0. -1.
         11    1    3    3    0    0 -0.20084334022E+01 -0.34512476832E+01 -0.16089451834E+01  0.43050691244E+01  0.51100000000E-03 0. -1.
        -11    1    3    3    0    0 -0.44733625986E+01  0.14093258530E+02  0.31038536448E+02  0.34380541794E+02  0.51100000000E-03 0.  1.
        -12    1    3    3    0    0  0.66693995240E+01  0.61878686985E+01  0.75823620056E+01  0.11843260642E+02  0.00000000000E+00 0.  1.
</event>
<event>
 7    1  0.3004200E-011  0.5052888E+02  0.7816164E-02  0.1300439E+00
        -11   -1    0    0    0    0  0.00000000000E+00  0.00000000000E+00  0.45593999997E+02  0.45594000000E+02  0.51100000000E-03 0. -1.
         11   -1    0    0    0    0 -0.00000000000E+00 -0.00000000000E+00 -0.45593999997E+02  0.45594000000E+02  0.51100000000E-03 0.  1.
    9900012    2    1    2    0    0 -0.23477898679E+02 -0.53789619655E+01 -0.32756964615E+02  0.50528884306E+02  0.30000074336E+02 0.  0.
         12    1    1    2    0    0  0.23477898679E+02  0.53789619655E+01  0.32756964615E+02  0.40659115694E+02  0.00000000000E+00 0. -1.
         11    1    3    3    0    0 -0.23505192451E+01  0.73888336283E+00 -0.11947769385E+02  0.12199183697E+02  0.51100000000E-03 0. -1.
        -11    1    3    3    0    0 -0.11701808300E+01 -0.37551494756E+00  0.50309474220E+01  0.51788769897E+01  0.51100000000E-03 0.  1.
        -12    1    3    3    0    0 -0.19957198604E+02 -0.57423303807E+01 -0.25840142652E+02  0.33150823619E+02  0.00000000000E+00 0.  1.
</event>
<event>
 7    1  0.3004200E-011  0.5052886E+02  0.7816164E-02  0.1300439E+00
        -11   -1    0    0    0    0  0.00000000000E+00  0.00000000000E+00  0.45593999997E+02  0.45594000000E+02  0.51100000000E-03 0. -1.
         11   -1    0    0    0    0 -0.00000000000E+00 -0.00000000000E+00 -0.45593999997E+02  0.45594000000E+02  0.51100000000E-03 0.  1.
    9900012    2    1    2    0    0  0.37657758555E+02 -0.97715809055E+01 -0.11814190850E+02  0.50528859844E+02  0.29999999982E+02 0.  0.
         12    1    1    2    0    0 -0.37657758555E+02  0.97715809055E+01  0.11814190850E+02  0.40659140156E+02  0.00000000000E+00 0. -1.
         11    1    3    3    0    0  0.12880834620E+01 -0.72995645905E+01 -0.15690270363E+01  0.75765855316E+01  0.51100000000E-03 0. -1.
        -11    1    3    3    0    0  0.34948816945E+02  0.38948698723E+01 -0.81101661985E+01  0.36088289142E+02  0.51100000000E-03 0.  1.
        -12    1    3    3    0    0  0.14208581476E+01 -0.63668861873E+01 -0.21349976155E+01  0.68639851701E+01  0.00000000000E+00 0.  1.
</event>
<event>
 7    1  0.3004200E-011  0.5052882E+02  0.7816164E-02  0.1300439E+00
        -11   -1    0    0    0    0  0.00000000000E+00  0.00000000000E+00  0.45593999997E+02  0.45594000000E+02  0.51100000000E-03 0.  1.
         11   -1    0    0    0    0 -0.00000000000E+00 -0.00000000000E+00 -0.45593999997E+02  0.45594000000E+02  0.51100000000E-03 0. -1.
    9900012    2    1    2    0    0 -0.15555168695E+02  0.24316493809E+02  0.28634136612E+02  0.50528819932E+02  0.29999878665E+02 0.  0.
         12    1    1    2    0    0  0.15555168695E+02 -0.24316493809E+02 -0.28634136612E+02  0.40659180068E+02  0.00000000000E+00 0. -1.
         11    1    3    3    0    0 -0.43170460430E+01 -0.24369069611E+01  0.79998528024E-01  0.49580038423E+01  0.51100000000E-03 0. -1.
        -11    1    3    3    0    0 -0.12996168397E+02  0.26939487501E+02  0.18083751294E+02  0.34952230844E+02  0.51100000000E-03 0.  1.
         12    1    3    3    0    0  0.17580457448E+01 -0.18608673077E+00  0.10470386789E+02  0.10618585246E+02  0.00000000000E+00 0. -1.
</event>
<event>
 7    1  0.3004200E-011  0.5052886E+02  0.7816164E-02  0.1300439E+00
        -11   -1    0    0    0    0  0.00000000000E+00  0.00000000000E+00  0.45593999997E+02  0.45594000000E+02  0.51100000000E-03 0.  1.
         11   -1    0    0    0    0 -0.00000000000E+00 -0.00000000000E+00 -0.45593999997E+02  0.45594000000E+02  0.51100000000E-03 0. -1.
    9900012    2    1    2    0    0 -0.55149862057E+01  0.36419855550E+02  0.17214659397E+02  0.50528862659E+02  0.30000008539E+02 0.  0.
         12    1    1    2    0    0  0.55149862057E+01 -0.36419855550E+02 -0.17214659397E+02  0.40659137341E+02  0.00000000000E+00 0. -1.
         11    1    3    3    0    0  0.62925335131E+01  0.34344207680E+01 -0.45835696653E+01  0.85088386495E+01  0.51100000000E-03 0. -1.
        -11    1    3    3    0    0 -0.92934375192E+01  0.30429807133E+02  0.21546073163E+02  0.38426220372E+02  0.51100000000E-03 0.  1.
        -12    1    3    3    0    0 -0.25140821996E+01  0.25556276489E+01  0.25215589951E+00  0.35938036373E+01  0.00000000000E+00 0.  1.
</event>
<event>
 7    1  0.3004200E-011  0.5052886E+02  0.7816164E-02  0.1300439E+00
        -11   -1    0    0    0    0  0.00000000000E+00  0.00000000000E+00  0.45593999997E+02  0.45594000000E+02  0.51100000000E-03 0. -1.
         11   -1    0    0    0    0 -0.00000000000E+00 -0.00000000000E+00 -0.45593999997E+02  0.45594000000E+02  0.51100000000E-03 0.  1.
    9900012    2    1    2    0    0  0.15952140267E+02  0.44390618649E+01 -0.37134749775E+02  0.50528859697E+02  0.29999999534E+02 0.  0.
         12    1    1    2    0    0 -0.15952140267E+02 -0.44390618649E+01  0.37134749775E+02  0.40659140303E+02  0.00000000000E+00 0. -1.
         11    1    3    3    0    0 -0.49920639351E+01  0.79461402929E+01 -0.82415720014E+01  0.12489409802E+02  0.51100000000E-03 0. -1.
        -11    1    3    3    0    0  0.10826743276E+02  0.57818009138E+00 -0.23473442469E+02  0.25856433702E+02  0.51100000000E-03 0.  1.
         12    1    3    3    0    0  0.10117460927E+02 -0.40852585194E+01 -0.54197353042E+01  0.12183016193E+02  0.00000000000E+00 0. -1.
</event>
<event>
 7    1  0.3004200E-011  0.5052886E+02  0.7816164E-02  0.1300439E+00
        -11   -1    0    0    0    0  0.00000000000E+00  0.00000000000E+00  0.45593999997E+02  0.45594000000E+02  0.51100000000E-03 0.  1.
         11   -1    0    0    0    0 -0.00000000000E+00 -0.00000000000E+00 -0.45593999997E+02  0.45594000000E+02  0.51100000000E-03 0. -1.
    9900012    2    1    2    0    0 -0.21262158087E+02 -0.34623848005E+02 -0.15083764423E+01  0.50528863061E+02  0.30000009760E+02 0.  0.
         12    1    1    2    0    0  0.21262158087E+02  0.34623848005E+02  0.15083764423E+01  0.40659136939E+02  0.00000000000E+00 0. -1.
         11    1    3    3    0    0 -0.60120012140E+01  0.23353036328E+01 -0.52496262821E+01  0.83160313863E+01  0.51100000000E-03 0. -1.
        -11    1    3    3    0    0  0.13771249498E+00 -0.13008210683E+02  0.44121691791E+01  0.13736802649E+02  0.51100000000E-03 0.  1.
         12    1    3    3    0    0 -0.15387869368E+02 -0.23950940955E+02 -0.67091933927E+00  0.28476029025E+02  0.00000000000E+00 0. -1.
</event>
<event>
 7    1  0.3004200E-011  0.5052885E+02  0.7816164E-02  0.1300439E+00
        -11   -1    0    0    0    0  0.00000000000E+00  0.00000000000E+00  0.45593999997E+02  0.45594000000E+02  0.51100000000E-03 0. -1.
         11   -1    0    0    0    0 -0.00000000000E+00 -0.00000000000E+00 -0.45593999997E+02  0.45594000000E+02  0.51100000000E-03 0.  1.
    9900012    2    1    2    0    0 -0.26957153485E+02 -0.17916910953E+02  0.24606144229E+02  0.50528853970E+02  0.29999982126E+02 0.  0.
         12    1    1    2    0    0  0.26957153485E+02  0.17916910953E+02 -0.24606144229E+02  0.40659146030E+02  0.00000000000E+00 0. -1.
         11    1    3    3    0    0  0.22193416395E+01 -0.35098760207E+01  0.75331650708E+01  0.86019348544E+01  0.51100000000E-03 0. -1.
        -11    1    3    3    0    0 -0.21087603085E+02 -0.17332772500E+02  0.18811895553E+02  0.33151160175E+02  0.51100000000E-03 0.  1.
        -12    1    3    3    0    0 -0.80888920395E+01  0.29257375677E+01 -0.17389163952E+01  0.87757589399E+01  0.00000000000E+00 0.  1.
</event>
<event>
 7    1  0.3004200E-011  0.5052888E+02  0.7816164E-02  0.1300439E+00
        -11   -1    0    0    0    0  0.00000000000E+00  0.00000000000E+00  0.45593999997E+02  0.45594000000E+02  0.51100000000E-03 0.  1.
         11   -1    0    0    0    0 -0.00000000000E+00 -0.00000000000E+00 -0.45593999997E+02  0.45594000000E+02  0.51100000000E-03 0. -1.
    9900012    2    1    2    0    0 -0.34869219258E+01  0.37680496344E+02  0.14872320649E+02  0.50528876169E+02  0.30000049602E+02 0.  0.
         12    1    1    2    0    0  0.34869219258E+01 -0.37680496344E+02 -0.14872320649E+02  0.40659123831E+02  0.00000000000E+00 0. -1.
         11    1    3    3    0    0 -0.90703948925E+01 -0.67729122035E+00  0.44206270174E+01  0.10112998091E+02  0.51100000000E-03 0. -1.
        -11    1    3    3    0    0  0.78510099796E+00  0.14688131958E+02  0.58529534381E+01  0.15830813884E+02  0.51100000000E-03 0.  1.
         12    1    3    3    0    0  0.47983719688E+01  0.23669655606E+02  0.45987401937E+01  0.24585064194E+02  0.00000000000E+00 0. -1.
</event>
<event>
 7    1  0.3004200E-011  0.5052885E+02  0.7816164E-02  0.1300439E+00
        -11   -1    0    0    0    0  0.00000000000E+00  0.00000000000E+00  0.45593999997E+02  0.45594000000E+02  0.51100000000E-03 0.  1.
         11   -1    0    0    0    0 -0.00000000000E+00 -0.00000000000E+00 -0.45593999997E+02  0.45594000000E+02  0.51100000000E-03 0. -1.
    9900012    2    1    2    0    0 -0.15428996310E+02  0.21783847035E+02  0.30668817320E+02  0.50528852511E+02  0.29999977692E+02 0.  0.
         12    1    1    2    0    0  0.15428996310E+02 -0.21783847035E+02 -0.30668817320E+02  0.40659147489E+02  0.00000000000E+00 0. -1.
         11    1    3    3    0    0 -0.31805156955E+01  0.16270829121E+02  0.22130742488E+01  0.16725826086E+02  0.51100000000E-03 0. -1.
        -11    1    3    3    0    0 -0.10408251705E+02  0.88338756112E+01  0.17417115631E+02  0.22129730659E+02  0.51100000000E-03 0.  1.
         12    1    3    3    0    0 -0.18402289091E+01 -0.33208576972E+01  0.11038627440E+02  0.11673295766E+02  0.00000000000E+00 0. -1.
</event>
<event>
 7    1  0.3004200E-011  0.5052885E+02  0.7816164E-02  0.1300439E+00
        -11   -1    0    0    0    0  0.00000000000E+00  0.00000000000E+00  0.45593999997E+02  0.45594000000E+02  0.51100000000E-03 0.  1.
         11   -1    0    0    0    0 -0.00000000000E+00 -0.00000000000E+00 -0.45593999997E+02  0.45594000000E+02  0.51100000000E-03 0. -1.
    9900012    2    1    2    0    0 -0.21624951273E+02  0.30507655715E+02  0.15962808194E+02  0.50528845801E+02  0.29999957296E+02 0.  0.
         12    1    1    2    0    0  0.21624951273E+02 -0.30507655715E+02 -0.15962808194E+02  0.40659154199E+02  0.00000000000E+00 0. -1.
         11    1    3    3    0    0 -0.18655987780E+02  0.19524432839E+02  0.19264107547E+02  0.33171602277E+02  0.51100000000E-03 0.  1.
        -11    1    3    3    0    0 -0.53384404764E+01  0.81759862327E+01 -0.70999144421E+01  0.12072882131E+02  0.51100000000E-03 0. -1.
         12    1    3    3    0    0  0.23694769832E+01  0.28072366425E+01  0.37986150886E+01  0.52843613931E+01  0.00000000000E+00 0. -1.
</event>
<event>
 7    1  0.3004200E-011  0.5052882E+02  0.7816164E-02  0.1300439E+00
        -11   -1    0    0    0    0  0.00000000000E+00  0.00000000000E+00  0.45593999997E+02  0.45594000000E+02  0.51100000000E-03 0.  1.
         11   -1    0    0    0    0 -0.00000000000E+00 -0.00000000000E+00 -0.45593999997E+02  0.45594000000E+02  0.51100000000E-03 0. -1.
    9900012    2    1    2    0    0  0.32125281210E+02 -0.22820673045E+02 -0.10017569706E+02  0.50528824974E+02  0.29999893990E+02 0.  0.
         12    1    1    2    0    0 -0.32125281210E+02  0.22820673045E+02  0.10017569706E+02  0.40659175026E+02  0.00000000000E+00 0. -1.
         11    1    3    3    0    0 -0.19799867132E+01 -0.30595852371E+00  0.50862081725E+01  0.54665777081E+01  0.51100000000E-03 0. -1.
        -11    1    3    3    0    0  0.17734750808E+02 -0.13975534501E+02 -0.13995515726E+02  0.26565229370E+02  0.51100000000E-03 0.  1.
         12    1    3    3    0    0  0.16370517115E+02 -0.85391800204E+01 -0.11082621526E+01  0.18497017895E+02  0.00000000000E+00 0. -1.
</event>
<event>
 7    1  0.3004200E-011  0.5052877E+02  0.7816164E-02  0.1300439E+00
        -11   -1    0    0    0    0  0.00000000000E+00  0.00000000000E+00  0.45593999997E+02  0.45594000000E+02  0.51100000000E-03 0. -1.
         11   -1    0    0    0    0 -0.00000000000E+00 -0.00000000000E+00 -0.45593999997E+02  0.45594000000E+02  0.51100000000E-03 0.  1.
    9900012    2    1    2    0    0  0.24902394823E+02 -0.29985177756E+02  0.11572928953E+02  0.50528771803E+02  0.29999732372E+02 0.  0.
         12    1    1    2    0    0 -0.24902394823E+02  0.29985177756E+02 -0.11572928953E+02  0.40659228197E+02  0.00000000000E+00 0. -1.
         11    1    3    3    0    0  0.68549835896E+01 -0.57743529271E+01  0.16730840201E+02  0.18980383711E+02  0.51100000000E-03 0. -1.
        -11    1    3    3    0    0  0.13024212972E+02 -0.11638835558E+02 -0.15383409557E+01  0.17534511964E+02  0.51100000000E-03 0.  1.
         12    1    3    3    0    0  0.50231982621E+01 -0.12571989272E+02 -0.36195702920E+01  0.14013876128E+02  0.00000000000E+00 0. -1.
</event>
<event>
 7    1  0.3004200E-011  0.5052886E+02  0.7816164E-02  0.1300439E+00
        -11   -1    0    0    0    0  0.00000000000E+00  0.00000000000E+00  0.45593999997E+02  0.45594000000E+02  0.51100000000E-03 0. -1.
         11   -1    0    0    0    0 -0.00000000000E+00 -0.00000000000E+00 -0.45593999997E+02  0.45594000000E+02  0.51100000000E-03 0.  1.
    9900012    2    1    2    0    0 -0.34797775237E+02 -0.18918516790E+02 -0.91853324942E+01  0.50528858691E+02  0.29999996476E+02 0.  0.
         12    1    1    2    0    0  0.34797775237E+02  0.18918516790E+02  0.91853324942E+01  0.40659141309E+02  0.00000000000E+00 0. -1.
         11    1    3    3    0    0 -0.11372395917E+02  0.53507728782E+01 -0.10090931446E+02  0.16117973105E+02  0.51100000000E-03 0. -1.
        -11    1    3    3    0    0 -0.15479622784E+02 -0.13871972653E+02 -0.23722633399E+01  0.20920754776E+02  0.51100000000E-03 0.  1.
        -12    1    3    3    0    0 -0.79457565362E+01 -0.10397317016E+02  0.32778622919E+01  0.13490130810E+02  0.00000000000E+00 0.  1.
</event>
<event>
 7    1  0.3004200E-011  0.5052886E+02  0.7816164E-02  0.1300439E+00
        -11   -1    0    0    0    0  0.00000000000E+00  0.00000000000E+00  0.45593999997E+02  0.45594000000E+02  0.51100000000E-03 0.  1.
         11   -1    0    0    0    0 -0.00000000000E+00 -0.00000000000E+00 -0.45593999997E+02  0.45594000000E+02  0.51100000000E-03 0. -1.
    9900012    2    1    2    0    0 -0.11164020830E+02 -0.17206392306E+02  0.35106557275E+02  0.50528860056E+02  0.30000000627E+02 0.  0.
         12    1    1    2    0    0  0.11164020830E+02  0.17206392306E+02 -0.35106557275E+02  0.40659139944E+02  0.00000000000E+00 0. -1.
         11    1    3    3    0    0  0.78259904019E+01 -0.67597210701E+01  0.21424192879E+02  0.23789409314E+02  0.51100000000E-03 0. -1.
        -11    1    3    3    0    0 -0.14224195391E+02 -0.63499129251E+01  0.57165975125E+01  0.16593029140E+02  0.51100000000E-03 0.  1.
         12    1    3    3    0    0 -0.47658158413E+01 -0.40967583103E+01  0.79657668830E+01  0.10146421602E+02  0.00000000000E+00 0. -1.
</event>
<event>
 7    1  0.3004200E-011  0.5052886E+02  0.7816164E-02  0.1300439E+00
        -11   -1    0    0    0    0  0.00000000000E+00  0.00000000000E+00  0.45593999997E+02  0.45594000000E+02  0.51100000000E-03 0. -1.
         11   -1    0    0    0    0 -0.00000000000E+00 -0.00000000000E+00 -0.45593999997E+02  0.45594000000E+02  0.51100000000E-03 0.  1.
    9900012    2    1    2    0    0 -0.71989626298E+01  0.50853354749E+01 -0.39692316721E+02  0.50528859497E+02  0.29999998926E+02 0.  0.
         12    1    1    2    0    0  0.71989626298E+01 -0.50853354749E+01  0.39692316721E+02  0.40659140503E+02  0.00000000000E+00 0. -1.
         11    1    3    3    0    0 -0.21342253446E+01  0.56424114011E+00 -0.10091703893E+01  0.24272847013E+01  0.51100000000E-03 0. -1.
        -11    1    3    3    0    0 -0.12843558841E+02  0.11379987110E+02 -0.30064301191E+02  0.34616806853E+02  0.51100000000E-03 0.  1.
        -12    1    3    3    0    0  0.77788215562E+01 -0.68588927750E+01 -0.86188451404E+01  0.13484767942E+02  0.00000000000E+00 0.  1.
</event>
<event>
 7    1  0.3004200E-011  0.5052886E+02  0.7816164E-02  0.1300439E+00
        -11   -1    0    0    0    0  0.00000000000E+00  0.00000000000E+00  0.45593999997E+02  0.45594000000E+02  0.51100000000E-03 0. -1.
         11   -1    0    0    0    0 -0.00000000000E+00 -0.00000000000E+00 -0.45593999997E+02  0.45594000000E+02  0.51100000000E-03 0.  1.
    9900012    2    1    2    0    0 -0.23694826826E+02  0.29846139025E+02  0.14174928404E+02  0.50528862918E+02  0.30000009326E+02 0.  0.
         12    1    1    2    0    0  0.23694826826E+02 -0.29846139025E+02 -0.14174928404E+02  0.40659137082E+02  0.00000000000E+00 0. -1.
         11    1    3    3    0    0 -0.56020560211E+01 -0.25130617631E+01  0.10325383240E+02  0.12012995064E+02  0.51100000000E-03 0. -1.
        -11    1    3    3    0    0 -0.28197690567E+01  0.10414752184E+02 -0.24124928670E+01  0.11056142305E+02  0.51100000000E-03 0.  1.
         12    1    3    3    0    0 -0.15273001748E+02  0.21944448604E+02  0.62620380308E+01  0.27459725549E+02  0.00000000000E+00 0. -1.
</event>
<event>
 7    1  0.3004200E-011  0.5052886E+02  0.7816164E-02  0.1300439E+00
        -11   -1    0    0    0    0  0.00000000000E+00  0.00000000000E+00  0.45593999997E+02  0.45594000000E+02  0.51100000000E-03 0.  1.
         11   -1    0    0    0    0 -0.00000000000E+00 -0.00000000000E+00 -0.45593999997E+02  0.45594000000E+02  0.51100000000E-03 0. -1.
    9900012    2    1    2    0    0  0.10663671512E+02 -0.18733564979E+02  0.34474710325E+02  0.50528855900E+02  0.29999987995E+02 0.  0.
         12    1    1    2    0    0 -0.10663671512E+02  0.18733564979E+02 -0.34474710325E+02  0.40659144100E+02  0.00000000000E+00 0. -1.
         11    1    3    3    0    0  0.13231414330E+02 -0.43685039047E+01  0.28653489194E+01  0.14225483339E+02  0.51100000000E-03 0. -1.
        -11    1    3    3    0    0  0.34591114944E+00 -0.93796898487E-01  0.11327374545E+02  0.11333043136E+02  0.51100000000E-03 0.  1.
         12    1    3    3    0    0 -0.29136539674E+01 -0.14271264176E+02  0.20281986861E+02  0.24970329426E+02  0.00000000000E+00 0. -1.
</event>
<event>
 7    1  0.3004200E-011  0.5052887E+02  0.7816164E-02  0.1300439E+00
        -11   -1    0    0    0    0  0.00000000000E+00  0.00000000000E+00  0.45593999997E+02  0.45594000000E+02  0.51100000000E-03 0.  1.
         11   -1    0    0    0    0 -0.00000000000E+00 -0.00000000000E+00 -0.45593999997E+02  0.45594000000E+02  0.51100000000E-03 0. -1.
    9900012    2    1    2    0    0  0.21173992852E+02 -0.12125322884E+02  0.32523885688E+02  0.50528873490E+02  0.30000041459E+02 0.  0.
         12    1    1    2    0    0 -0.21173992852E+02  0.12125322884E+02 -0.32523885688E+02  0.40659126510E+02  0.00000000000E+00 0. -1.
         11    1    3    3    0    0  0.24947470714E+02 -0.73547136865E+01  0.21033712947E+02  0.33449741241E+02  0.51100000000E-03 0.  1.
        -11    1    3    3    0    0 -0.35865780075E+01 -0.78293896178E+01  0.51422944856E+01  0.10030258044E+02  0.51100000000E-03 0. -1.
         12    1    3    3    0    0 -0.18689985483E+00  0.30587804201E+01  0.63478782551E+01  0.70488742049E+01  0.00000000000E+00 0. -1.
</event>
<event>
 7    1  0.3004200E-011  0.5052888E+02  0.7816164E-02  0.1300439E+00
        -11   -1    0    0    0    0  0.00000000000E+00  0.00000000000E+00  0.45593999997E+02  0.45594000000E+02  0.51100000000E-03 0.  1.
         11   -1    0    0    0    0 -0.00000000000E+00 -0.00000000000E+00 -0.45593999997E+02  0.45594000000E+02  0.51100000000E-03 0. -1.
    9900012    2    1    2    0    0  0.12004689854E+02 -0.38829453297E+02  0.11512189670E+01  0.50528876461E+02  0.30000050490E+02 0.  0.
         12    1    1    2    0    0 -0.12004689854E+02  0.38829453297E+02 -0.11512189670E+01  0.40659123539E+02  0.00000000000E+00 0. -1.
         11    1    3    3    0    0  0.11310493694E+02 -0.74562899886E+01  0.69777085182E+01  0.15238502040E+02  0.51100000000E-03 0. -1.
        -11    1    3    3    0    0  0.17554302688E+01 -0.32796516463E+02 -0.46757224133E+01  0.33174619935E+02  0.51100000000E-03 0.  1.
         12    1    3    3    0    0 -0.10612341090E+01  0.14233531537E+01 -0.11507671379E+01  0.21157544848E+01  0.00000000000E+00 0. -1.
</event>
<event>
 7    1  0.3004200E-011  0.5052888E+02  0.7816164E-02  0.1300439E+00
        -11   -1    0    0    0    0  0.00000000000E+00  0.00000000000E+00  0.45593999997E+02  0.45594000000E+02  0.51100000000E-03 0. -1.
         11   -1    0    0    0    0 -0.00000000000E+00 -0.00000000000E+00 -0.45593999997E+02  0.45594000000E+02  0.51100000000E-03 0.  1.
    9900012    2    1    2    0    0  0.40256206015E+02 -0.57051717807E+01 -0.23005600248E+00  0.50528880070E+02  0.30000061460E+02 0.  0.
         12    1    1    2    0    0 -0.40256206015E+02  0.57051717807E+01  0.23005600248E+00  0.40659119930E+02  0.00000000000E+00 0. -1.
         11    1    3    3    0    0  0.29508298383E+02 -0.36979532186E+01  0.57026673149E+01  0.30280933708E+02  0.51100000000E-03 0. -1.
        -11    1    3    3    0    0  0.62755463289E+01 -0.23555839888E+01 -0.11370139010E+02  0.13198913555E+02  0.51100000000E-03 0.  1.
        -12    1    3    3    0    0  0.44723613029E+01  0.34836542673E+00  0.54374156930E+01  0.70490328069E+01  0.00000000000E+00 0.  1.
</event>
<event>
 7    1  0.3004200E-011  0.5052882E+02  0.7816164E-02  0.1300439E+00
        -11   -1    0    0    0    0  0.00000000000E+00  0.00000000000E+00  0.45593999997E+02  0.45594000000E+02  0.51100000000E-03 0.  1.
         11   -1    0    0    0    0 -0.00000000000E+00 -0.00000000000E+00 -0.45593999997E+02  0.45594000000E+02  0.51100000000E-03 0. -1.
    9900012    2    1    2    0    0 -0.16973406000E+00  0.71256766256E+01  0.40029546609E+02  0.50528822945E+02  0.29999887824E+02 0.  0.
         12    1    1    2    0    0  0.16973406000E+00 -0.71256766256E+01 -0.40029546609E+02  0.40659177055E+02  0.00000000000E+00 0. -1.
         11    1    3    3    0    0  0.13488139310E+02  0.76591929360E+01  0.17093177491E+02  0.23081807890E+02  0.51100000000E-03 0. -1.
        -11    1    3    3    0    0 -0.49783908282E+01  0.13010204581E+01  0.13727605225E+02  0.14660292458E+02  0.51100000000E-03 0.  1.
         12    1    3    3    0    0 -0.86794825414E+01 -0.18345367686E+01  0.92087638931E+01  0.12786722597E+02  0.00000000000E+00 0. -1.
</event>
<event>
 7    1  0.3004200E-011  0.5052886E+02  0.7816164E-02  0.1300439E+00
        -11   -1    0    0    0    0  0.00000000000E+00  0.00000000000E+00  0.45593999997E+02  0.45594000000E+02  0.51100000000E-03 0.  1.
         11   -1    0    0    0    0 -0.00000000000E+00 -0.00000000000E+00 -0.45593999997E+02  0.45594000000E+02  0.51100000000E-03 0. -1.
    9900012    2    1    2    0    0  0.70167541850E+01  0.22040880020E+02  0.33438459145E+02  0.50528858576E+02  0.29999996128E+02 0.  0.
         12    1    1    2    0    0 -0.70167541850E+01 -0.22040880020E+02 -0.33438459145E+02  0.40659141424E+02  0.00000000000E+00 0. -1.
         11    1    3    3    0    0  0.10577163563E+02 -0.27372937956E+01  0.86881007850E+01  0.13958949168E+02  0.51100000000E-03 0. -1.
        -11    1    3    3    0    0 -0.24302953995E+01  0.58002624542E+01  0.13713715417E+01  0.64366171576E+01  0.51100000000E-03 0.  1.
         12    1    3    3    0    0 -0.11301139782E+01  0.18977911362E+02  0.23378986818E+02  0.30133292251E+02  0.00000000000E+00 0. -1.
</event>
<event>
 7    1  0.3004200E-011  0.5052885E+02  0.7816164E-02  0.1300439E+00
        -11   -1    0    0    0    0  0.00000000000E+00  0.00000000000E+00  0.45593999997E+02  0.45594000000E+02  0.51100000000E-03 0.  1.
         11   -1    0    0    0    0 -0.00000000000E+00 -0.00000000000E+00 -0.45593999997E+02  0.45594000000E+02  0.51100000000E-03 0. -1.
    9900012    2    1    2    0    0 -0.25791873153E+02  0.13567014739E+02  0.28352809099E+02  0.50528851049E+02  0.29999973247E+02 0.  0.
         12    1    1    2    0    0  0.25791873153E+02 -0.13567014739E+02 -0.28352809099E+02  0.40659148951E+02  0.00000000000E+00 0. -1.
         11    1    3    3    0    0 -0.73430685163E+00  0.15370896876E+02  0.82009651045E+01  0.17437302149E+02  0.51100000000E-03 0. -1.
        -11    1    3    3    0    0 -0.10558281964E+02 -0.32842233942E+01  0.52260010138E+01  0.12230066565E+02  0.51100000000E-03 0.  1.
         12    1    3    3    0    0 -0.14499284337E+02  0.14803412579E+01  0.14925842980E+02  0.20861482335E+02  0.00000000000E+00 0. -1.
</event>
<event>
 7    1  0.3004200E-011  0.5052885E+02  0.7816164E-02  0.1300439E+00
        -11   -1    0    0    0    0  0.00000000000E+00  0.00000000000E+00  0.45593999997E+02  0.45594000000E+02  0.51100000000E-03 0.  1.
         11   -1    0    0    0    0 -0.00000000000E+00 -0.00000000000E+00 -0.45593999997E+02  0.45594000000E+02  0.51100000000E-03 0. -1.
    9900012    2    1    2    0    0  0.29088063037E+02 -0.17523539759E+02  0.22360154023E+02  0.50528851646E+02  0.29999975063E+02 0.  0.
         12    1    1    2    0    0 -0.29088063037E+02  0.17523539759E+02 -0.22360154023E+02  0.40659148354E+02  0.00000000000E+00 0. -1.
         11    1    3    3    0    0  0.12902701407E+02  0.30422039212E+01 -0.56210336670E+00  0.13268408675E+02  0.51100000000E-03 0. -1.
        -11    1    3    3    0    0  0.64981475744E+01 -0.13725395797E+02  0.54305613029E+01  0.16127721724E+02  0.51100000000E-03 0.  1.
         12    1    3    3    0    0  0.96872140552E+01 -0.68403478833E+01  0.17491696087E+02  0.21132721247E+02  0.00000000000E+00 0. -1.
</event>
<event>
 7    1  0.3004200E-011  0.5052886E+02  0.7816164E-02  0.1300439E+00
        -11   -1    0    0    0    0  0.00000000000E+00  0.00000000000E+00  0.45593999997E+02  0.45594000000E+02  0.51100000000E-03 0.  1.
         11   -1    0    0    0    0 -0.00000000000E+00 -0.00000000000E+00 -0.45593999997E+02  0.45594000000E+02  0.51100000000E-03 0. -1.
    9900012    2    1    2    0    0 -0.11451109825E+02  0.37670914564E+02  0.10145923930E+02  0.50528862125E+02  0.30000006915E+02 0.  0.
         12    1    1    2    0    0  0.11451109825E+02 -0.37670914564E+02 -0.10145923930E+02  0.40659137875E+02  0.00000000000E+00 0. -1.
         11    1    3    3    0    0 -0.15762734247E+02  0.19790599645E+02  0.24242859084E+01  0.25416702927E+02  0.51100000000E-03 0. -1.
        -11    1    3    3    0    0  0.29861658633E+01  0.19035599331E+02  0.10409389371E+02  0.21900379352E+02  0.51100000000E-03 0.  1.
        -12    1    3    3    0    0  0.13254585586E+01 -0.11552844110E+01 -0.26877513495E+01  0.32117798458E+01  0.00000000000E+00 0.  1.
</event>
<event>
 7    1  0.3004200E-011  0.5052885E+02  0.7816164E-02  0.1300439E+00
        -11   -1    0    0    0    0  0.00000000000E+00  0.00000000000E+00  0.45593999997E+02  0.45594000000E+02  0.51100000000E-03 0. -1.
         11   -1    0    0    0    0 -0.00000000000E+00 -0.00000000000E+00 -0.45593999997E+02  0.45594000000E+02  0.51100000000E-03 0.  1.
    9900012    2    1    2    0    0  0.28728160567E+02 -0.21394720385E+02 -0.19238639414E+02  0.50528849536E+02  0.29999968650E+02 0.  0.
         12    1    1    2    0    0 -0.28728160567E+02  0.21394720385E+02  0.19238639414E+02  0.40659150464E+02  0.00000000000E+00 0. -1.
         11    1    3    3    0    0  0.76059518437E+01 -0.78753121617E+01  0.70831077220E+01  0.13039994646E+02  0.51100000000E-03 0. -1.
        -11    1    3    3    0    0  0.12859572169E+02 -0.28299918524E+01 -0.13647861623E+02  0.18964218344E+02  0.51100000000E-03 0.  1.
        -12    1    3    3    0    0  0.82626365549E+01 -0.10689416371E+02 -0.12673885513E+02  0.18524636547E+02  0.00000000000E+00 0.  1.
</event>
<event>
 7    1  0.3004200E-011  0.5052887E+02  0.7816164E-02  0.1300439E+00
        -11   -1    0    0    0    0  0.00000000000E+00  0.00000000000E+00  0.45593999997E+02  0.45594000000E+02  0.51100000000E-03 0. -1.
         11   -1    0    0    0    0 -0.00000000000E+00 -0.00000000000E+00 -0.45593999997E+02  0.45594000000E+02  0.51100000000E-03 0.  1.
    9900012    2    1    2    0    0 -0.96780217934E+00 -0.14957409254E+01 -0.40620085132E+02  0.50528865748E+02  0.30000017928E+02 0.  0.
         12    1    1    2    0    0  0.96780217934E+00  0.14957409254E+01  0.40620085132E+02  0.40659134252E+02  0.00000000000E+00 0. -1.
         11    1    3    3    0    0 -0.11020940842E+02  0.41950665327E-01 -0.39749673828E+01  0.11715940546E+02  0.51100000000E-03 0. -1.
        -11    1    3    3    0    0  0.84471948592E+01  0.20951434112E+01 -0.27448542037E+02  0.28795263276E+02  0.51100000000E-03 0.  1.
         12    1    3    3    0    0  0.16059438039E+01 -0.36328350020E+01 -0.91965757119E+01  0.10017661927E+02  0.00000000000E+00 0. -1.
</event>
<event>
 7    1  0.3004200E-011  0.5052884E+02  0.7816164E-02  0.1300439E+00
        -11   -1    0    0    0    0  0.00000000000E+00  0.00000000000E+00  0.45593999997E+02  0.45594000000E+02  0.51100000000E-03 0.  1.
         11   -1    0    0    0    0 -0.00000000000E+00 -0.00000000000E+00 -0.45593999997E+02  0.45594000000E+02  0.51100000000E-03 0. -1.
    9900012    2    1    2    0    0 -0.26142633325E+02 -0.95416273685E+01  0.29642662546E+02  0.50528839005E+02  0.29999936639E+02 0.  0.
         12    1    1    2    0    0  0.26142633325E+02  0.95416273685E+01 -0.29642662546E+02  0.40659160995E+02  0.00000000000E+00 0. -1.
         11    1    3    3    0    0  0.86009164605E+00 -0.55783420879E+01 -0.31575449631E+01  0.64674375562E+01  0.51100000000E-03 0. -1.
        -11    1    3    3    0    0 -0.62075792848E+01 -0.39360609257E+01  0.14936019548E+02  0.16646660217E+02  0.51100000000E-03 0.  1.
         12    1    3    3    0    0 -0.20795145686E+02 -0.27224354925E-01  0.17864187961E+02  0.27414741231E+02  0.00000000000E+00 0. -1.
</event>
<event>
 7    1  0.3004200E-011  0.5052886E+02  0.7816164E-02  0.1300439E+00
        -11   -1    0    0    0    0  0.00000000000E+00  0.00000000000E+00  0.45593999997E+02  0.45594000000E+02  0.51100000000E-03 0.  1.
         11   -1    0    0    0    0 -0.00000000000E+00 -0.00000000000E+00 -0.45593999997E+02  0.45594000000E+02  0.51100000000E-03 0. -1.
    9900012    2    1    2    0    0 -0.20217463910E+02  0.30872980777E+02  0.17066898647E+02  0.50528858120E+02  0.29999994740E+02 0.  0.
         12    1    1    2    0    0  0.20217463910E+02 -0.30872980777E+02 -0.17066898647E+02  0.40659141880E+02  0.00000000000E+00 0. -1.
         11    1    3    3    0    0 -0.11470990125E+02  0.67744335231E+01 -0.60321178976E+00  0.13335682537E+02  0.51100000000E-03 0. -1.
        -11    1    3    3    0    0  0.34664845568E+00  0.35606652389E+00  0.10861794098E+02  0.10873155926E+02  0.51100000000E-03 0.  1.
        -12    1    3    3    0    0 -0.90931222402E+01  0.23742480730E+02  0.68083163395E+01  0.26320019656E+02  0.00000000000E+00 0.  1.
</event>
<event>
 7    1  0.3004200E-011  0.5052886E+02  0.7816164E-02  0.1300439E+00
        -11   -1    0    0    0    0  0.00000000000E+00  0.00000000000E+00  0.45593999997E+02  0.45594000000E+02  0.51100000000E-03 0.  1.
         11   -1    0    0    0    0 -0.00000000000E+00 -0.00000000000E+00 -0.45593999997E+02  0.45594000000E+02  0.51100000000E-03 0. -1.
    9900012    2    1    2    0    0  0.12261924465E+02 -0.26535502357E+02  0.28260898550E+02  0.50528855103E+02  0.29999985571E+02 0.  0.
         12    1    1    2    0    0 -0.12261924465E+02  0.26535502357E+02 -0.28260898550E+02  0.40659144897E+02  0.00000000000E+00 0. -1.
         11    1    3    3    0    0  0.12370673417E+02  0.72097163240E+00  0.33873983608E+01  0.12846315767E+02  0.51100000000E-03 0. -1.
        -11    1    3    3    0    0  0.13691608755E+01 -0.23358408659E+02  0.17524673933E+02  0.29233611705E+02  0.51100000000E-03 0.  1.
         12    1    3    3    0    0 -0.14779098268E+01 -0.38980653304E+01  0.73488262554E+01  0.84489276307E+01  0.00000000000E+00 0. -1.
</event>
<event>
 7    1  0.3004200E-011  0.5052887E+02  0.7816164E-02  0.1300439E+00
        -11   -1    0    0    0    0  0.00000000000E+00  0.00000000000E+00  0.45593999997E+02  0.45594000000E+02  0.51100000000E-03 0.  1.
         11   -1    0    0    0    0 -0.00000000000E+00 -0.00000000000E+00 -0.45593999997E+02  0.45594000000E+02  0.51100000000E-03 0. -1.
    9900012    2    1    2    0    0  0.15296183729E+01  0.33222614844E+02  0.23389808456E+02  0.50528868074E+02  0.30000024996E+02 0.  0.
         12    1    1    2    0    0 -0.15296183729E+01 -0.33222614844E+02 -0.23389808456E+02  0.40659131926E+02  0.00000000000E+00 0. -1.
         11    1    3    3    0    0  0.73356080182E+01  0.13102746332E+02 -0.43486170995E+01  0.15633412212E+02  0.51100000000E-03 0. -1.
        -11    1    3    3    0    0 -0.24401284296E+01  0.64699723772E+01  0.69876079465E+01  0.98306375373E+01  0.51100000000E-03 0.  1.
         12    1    3    3    0    0 -0.33658612157E+01  0.13649896134E+02  0.20750817609E+02  0.25064818324E+02  0.00000000000E+00 0. -1.
</event>
<event>
 7    1  0.3004200E-011  0.5052888E+02  0.7816164E-02  0.1300439E+00
        -11   -1    0    0    0    0  0.00000000000E+00  0.00000000000E+00  0.45593999997E+02  0.45594000000E+02  0.51100000000E-03 0.  1.
         11   -1    0    0    0    0 -0.00000000000E+00 -0.00000000000E+00 -0.45593999997E+02  0.45594000000E+02  0.51100000000E-03 0. -1.
    9900012    2    1    2    0    0 -0.36025904834E+02  0.18167453203E+02  0.50241656816E+01  0.50528875369E+02  0.30000047172E+02 0.  0.
         12    1    1    2    0    0  0.36025904834E+02 -0.18167453203E+02 -0.50241656816E+01  0.40659124631E+02  0.00000000000E+00 0. -1.
         11    1    3    3    0    0 -0.22612092904E+02  0.38649462371E+01 -0.70721223047E+01  0.24005404997E+02  0.51100000000E-03 0. -1.
        -11    1    3    3    0    0 -0.55604274484E+01  0.52602864088E+01  0.12366711247E+02  0.14543882351E+02  0.51100000000E-03 0.  1.
        -12    1    3    3    0    0 -0.78533844811E+01  0.90422205567E+01 -0.27042326080E+00  0.11979588021E+02  0.00000000000E+00 0.  1.
</event>
<event>
 7    1  0.3004200E-011  0.5052886E+02  0.7816164E-02  0.1300439E+00
        -11   -1    0    0    0    0  0.00000000000E+00  0.00000000000E+00  0.45593999997E+02  0.45594000000E+02  0.51100000000E-03 0.  1.
         11   -1    0    0    0    0 -0.00000000000E+00 -0.00000000000E+00 -0.45593999997E+02  0.45594000000E+02  0.51100000000E-03 0. -1.
    9900012    2    1    2    0    0  0.24246590549E+02 -0.13539589972E+02  0.29697612488E+02  0.50528857887E+02  0.29999994034E+02 0.  0.
         12    1    1    2    0    0 -0.24246590549E+02  0.13539589972E+02 -0.29697612488E+02  0.40659142113E+02  0.00000000000E+00 0. -1.
         11    1    3    3    0    0 -0.32572497874E+01 -0.25225494619E+01  0.28206976925E-01  0.41199184288E+01  0.51100000000E-03 0. -1.
        -11    1    3    3    0    0  0.11774437501E+02 -0.19326438814E+01  0.24927267224E+02  0.27635866955E+02  0.51100000000E-03 0.  1.
        -12    1    3    3    0    0  0.15729402836E+02 -0.90843966292E+01  0.47421382867E+01  0.18773072503E+02  0.00000000000E+00 0.  1.
</event>
<event>
 7    1  0.3004200E-011  0.5052886E+02  0.7816164E-02  0.1300439E+00
        -11   -1    0    0    0    0  0.00000000000E+00  0.00000000000E+00  0.45593999997E+02  0.45594000000E+02  0.51100000000E-03 0.  1.
         11   -1    0    0    0    0 -0.00000000000E+00 -0.00000000000E+00 -0.45593999997E+02  0.45594000000E+02  0.51100000000E-03 0. -1.
    9900012    2    1    2    0    0 -0.32237371554E+01  0.38835579147E+02  0.11600459012E+02  0.50528864025E+02  0.30000012690E+02 0.  0.
         12    1    1    2    0    0  0.32237371554E+01 -0.38835579147E+02 -0.11600459012E+02  0.40659135975E+02  0.00000000000E+00 0. -1.
         11    1    3    3    0    0  0.26959816517E+01  0.65647243716E+01  0.14107254757E+02  0.15791724421E+02  0.51100000000E-03 0. -1.
        -11    1    3    3    0    0 -0.74240039850E+01  0.10717437423E+02 -0.71792394008E+00  0.13057362488E+02  0.51100000000E-03 0.  1.
         12    1    3    3    0    0  0.15042851779E+01  0.21553417353E+02 -0.17888718054E+01  0.21679777116E+02  0.00000000000E+00 0. -1.
</event>
<event>
 7    1  0.3004200E-011  0.5052886E+02  0.7816164E-02  0.1300439E+00
        -11   -1    0    0    0    0  0.00000000000E+00  0.00000000000E+00  0.45593999997E+02  0.45594000000E+02  0.51100000000E-03 0.  1.
         11   -1    0    0    0    0 -0.00000000000E+00 -0.00000000000E+00 -0.45593999997E+02  0.45594000000E+02  0.51100000000E-03 0. -1.
    9900012    2    1    2    0    0  0.32439955461E+02 -0.20546117040E+02  0.13366815003E+02  0.50528863523E+02  0.30000011164E+02 0.  0.
         12    1    1    2    0    0 -0.32439955461E+02  0.20546117040E+02 -0.13366815003E+02  0.40659136477E+02  0.00000000000E+00 0. -1.
         11    1    3    3    0    0  0.11879946834E+02 -0.18061234499E+01  0.15738706209E+02  0.19801567920E+02  0.51100000000E-03 0. -1.
        -11    1    3    3    0    0  0.20133426178E+02 -0.12465410073E+02  0.77956613103E+00  0.23692805270E+02  0.51100000000E-03 0.  1.
         12    1    3    3    0    0  0.42658245002E+00 -0.62745835175E+01 -0.31514573367E+01  0.70344903333E+01  0.00000000000E+00 0. -1.
</event>
<event>
 7    1  0.3004200E-011  0.5052886E+02  0.7816164E-02  0.1300439E+00
        -11   -1    0    0    0    0  0.00000000000E+00  0.00000000000E+00  0.45593999997E+02  0.45594000000E+02  0.51100000000E-03 0. -1.
         11   -1    0    0    0    0 -0.00000000000E+00 -0.00000000000E+00 -0.45593999997E+02  0.45594000000E+02  0.51100000000E-03 0.  1.
    9900012    2    1    2    0    0  0.35515943547E+02 -0.13575158659E+02 -0.14404815479E+02  0.50528857269E+02  0.29999992154E+02 0.  0.
         12    1    1    2    0    0 -0.35515943547E+02  0.13575158659E+02  0.14404815479E+02  0.40659142731E+02  0.00000000000E+00 0. -1.
         11    1    3    3    0    0 -0.14976931641E+01 -0.42341201871E+01 -0.75260608278E+01  0.87642712428E+01  0.51100000000E-03 0. -1.
        -11    1    3    3    0    0  0.36232288744E+02 -0.57372832447E+01 -0.86257542159E+01  0.37684198316E+02  0.51100000000E-03 0.  1.
        -12    1    3    3    0    0  0.78134796704E+00 -0.36037552277E+01  0.17469995644E+01  0.40803877101E+01  0.00000000000E+00 0.  1.
</event>
<event>
 7    1  0.3004200E-011  0.5052886E+02  0.7816164E-02  0.1300439E+00
        -11   -1    0    0    0    0  0.00000000000E+00  0.00000000000E+00  0.45593999997E+02  0.45594000000E+02  0.51100000000E-03 0. -1.
         11   -1    0    0    0    0 -0.00000000000E+00 -0.00000000000E+00 -0.45593999997E+02  0.45594000000E+02  0.51100000000E-03 0.  1.
    9900012    2    1    2    0    0 -0.24538268445E+02 -0.31779489397E+02 -0.64111818194E+01  0.50528858138E+02  0.29999994796E+02 0.  0.
         12    1    1    2    0    0  0.24538268445E+02  0.31779489397E+02  0.64111818194E+01  0.40659141862E+02  0.00000000000E+00 0. -1.
         11    1    3    3    0    0 -0.20201177866E+02 -0.17221114449E+02  0.68847342359E+01  0.27423601802E+02  0.51100000000E-03 0. -1.
        -11    1    3    3    0    0  0.35501418233E+01 -0.74674867526E+01 -0.63772482990E+01  0.10442038187E+02  0.51100000000E-03 0.  1.
         12    1    3    3    0    0 -0.78872324023E+01 -0.70908881958E+01 -0.69186677563E+01  0.12663218149E+02  0.00000000000E+00 0. -1.
</event>
<event>
 7    1  0.3004200E-011  0.5052886E+02  0.7816164E-02  0.1300439E+00
        -11   -1    0    0    0    0  0.00000000000E+00  0.00000000000E+00  0.45593999997E+02  0.45594000000E+02  0.51100000000E-03 0. -1.
         11   -1    0    0    0    0 -0.00000000000E+00 -0.00000000000E+00 -0.45593999997E+02  0.45594000000E+02  0.51100000000E-03 0.  1.
    9900012    2    1    2    0    0  0.18653802351E+02  0.21319902922E+02  0.29166133825E+02  0.50528856316E+02  0.29999989259E+02 0.  0.
         12    1    1    2    0    0 -0.18653802351E+02 -0.21319902922E+02 -0.29166133825E+02  0.40659143684E+02  0.00000000000E+00 0. -1.
         11    1    3    3    0    0  0.17174098314E+02  0.88857420845E+01  0.20063963655E+01  0.19440465322E+02  0.51100000000E-03 0.  1.
        -11    1    3    3    0    0  0.16821853841E+00  0.59442677239E+01  0.21719832603E+02  0.22519186149E+02  0.51100000000E-03 0. -1.
        -12    1    3    3    0    0  0.13114854991E+01  0.64898931133E+01  0.54399048573E+01  0.85692048460E+01  0.00000000000E+00 0.  1.
</event>
<event>
 7    1  0.3004200E-011  0.5052883E+02  0.7816164E-02  0.1300439E+00
        -11   -1    0    0    0    0  0.00000000000E+00  0.00000000000E+00  0.45593999997E+02  0.45594000000E+02  0.51100000000E-03 0. -1.
         11   -1    0    0    0    0 -0.00000000000E+00 -0.00000000000E+00 -0.45593999997E+02  0.45594000000E+02  0.51100000000E-03 0.  1.
    9900012    2    1    2    0    0 -0.17406551774E+02  0.16542542768E+02 -0.32810433208E+02  0.50528827687E+02  0.29999902237E+02 0.  0.
         12    1    1    2    0    0  0.17406551774E+02 -0.16542542768E+02  0.32810433208E+02  0.40659172313E+02  0.00000000000E+00 0. -1.
         11    1    3    3    0    0  0.10038496338E+00  0.11005810930E+02 -0.56701227932E+01  0.12380962972E+02  0.51100000000E-03 0. -1.
        -11    1    3    3    0    0 -0.11300943082E+02  0.52604502502E+01 -0.29080723793E+02  0.31639724208E+02  0.51100000000E-03 0.  1.
        -12    1    3    3    0    0 -0.62059936560E+01  0.27628158731E+00  0.19404133781E+01  0.65081405064E+01  0.00000000000E+00 0.  1.
</event>
<event>
 7    1  0.3004200E-011  0.5052887E+02  0.7816164E-02  0.1300439E+00
        -11   -1    0    0    0    0  0.00000000000E+00  0.00000000000E+00  0.45593999997E+02  0.45594000000E+02  0.51100000000E-03 0. -1.
         11   -1    0    0    0    0 -0.00000000000E+00 -0.00000000000E+00 -0.45593999997E+02  0.45594000000E+02  0.51100000000E-03 0.  1.
    9900012    2    1    2    0    0 -0.33806429230E+02  0.20762846154E+02 -0.88991206420E+01  0.50528870817E+02  0.30000033336E+02 0.  0.
         12    1    1    2    0    0  0.33806429230E+02 -0.20762846154E+02  0.88991206420E+01  0.40659129183E+02  0.00000000000E+00 0. -1.
         11    1    3    3    0    0 -0.23535510467E+02  0.15657591758E+02  0.68779103615E+01  0.29092715305E+02  0.51100000000E-03 0. -1.
        -11    1    3    3    0    0 -0.66160310868E+01 -0.15506781682E+01 -0.88495577556E+01  0.11157559897E+02  0.51100000000E-03 0.  1.
         12    1    3    3    0    0 -0.36548876757E+01  0.66559325643E+01 -0.69274732478E+01  0.10278595615E+02  0.00000000000E+00 0. -1.
</event>
<event>
 7    1  0.3004200E-011  0.5052887E+02  0.7816164E-02  0.1300439E+00
        -11   -1    0    0    0    0  0.00000000000E+00  0.00000000000E+00  0.45593999997E+02  0.45594000000E+02  0.51100000000E-03 0.  1.
         11   -1    0    0    0    0 -0.00000000000E+00 -0.00000000000E+00 -0.45593999997E+02  0.45594000000E+02  0.51100000000E-03 0. -1.
    9900012    2    1    2    0    0  0.91030632123E+01 -0.21422986392E+02  0.33336992900E+02  0.50528865708E+02  0.30000017805E+02 0.  0.
         12    1    1    2    0    0 -0.91030632123E+01  0.21422986392E+02 -0.33336992900E+02  0.40659134292E+02  0.00000000000E+00 0. -1.
         11    1    3    3    0    0  0.58781244349E+01  0.23892284014E+01 -0.20165808520E+01  0.66578793786E+01  0.51100000000E-03 0. -1.
        -11    1    3    3    0    0  0.66016183811E+01 -0.18461332760E+02  0.25610101740E+02  0.32253363917E+02  0.51100000000E-03 0.  1.
         12    1    3    3    0    0 -0.33766796037E+01 -0.53508820333E+01  0.97434720116E+01  0.11617622413E+02  0.00000000000E+00 0. -1.
</event>
<event>
 7    1  0.3004200E-011  0.5052887E+02  0.7816164E-02  0.1300439E+00
        -11   -1    0    0    0    0  0.00000000000E+00  0.00000000000E+00  0.45593999997E+02  0.45594000000E+02  0.51100000000E-03 0.  1.
         11   -1    0    0    0    0 -0.00000000000E+00 -0.00000000000E+00 -0.45593999997E+02  0.45594000000E+02  0.51100000000E-03 0. -1.
    9900012    2    1    2    0    0 -0.11227006988E+02 -0.56113393942E+01  0.38673399052E+02  0.50528872981E+02  0.30000039912E+02 0.  0.
         12    1    1    2    0    0  0.11227006988E+02  0.56113393942E+01 -0.38673399052E+02  0.40659127019E+02  0.00000000000E+00 0. -1.
         11    1    3    3    0    0  0.81111440400E+00 -0.44798080703E+01  0.12341020848E+01  0.47169476508E+01  0.51100000000E-03 0. -1.
        -11    1    3    3    0    0 -0.18819092767E+02  0.18427243149E+01  0.25170857058E+02  0.31482152575E+02  0.51100000000E-03 0.  1.
        -12    1    3    3    0    0  0.67809713746E+01 -0.29742556388E+01  0.12268439910E+02  0.14329772755E+02  0.00000000000E+00 0.  1.
</event>
<event>
 7    1  0.3004200E-011  0.5052886E+02  0.7816164E-02  0.1300439E+00
        -11   -1    0    0    0    0  0.00000000000E+00  0.00000000000E+00  0.45593999997E+02  0.45594000000E+02  0.51100000000E-03 0.  1.
         11   -1    0    0    0    0 -0.00000000000E+00 -0.00000000000E+00 -0.45593999997E+02  0.45594000000E+02  0.51100000000E-03 0. -1.
    9900012    2    1    2    0    0  0.91337086612E+01 -0.79858966980E+01  0.38806780134E+02  0.50528863704E+02  0.30000011715E+02 0.  0.
         12    1    1    2    0    0 -0.91337086612E+01  0.79858966980E+01 -0.38806780134E+02  0.40659136296E+02  0.00000000000E+00 0. -1.
         11    1    3    3    0    0  0.99878889432E+01 -0.10020385684E+02  0.13029361541E+02  0.19233572659E+02  0.51100000000E-03 0. -1.
        -11    1    3    3    0    0 -0.54356243490E+01  0.57690793911E+01  0.42964868792E+01  0.90159907303E+01  0.51100000000E-03 0.  1.
        -12    1    3    3    0    0  0.45814440670E+01 -0.37345904049E+01  0.21480931713E+02  0.22279300314E+02  0.00000000000E+00 0.  1.
</event>
<event>
 7    1  0.3004200E-011  0.5052886E+02  0.7816164E-02  0.1300439E+00
        -11   -1    0    0    0    0  0.00000000000E+00  0.00000000000E+00  0.45593999997E+02  0.45594000000E+02  0.51100000000E-03 0.  1.
         11   -1    0    0    0    0 -0.00000000000E+00 -0.00000000000E+00 -0.45593999997E+02  0.45594000000E+02  0.51100000000E-03 0. -1.
    9900012    2    1    2    0    0 -0.11598210452E+02 -0.30280920527E+02  0.24529837808E+02  0.50528861095E+02  0.30000003783E+02 0.  0.
         12    1    1    2    0    0  0.11598210452E+02  0.30280920527E+02 -0.24529837808E+02  0.40659138905E+02  0.00000000000E+00 0. -1.
         11    1    3    3    0    0 -0.38673734096E+01  0.44783279201E+00 -0.40324190359E+01  0.56051346853E+01  0.51100000000E-03 0. -1.
        -11    1    3    3    0    0 -0.96410564747E+01 -0.29161471788E+02  0.21634486377E+02  0.37568502869E+02  0.51100000000E-03 0.  1.
        -12    1    3    3    0    0  0.19102194322E+01 -0.15672815303E+01  0.69277704673E+01  0.73552235400E+01  0.00000000000E+00 0.  1.
</event>
<event>
 7    1  0.3004200E-011  0.5052886E+02  0.7816164E-02  0.1300439E+00
        -11   -1    0    0    0    0  0.00000000000E+00  0.00000000000E+00  0.45593999997E+02  0.45594000000E+02  0.51100000000E-03 0.  1.
         11   -1    0    0    0    0 -0.00000000000E+00 -0.00000000000E+00 -0.45593999997E+02  0.45594000000E+02  0.51100000000E-03 0. -1.
    9900012    2    1    2    0    0  0.27993879433E+02  0.23983620780E+01  0.29389728604E+02  0.50528861128E+02  0.30000003885E+02 0.  0.
         12    1    1    2    0    0 -0.27993879433E+02 -0.23983620780E+01 -0.29389728604E+02  0.40659138872E+02  0.00000000000E+00 0. -1.
         11    1    3    3    0    0  0.22462820073E+01  0.90774574350E+01  0.77233091657E+01  0.12128294236E+02  0.51100000000E-03 0. -1.
        -11    1    3    3    0    0  0.17477033157E+02 -0.11798339871E+02  0.18825624184E+02  0.28267501443E+02  0.51100000000E-03 0.  1.
        -12    1    3    3    0    0  0.82705642687E+01  0.51192445135E+01  0.28407952544E+01  0.10133065449E+02  0.00000000000E+00 0.  1.
</event>
<event>
 7    1  0.3004200E-011  0.5052885E+02  0.7816164E-02  0.1300439E+00
        -11   -1    0    0    0    0  0.00000000000E+00  0.00000000000E+00  0.45593999997E+02  0.45594000000E+02  0.51100000000E-03 0. -1.
         11   -1    0    0    0    0 -0.00000000000E+00 -0.00000000000E+00 -0.45593999997E+02  0.45594000000E+02  0.51100000000E-03 0.  1.
    9900012    2    1    2    0    0  0.15651343986E+02  0.27362995135E+02 -0.25680112409E+02  0.50528852878E+02  0.29999978809E+02 0.  0.
         12    1    1    2    0    0 -0.15651343986E+02 -0.27362995135E+02  0.25680112409E+02  0.40659147122E+02  0.00000000000E+00 0. -1.
         11    1    3    3    0    0  0.21394731493E+02  0.25176001242E+02 -0.12429892163E+02  0.35299685461E+02  0.51100000000E-03 0. -1.
        -11    1    3    3    0    0 -0.66447121149E+00  0.16527648421E+01 -0.66467835822E+01  0.68813433183E+01  0.51100000000E-03 0.  1.
         12    1    3    3    0    0 -0.50789162957E+01  0.53422905097E+00 -0.66034366637E+01  0.83478240991E+01  0.00000000000E+00 0. -1.
</event>
<event>
 7    1  0.3004200E-011  0.5052886E+02  0.7816164E-02  0.1300439E+00
        -11   -1    0    0    0    0  0.00000000000E+00  0.00000000000E+00  0.45593999997E+02  0.45594000000E+02  0.51100000000E-03 0. -1.
         11   -1    0    0    0    0 -0.00000000000E+00 -0.00000000000E+00 -0.45593999997E+02  0.45594000000E+02  0.51100000000E-03 0.  1.
    9900012    2    1    2    0    0 -0.13689249784E+01 -0.25819406322E+02 -0.31379135962E+02  0.50528857459E+02  0.29999992732E+02 0.  0.
         12    1    1    2    0    0  0.13689249784E+01  0.25819406322E+02  0.31379135962E+02  0.40659142541E+02  0.00000000000E+00 0. -1.
         11    1    3    3    0    0 -0.11246104018E+01 -0.42086234391E+00  0.41755084312E+01  0.43447375742E+01  0.51100000000E-03 0. -1.
        -11    1    3    3    0    0 -0.37451920074E+00 -0.19060743615E+02 -0.34956026716E+02  0.39816780580E+02  0.51100000000E-03 0.  1.
        -12    1    3    3    0    0  0.13020462412E+00 -0.63378003636E+01 -0.59861767775E+00  0.63673393044E+01  0.00000000000E+00 0.  1.
</event>
<event>
 7    1  0.3004200E-011  0.5052884E+02  0.7816164E-02  0.1300439E+00
        -11   -1    0    0    0    0  0.00000000000E+00  0.00000000000E+00  0.45593999997E+02  0.45594000000E+02  0.51100000000E-03 0.  1.
         11   -1    0    0    0    0 -0.00000000000E+00 -0.00000000000E+00 -0.45593999997E+02  0.45594000000E+02  0.51100000000E-03 0. -1.
    9900012    2    1    2    0    0  0.93598816724E+00  0.26139302271E+02  0.31129211899E+02  0.50528843214E+02  0.29999949434E+02 0.  0.
         12    1    1    2    0    0 -0.93598816724E+00 -0.26139302271E+02 -0.31129211899E+02  0.40659156786E+02  0.00000000000E+00 0. -1.
         11    1    3    3    0    0 -0.59860240502E+01  0.90028828044E+01  0.38469529859E+01  0.11475340093E+02  0.51100000000E-03 0. -1.
        -11    1    3    3    0    0  0.12722252935E+02  0.17800169681E+02  0.19377105698E+02  0.29226255079E+02  0.51100000000E-03 0.  1.
        -12    1    3    3    0    0 -0.58002407176E+01 -0.66375021491E+00  0.79051532154E+01  0.98272480425E+01  0.00000000000E+00 0.  1.
</event>
<event>
 7    1  0.3004200E-011  0.5052886E+02  0.7816164E-02  0.1300439E+00
        -11   -1    0    0    0    0  0.00000000000E+00  0.00000000000E+00  0.45593999997E+02  0.45594000000E+02  0.51100000000E-03 0.  1.
         11   -1    0    0    0    0 -0.00000000000E+00 -0.00000000000E+00 -0.45593999997E+02  0.45594000000E+02  0.51100000000E-03 0. -1.
    9900012    2    1    2    0    0 -0.14679763734E+02 -0.36723469912E+02 -0.94370069318E+01  0.50528858280E+02  0.29999995226E+02 0.  0.
         12    1    1    2    0    0  0.14679763734E+02  0.36723469912E+02  0.94370069318E+01  0.40659141720E+02  0.00000000000E+00 0. -1.
         11    1    3    3    0    0 -0.20271069870E+01  0.28137795410E+01  0.22338740109E+01  0.41251316828E+01  0.51100000000E-03 0. -1.
        -11    1    3    3    0    0 -0.10772944892E+02 -0.37679378267E+02 -0.53501557201E+01  0.39552699715E+02  0.51100000000E-03 0.  1.
        -12    1    3    3    0    0 -0.18797118544E+01 -0.18578711856E+01 -0.63207252226E+01  0.68510268820E+01  0.00000000000E+00 0.  1.
</event>
<event>
 7    1  0.3004200E-011  0.5052886E+02  0.7816164E-02  0.1300439E+00
        -11   -1    0    0    0    0  0.00000000000E+00  0.00000000000E+00  0.45593999997E+02  0.45594000000E+02  0.51100000000E-03 0. -1.
         11   -1    0    0    0    0 -0.00000000000E+00 -0.00000000000E+00 -0.45593999997E+02  0.45594000000E+02  0.51100000000E-03 0.  1.
    9900012    2    1    2    0    0 -0.29013854177E+02 -0.27781400726E+02  0.62893205548E+01  0.50528861869E+02  0.30000006138E+02 0.  0.
         12    1    1    2    0    0  0.29013854177E+02  0.27781400726E+02 -0.62893205548E+01  0.40659138131E+02  0.00000000000E+00 0. -1.
         11    1    3    3    0    0  0.12386150819E+01  0.65507514668E+00 -0.76678418360E+00  0.15972629759E+01  0.51100000000E-03 0. -1.
        -11    1    3    3    0    0 -0.34186565821E+02 -0.21458051205E+02  0.50877556579E+01  0.40682361068E+02  0.51100000000E-03 0.  1.
        -12    1    3    3    0    0  0.39340965623E+01 -0.69784246679E+01  0.19683490804E+01  0.82492378260E+01  0.00000000000E+00 0.  1.
</event>
<event>
 7    1  0.3004200E-011  0.5052887E+02  0.7816164E-02  0.1300439E+00
        -11   -1    0    0    0    0  0.00000000000E+00  0.00000000000E+00  0.45593999997E+02  0.45594000000E+02  0.51100000000E-03 0.  1.
         11   -1    0    0    0    0 -0.00000000000E+00 -0.00000000000E+00 -0.45593999997E+02  0.45594000000E+02  0.51100000000E-03 0. -1.
    9900012    2    1    2    0    0  0.21562084114E+02  0.15296588848E+02  0.30891025482E+02  0.50528873632E+02  0.30000041892E+02 0.  0.
         12    1    1    2    0    0 -0.21562084114E+02 -0.15296588848E+02 -0.30891025482E+02  0.40659126368E+02  0.00000000000E+00 0. -1.
         11    1    3    3    0    0  0.69892033402E+01  0.17691888923E+02  0.25438793952E+02  0.31764510621E+02  0.51100000000E-03 0. -1.
        -11    1    3    3    0    0  0.10473606301E+02 -0.54179487872E+01  0.66422151917E+01  0.13534017176E+02  0.51100000000E-03 0.  1.
        -12    1    3    3    0    0  0.40992744720E+01  0.30226487118E+01 -0.11899836624E+01  0.52303458345E+01  0.00000000000E+00 0.  1.
</event>
<event>
 7    1  0.3004200E-011  0.5052883E+02  0.7816164E-02  0.1300439E+00
        -11   -1    0    0    0    0  0.00000000000E+00  0.00000000000E+00  0.45593999997E+02  0.45594000000E+02  0.51100000000E-03 0.  1.
         11   -1    0    0    0    0 -0.00000000000E+00 -0.00000000000E+00 -0.45593999997E+02  0.45594000000E+02  0.51100000000E-03 0. -1.
    9900012    2    1    2    0    0  0.13652221319E+02 -0.14900782115E+02  0.35281032546E+02  0.50528834833E+02  0.29999923958E+02 0.  0.
         12    1    1    2    0    0 -0.13652221319E+02  0.14900782115E+02 -0.35281032546E+02  0.40659165167E+02  0.00000000000E+00 0. -1.
         11    1    3    3    0    0 -0.87129937405E+01 -0.77016217828E+01  0.17243894336E+02  0.20798632891E+02  0.51100000000E-03 0. -1.
        -11    1    3    3    0    0  0.12744844918E+02 -0.50376040189E+01  0.93608356810E+01  0.16596197491E+02  0.51100000000E-03 0.  1.
         12    1    3    3    0    0  0.96203701415E+01 -0.21615563131E+01  0.86763025288E+01  0.13134004451E+02  0.00000000000E+00 0. -1.
</event>
<event>
 7    1  0.3004200E-011  0.5052885E+02  0.7816164E-02  0.1300439E+00
        -11   -1    0    0    0    0  0.00000000000E+00  0.00000000000E+00  0.45593999997E+02  0.45594000000E+02  0.51100000000E-03 0.  1.
         11   -1    0    0    0    0 -0.00000000000E+00 -0.00000000000E+00 -0.45593999997E+02  0.45594000000E+02  0.51100000000E-03 0. -1.
    9900012    2    1    2    0    0  0.97928946234E+01 -0.16029197000E+02  0.36060093605E+02  0.50528852291E+02  0.29999977024E+02 0.  0.
         12    1    1    2    0    0 -0.97928946234E+01  0.16029197000E+02 -0.36060093605E+02  0.40659147709E+02  0.00000000000E+00 0. -1.
         11    1    3    3    0    0 -0.42747441157E+01 -0.11455188567E+02  0.16915951261E+02  0.20872091168E+02  0.51100000000E-03 0. -1.
        -11    1    3    3    0    0  0.64842461821E+01  0.49910384639E+01  0.16860193977E+01  0.83545541574E+01  0.51100000000E-03 0.  1.
        -12    1    3    3    0    0  0.75833925570E+01 -0.95650468969E+01  0.17458122947E+02  0.21302206966E+02  0.00000000000E+00 0.  1.
</event>
<event>
 7    1  0.3004200E-011  0.5052886E+02  0.7816164E-02  0.1300439E+00
        -11   -1    0    0    0    0  0.00000000000E+00  0.00000000000E+00  0.45593999997E+02  0.45594000000E+02  0.51100000000E-03 0. -1.
         11   -1    0    0    0    0 -0.00000000000E+00 -0.00000000000E+00 -0.45593999997E+02  0.45594000000E+02  0.51100000000E-03 0.  1.
    9900012    2    1    2    0    0  0.28354980891E+02 -0.12862813772E+02  0.26147817508E+02  0.50528864742E+02  0.30000014871E+02 0.  0.
         12    1    1    2    0    0 -0.28354980891E+02  0.12862813772E+02 -0.26147817508E+02  0.40659135258E+02  0.00000000000E+00 0. -1.
         11    1    3    3    0    0 -0.32821061333E+01 -0.42788127436E+00  0.72921009209E+01  0.80081233231E+01  0.51100000000E-03 0. -1.
        -11    1    3    3    0    0  0.27738549030E+02 -0.86717469558E+01  0.21822254019E+02  0.36343322197E+02  0.51100000000E-03 0.  1.
        -12    1    3    3    0    0  0.38985379943E+01 -0.37631855418E+01 -0.29665374320E+01  0.61774192225E+01  0.00000000000E+00 0.  1.
</event>
<event>
 7    1  0.3004200E-011  0.5052885E+02  0.7816164E-02  0.1300439E+00
        -11   -1    0    0    0    0  0.00000000000E+00  0.00000000000E+00  0.45593999997E+02  0.45594000000E+02  0.51100000000E-03 0.  1.
         11   -1    0    0    0    0 -0.00000000000E+00 -0.00000000000E+00 -0.45593999997E+02  0.45594000000E+02  0.51100000000E-03 0. -1.
    9900012    2    1    2    0    0  0.34839901999E+02 -0.16761028194E+02  0.12586317010E+02  0.50528853264E+02  0.29999979981E+02 0.  0.
         12    1    1    2    0    0 -0.34839901999E+02  0.16761028194E+02 -0.12586317010E+02  0.40659146736E+02  0.00000000000E+00 0. -1.
         11    1    3    3    0    0  0.10070872600E+02  0.83876869086E+01  0.43933376825E+00  0.13113686783E+02  0.51100000000E-03 0. -1.
        -11    1    3    3    0    0  0.69804353336E+01 -0.57277607630E+01  0.25238329582E+01  0.93756841813E+01  0.51100000000E-03 0.  1.
         12    1    3    3    0    0  0.17788594065E+02 -0.19420954340E+02  0.96231502840E+01  0.28039482300E+02  0.00000000000E+00 0. -1.
</event>
<event>
 7    1  0.3004200E-011  0.5052887E+02  0.7816164E-02  0.1300439E+00
        -11   -1    0    0    0    0  0.00000000000E+00  0.00000000000E+00  0.45593999997E+02  0.45594000000E+02  0.51100000000E-03 0. -1.
         11   -1    0    0    0    0 -0.00000000000E+00 -0.00000000000E+00 -0.45593999997E+02  0.45594000000E+02  0.51100000000E-03 0.  1.
    9900012    2    1    2    0    0  0.14176158719E+02  0.10775484888E+02 -0.36552573359E+02  0.50528866097E+02  0.30000018988E+02 0.  0.
         12    1    1    2    0    0 -0.14176158719E+02 -0.10775484888E+02  0.36552573359E+02  0.40659133903E+02  0.00000000000E+00 0. -1.
         11    1    3    3    0    0  0.86154975668E+01  0.60862322718E+01 -0.13462768727E+02  0.17103074684E+02  0.51100000000E-03 0. -1.
        -11    1    3    3    0    0 -0.90666194089E+01  0.15870160478E+01 -0.93116136259E+01  0.13093065188E+02  0.51100000000E-03 0.  1.
        -12    1    3    3    0    0  0.14627280561E+02  0.31022365685E+01 -0.13778191006E+02  0.20332726225E+02  0.00000000000E+00 0.  1.
</event>
<event>
 7    1  0.3004200E-011  0.5052887E+02  0.7816164E-02  0.1300439E+00
        -11   -1    0    0    0    0  0.00000000000E+00  0.00000000000E+00  0.45593999997E+02  0.45594000000E+02  0.51100000000E-03 0. -1.
         11   -1    0    0    0    0 -0.00000000000E+00 -0.00000000000E+00 -0.45593999997E+02  0.45594000000E+02  0.51100000000E-03 0.  1.
    9900012    2    1    2    0    0  0.30439704187E+02 -0.26326146693E+02  0.57899195059E+01  0.50528871153E+02  0.30000034358E+02 0.  0.
         12    1    1    2    0    0 -0.30439704187E+02  0.26326146693E+02 -0.57899195059E+01  0.40659128847E+02  0.00000000000E+00 0. -1.
         11    1    3    3    0    0 -0.84944519995E+00  0.31889064858E+01 -0.14938229395E+01  0.36224562052E+01  0.51100000000E-03 0. -1.
        -11    1    3    3    0    0  0.21746329773E+02 -0.14210587852E+02  0.11460213916E+02  0.28393312046E+02  0.51100000000E-03 0.  1.
        -12    1    3    3    0    0  0.95428196140E+01 -0.15304465327E+02 -0.41764714704E+01  0.18513102903E+02  0.00000000000E+00 0.  1.
</event>
<event>
 7    1  0.3004200E-011  0.5052884E+02  0.7816164E-02  0.1300439E+00
        -11   -1    0    0    0    0  0.00000000000E+00  0.00000000000E+00  0.45593999997E+02  0.45594000000E+02  0.51100000000E-03 0.  1.
         11   -1    0    0    0    0 -0.00000000000E+00 -0.00000000000E+00 -0.45593999997E+02  0.45594000000E+02  0.51100000000E-03 0. -1.
    9900012    2    1    2    0    0  0.96740754169E+01  0.31451488603E+02  0.23882701538E+02  0.50528839860E+02  0.29999939239E+02 0.  0.
         12    1    1    2    0    0 -0.96740754169E+01 -0.31451488603E+02 -0.23882701538E+02  0.40659160140E+02  0.00000000000E+00 0. -1.
         11    1    3    3    0    0  0.19667564751E+01  0.30195960775E+01 -0.13942903946E+01  0.38639536060E+01  0.51100000000E-03 0. -1.
        -11    1    3    3    0    0  0.68258832187E+01  0.25475873500E+02  0.30670801633E+02  0.40451339723E+02  0.51100000000E-03 0.  1.
        -12    1    3    3    0    0  0.88143572300E+00  0.29560190256E+01 -0.53938097006E+01  0.62135465315E+01  0.00000000000E+00 0.  1.
</event>
<event>
 7    1  0.3004200E-011  0.5052887E+02  0.7816164E-02  0.1300439E+00
        -11   -1    0    0    0    0  0.00000000000E+00  0.00000000000E+00  0.45593999997E+02  0.45594000000E+02  0.51100000000E-03 0.  1.
         11   -1    0    0    0    0 -0.00000000000E+00 -0.00000000000E+00 -0.45593999997E+02  0.45594000000E+02  0.51100000000E-03 0. -1.
    9900012    2    1    2    0    0 -0.28778090775E+00 -0.26320475002E+02  0.30988942545E+02  0.50528870863E+02  0.30000033474E+02 0.  0.
         12    1    1    2    0    0  0.28778090775E+00  0.26320475002E+02 -0.30988942545E+02  0.40659129137E+02  0.00000000000E+00 0. -1.
         11    1    3    3    0    0 -0.11711569275E+02 -0.48601710208E+01  0.50162594870E+01  0.13636164297E+02  0.51100000000E-03 0. -1.
        -11    1    3    3    0    0  0.91506113492E+01 -0.71526358828E+01  0.99716729023E+01  0.15307780664E+02  0.51100000000E-03 0.  1.
        -12    1    3    3    0    0  0.22731770180E+01 -0.14307668098E+02  0.16001010155E+02  0.21584925901E+02  0.00000000000E+00 0.  1.
</event>
<event>
 7    1  0.3004200E-011  0.5052886E+02  0.7816164E-02  0.1300439E+00
        -11   -1    0    0    0    0  0.00000000000E+00  0.00000000000E+00  0.45593999997E+02  0.45594000000E+02  0.51100000000E-03 0. -1.
         11   -1    0    0    0    0 -0.00000000000E+00 -0.00000000000E+00 -0.45593999997E+02  0.45594000000E+02  0.51100000000E-03 0.  1.
    9900012    2    1    2    0    0  0.25479406417E+02 -0.45760268047E+01 -0.31353232192E+02  0.50528863984E+02  0.30000012565E+02 0.  0.
         12    1    1    2    0    0 -0.25479406417E+02  0.45760268047E+01  0.31353232192E+02  0.40659136016E+02  0.00000000000E+00 0. -1.
         11    1    3    3    0    0  0.21448882619E+02  0.71363698892E+00 -0.12218371924E+02  0.24695190951E+02  0.51100000000E-03 0. -1.
        -11    1    3    3    0    0  0.42960014235E+01 -0.75666133669E+01 -0.21094044207E+02  0.22818149955E+02  0.51100000000E-03 0.  1.
        -12    1    3    3    0    0 -0.26547762452E+00  0.22769495733E+01  0.19591839395E+01  0.30155230785E+01  0.00000000000E+00 0.  1.
</event>
<event>
 7    1  0.3004200E-011  0.5052885E+02  0.7816164E-02  0.1300439E+00
        -11   -1    0    0    0    0  0.00000000000E+00  0.00000000000E+00  0.45593999997E+02  0.45594000000E+02  0.51100000000E-03 0.  1.
         11   -1    0    0    0    0 -0.00000000000E+00 -0.00000000000E+00 -0.45593999997E+02  0.45594000000E+02  0.51100000000E-03 0. -1.
    9900012    2    1    2    0    0  0.24547688381E+02  0.22194349517E+02  0.23621772218E+02  0.50528852468E+02  0.29999977562E+02 0.  0.
         12    1    1    2    0    0 -0.24547688381E+02 -0.22194349517E+02 -0.23621772218E+02  0.40659147532E+02  0.00000000000E+00 0. -1.
         11    1    3    3    0    0  0.45018273597E+01  0.81846527262E+01  0.20774542986E+02  0.22777985564E+02  0.51100000000E-03 0.  1.
        -11    1    3    3    0    0  0.19612347502E+02  0.10596317299E+02  0.59987926107E+01  0.23084878772E+02  0.51100000000E-03 0. -1.
         12    1    3    3    0    0  0.43351351848E+00  0.34133794911E+01 -0.31515633787E+01  0.46659881323E+01  0.00000000000E+00 0. -1.
</event>
<event>
 7    1  0.3004200E-011  0.5052885E+02  0.7816164E-02  0.1300439E+00
        -11   -1    0    0    0    0  0.00000000000E+00  0.00000000000E+00  0.45593999997E+02  0.45594000000E+02  0.51100000000E-03 0.  1.
         11   -1    0    0    0    0 -0.00000000000E+00 -0.00000000000E+00 -0.45593999997E+02  0.45594000000E+02  0.51100000000E-03 0. -1.
    9900012    2    1    2    0    0 -0.99577919708E+01  0.17796767329E+02  0.35175051453E+02  0.50528846135E+02  0.29999958311E+02 0.  0.
         12    1    1    2    0    0  0.99577919708E+01 -0.17796767329E+02 -0.35175051453E+02  0.40659153865E+02  0.00000000000E+00 0. -1.
         11    1    3    3    0    0 -0.10106738292E+02  0.54368311696E+01  0.21054176041E+01  0.11667822231E+02  0.51100000000E-03 0. -1.
        -11    1    3    3    0    0 -0.20991284796E+01  0.15895829121E+02  0.23908405128E+02  0.28787072791E+02  0.51100000000E-03 0.  1.
        -12    1    3    3    0    0  0.22480748007E+01 -0.35358929618E+01  0.91612287206E+01  0.10073951113E+02  0.00000000000E+00 0.  1.
</event>
<event>
 7    1  0.3004200E-011  0.5052886E+02  0.7816164E-02  0.1300439E+00
        -11   -1    0    0    0    0  0.00000000000E+00  0.00000000000E+00  0.45593999997E+02  0.45594000000E+02  0.51100000000E-03 0.  1.
         11   -1    0    0    0    0 -0.00000000000E+00 -0.00000000000E+00 -0.45593999997E+02  0.45594000000E+02  0.51100000000E-03 0. -1.
    9900012    2    1    2    0    0 -0.14603572502E+02  0.27844921149E+02  0.25779086905E+02  0.50528864676E+02  0.30000014670E+02 0.  0.
         12    1    1    2    0    0  0.14603572502E+02 -0.27844921149E+02 -0.25779086905E+02  0.40659135324E+02  0.00000000000E+00 0. -1.
         11    1    3    3    0    0  0.33613375627E+01  0.14036805300E+02  0.14754972531E+02  0.20640729345E+02  0.51100000000E-03 0. -1.
        -11    1    3    3    0    0 -0.80573251914E+01  0.20166213153E+01 -0.32214703959E+01  0.89087104871E+01  0.51100000000E-03 0.  1.
         12    1    3    3    0    0 -0.99075848737E+01  0.11791494534E+02  0.14245584770E+02  0.20979424845E+02  0.00000000000E+00 0. -1.
</event>
<event>
 7    1  0.3004200E-011  0.5052885E+02  0.7816164E-02  0.1300439E+00
        -11   -1    0    0    0    0  0.00000000000E+00  0.00000000000E+00  0.45593999997E+02  0.45594000000E+02  0.51100000000E-03 0.  1.
         11   -1    0    0    0    0 -0.00000000000E+00 -0.00000000000E+00 -0.45593999997E+02  0.45594000000E+02  0.51100000000E-03 0. -1.
    9900012    2    1    2    0    0  0.63461964827E+01 -0.24729846816E+02  0.31643746131E+02  0.50528853397E+02  0.29999980385E+02 0.  0.
         12    1    1    2    0    0 -0.63461964827E+01  0.24729846816E+02 -0.31643746131E+02  0.40659146603E+02  0.00000000000E+00 0. -1.
         11    1    3    3    0    0  0.61578205263E+01 -0.62554642280E+01 -0.36073947082E+01  0.94901466365E+01  0.51100000000E-03 0. -1.
        -11    1    3    3    0    0  0.29753130045E+01 -0.12746517332E+02  0.30181840292E+02  0.32897867336E+02  0.51100000000E-03 0.  1.
        -12    1    3    3    0    0 -0.27869370480E+01 -0.57278652561E+01  0.50693005469E+01  0.81408394246E+01  0.00000000000E+00 0.  1.
</event>
<event>
 7    1  0.3004200E-011  0.5052876E+02  0.7816164E-02  0.1300439E+00
        -11   -1    0    0    0    0  0.00000000000E+00  0.00000000000E+00  0.45593999997E+02  0.45594000000E+02  0.51100000000E-03 0.  1.
         11   -1    0    0    0    0 -0.00000000000E+00 -0.00000000000E+00 -0.45593999997E+02  0.45594000000E+02  0.51100000000E-03 0. -1.
    9900012    2    1    2    0    0  0.34284185887E+02  0.60020767649E+01  0.21017692798E+02  0.50528760731E+02  0.29999698715E+02 0.  0.
         12    1    1    2    0    0 -0.34284185887E+02 -0.60020767649E+01 -0.21017692798E+02  0.40659239269E+02  0.00000000000E+00 0. -1.
         11    1    3    3    0    0 -0.11011622873E+01 -0.23589616146E+01 -0.14772342660E+01  0.29932389848E+01  0.51100000000E-03 0. -1.
        -11    1    3    3    0    0  0.33743485404E+02  0.96233162753E+00  0.15218048093E+02  0.37028878965E+02  0.51100000000E-03 0.  1.
        -12    1    3    3    0    0  0.16418627696E+01  0.73987067520E+01  0.72768789713E+01  0.10506642781E+02  0.00000000000E+00 0.  1.
</event>
<event>
 7    1  0.3004200E-011  0.5052886E+02  0.7816164E-02  0.1300439E+00
        -11   -1    0    0    0    0  0.00000000000E+00  0.00000000000E+00  0.45593999997E+02  0.45594000000E+02  0.51100000000E-03 0. -1.
         11   -1    0    0    0    0 -0.00000000000E+00 -0.00000000000E+00 -0.45593999997E+02  0.45594000000E+02  0.51100000000E-03 0.  1.
    9900012    2    1    2    0    0 -0.25940201076E+02 -0.67949690501E+01 -0.30563051992E+02  0.50528858551E+02  0.29999996052E+02 0.  0.
         12    1    1    2    0    0  0.25940201076E+02  0.67949690501E+01  0.30563051992E+02  0.40659141449E+02  0.00000000000E+00 0. -1.
         11    1    3    3    0    0  0.18318471492E+01  0.45413993379E+00  0.21186838000E+01  0.28373805460E+01  0.51100000000E-03 0. -1.
        -11    1    3    3    0    0 -0.29509096938E+02 -0.10018219343E+02 -0.31216733648E+02  0.44109363868E+02  0.51100000000E-03 0.  1.
        -12    1    3    3    0    0  0.17370487126E+01  0.27691103587E+01 -0.14650021444E+01  0.35821141371E+01  0.00000000000E+00 0.  1.
</event>
<event>
 7    1  0.3004200E-011  0.5052886E+02  0.7816164E-02  0.1300439E+00
        -11   -1    0    0    0    0  0.00000000000E+00  0.00000000000E+00  0.45593999997E+02  0.45594000000E+02  0.51100000000E-03 0.  1.
         11   -1    0    0    0    0 -0.00000000000E+00 -0.00000000000E+00 -0.45593999997E+02  0.45594000000E+02  0.51100000000E-03 0. -1.
    9900012    2    1    2    0    0 -0.27068915960E+00  0.17370907536E+02  0.36760630005E+02  0.50528860565E+02  0.30000002173E+02 0.  0.
         12    1    1    2    0    0  0.27068915960E+00 -0.17370907536E+02 -0.36760630005E+02  0.40659139435E+02  0.00000000000E+00 0. -1.
         11    1    3    3    0    0  0.55660617875E+01  0.16259318371E+01  0.15665699556E+02  0.16704455723E+02  0.51100000000E-03 0. -1.
        -11    1    3    3    0    0  0.15072063504E+01  0.17874423967E+02  0.10587875061E+02  0.20829541563E+02  0.51100000000E-03 0.  1.
        -12    1    3    3    0    0 -0.73439572974E+01 -0.21294482688E+01  0.10507055388E+02  0.12994863279E+02  0.00000000000E+00 0.  1.
</event>
<event>
 7    1  0.3004200E-011  0.5052886E+02  0.7816164E-02  0.1300439E+00
        -11   -1    0    0    0    0  0.00000000000E+00  0.00000000000E+00  0.45593999997E+02  0.45594000000E+02  0.51100000000E-03 0.  1.
         11   -1    0    0    0    0 -0.00000000000E+00 -0.00000000000E+00 -0.45593999997E+02  0.45594000000E+02  0.51100000000E-03 0. -1.
    9900012    2    1    2    0    0  0.82778533662E+01  0.15961708568E+01  0.39775556770E+02  0.50528861616E+02  0.30000005369E+02 0.  0.
         12    1    1    2    0    0 -0.82778533662E+01 -0.15961708568E+01 -0.39775556770E+02  0.40659138384E+02  0.00000000000E+00 0. -1.
         11    1    3    3    0    0  0.10871731052E+01 -0.64630773536E+01  0.13081718868E+01  0.66831600449E+01  0.51100000000E-03 0. -1.
        -11    1    3    3    0    0  0.13020791059E+02  0.33215224060E+01  0.26574857907E+02  0.29779130006E+02  0.51100000000E-03 0.  1.
         12    1    3    3    0    0 -0.58301107980E+01  0.47377258044E+01  0.11892526976E+02  0.14066571565E+02  0.00000000000E+00 0. -1.
</event>
<event>
 7    1  0.3004200E-011  0.5052886E+02  0.7816164E-02  0.1300439E+00
        -11   -1    0    0    0    0  0.00000000000E+00  0.00000000000E+00  0.45593999997E+02  0.45594000000E+02  0.51100000000E-03 0.  1.
         11   -1    0    0    0    0 -0.00000000000E+00 -0.00000000000E+00 -0.45593999997E+02  0.45594000000E+02  0.51100000000E-03 0. -1.
    9900012    2    1    2    0    0 -0.29585370383E+01 -0.38747931780E+02  0.11958695904E+02  0.50528861220E+02  0.30000004164E+02 0.  0.
         12    1    1    2    0    0  0.29585370383E+01  0.38747931780E+02 -0.11958695904E+02  0.40659138780E+02  0.00000000000E+00 0. -1.
         11    1    3    3    0    0 -0.14530451850E+02 -0.21275276439E+02  0.64478268613E+01  0.26558348781E+02  0.51100000000E-03 0. -1.
        -11    1    3    3    0    0  0.50931925879E+01 -0.15382931243E+02  0.20483732278E+01  0.16333126385E+02  0.51100000000E-03 0.  1.
         12    1    3    3    0    0  0.64787222237E+01 -0.20897240980E+01  0.34624958146E+01  0.76373860531E+01  0.00000000000E+00 0. -1.
</event>
<event>
 7    1  0.3004200E-011  0.5052880E+02  0.7816164E-02  0.1300439E+00
        -11   -1    0    0    0    0  0.00000000000E+00  0.00000000000E+00  0.45593999997E+02  0.45594000000E+02  0.51100000000E-03 0.  1.
         11   -1    0    0    0    0 -0.00000000000E+00 -0.00000000000E+00 -0.45593999997E+02  0.45594000000E+02  0.51100000000E-03 0. -1.
    9900012    2    1    2    0    0 -0.33682665872E+02 -0.32857624419E+01  0.22535578421E+02  0.50528800428E+02  0.29999819379E+02 0.  0.
         12    1    1    2    0    0  0.33682665872E+02  0.32857624419E+01 -0.22535578421E+02  0.40659199572E+02  0.00000000000E+00 0. -1.
         11    1    3    3    0    0 -0.24769802104E+01 -0.43959427369E+01 -0.20554199909E+01  0.54483479247E+01  0.51100000000E-03 0. -1.
        -11    1    3    3    0    0 -0.95143812892E+01  0.44989796493E+01  0.20074827288E+02  0.22666339804E+02  0.51100000000E-03 0.  1.
         12    1    3    3    0    0 -0.21691304373E+02 -0.33887993543E+01  0.45161711235E+01  0.22414112699E+02  0.00000000000E+00 0. -1.
</event>
<event>
 7    1  0.3004200E-011  0.5052886E+02  0.7816164E-02  0.1300439E+00
        -11   -1    0    0    0    0  0.00000000000E+00  0.00000000000E+00  0.45593999997E+02  0.45594000000E+02  0.51100000000E-03 0.  1.
         11   -1    0    0    0    0 -0.00000000000E+00 -0.00000000000E+00 -0.45593999997E+02  0.45594000000E+02  0.51100000000E-03 0. -1.
    9900012    2    1    2    0    0  0.18569205964E+02 -0.30224026772E+02 -0.19871045790E+02  0.50528860004E+02  0.30000000467E+02 0.  0.
         12    1    1    2    0    0 -0.18569205964E+02  0.30224026772E+02  0.19871045790E+02  0.40659139996E+02  0.00000000000E+00 0. -1.
         11    1    3    3    0    0 -0.90097342471E+00 -0.37420444648E-01 -0.15617674778E+01  0.18034054778E+01  0.51100000000E-03 0. -1.
        -11    1    3    3    0    0  0.71204063761E+01 -0.24723174366E+02 -0.22919062004E+02  0.34456043608E+02  0.51100000000E-03 0.  1.
        -12    1    3    3    0    0  0.12349773012E+02 -0.54634319616E+01  0.46097836920E+01  0.14269410918E+02  0.00000000000E+00 0.  1.
</event>
<event>
 7    1  0.3004200E-011  0.5052886E+02  0.7816164E-02  0.1300439E+00
        -11   -1    0    0    0    0  0.00000000000E+00  0.00000000000E+00  0.45593999997E+02  0.45594000000E+02  0.51100000000E-03 0.  1.
         11   -1    0    0    0    0 -0.00000000000E+00 -0.00000000000E+00 -0.45593999997E+02  0.45594000000E+02  0.51100000000E-03 0. -1.
    9900012    2    1    2    0    0  0.62194683866E+01  0.30349231781E+02  0.26332640968E+02  0.50528860351E+02  0.30000001522E+02 0.  0.
         12    1    1    2    0    0 -0.62194683866E+01 -0.30349231781E+02 -0.26332640968E+02  0.40659139649E+02  0.00000000000E+00 0. -1.
         11    1    3    3    0    0  0.11654961889E+02  0.51714473921E+01  0.71447848463E+01  0.14616085506E+02  0.51100000000E-03 0. -1.
        -11    1    3    3    0    0 -0.10470374089E+02  0.12024730900E+02  0.12806890097E+02  0.20450900249E+02  0.51100000000E-03 0.  1.
        -12    1    3    3    0    0  0.50348805864E+01  0.13153053488E+02  0.63809660241E+01  0.15461874595E+02  0.00000000000E+00 0.  1.
</event>
<event>
 7    1  0.3004200E-011  0.5052886E+02  0.7816164E-02  0.1300439E+00
        -11   -1    0    0    0    0  0.00000000000E+00  0.00000000000E+00  0.45593999997E+02  0.45594000000E+02  0.51100000000E-03 0.  1.
         11   -1    0    0    0    0 -0.00000000000E+00 -0.00000000000E+00 -0.45593999997E+02  0.45594000000E+02  0.51100000000E-03 0. -1.
    9900012    2    1    2    0    0  0.37014738119E+02  0.16491457556E+02  0.33326276997E+01  0.50528863047E+02  0.30000009719E+02 0.  0.
         12    1    1    2    0    0 -0.37014738119E+02 -0.16491457556E+02 -0.33326276997E+01  0.40659136953E+02  0.00000000000E+00 0. -1.
         11    1    3    3    0    0  0.89443521942E+01  0.13277676273E+02 -0.57655405044E+01  0.17015862628E+02  0.51100000000E-03 0. -1.
        -11    1    3    3    0    0  0.24987155005E+02 -0.30271301577E+01  0.58980286850E+01  0.25851657101E+02  0.51100000000E-03 0.  1.
         12    1    3    3    0    0  0.30832309204E+01  0.62409114401E+01  0.32001395191E+01  0.76613433191E+01  0.00000000000E+00 0. -1.
</event>
<event>
 7    1  0.3004200E-011  0.5052891E+02  0.7816164E-02  0.1300439E+00
        -11   -1    0    0    0    0  0.00000000000E+00  0.00000000000E+00  0.45593999997E+02  0.45594000000E+02  0.51100000000E-03 0.  1.
         11   -1    0    0    0    0 -0.00000000000E+00 -0.00000000000E+00 -0.45593999997E+02  0.45594000000E+02  0.51100000000E-03 0. -1.
    9900012    2    1    2    0    0  0.25540522067E+01  0.14057508297E+02  0.38066055889E+02  0.50528913277E+02  0.30000162397E+02 0.  0.
         12    1    1    2    0    0 -0.25540522067E+01 -0.14057508297E+02 -0.38066055889E+02  0.40659086723E+02  0.00000000000E+00 0. -1.
         11    1    3    3    0    0  0.12491029636E+02 -0.17595710026E+00  0.18974090795E+02  0.22717238037E+02  0.51100000000E-03 0. -1.
        -11    1    3    3    0    0 -0.65363757744E+01  0.10085652708E+02  0.18957718198E+02  0.22446373390E+02  0.51100000000E-03 0.  1.
         12    1    3    3    0    0 -0.34006016551E+01  0.41478126890E+01  0.13424689601E+00  0.53653018506E+01  0.00000000000E+00 0. -1.
</event>
<event>
 7    1  0.3004200E-011  0.5052886E+02  0.7816164E-02  0.1300439E+00
        -11   -1    0    0    0    0  0.00000000000E+00  0.00000000000E+00  0.45593999997E+02  0.45594000000E+02  0.51100000000E-03 0.  1.
         11   -1    0    0    0    0 -0.00000000000E+00 -0.00000000000E+00 -0.45593999997E+02  0.45594000000E+02  0.51100000000E-03 0. -1.
    9900012    2    1    2    0    0 -0.27141683149E+02 -0.30184951635E+02  0.23158639585E+01  0.50528862094E+02  0.30000006821E+02 0.  0.
         12    1    1    2    0    0  0.27141683149E+02  0.30184951635E+02 -0.23158639585E+01  0.40659137906E+02  0.00000000000E+00 0. -1.
         11    1    3    3    0    0  0.31057271908E+00 -0.12511878285E+02  0.68153613017E+01  0.14251059735E+02  0.51100000000E-03 0. -1.
        -11    1    3    3    0    0 -0.19752538196E+02 -0.41359020618E+01 -0.46228220692E+01  0.20703597156E+02  0.51100000000E-03 0.  1.
         12    1    3    3    0    0 -0.76997176720E+01 -0.13537171288E+02  0.12332472599E+00  0.15574205203E+02  0.00000000000E+00 0. -1.
</event>
<event>
 7    1  0.3004200E-011  0.5052888E+02  0.7816164E-02  0.1300439E+00
        -11   -1    0    0    0    0  0.00000000000E+00  0.00000000000E+00  0.45593999997E+02  0.45594000000E+02  0.51100000000E-03 0.  1.
         11   -1    0    0    0    0 -0.00000000000E+00 -0.00000000000E+00 -0.45593999997E+02  0.45594000000E+02  0.51100000000E-03 0. -1.
    9900012    2    1    2    0    0 -0.39326514339E+02  0.34042804937E+01  0.97468227322E+01  0.50528875451E+02  0.30000047420E+02 0.  0.
         12    1    1    2    0    0  0.39326514339E+02 -0.34042804937E+01 -0.97468227322E+01  0.40659124549E+02  0.00000000000E+00 0. -1.
         11    1    3    3    0    0 -0.18875021282E+02 -0.45422200789E+01  0.16105177093E+02  0.25224490502E+02  0.51100000000E-03 0. -1.
        -11    1    3    3    0    0 -0.49454356013E+01  0.74086269310E+01 -0.14064700356E+01  0.90179401479E+01  0.51100000000E-03 0.  1.
         12    1    3    3    0    0 -0.15506057456E+02  0.53787364153E+00 -0.49518843249E+01  0.16286444801E+02  0.00000000000E+00 0. -1.
</event>
<event>
 7    1  0.3004200E-011  0.5052886E+02  0.7816164E-02  0.1300439E+00
        -11   -1    0    0    0    0  0.00000000000E+00  0.00000000000E+00  0.45593999997E+02  0.45594000000E+02  0.51100000000E-03 0.  1.
         11   -1    0    0    0    0 -0.00000000000E+00 -0.00000000000E+00 -0.45593999997E+02  0.45594000000E+02  0.51100000000E-03 0. -1.
    9900012    2    1    2    0    0  0.10600868471E+02  0.38571222591E+02 -0.72834266877E+01  0.50528856763E+02  0.29999990616E+02 0.  0.
         12    1    1    2    0    0 -0.10600868471E+02 -0.38571222591E+02  0.72834266877E+01  0.40659143237E+02  0.00000000000E+00 0. -1.
         11    1    3    3    0    0 -0.16188211565E+01  0.30134956683E+01  0.51696552236E+01  0.61989574504E+01  0.51100000000E-03 0. -1.
        -11    1    3    3    0    0  0.55941108240E+01  0.28737661403E+02 -0.79765799634E+00  0.29287941501E+02  0.51100000000E-03 0.  1.
        -12    1    3    3    0    0  0.66255788036E+01  0.68200655198E+01 -0.11655423915E+02  0.15041957812E+02  0.00000000000E+00 0.  1.
</event>
<event>
 7    1  0.3004200E-011  0.5052891E+02  0.7816164E-02  0.1300439E+00
        -11   -1    0    0    0    0  0.00000000000E+00  0.00000000000E+00  0.45593999997E+02  0.45594000000E+02  0.51100000000E-03 0.  1.
         11   -1    0    0    0    0 -0.00000000000E+00 -0.00000000000E+00 -0.45593999997E+02  0.45594000000E+02  0.51100000000E-03 0. -1.
    9900012    2    1    2    0    0  0.30824903661E+02 -0.45850250953E+01  0.26114454711E+02  0.50528906482E+02  0.30000141744E+02 0.  0.
         12    1    1    2    0    0 -0.30824903661E+02  0.45850250953E+01 -0.26114454711E+02  0.40659093518E+02  0.00000000000E+00 0. -1.
         11    1    3    3    0    0  0.99464477705E+01  0.67038208911E+01  0.34614636028E+01  0.12484180723E+02  0.51100000000E-03 0. -1.
        -11    1    3    3    0    0  0.36681254248E+01 -0.12267016498E+02  0.13180127232E+02  0.18375271210E+02  0.51100000000E-03 0.  1.
        -12    1    3    3    0    0  0.17210330465E+02  0.97817051201E+00  0.94728638758E+01  0.19669454550E+02  0.00000000000E+00 0.  1.
</event>
<event>
 7    1  0.3004200E-011  0.5052886E+02  0.7816164E-02  0.1300439E+00
        -11   -1    0    0    0    0  0.00000000000E+00  0.00000000000E+00  0.45593999997E+02  0.45594000000E+02  0.51100000000E-03 0.  1.
         11   -1    0    0    0    0 -0.00000000000E+00 -0.00000000000E+00 -0.45593999997E+02  0.45594000000E+02  0.51100000000E-03 0. -1.
    9900012    2    1    2    0    0  0.16143397639E+02 -0.33181594836E+02  0.17074479424E+02  0.50528863625E+02  0.30000011474E+02 0.  0.
         12    1    1    2    0    0 -0.16143397639E+02  0.33181594836E+02 -0.17074479424E+02  0.40659136375E+02  0.00000000000E+00 0. -1.
         11    1    3    3    0    0 -0.46395243206E+01 -0.26910679672E+01  0.36655666869E+01  0.64964153287E+01  0.51100000000E-03 0. -1.
        -11    1    3    3    0    0  0.19135407089E+02 -0.22024334072E+02  0.17979809386E+02  0.34271105054E+02  0.51100000000E-03 0.  1.
        -12    1    3    3    0    0  0.16475148710E+01 -0.84661927963E+01 -0.45708966495E+01  0.97613432423E+01  0.00000000000E+00 0.  1.
</event>
<event>
 7    1  0.3004200E-011  0.5052885E+02  0.7816164E-02  0.1300439E+00
        -11   -1    0    0    0    0  0.00000000000E+00  0.00000000000E+00  0.45593999997E+02  0.45594000000E+02  0.51100000000E-03 0.  1.
         11   -1    0    0    0    0 -0.00000000000E+00 -0.00000000000E+00 -0.45593999997E+02  0.45594000000E+02  0.51100000000E-03 0. -1.
    9900012    2    1    2    0    0 -0.14273275753E+02 -0.23018744274E+02  0.30324537376E+02  0.50528849052E+02  0.29999967180E+02 0.  0.
         12    1    1    2    0    0  0.14273275753E+02  0.23018744274E+02 -0.30324537376E+02  0.40659150948E+02  0.00000000000E+00 0. -1.
         11    1    3    3    0    0 -0.10759474163E+02  0.75558345975E+00  0.16486541948E+02  0.19701351636E+02  0.51100000000E-03 0. -1.
        -11    1    3    3    0    0 -0.30429865062E+01 -0.17554473318E+02  0.26419110502E+01  0.18011079773E+02  0.51100000000E-03 0.  1.
        -12    1    3    3    0    0 -0.47081508415E+00 -0.62198544162E+01  0.11196084378E+02  0.12816417643E+02  0.00000000000E+00 0.  1.
</event>
<event>
 7    1  0.3004200E-011  0.5052886E+02  0.7816164E-02  0.1300439E+00
        -11   -1    0    0    0    0  0.00000000000E+00  0.00000000000E+00  0.45593999997E+02  0.45594000000E+02  0.51100000000E-03 0. -1.
         11   -1    0    0    0    0 -0.00000000000E+00 -0.00000000000E+00 -0.45593999997E+02  0.45594000000E+02  0.51100000000E-03 0.  1.
    9900012    2    1    2    0    0  0.12813979369E+02  0.20092330515E+02 -0.32943376960E+02  0.50528857138E+02  0.29999991756E+02 0.  0.
         12    1    1    2    0    0 -0.12813979369E+02 -0.20092330515E+02  0.32943376960E+02  0.40659142862E+02  0.00000000000E+00 0. -1.
         11    1    3    3    0    0  0.10406076042E+01  0.58812333361E+00  0.12433502467E+01  0.17247241340E+01  0.51100000000E-03 0. -1.
        -11    1    3    3    0    0  0.42831854175E+01 -0.33862156948E+01 -0.20259847359E+02  0.20982696426E+02  0.51100000000E-03 0.  1.
        -12    1    3    3    0    0  0.74901863469E+01  0.22890422876E+02 -0.13926879848E+02  0.27821436578E+02  0.00000000000E+00 0.  1.
</event>
<event>
 7    1  0.3004200E-011  0.5052885E+02  0.7816164E-02  0.1300439E+00
        -11   -1    0    0    0    0  0.00000000000E+00  0.00000000000E+00  0.45593999997E+02  0.45594000000E+02  0.51100000000E-03 0.  1.
         11   -1    0    0    0    0 -0.00000000000E+00 -0.00000000000E+00 -0.45593999997E+02  0.45594000000E+02  0.51100000000E-03 0. -1.
    9900012    2    1    2    0    0  0.46048640772E+01 -0.40056577281E+02  0.52375519170E+01  0.50528854575E+02  0.29999983966E+02 0.  0.
         12    1    1    2    0    0 -0.46048640772E+01  0.40056577281E+02 -0.52375519170E+01  0.40659145425E+02  0.00000000000E+00 0. -1.
         11    1    3    3    0    0  0.50363878681E+01  0.32082311267E+00 -0.93842493039E+00  0.51331054770E+01  0.51100000000E-03 0. -1.
        -11    1    3    3    0    0 -0.84443956806E+01 -0.28985342685E+02  0.75496885881E-01  0.30190455594E+02  0.51100000000E-03 0.  1.
        -12    1    3    3    0    0  0.80128718898E+01 -0.11392057709E+02  0.61004799616E+01  0.15205293503E+02  0.00000000000E+00 0.  1.
</event>
<event>
 7    1  0.3004200E-011  0.5052887E+02  0.7816164E-02  0.1300439E+00
        -11   -1    0    0    0    0  0.00000000000E+00  0.00000000000E+00  0.45593999997E+02  0.45594000000E+02  0.51100000000E-03 0.  1.
         11   -1    0    0    0    0 -0.00000000000E+00 -0.00000000000E+00 -0.45593999997E+02  0.45594000000E+02  0.51100000000E-03 0. -1.
    9900012    2    1    2    0    0  0.12595682151E+02  0.15279490009E+02  0.35511278025E+02  0.50528869527E+02  0.30000029416E+02 0.  0.
         12    1    1    2    0    0 -0.12595682151E+02 -0.15279490009E+02 -0.35511278025E+02  0.40659130473E+02  0.00000000000E+00 0. -1.
         11    1    3    3    0    0  0.90469061291E+01  0.11413883931E+01  0.10247945424E+01  0.91760275766E+01  0.51100000000E-03 0. -1.
        -11    1    3    3    0    0  0.48015456973E+01  0.15253830570E+02  0.15427946388E+02  0.22220614711E+02  0.51100000000E-03 0.  1.
        -12    1    3    3    0    0 -0.12527696751E+01 -0.11157289534E+01  0.19058537095E+02  0.19132227240E+02  0.00000000000E+00 0.  1.
</event>
<event>
 7    1  0.3004200E-011  0.5052886E+02  0.7816164E-02  0.1300439E+00
        -11   -1    0    0    0    0  0.00000000000E+00  0.00000000000E+00  0.45593999997E+02  0.45594000000E+02  0.51100000000E-03 0. -1.
         11   -1    0    0    0    0 -0.00000000000E+00 -0.00000000000E+00 -0.45593999997E+02  0.45594000000E+02  0.51100000000E-03 0.  1.
    9900012    2    1    2    0    0 -0.29094524722E+02  0.17422124458E+02  0.22430868134E+02  0.50528860380E+02  0.30000001611E+02 0.  0.
         12    1    1    2    0    0  0.29094524722E+02 -0.17422124458E+02 -0.22430868134E+02  0.40659139620E+02  0.00000000000E+00 0. -1.
         11    1    3    3    0    0 -0.25876442926E+02  0.16651791371E+02  0.86445783811E+01  0.31962496618E+02  0.51100000000E-03 0. -1.
        -11    1    3    3    0    0  0.15755734898E+01  0.69736069903E-01 -0.17124898643E+01  0.23280714632E+01  0.51100000000E-03 0.  1.
         12    1    3    3    0    0 -0.47936552857E+01  0.70059701648E+00  0.15498779617E+02  0.16238292299E+02  0.00000000000E+00 0. -1.
</event>
<event>
 7    1  0.3004200E-011  0.5052884E+02  0.7816164E-02  0.1300439E+00
        -11   -1    0    0    0    0  0.00000000000E+00  0.00000000000E+00  0.45593999997E+02  0.45594000000E+02  0.51100000000E-03 0.  1.
         11   -1    0    0    0    0 -0.00000000000E+00 -0.00000000000E+00 -0.45593999997E+02  0.45594000000E+02  0.51100000000E-03 0. -1.
    9900012    2    1    2    0    0  0.26008229946E+02 -0.24414331650E+02  0.19511010749E+02  0.50528841680E+02  0.29999944771E+02 0.  0.
         12    1    1    2    0    0 -0.26008229946E+02  0.24414331650E+02 -0.19511010749E+02  0.40659158320E+02  0.00000000000E+00 0. -1.
         11    1    3    3    0    0  0.56506467099E+01 -0.36562423530E+01 -0.76636869970E+01  0.10199510529E+02  0.51100000000E-03 0. -1.
        -11    1    3    3    0    0  0.11764772908E+02 -0.16226257711E+02  0.19294486763E+02  0.27820469812E+02  0.51100000000E-03 0.  1.
         12    1    3    3    0    0  0.85928103281E+01 -0.45318315862E+01  0.78802109829E+01  0.12508861339E+02  0.00000000000E+00 0. -1.
</event>
<event>
 7    1  0.3004200E-011  0.5052886E+02  0.7816164E-02  0.1300439E+00
        -11   -1    0    0    0    0  0.00000000000E+00  0.00000000000E+00  0.45593999997E+02  0.45594000000E+02  0.51100000000E-03 0. -1.
         11   -1    0    0    0    0 -0.00000000000E+00 -0.00000000000E+00 -0.45593999997E+02  0.45594000000E+02  0.51100000000E-03 0.  1.
    9900012    2    1    2    0    0 -0.24874449627E+02  0.20420112020E+02 -0.24848462185E+02  0.50528864592E+02  0.30000014414E+02 0.  0.
         12    1    1    2    0    0  0.24874449627E+02 -0.20420112020E+02  0.24848462185E+02  0.40659135408E+02  0.00000000000E+00 0. -1.
         11    1    3    3    0    0 -0.15433644342E+01  0.75529268699E+00 -0.15124179475E+02  0.15221473183E+02  0.51100000000E-03 0. -1.
        -11    1    3    3    0    0 -0.22910351976E+02  0.17592055471E+02 -0.39453365288E+01  0.29153564515E+02  0.51100000000E-03 0.  1.
        -12    1    3    3    0    0 -0.42073321665E+00  0.20727638626E+01 -0.57789461818E+01  0.61538268940E+01  0.00000000000E+00 0.  1.
</event>
<event>
 7    1  0.3004200E-011  0.5052886E+02  0.7816164E-02  0.1300439E+00
        -11   -1    0    0    0    0  0.00000000000E+00  0.00000000000E+00  0.45593999997E+02  0.45594000000E+02  0.51100000000E-03 0. -1.
         11   -1    0    0    0    0 -0.00000000000E+00 -0.00000000000E+00 -0.45593999997E+02  0.45594000000E+02  0.51100000000E-03 0.  1.
    9900012    2    1    2    0    0 -0.31467897976E+02  0.25158780136E+02  0.54747363570E+01  0.50528861308E+02  0.30000004433E+02 0.  0.
         12    1    1    2    0    0  0.31467897976E+02 -0.25158780136E+02 -0.54747363570E+01  0.40659138692E+02  0.00000000000E+00 0. -1.
         11    1    3    3    0    0 -0.13236136705E+02  0.16142968850E+00  0.80061794492E+01  0.15469980092E+02  0.51100000000E-03 0. -1.
        -11    1    3    3    0    0 -0.13692983236E+02  0.25570159629E+02  0.13820037598E+01  0.29038608576E+02  0.51100000000E-03 0.  1.
        -12    1    3    3    0    0 -0.45387780347E+01 -0.57280918120E+00 -0.39134468519E+01  0.60202726407E+01  0.00000000000E+00 0.  1.
</event>
<event>
 7    1  0.3004200E-011  0.5052886E+02  0.7816164E-02  0.1300439E+00
        -11   -1    0    0    0    0  0.00000000000E+00  0.00000000000E+00  0.45593999997E+02  0.45594000000E+02  0.51100000000E-03 0. -1.
         11   -1    0    0    0    0 -0.00000000000E+00 -0.00000000000E+00 -0.45593999997E+02  0.45594000000E+02  0.51100000000E-03 0.  1.
    9900012    2    1    2    0    0 -0.18446478037E+02 -0.16680633974E+02  0.32165972713E+02  0.50528857088E+02  0.29999991605E+02 0.  0.
         12    1    1    2    0    0  0.18446478037E+02  0.16680633974E+02 -0.32165972713E+02  0.40659142912E+02  0.00000000000E+00 0. -1.
         11    1    3    3    0    0 -0.62903129213E+01 -0.11414331521E+02  0.18436348859E+02  0.22577731512E+02  0.51100000000E-03 0. -1.
        -11    1    3    3    0    0 -0.27116720854E+00 -0.57079631304E+01 -0.37311686720E+01  0.68246607735E+01  0.51100000000E-03 0.  1.
        -12    1    3    3    0    0 -0.11884997907E+02  0.44166067707E+00  0.17460792526E+02  0.21126464802E+02  0.00000000000E+00 0.  1.
</event>
<event>
 7    1  0.3004200E-011  0.5052884E+02  0.7816164E-02  0.1300439E+00
        -11   -1    0    0    0    0  0.00000000000E+00  0.00000000000E+00  0.45593999997E+02  0.45594000000E+02  0.51100000000E-03 0.  1.
         11   -1    0    0    0    0 -0.00000000000E+00 -0.00000000000E+00 -0.45593999997E+02  0.45594000000E+02  0.51100000000E-03 0. -1.
    9900012    2    1    2    0    0 -0.13128496707E+02  0.28135777137E+02  0.26252394803E+02  0.50528836041E+02  0.29999927631E+02 0.  0.
         12    1    1    2    0    0  0.13128496707E+02 -0.28135777137E+02 -0.26252394803E+02  0.40659163959E+02  0.00000000000E+00 0. -1.
         11    1    3    3    0    0 -0.63263778004E+01  0.10128901892E+02  0.56714332682E+00  0.11955725048E+02  0.51100000000E-03 0. -1.
        -11    1    3    3    0    0 -0.38413595434E+01  0.29056927361E+01  0.22302936764E+02  0.22817100648E+02  0.51100000000E-03 0.  1.
        -12    1    3    3    0    0 -0.29607593631E+01  0.15101182509E+02  0.33823147123E+01  0.15756010345E+02  0.00000000000E+00 0.  1.
</event>
<event>
 7    1  0.3004200E-011  0.5052887E+02  0.7816164E-02  0.1300439E+00
        -11   -1    0    0    0    0  0.00000000000E+00  0.00000000000E+00  0.45593999997E+02  0.45594000000E+02  0.51100000000E-03 0.  1.
         11   -1    0    0    0    0 -0.00000000000E+00 -0.00000000000E+00 -0.45593999997E+02  0.45594000000E+02  0.51100000000E-03 0. -1.
    9900012    2    1    2    0    0  0.18752558382E+02 -0.12087635730E+02  0.33991107456E+02  0.50528871019E+02  0.30000033950E+02 0.  0.
         12    1    1    2    0    0 -0.18752558382E+02  0.12087635730E+02 -0.33991107456E+02  0.40659128981E+02  0.00000000000E+00 0. -1.
         11    1    3    3    0    0  0.53193518870E+00 -0.46517801438E-01  0.11275720845E+02  0.11288356824E+02  0.51100000000E-03 0. -1.
        -11    1    3    3    0    0  0.22864795293E+02 -0.14046548118E+02  0.17904601319E+02  0.32259558684E+02  0.51100000000E-03 0.  1.
        -12    1    3    3    0    0 -0.46441720992E+01  0.20054301894E+01  0.48107852916E+01  0.69809555115E+01  0.00000000000E+00 0.  1.
</event>
<event>
 7    1  0.3004200E-011  0.5052887E+02  0.7816164E-02  0.1300439E+00
        -11   -1    0    0    0    0  0.00000000000E+00  0.00000000000E+00  0.45593999997E+02  0.45594000000E+02  0.51100000000E-03 0.  1.
         11   -1    0    0    0    0 -0.00000000000E+00 -0.00000000000E+00 -0.45593999997E+02  0.45594000000E+02  0.51100000000E-03 0. -1.
    9900012    2    1    2    0    0 -0.19893954148E+02 -0.23724343552E+02  0.26354329446E+02  0.50528873482E+02  0.30000041436E+02 0.  0.
         12    1    1    2    0    0  0.19893954148E+02  0.23724343552E+02 -0.26354329446E+02  0.40659126518E+02  0.00000000000E+00 0. -1.
         11    1    3    3    0    0 -0.20963012544E+02 -0.95875620855E+01  0.19552204133E+02  0.30226775024E+02  0.51100000000E-03 0. -1.
        -11    1    3    3    0    0 -0.60149886358E+00 -0.10404336997E+02  0.10496260800E+02  0.14791332606E+02  0.51100000000E-03 0.  1.
         12    1    3    3    0    0  0.16705572588E+01 -0.37324444703E+01 -0.36941354866E+01  0.55107658517E+01  0.00000000000E+00 0. -1.
</event>
<event>
 7    1  0.3004200E-011  0.5052887E+02  0.7816164E-02  0.1300439E+00
        -11   -1    0    0    0    0  0.00000000000E+00  0.00000000000E+00  0.45593999997E+02  0.45594000000E+02  0.51100000000E-03 0.  1.
         11   -1    0    0    0    0 -0.00000000000E+00 -0.00000000000E+00 -0.45593999997E+02  0.45594000000E+02  0.51100000000E-03 0. -1.
    9900012    2    1    2    0    0  0.39818968344E+02 -0.33326432796E+01  0.75172075231E+01  0.50528866215E+02  0.30000019347E+02 0.  0.
         12    1    1    2    0    0 -0.39818968344E+02  0.33326432796E+01 -0.75172075231E+01  0.40659133785E+02  0.00000000000E+00 0. -1.
         11    1    3    3    0    0  0.86291533958E+00  0.42965071186E+01  0.68230197335E+01  0.81091426703E+01  0.51100000000E-03 0. -1.
        -11    1    3    3    0    0  0.39476596742E+02 -0.92345725205E+01  0.14551049001E+01  0.40568415676E+02  0.51100000000E-03 0.  1.
        -12    1    3    3    0    0 -0.52054373749E+00  0.16054221224E+01 -0.76091711040E+00  0.18513078682E+01  0.00000000000E+00 0.  1.
</event>
<event>
 7    1  0.3004200E-011  0.5052886E+02  0.7816164E-02  0.1300439E+00
        -11   -1    0    0    0    0  0.00000000000E+00  0.00000000000E+00  0.45593999997E+02  0.45594000000E+02  0.51100000000E-03 0. -1.
         11   -1    0    0    0    0 -0.00000000000E+00 -0.00000000000E+00 -0.45593999997E+02  0.45594000000E+02  0.51100000000E-03 0.  1.
    9900012    2    1    2    0    0 -0.54689590400E+01 -0.97677254995E+01 -0.39087691410E+02  0.50528860877E+02  0.30000003123E+02 0.  0.
         12    1    1    2    0    0  0.54689590400E+01  0.97677254995E+01  0.39087691410E+02  0.40659139123E+02  0.00000000000E+00 0. -1.
         11    1    3    3    0    0  0.53656135637E+01 -0.10130900967E+01 -0.10000552614E+01  0.55512405141E+01  0.51100000000E-03 0. -1.
        -11    1    3    3    0    0 -0.88756627358E+01  0.11899153498E+01 -0.31830366372E+02  0.33066077952E+02  0.51100000000E-03 0.  1.
        -12    1    3    3    0    0 -0.19589098678E+01 -0.99445507526E+01 -0.62572697771E+01  0.11911542411E+02  0.00000000000E+00 0.  1.
</event>
<event>
 7    1  0.3004200E-011  0.5052886E+02  0.7816164E-02  0.1300439E+00
        -11   -1    0    0    0    0  0.00000000000E+00  0.00000000000E+00  0.45593999997E+02  0.45594000000E+02  0.51100000000E-03 0.  1.
         11   -1    0    0    0    0 -0.00000000000E+00 -0.00000000000E+00 -0.45593999997E+02  0.45594000000E+02  0.51100000000E-03 0. -1.
    9900012    2    1    2    0    0 -0.15702373433E+02 -0.19829262772E+02  0.31833964911E+02  0.50528861846E+02  0.30000006066E+02 0.  0.
         12    1    1    2    0    0  0.15702373433E+02  0.19829262772E+02 -0.31833964911E+02  0.40659138154E+02  0.00000000000E+00 0. -1.
         11    1    3    3    0    0 -0.61530203230E+01 -0.16748530008E+02  0.74141950539E+01  0.19322091116E+02  0.51100000000E-03 0. -1.
        -11    1    3    3    0    0 -0.68194186294E+01  0.33910860042E+01  0.22358994896E+01  0.79374543475E+01  0.51100000000E-03 0.  1.
         12    1    3    3    0    0 -0.27299344804E+01 -0.64718187681E+01  0.22183870367E+02  0.23269316383E+02  0.00000000000E+00 0. -1.
</event>
<event>
 7    1  0.3004200E-011  0.5052886E+02  0.7816164E-02  0.1300439E+00
        -11   -1    0    0    0    0  0.00000000000E+00  0.00000000000E+00  0.45593999997E+02  0.45594000000E+02  0.51100000000E-03 0.  1.
         11   -1    0    0    0    0 -0.00000000000E+00 -0.00000000000E+00 -0.45593999997E+02  0.45594000000E+02  0.51100000000E-03 0. -1.
    9900012    2    1    2    0    0  0.38210429927E+02  0.11765483143E+02 -0.73961010165E+01  0.50528857620E+02  0.29999993222E+02 0.  0.
         12    1    1    2    0    0 -0.38210429927E+02 -0.11765483143E+02  0.73961010165E+01  0.40659142380E+02  0.00000000000E+00 0. -1.
         11    1    3    3    0    0  0.10248619761E+02  0.13618374034E+02 -0.11617833960E+02  0.20626884993E+02  0.51100000000E-03 0. -1.
        -11    1    3    3    0    0  0.26963915908E+01  0.11596142250E+01  0.33342433589E+01  0.44421179407E+01  0.51100000000E-03 0.  1.
         12    1    3    3    0    0  0.25265418576E+02 -0.30125051158E+01  0.88748958517E+00  0.25459854686E+02  0.00000000000E+00 0. -1.
</event>
<event>
 7    1  0.3004200E-011  0.5052888E+02  0.7816164E-02  0.1300439E+00
        -11   -1    0    0    0    0  0.00000000000E+00  0.00000000000E+00  0.45593999997E+02  0.45594000000E+02  0.51100000000E-03 0.  1.
         11   -1    0    0    0    0 -0.00000000000E+00 -0.00000000000E+00 -0.45593999997E+02  0.45594000000E+02  0.51100000000E-03 0. -1.
    9900012    2    1    2    0    0  0.27803374555E+02 -0.23230577065E+00  0.29666183848E+02  0.50528879662E+02  0.30000060219E+02 0.  0.
         12    1    1    2    0    0 -0.27803374555E+02  0.23230577065E+00 -0.29666183848E+02  0.40659120338E+02  0.00000000000E+00 0. -1.
         11    1    3    3    0    0  0.12209875927E+02 -0.20806262266E+01 -0.69613866233E+00  0.12405429656E+02  0.51100000000E-03 0. -1.
        -11    1    3    3    0    0  0.40599040304E+01  0.19969883221E+01  0.24995116373E+02  0.25401311499E+02  0.51100000000E-03 0.  1.
        -12    1    3    3    0    0  0.11533594597E+02 -0.14866786620E+00  0.53672061370E+01  0.12722138507E+02  0.00000000000E+00 0.  1.
</event>
<event>
 7    1  0.3004200E-011  0.5052886E+02  0.7816164E-02  0.1300439E+00
        -11   -1    0    0    0    0  0.00000000000E+00  0.00000000000E+00  0.45593999997E+02  0.45594000000E+02  0.51100000000E-03 0.  1.
         11   -1    0    0    0    0 -0.00000000000E+00 -0.00000000000E+00 -0.45593999997E+02  0.45594000000E+02  0.51100000000E-03 0. -1.
    9900012    2    1    2    0    0 -0.30903189904E+02 -0.76092912345E+00  0.26411729570E+02  0.50528860581E+02  0.30000002223E+02 0.  0.
         12    1    1    2    0    0  0.30903189904E+02  0.76092912345E+00 -0.26411729570E+02  0.40659139419E+02  0.00000000000E+00 0. -1.
         11    1    3    3    0    0 -0.11952767636E+02 -0.82467271970E+00  0.32260276135E+01  0.12407900454E+02  0.51100000000E-03 0. -1.
        -11    1    3    3    0    0  0.44733542743E+01 -0.33256010913E+01  0.88226449876E+01  0.10435975562E+02  0.51100000000E-03 0.  1.
        -12    1    3    3    0    0 -0.23423776542E+02  0.33893446876E+01  0.14363056969E+02  0.27684984566E+02  0.00000000000E+00 0.  1.
</event>
<event>
 7    1  0.3004200E-011  0.5052886E+02  0.7816164E-02  0.1300439E+00
        -11   -1    0    0    0    0  0.00000000000E+00  0.00000000000E+00  0.45593999997E+02  0.45594000000E+02  0.51100000000E-03 0. -1.
         11   -1    0    0    0    0 -0.00000000000E+00 -0.00000000000E+00 -0.45593999997E+02  0.45594000000E+02  0.51100000000E-03 0.  1.
    9900012    2    1    2    0    0  0.18506463169E+02  0.31810653942E+02  0.17284634040E+02  0.50528862563E+02  0.30000008245E+02 0.  0.
         12    1    1    2    0    0 -0.18506463169E+02 -0.31810653942E+02 -0.17284634040E+02  0.40659137437E+02  0.00000000000E+00 0. -1.
         11    1    3    3    0    0 -0.28854194593E+01  0.42823614666E+01  0.11513918676E+02  0.12618818832E+02  0.51100000000E-03 0. -1.
        -11    1    3    3    0    0  0.21503267495E+02  0.18412692713E+02  0.35851390899E+01  0.28535433911E+02  0.51100000000E-03 0.  1.
        -12    1    3    3    0    0 -0.11138486701E+00  0.91155997622E+01  0.21855762744E+01  0.93746098193E+01  0.00000000000E+00 0.  1.
</event>
<event>
 7    1  0.3004200E-011  0.5052887E+02  0.7816164E-02  0.1300439E+00
        -11   -1    0    0    0    0  0.00000000000E+00  0.00000000000E+00  0.45593999997E+02  0.45594000000E+02  0.51100000000E-03 0. -1.
         11   -1    0    0    0    0 -0.00000000000E+00 -0.00000000000E+00 -0.45593999997E+02  0.45594000000E+02  0.51100000000E-03 0.  1.
    9900012    2    1    2    0    0  0.23071494297E+02  0.15324303174E+01 -0.33444322539E+02  0.50528869392E+02  0.30000029002E+02 0.  0.
         12    1    1    2    0    0 -0.23071494297E+02 -0.15324303174E+01  0.33444322539E+02  0.40659130608E+02  0.00000000000E+00 0. -1.
         11    1    3    3    0    0  0.14499077086E+02 -0.47164326573E+01 -0.13965816459E+02  0.20676363389E+02  0.51100000000E-03 0. -1.
        -11    1    3    3    0    0 -0.23170023819E+01  0.39299213940E+01 -0.18061906761E+02  0.18629150767E+02  0.51100000000E-03 0.  1.
         12    1    3    3    0    0  0.10889419592E+02  0.23189415808E+01 -0.14165993188E+01  0.11223355236E+02  0.00000000000E+00 0. -1.
</event>
<event>
 7    1  0.3004200E-011  0.5052884E+02  0.7816164E-02  0.1300439E+00
        -11   -1    0    0    0    0  0.00000000000E+00  0.00000000000E+00  0.45593999997E+02  0.45594000000E+02  0.51100000000E-03 0.  1.
         11   -1    0    0    0    0 -0.00000000000E+00 -0.00000000000E+00 -0.45593999997E+02  0.45594000000E+02  0.51100000000E-03 0. -1.
    9900012    2    1    2    0    0 -0.26447981644E+02  0.12092055505E+01  0.30857889500E+02  0.50528840447E+02  0.29999941024E+02 0.  0.
         12    1    1    2    0    0  0.26447981644E+02 -0.12092055505E+01 -0.30857889500E+02  0.40659159553E+02  0.00000000000E+00 0. -1.
         11    1    3    3    0    0 -0.23141466736E+02 -0.39869124076E+01  0.12135896463E+02  0.26432989549E+02  0.51100000000E-03 0. -1.
        -11    1    3    3    0    0 -0.78085087839E+01  0.66820648121E+01  0.14321181451E+02  0.17627224342E+02  0.51100000000E-03 0.  1.
         12    1    3    3    0    0  0.45019938762E+01 -0.14859468540E+01  0.44008115861E+01  0.64686265567E+01  0.00000000000E+00 0. -1.
</event>
<event>
 7    1  0.3004200E-011  0.5052886E+02  0.7816164E-02  0.1300439E+00
        -11   -1    0    0    0    0  0.00000000000E+00  0.00000000000E+00  0.45593999997E+02  0.45594000000E+02  0.51100000000E-03 0.  1.
         11   -1    0    0    0    0 -0.00000000000E+00 -0.00000000000E+00 -0.45593999997E+02  0.45594000000E+02  0.51100000000E-03 0. -1.
    9900012    2    1    2    0    0  0.14441060760E+01  0.29053759176E+02  0.28407028835E+02  0.50528860168E+02  0.30000000968E+02 0.  0.
         12    1    1    2    0    0 -0.14441060760E+01 -0.29053759176E+02 -0.28407028835E+02  0.40659139832E+02  0.00000000000E+00 0. -1.
         11    1    3    3    0    0 -0.30125803664E+01  0.13479266393E+02  0.33626630238E+01  0.14215265240E+02  0.51100000000E-03 0. -1.
        -11    1    3    3    0    0  0.53083802113E+00 -0.48977125555E+01  0.22220250552E+01  0.54043290877E+01  0.51100000000E-03 0.  1.
        -12    1    3    3    0    0  0.39258484214E+01  0.20472205338E+02  0.22822340756E+02  0.30909265841E+02  0.00000000000E+00 0.  1.
</event>
<event>
 7    1  0.3004200E-011  0.5052885E+02  0.7816164E-02  0.1300439E+00
        -11   -1    0    0    0    0  0.00000000000E+00  0.00000000000E+00  0.45593999997E+02  0.45594000000E+02  0.51100000000E-03 0.  1.
         11   -1    0    0    0    0 -0.00000000000E+00 -0.00000000000E+00 -0.45593999997E+02  0.45594000000E+02  0.51100000000E-03 0. -1.
    9900012    2    1    2    0    0 -0.22536027081E+02  0.26275570420E+02  0.21328106948E+02  0.50528852647E+02  0.29999978105E+02 0.  0.
         12    1    1    2    0    0  0.22536027081E+02 -0.26275570420E+02 -0.21328106948E+02  0.40659147353E+02  0.00000000000E+00 0. -1.
         11    1    3    3    0    0  0.86794877214E+00 -0.27572548375E+01 -0.28955441170E+00  0.29051043576E+01  0.51100000000E-03 0. -1.
        -11    1    3    3    0    0 -0.20076105678E+02  0.29301943987E+02  0.24551574736E+02  0.43179089417E+02  0.51100000000E-03 0.  1.
        -12    1    3    3    0    0 -0.33278701758E+01 -0.26911872982E+00 -0.29339133757E+01  0.44446588726E+01  0.00000000000E+00 0.  1.
</event>
<event>
 7    1  0.3004200E-011  0.5052886E+02  0.7816164E-02  0.1300439E+00
        -11   -1    0    0    0    0  0.00000000000E+00  0.00000000000E+00  0.45593999997E+02  0.45594000000E+02  0.51100000000E-03 0.  1.
         11   -1    0    0    0    0 -0.00000000000E+00 -0.00000000000E+00 -0.45593999997E+02  0.45594000000E+02  0.51100000000E-03 0. -1.
    9900012    2    1    2    0    0  0.12301653453E+02 -0.23867782192E+02  0.30531365507E+02  0.50528856082E+02  0.29999988547E+02 0.  0.
         12    1    1    2    0    0 -0.12301653453E+02  0.23867782192E+02 -0.30531365507E+02  0.40659143918E+02  0.00000000000E+00 0. -1.
         11    1    3    3    0    0 -0.46614100293E+01 -0.24708858503E+01  0.32240629474E+00  0.52856377502E+01  0.51100000000E-03 0. -1.
        -11    1    3    3    0    0  0.17616209136E+02 -0.10052285868E+02  0.11396042068E+02  0.23264759844E+02  0.51100000000E-03 0.  1.
        -12    1    3    3    0    0 -0.65314565427E+00 -0.11344610473E+02  0.18812917144E+02  0.21978458488E+02  0.00000000000E+00 0.  1.
</event>
<event>
 7    1  0.3004200E-011  0.5052886E+02  0.7816164E-02  0.1300439E+00
        -11   -1    0    0    0    0  0.00000000000E+00  0.00000000000E+00  0.45593999997E+02  0.45594000000E+02  0.51100000000E-03 0.  1.
         11   -1    0    0    0    0 -0.00000000000E+00 -0.00000000000E+00 -0.45593999997E+02  0.45594000000E+02  0.51100000000E-03 0. -1.
    9900012    2    1    2    0    0 -0.24265728174E+02  0.32621491911E+02 -0.42233869237E+00  0.50528859966E+02  0.30000000353E+02 0.  0.
         12    1    1    2    0    0  0.24265728174E+02 -0.32621491911E+02  0.42233869237E+00  0.40659140034E+02  0.00000000000E+00 0. -1.
         11    1    3    3    0    0 -0.46217981794E+01 -0.14733677120E+01  0.44536100980E+00  0.48713630040E+01  0.51100000000E-03 0. -1.
        -11    1    3    3    0    0 -0.24645544503E+02  0.28163864979E+02 -0.31862356457E+01  0.37560061931E+02  0.51100000000E-03 0.  1.
        -12    1    3    3    0    0  0.50016145084E+01  0.59309946438E+01  0.23185359435E+01  0.80974350307E+01  0.00000000000E+00 0.  1.
</event>
<event>
 7    1  0.3004200E-011  0.5052886E+02  0.7816164E-02  0.1300439E+00
        -11   -1    0    0    0    0  0.00000000000E+00  0.00000000000E+00  0.45593999997E+02  0.45594000000E+02  0.51100000000E-03 0. -1.
         11   -1    0    0    0    0 -0.00000000000E+00 -0.00000000000E+00 -0.45593999997E+02  0.45594000000E+02  0.51100000000E-03 0.  1.
    9900012    2    1    2    0    0 -0.35533574018E+02  0.13152000568E+02  0.14749764755E+02  0.50528861276E+02  0.30000004333E+02 0.  0.
         12    1    1    2    0    0  0.35533574018E+02 -0.13152000568E+02 -0.14749764755E+02  0.40659138724E+02  0.00000000000E+00 0. -1.
         11    1    3    3    0    0 -0.58842205261E+00 -0.47526141648E+01  0.36174372708E+01  0.60016193298E+01  0.51100000000E-03 0. -1.
        -11    1    3    3    0    0 -0.20781215337E+02  0.78736724960E+01 -0.26286148886E+01  0.22377739965E+02  0.51100000000E-03 0.  1.
         12    1    3    3    0    0 -0.14163936629E+02  0.10030942237E+02  0.13760942373E+02  0.22149501980E+02  0.00000000000E+00 0. -1.
</event>
<event>
 7    1  0.3004200E-011  0.5052885E+02  0.7816164E-02  0.1300439E+00
        -11   -1    0    0    0    0  0.00000000000E+00  0.00000000000E+00  0.45593999997E+02  0.45594000000E+02  0.51100000000E-03 0.  1.
         11   -1    0    0    0    0 -0.00000000000E+00 -0.00000000000E+00 -0.45593999997E+02  0.45594000000E+02  0.51100000000E-03 0. -1.
    9900012    2    1    2    0    0 -0.87877710279E+01  0.60012415932E+01  0.39241898559E+02  0.50528850688E+02  0.29999972150E+02 0.  0.
         12    1    1    2    0    0  0.87877710279E+01 -0.60012415932E+01 -0.39241898559E+02  0.40659149312E+02  0.00000000000E+00 0. -1.
         11    1    3    3    0    0 -0.22749401692E+01  0.23051924288E+01 -0.21072637645E+01  0.38639132678E+01  0.51100000000E-03 0. -1.
        -11    1    3    3    0    0 -0.13826286885E+02  0.30812577768E+01  0.24780528371E+02  0.28543562236E+02  0.51100000000E-03 0.  1.
         12    1    3    3    0    0  0.73134560267E+01  0.61479138763E+00  0.16568633952E+02  0.18121375184E+02  0.00000000000E+00 0. -1.
</event>
<event>
 7    1  0.3004200E-011  0.5052886E+02  0.7816164E-02  0.1300439E+00
        -11   -1    0    0    0    0  0.00000000000E+00  0.00000000000E+00  0.45593999997E+02  0.45594000000E+02  0.51100000000E-03 0. -1.
         11   -1    0    0    0    0 -0.00000000000E+00 -0.00000000000E+00 -0.45593999997E+02  0.45594000000E+02  0.51100000000E-03 0.  1.
    9900012    2    1    2    0    0  0.30356214487E+02 -0.20564757428E+02 -0.17571476829E+02  0.50528858297E+02  0.29999995280E+02 0.  0.
         12    1    1    2    0    0 -0.30356214487E+02  0.20564757428E+02  0.17571476829E+02  0.40659141703E+02  0.00000000000E+00 0. -1.
         11    1    3    3    0    0  0.25272964858E+02 -0.77408273522E+01 -0.14569461994E+02  0.30181325085E+02  0.51100000000E-03 0. -1.
        -11    1    3    3    0    0  0.29253474309E+00 -0.11331495844E+02 -0.75139123809E+01  0.13599531395E+02  0.51100000000E-03 0.  1.
         12    1    3    3    0    0  0.47907148863E+01 -0.14924342320E+01  0.45118975461E+01  0.67480018172E+01  0.00000000000E+00 0. -1.
</event>
<event>
 7    1  0.3004200E-011  0.5052882E+02  0.7816164E-02  0.1300439E+00
        -11   -1    0    0    0    0  0.00000000000E+00  0.00000000000E+00  0.45593999997E+02  0.45594000000E+02  0.51100000000E-03 0. -1.
         11   -1    0    0    0    0 -0.00000000000E+00 -0.00000000000E+00 -0.45593999997E+02  0.45594000000E+02  0.51100000000E-03 0.  1.
    9900012    2    1    2    0    0 -0.22717877089E+02  0.18000134673E+02  0.28514246241E+02  0.50528818671E+02  0.29999874831E+02 0.  0.
         12    1    1    2    0    0  0.22717877089E+02 -0.18000134673E+02 -0.28514246241E+02  0.40659181329E+02  0.00000000000E+00 0. -1.
         11    1    3    3    0    0 -0.12518752331E+02  0.10405693819E+02  0.30990182562E+02  0.35005557263E+02  0.51100000000E-03 0. -1.
        -11    1    3    3    0    0 -0.80617302030E+01  0.92969894365E+01 -0.31631869001E+01  0.12705560124E+02  0.51100000000E-03 0.  1.
         12    1    3    3    0    0 -0.21373945554E+01 -0.17025485830E+01  0.68725057898E+00  0.28177012832E+01  0.00000000000E+00 0. -1.
</event>
<event>
 7    1  0.3004200E-011  0.5052886E+02  0.7816164E-02  0.1300439E+00
        -11   -1    0    0    0    0  0.00000000000E+00  0.00000000000E+00  0.45593999997E+02  0.45594000000E+02  0.51100000000E-03 0. -1.
         11   -1    0    0    0    0 -0.00000000000E+00 -0.00000000000E+00 -0.45593999997E+02  0.45594000000E+02  0.51100000000E-03 0.  1.
    9900012    2    1    2    0    0 -0.29143079690E+01  0.28456265695E+02 -0.28894864672E+02  0.50528862618E+02  0.30000008414E+02 0.  0.
         12    1    1    2    0    0  0.29143079690E+01 -0.28456265695E+02  0.28894864672E+02  0.40659137382E+02  0.00000000000E+00 0. -1.
         11    1    3    3    0    0 -0.49207225621E+01  0.53719815622E+01 -0.13355419014E+02  0.15213116503E+02  0.51100000000E-03 0. -1.
        -11    1    3    3    0    0  0.10934546935E+02  0.18355515454E+02 -0.84620169348E+01  0.22980317559E+02  0.51100000000E-03 0.  1.
        -12    1    3    3    0    0 -0.89281323417E+01  0.47287686783E+01 -0.70774287230E+01  0.12335428556E+02  0.00000000000E+00 0.  1.
</event>
<event>
 7    1  0.3004200E-011  0.5052885E+02  0.7816164E-02  0.1300439E+00
        -11   -1    0    0    0    0  0.00000000000E+00  0.00000000000E+00  0.45593999997E+02  0.45594000000E+02  0.51100000000E-03 0.  1.
         11   -1    0    0    0    0 -0.00000000000E+00 -0.00000000000E+00 -0.45593999997E+02  0.45594000000E+02  0.51100000000E-03 0. -1.
    9900012    2    1    2    0    0  0.28490644692E+02 -0.45347977444E+01  0.28651094451E+02  0.50528850491E+02  0.29999971553E+02 0.  0.
         12    1    1    2    0    0 -0.28490644692E+02  0.45347977444E+01 -0.28651094451E+02  0.40659149509E+02  0.00000000000E+00 0. -1.
         11    1    3    3    0    0 -0.10452697476E+01  0.75657335425E+01  0.81967364172E+01  0.11203544128E+02  0.51100000000E-03 0. -1.
        -11    1    3    3    0    0  0.16899611536E+02 -0.89651632822E+01  0.17603858961E+02  0.25997439745E+02  0.51100000000E-03 0.  1.
         12    1    3    3    0    0  0.12636302904E+02 -0.31353680047E+01  0.28504990725E+01  0.13327866618E+02  0.00000000000E+00 0. -1.
</event>
<event>
 7    1  0.3004200E-011  0.5052886E+02  0.7816164E-02  0.1300439E+00
        -11   -1    0    0    0    0  0.00000000000E+00  0.00000000000E+00  0.45593999997E+02  0.45594000000E+02  0.51100000000E-03 0. -1.
         11   -1    0    0    0    0 -0.00000000000E+00 -0.00000000000E+00 -0.45593999997E+02  0.45594000000E+02  0.51100000000E-03 0.  1.
    9900012    2    1    2    0    0  0.39326018250E+02 -0.41268234945E+01  0.94656765815E+01  0.50528863061E+02  0.30000009759E+02 0.  0.
         12    1    1    2    0    0 -0.39326018250E+02  0.41268234945E+01 -0.94656765815E+01  0.40659136939E+02  0.00000000000E+00 0. -1.
         11    1    3    3    0    0  0.19280421859E+02  0.25337755418E+01  0.15174455502E+02  0.24666146549E+02  0.51100000000E-03 0. -1.
        -11    1    3    3    0    0  0.20019035491E+02 -0.80519826602E+01 -0.17292295910E+01  0.21646857555E+02  0.51100000000E-03 0.  1.
         12    1    3    3    0    0  0.26560899303E-01  0.13913836239E+01 -0.39795493297E+01  0.42158589561E+01  0.00000000000E+00 0. -1.
</event>
<event>
 7    1  0.3004200E-011  0.5052886E+02  0.7816164E-02  0.1300439E+00
        -11   -1    0    0    0    0  0.00000000000E+00  0.00000000000E+00  0.45593999997E+02  0.45594000000E+02  0.51100000000E-03 0. -1.
         11   -1    0    0    0    0 -0.00000000000E+00 -0.00000000000E+00 -0.45593999997E+02  0.45594000000E+02  0.51100000000E-03 0.  1.
    9900012    2    1    2    0    0  0.20060602874E+02 -0.12763066290E+02 -0.32982449363E+02  0.50528860624E+02  0.30000002351E+02 0.  0.
         12    1    1    2    0    0 -0.20060602874E+02  0.12763066290E+02  0.32982449363E+02  0.40659139376E+02  0.00000000000E+00 0. -1.
         11    1    3    3    0    0  0.24058227906E+02 -0.30822532198E+01 -0.15471269960E+02  0.28769059931E+02  0.51100000000E-03 0. -1.
        -11    1    3    3    0    0 -0.52954770769E+01 -0.67558073682E+01 -0.80343666421E+01  0.11757298085E+02  0.51100000000E-03 0.  1.
        -12    1    3    3    0    0  0.12978520455E+01 -0.29250057024E+01 -0.94768127614E+01  0.10002502607E+02  0.00000000000E+00 0.  1.
</event>
<event>
 7    1  0.3004200E-011  0.5052890E+02  0.7816164E-02  0.1300439E+00
        -11   -1    0    0    0    0  0.00000000000E+00  0.00000000000E+00  0.45593999997E+02  0.45594000000E+02  0.51100000000E-03 0. -1.
         11   -1    0    0    0    0 -0.00000000000E+00 -0.00000000000E+00 -0.45593999997E+02  0.45594000000E+02  0.51100000000E-03 0.  1.
    9900012    2    1    2    0    0 -0.32978318459E+02  0.14596662312E+02  0.18775783106E+02  0.50528904212E+02  0.30000134841E+02 0.  0.
         12    1    1    2    0    0  0.32978318459E+02 -0.14596662312E+02 -0.18775783106E+02  0.40659095788E+02  0.00000000000E+00 0. -1.
         11    1    3    3    0    0 -0.83263945461E+01 -0.75946619696E+01  0.72522091872E+01  0.13401577330E+02  0.51100000000E-03 0. -1.
        -11    1    3    3    0    0 -0.20876820517E+02  0.19631141393E+02  0.14046888183E+02  0.31914548645E+02  0.51100000000E-03 0.  1.
        -12    1    3    3    0    0 -0.37751033962E+01  0.25601828889E+01 -0.25233142640E+01  0.52127782373E+01  0.00000000000E+00 0.  1.
</event>
<event>
 7    1  0.3004200E-011  0.5052884E+02  0.7816164E-02  0.1300439E+00
        -11   -1    0    0    0    0  0.00000000000E+00  0.00000000000E+00  0.45593999997E+02  0.45594000000E+02  0.51100000000E-03 0. -1.
         11   -1    0    0    0    0 -0.00000000000E+00 -0.00000000000E+00 -0.45593999997E+02  0.45594000000E+02  0.51100000000E-03 0.  1.
    9900012    2    1    2    0    0 -0.38229600042E+02  0.11260922921E+02  0.80533708197E+01  0.50528837614E+02  0.29999932410E+02 0.  0.
         12    1    1    2    0    0  0.38229600042E+02 -0.11260922921E+02 -0.80533708197E+01  0.40659162386E+02  0.00000000000E+00 0. -1.
         11    1    3    3    0    0 -0.86689623963E+01  0.10077603055E+02 -0.89725742708E+01  0.16037957528E+02  0.51100000000E-03 0. -1.
        -11    1    3    3    0    0 -0.14334671596E+02  0.65577745987E+00  0.54217783538E+01  0.15339769706E+02  0.51100000000E-03 0.  1.
         12    1    3    3    0    0 -0.15225966050E+02  0.52754240635E+00  0.11604166737E+02  0.19151110380E+02  0.00000000000E+00 0. -1.
</event>
<event>
 7    1  0.3004200E-011  0.5052885E+02  0.7816164E-02  0.1300439E+00
        -11   -1    0    0    0    0  0.00000000000E+00  0.00000000000E+00  0.45593999997E+02  0.45594000000E+02  0.51100000000E-03 0.  1.
         11   -1    0    0    0    0 -0.00000000000E+00 -0.00000000000E+00 -0.45593999997E+02  0.45594000000E+02  0.51100000000E-03 0. -1.
    9900012    2    1    2    0    0  0.37488033831E+02  0.45597584286E+01  0.15067250869E+02  0.50528854335E+02  0.29999983237E+02 0.  0.
         12    1    1    2    0    0 -0.37488033831E+02 -0.45597584286E+01 -0.15067250869E+02  0.40659145665E+02  0.00000000000E+00 0. -1.
         11    1    3    3    0    0  0.30437189188E+02 -0.37250552040E+01  0.39886262136E+01  0.30922607608E+02  0.51100000000E-03 0. -1.
        -11    1    3    3    0    0  0.45042964012E+01  0.69884324944E+01  0.15568555294E+00  0.83157148250E+01  0.51100000000E-03 0.  1.
        -12    1    3    3    0    0  0.25465482423E+01  0.12963811382E+01  0.10922939102E+02  0.11290531902E+02  0.00000000000E+00 0.  1.
</event>
<event>
 7    1  0.3004200E-011  0.5052886E+02  0.7816164E-02  0.1300439E+00
        -11   -1    0    0    0    0  0.00000000000E+00  0.00000000000E+00  0.45593999997E+02  0.45594000000E+02  0.51100000000E-03 0.  1.
         11   -1    0    0    0    0 -0.00000000000E+00 -0.00000000000E+00 -0.45593999997E+02  0.45594000000E+02  0.51100000000E-03 0. -1.
    9900012    2    1    2    0    0 -0.39940853711E+02  0.37461083091E+01  0.66227325615E+01  0.50528859463E+02  0.29999998825E+02 0.  0.
         12    1    1    2    0    0  0.39940853711E+02 -0.37461083091E+01 -0.66227325615E+01  0.40659140537E+02  0.00000000000E+00 0. -1.
         11    1    3    3    0    0 -0.21287381213E+02 -0.31335734575E+01 -0.10217286532E+02  0.23819421190E+02  0.51100000000E-03 0. -1.
        -11    1    3    3    0    0 -0.17076449140E+02  0.41408919122E+01  0.14301000381E+02  0.22655478658E+02  0.51100000000E-03 0.  1.
         12    1    3    3    0    0 -0.15770233581E+01  0.27387898545E+01  0.25390187126E+01  0.40539596152E+01  0.00000000000E+00 0. -1.
</event>
<event>
 7    1  0.3004200E-011  0.5052886E+02  0.7816164E-02  0.1300439E+00
        -11   -1    0    0    0    0  0.00000000000E+00  0.00000000000E+00  0.45593999997E+02  0.45594000000E+02  0.51100000000E-03 0.  1.
         11   -1    0    0    0    0 -0.00000000000E+00 -0.00000000000E+00 -0.45593999997E+02  0.45594000000E+02  0.51100000000E-03 0. -1.
    9900012    2    1    2    0    0  0.13048194677E+02  0.11637574455E+02  0.36708003840E+02  0.50528855033E+02  0.29999985357E+02 0.  0.
         12    1    1    2    0    0 -0.13048194677E+02 -0.11637574455E+02 -0.36708003840E+02  0.40659144967E+02  0.00000000000E+00 0. -1.
         11    1    3    3    0    0 -0.51382009766E+01  0.12218140438E+01 -0.24646062761E+01  0.58282264190E+01  0.51100000000E-03 0. -1.
        -11    1    3    3    0    0  0.67527360377E+01  0.66938921139E+01  0.17221576049E+02  0.19672069477E+02  0.51100000000E-03 0.  1.
         12    1    3    3    0    0  0.11433659616E+02  0.37218682970E+01  0.21951034068E+02  0.25028559137E+02  0.00000000000E+00 0. -1.
</event>
<event>
 7    1  0.3004200E-011  0.5052885E+02  0.7816164E-02  0.1300439E+00
        -11   -1    0    0    0    0  0.00000000000E+00  0.00000000000E+00  0.45593999997E+02  0.45594000000E+02  0.51100000000E-03 0.  1.
         11   -1    0    0    0    0 -0.00000000000E+00 -0.00000000000E+00 -0.45593999997E+02  0.45594000000E+02  0.51100000000E-03 0. -1.
    9900012    2    1    2    0    0 -0.81466751792E+01 -0.15556879669E+02  0.36671263376E+02  0.50528851225E+02  0.29999973784E+02 0.  0.
         12    1    1    2    0    0  0.81466751792E+01  0.15556879669E+02 -0.36671263376E+02  0.40659148775E+02  0.00000000000E+00 0. -1.
         11    1    3    3    0    0  0.10975563951E+01  0.71304649909E+01  0.59380142936E+01  0.93438843657E+01  0.51100000000E-03 0. -1.
        -11    1    3    3    0    0 -0.47254590824E+01 -0.22389181370E+02  0.25959574028E+02  0.34604983599E+02  0.51100000000E-03 0.  1.
         12    1    3    3    0    0 -0.45187724919E+01 -0.29816329007E+00  0.47736750542E+01  0.65799832602E+01  0.00000000000E+00 0. -1.
</event>
<event>
 7    1  0.3004200E-011  0.5052886E+02  0.7816164E-02  0.1300439E+00
        -11   -1    0    0    0    0  0.00000000000E+00  0.00000000000E+00  0.45593999997E+02  0.45594000000E+02  0.51100000000E-03 0. -1.
         11   -1    0    0    0    0 -0.00000000000E+00 -0.00000000000E+00 -0.45593999997E+02  0.45594000000E+02  0.51100000000E-03 0.  1.
    9900012    2    1    2    0    0  0.33081444496E+02  0.13521709484E+02 -0.19389350348E+02  0.50528861983E+02  0.30000006485E+02 0.  0.
         12    1    1    2    0    0 -0.33081444496E+02 -0.13521709484E+02  0.19389350348E+02  0.40659138017E+02  0.00000000000E+00 0. -1.
         11    1    3    3    0    0  0.20091971098E+02 -0.65017172368E+00 -0.12351827139E+02  0.23594017458E+02  0.51100000000E-03 0. -1.
        -11    1    3    3    0    0  0.14515309752E+01  0.13565430459E+02 -0.71021816852E+01  0.15380794214E+02  0.51100000000E-03 0.  1.
        -12    1    3    3    0    0  0.11537942423E+02  0.60645074918E+00  0.64658476816E-01  0.11554050311E+02  0.00000000000E+00 0.  1.
</event>
<event>
 7    1  0.3004200E-011  0.5052885E+02  0.7816164E-02  0.1300439E+00
        -11   -1    0    0    0    0  0.00000000000E+00  0.00000000000E+00  0.45593999997E+02  0.45594000000E+02  0.51100000000E-03 0. -1.
         11   -1    0    0    0    0 -0.00000000000E+00 -0.00000000000E+00 -0.45593999997E+02  0.45594000000E+02  0.51100000000E-03 0.  1.
    9900012    2    1    2    0    0  0.20848612620E+02  0.34495386248E+02 -0.53450836134E+01  0.50528852943E+02  0.29999979006E+02 0.  0.
         12    1    1    2    0    0 -0.20848612620E+02 -0.34495386248E+02  0.53450836134E+01  0.40659147057E+02  0.00000000000E+00 0. -1.
         11    1    3    3    0    0  0.21976850504E+01  0.15876443199E+02  0.88004618972E+01  0.18284950044E+02  0.51100000000E-03 0. -1.
        -11    1    3    3    0    0  0.18811041648E+02  0.16665353747E+02 -0.89277820643E+01  0.26670106791E+02  0.51100000000E-03 0.  1.
        -12    1    3    3    0    0 -0.16011407851E+00  0.19535893015E+01 -0.52177634464E+01  0.55737961085E+01  0.00000000000E+00 0.  1.
</event>
<event>
 7    1  0.3004200E-011  0.5052886E+02  0.7816164E-02  0.1300439E+00
        -11   -1    0    0    0    0  0.00000000000E+00  0.00000000000E+00  0.45593999997E+02  0.45594000000E+02  0.51100000000E-03 0. -1.
         11   -1    0    0    0    0 -0.00000000000E+00 -0.00000000000E+00 -0.45593999997E+02  0.45594000000E+02  0.51100000000E-03 0.  1.
    9900012    2    1    2    0    0 -0.36116255245E+02  0.96896792533E+01 -0.15965329678E+02  0.50528861683E+02  0.30000005572E+02 0.  0.
         12    1    1    2    0    0  0.36116255245E+02 -0.96896792533E+01  0.15965329678E+02  0.40659138317E+02  0.00000000000E+00 0. -1.
         11    1    3    3    0    0 -0.27601129806E+01 -0.67553518962E+01 -0.40736856593E+00  0.73088270137E+01  0.51100000000E-03 0. -1.
        -11    1    3    3    0    0 -0.26394756127E+02  0.19220710866E+02 -0.11030798307E+02  0.34464436580E+02  0.51100000000E-03 0.  1.
         12    1    3    3    0    0 -0.69613861376E+01 -0.27756797167E+01 -0.45271628051E+01  0.87555980898E+01  0.00000000000E+00 0. -1.
</event>
<event>
 7    1  0.3004200E-011  0.5052879E+02  0.7816164E-02  0.1300439E+00
        -11   -1    0    0    0    0  0.00000000000E+00  0.00000000000E+00  0.45593999997E+02  0.45594000000E+02  0.51100000000E-03 0. -1.
         11   -1    0    0    0    0 -0.00000000000E+00 -0.00000000000E+00 -0.45593999997E+02  0.45594000000E+02  0.51100000000E-03 0.  1.
    9900012    2    1    2    0    0 -0.78611073025E+01 -0.39275067537E+02 -0.69888226657E+01  0.50528787264E+02  0.29999779368E+02 0.  0.
         12    1    1    2    0    0  0.78611073025E+01  0.39275067537E+02  0.69888226657E+01  0.40659212736E+02  0.00000000000E+00 0. -1.
         11    1    3    3    0    0  0.56932406954E+00 -0.52856821500E+01 -0.14465115326E+01  0.55095336973E+01  0.51100000000E-03 0. -1.
        -11    1    3    3    0    0 -0.13242083095E+02 -0.73367810980E+01 -0.91615331116E+01  0.17695050460E+02  0.51100000000E-03 0.  1.
        -12    1    3    3    0    0  0.48116517231E+01 -0.26652604289E+02  0.36192219785E+01  0.27324203107E+02  0.00000000000E+00 0.  1.
</event>
<event>
 7    1  0.3004200E-011  0.5052886E+02  0.7816164E-02  0.1300439E+00
        -11   -1    0    0    0    0  0.00000000000E+00  0.00000000000E+00  0.45593999997E+02  0.45594000000E+02  0.51100000000E-03 0.  1.
         11   -1    0    0    0    0 -0.00000000000E+00 -0.00000000000E+00 -0.45593999997E+02  0.45594000000E+02  0.51100000000E-03 0. -1.
    9900012    2    1    2    0    0 -0.22249590959E+02 -0.32730115302E+02  0.93199338095E+01  0.50528856972E+02  0.29999991253E+02 0.  0.
         12    1    1    2    0    0  0.22249590959E+02  0.32730115302E+02 -0.93199338095E+01  0.40659143028E+02  0.00000000000E+00 0. -1.
         11    1    3    3    0    0 -0.20106847162E+02 -0.76815767488E+01 -0.97941273635E+00  0.21546488663E+02  0.51100000000E-03 0. -1.
        -11    1    3    3    0    0  0.27345948842E+01 -0.16128669977E+02  0.91697339308E+01  0.18753560329E+02  0.51100000000E-03 0.  1.
         12    1    3    3    0    0 -0.48773386812E+01 -0.89198685766E+01  0.11296126150E+01  0.10228807980E+02  0.00000000000E+00 0. -1.
</event>
<event>
 7    1  0.3004200E-011  0.5052884E+02  0.7816164E-02  0.1300439E+00
        -11   -1    0    0    0    0  0.00000000000E+00  0.00000000000E+00  0.45593999997E+02  0.45594000000E+02  0.51100000000E-03 0. -1.
         11   -1    0    0    0    0 -0.00000000000E+00 -0.00000000000E+00 -0.45593999997E+02  0.45594000000E+02  0.51100000000E-03 0.  1.
    9900012    2    1    2    0    0 -0.28597130746E+02  0.15946690227E+02 -0.24105482207E+02  0.50528842501E+02  0.29999947266E+02 0.  0.
         12    1    1    2    0    0  0.28597130746E+02 -0.15946690227E+02  0.24105482207E+02  0.40659157499E+02  0.00000000000E+00 0. -1.
         11    1    3    3    0    0 -0.79115692621E+01 -0.29270519814E+01 -0.58575498378E+01  0.10269929496E+02  0.51100000000E-03 0. -1.
        -11    1    3    3    0    0 -0.23099867302E+01  0.11892350774E+02  0.17232924125E+01  0.12236575609E+02  0.51100000000E-03 0.  1.
        -12    1    3    3    0    0 -0.18375574753E+02  0.69813914346E+01 -0.19971224782E+02  0.28022337396E+02  0.00000000000E+00 0.  1.
</event>
<event>
 7    1  0.3004200E-011  0.5052886E+02  0.7816164E-02  0.1300439E+00
        -11   -1    0    0    0    0  0.00000000000E+00  0.00000000000E+00  0.45593999997E+02  0.45594000000E+02  0.51100000000E-03 0.  1.
         11   -1    0    0    0    0 -0.00000000000E+00 -0.00000000000E+00 -0.45593999997E+02  0.45594000000E+02  0.51100000000E-03 0. -1.
    9900012    2    1    2    0    0 -0.11078483565E+01 -0.23856397364E+02  0.32906082108E+02  0.50528864952E+02  0.30000015507E+02 0.  0.
         12    1    1    2    0    0  0.11078483565E+01  0.23856397364E+02 -0.32906082108E+02  0.40659135048E+02  0.00000000000E+00 0. -1.
         11    1    3    3    0    0  0.38705655615E+01 -0.15726935639E+01 -0.48042335845E+01  0.63667341242E+01  0.51100000000E-03 0. -1.
        -11    1    3    3    0    0 -0.63025435006E+00 -0.86450352914E+01  0.14140691262E+02  0.16585927932E+02  0.51100000000E-03 0.  1.
         12    1    3    3    0    0 -0.43481595680E+01 -0.13638668509E+02  0.23569624431E+02  0.27576202895E+02  0.00000000000E+00 0. -1.
</event>
<event>
 7    1  0.3004200E-011  0.5052886E+02  0.7816164E-02  0.1300439E+00
        -11   -1    0    0    0    0  0.00000000000E+00  0.00000000000E+00  0.45593999997E+02  0.45594000000E+02  0.51100000000E-03 0. -1.
         11   -1    0    0    0    0 -0.00000000000E+00 -0.00000000000E+00 -0.45593999997E+02  0.45594000000E+02  0.51100000000E-03 0.  1.
    9900012    2    1    2    0    0 -0.39437309531E+02 -0.78065298227E+01  0.60763534157E+01  0.50528863736E+02  0.30000011812E+02 0.  0.
         12    1    1    2    0    0  0.39437309531E+02  0.78065298227E+01 -0.60763534157E+01  0.40659136264E+02  0.00000000000E+00 0. -1.
         11    1    3    3    0    0 -0.16309549550E+01 -0.34319593854E+01 -0.45589381880E+01  0.59348358824E+01  0.51100000000E-03 0. -1.
        -11    1    3    3    0    0 -0.39441656271E+02 -0.12296438047E+01  0.11165154908E+02  0.41009961688E+02  0.51100000000E-03 0.  1.
        -12    1    3    3    0    0  0.16353016948E+01 -0.31449266325E+01 -0.52986330461E+00  0.35840661655E+01  0.00000000000E+00 0.  1.
</event>
<event>
 7    1  0.3004200E-011  0.5052886E+02  0.7816164E-02  0.1300439E+00
        -11   -1    0    0    0    0  0.00000000000E+00  0.00000000000E+00  0.45593999997E+02  0.45594000000E+02  0.51100000000E-03 0. -1.
         11   -1    0    0    0    0 -0.00000000000E+00 -0.00000000000E+00 -0.45593999997E+02  0.45594000000E+02  0.51100000000E-03 0.  1.
    9900012    2    1    2    0    0  0.95983206055E+00  0.40578336365E+02 -0.23754681646E+01  0.50528861928E+02  0.30000006318E+02 0.  0.
         12    1    1    2    0    0 -0.95983206055E+00 -0.40578336365E+02  0.23754681646E+01  0.40659138072E+02  0.00000000000E+00 0. -1.
         11    1    3    3    0    0 -0.12376020344E+01  0.34586411754E+02  0.45571977187E+01  0.34907299926E+02  0.51100000000E-03 0.  1.
        -11    1    3    3    0    0  0.65269722343E+01  0.68650666332E+01 -0.56182893514E+01  0.11013431887E+02  0.51100000000E-03 0. -1.
         12    1    3    3    0    0 -0.43295381394E+01 -0.87314202278E+00 -0.13143765319E+01  0.46081301153E+01  0.00000000000E+00 0. -1.
</event>
<event>
 7    1  0.3004200E-011  0.5052886E+02  0.7816164E-02  0.1300439E+00
        -11   -1    0    0    0    0  0.00000000000E+00  0.00000000000E+00  0.45593999997E+02  0.45594000000E+02  0.51100000000E-03 0. -1.
         11   -1    0    0    0    0 -0.00000000000E+00 -0.00000000000E+00 -0.45593999997E+02  0.45594000000E+02  0.51100000000E-03 0.  1.
    9900012    2    1    2    0    0  0.10677596373E+02 -0.33684263436E+02  0.20112808626E+02  0.50528859105E+02  0.29999997735E+02 0.  0.
         12    1    1    2    0    0 -0.10677596373E+02  0.33684263436E+02 -0.20112808626E+02  0.40659140895E+02  0.00000000000E+00 0. -1.
         11    1    3    3    0    0  0.11991894245E+02 -0.22779152664E+01  0.11891588831E+01  0.12264115323E+02  0.51100000000E-03 0. -1.
        -11    1    3    3    0    0  0.46376483271E+01 -0.10585855629E+02  0.56328401034E+01  0.12856788452E+02  0.51100000000E-03 0.  1.
         12    1    3    3    0    0 -0.59519461992E+01 -0.20820492540E+02  0.13290809640E+02  0.25407955330E+02  0.00000000000E+00 0. -1.
</event>
<event>
 7    1  0.3004200E-011  0.5052885E+02  0.7816164E-02  0.1300439E+00
        -11   -1    0    0    0    0  0.00000000000E+00  0.00000000000E+00  0.45593999997E+02  0.45594000000E+02  0.51100000000E-03 0. -1.
         11   -1    0    0    0    0 -0.00000000000E+00 -0.00000000000E+00 -0.45593999997E+02  0.45594000000E+02  0.51100000000E-03 0.  1.
    9900012    2    1    2    0    0 -0.40048064751E+01 -0.30802560771E+02 -0.26236054150E+02  0.50528846513E+02  0.29999959460E+02 0.  0.
         12    1    1    2    0    0  0.40048064751E+01  0.30802560771E+02  0.26236054150E+02  0.40659153487E+02  0.00000000000E+00 0. -1.
         11    1    3    3    0    0 -0.11258678561E+02 -0.43863262994E+01 -0.96922458435E+01  0.15489910623E+02  0.51100000000E-03 0. -1.
        -11    1    3    3    0    0  0.27315182472E+01 -0.19469177689E+02 -0.17961286267E+02  0.26629267291E+02  0.51100000000E-03 0.  1.
         12    1    3    3    0    0  0.45223538387E+01 -0.69470567819E+01  0.14174779603E+01  0.84096685988E+01  0.00000000000E+00 0. -1.
</event>
<event>
 7    1  0.3004200E-011  0.5052887E+02  0.7816164E-02  0.1300439E+00
        -11   -1    0    0    0    0  0.00000000000E+00  0.00000000000E+00  0.45593999997E+02  0.45594000000E+02  0.51100000000E-03 0. -1.
         11   -1    0    0    0    0 -0.00000000000E+00 -0.00000000000E+00 -0.45593999997E+02  0.45594000000E+02  0.51100000000E-03 0.  1.
    9900012    2    1    2    0    0  0.94304748397E+01  0.39314079397E+02 -0.43167652174E+01  0.50528866260E+02  0.30000019484E+02 0.  0.
         12    1    1    2    0    0 -0.94304748397E+01 -0.39314079397E+02  0.43167652174E+01  0.40659133740E+02  0.00000000000E+00 0. -1.
         11    1    3    3    0    0 -0.52952805850E+01 -0.38242496802E+00 -0.28463415986E+01  0.60239443961E+01  0.51100000000E-03 0. -1.
        -11    1    3    3    0    0  0.72390781450E+01  0.95330047092E+01  0.46278852240E+01  0.12833540162E+02  0.51100000000E-03 0.  1.
         12    1    3    3    0    0  0.74866772797E+01  0.30163499656E+02 -0.60983088427E+01  0.31671381702E+02  0.00000000000E+00 0. -1.
</event>
<event>
 7    1  0.3004200E-011  0.5052887E+02  0.7816164E-02  0.1300439E+00
        -11   -1    0    0    0    0  0.00000000000E+00  0.00000000000E+00  0.45593999997E+02  0.45594000000E+02  0.51100000000E-03 0.  1.
         11   -1    0    0    0    0 -0.00000000000E+00 -0.00000000000E+00 -0.45593999997E+02  0.45594000000E+02  0.51100000000E-03 0. -1.
    9900012    2    1    2    0    0  0.57296271668E+01  0.24012726153E+02  0.32306741260E+02  0.50528866025E+02  0.30000018770E+02 0.  0.
         12    1    1    2    0    0 -0.57296271668E+01 -0.24012726153E+02 -0.32306741260E+02  0.40659133975E+02  0.00000000000E+00 0. -1.
         11    1    3    3    0    0  0.61572564688E+01 -0.87051712419E+00 -0.12853652518E+01  0.63499426279E+01  0.51100000000E-03 0. -1.
        -11    1    3    3    0    0 -0.68384863553E+01  0.17369445571E+02  0.24060489835E+02  0.30452745466E+02  0.51100000000E-03 0.  1.
         12    1    3    3    0    0  0.64108570533E+01  0.75137977059E+01  0.95316166771E+01  0.13726177931E+02  0.00000000000E+00 0. -1.
</event>
<event>
 7    1  0.3004200E-011  0.5052886E+02  0.7816164E-02  0.1300439E+00
        -11   -1    0    0    0    0  0.00000000000E+00  0.00000000000E+00  0.45593999997E+02  0.45594000000E+02  0.51100000000E-03 0.  1.
         11   -1    0    0    0    0 -0.00000000000E+00 -0.00000000000E+00 -0.45593999997E+02  0.45594000000E+02  0.51100000000E-03 0. -1.
    9900012    2    1    2    0    0  0.89123884536E+01 -0.34389234456E+02  0.19776641744E+02  0.50528859907E+02  0.30000000174E+02 0.  0.
         12    1    1    2    0    0 -0.89123884536E+01  0.34389234456E+02 -0.19776641744E+02  0.40659140093E+02  0.00000000000E+00 0. -1.
         11    1    3    3    0    0  0.12048768962E+01 -0.15609768836E+02 -0.33911021973E+01  0.16019244234E+02  0.51100000000E-03 0. -1.
        -11    1    3    3    0    0 -0.66462232165E+00 -0.80663551204E+00  0.11411242076E+02  0.11459006486E+02  0.51100000000E-03 0.  1.
         12    1    3    3    0    0  0.83721338791E+01 -0.17972830108E+02  0.11756501865E+02  0.23050609187E+02  0.00000000000E+00 0. -1.
</event>
<event>
 7    1  0.3004200E-011  0.5052885E+02  0.7816164E-02  0.1300439E+00
        -11   -1    0    0    0    0  0.00000000000E+00  0.00000000000E+00  0.45593999997E+02  0.45594000000E+02  0.51100000000E-03 0.  1.
         11   -1    0    0    0    0 -0.00000000000E+00 -0.00000000000E+00 -0.45593999997E+02  0.45594000000E+02  0.51100000000E-03 0. -1.
    9900012    2    1    2    0    0  0.15614368633E+02  0.21423764972E+01  0.37480234591E+02  0.50528852569E+02  0.29999977868E+02 0.  0.
         12    1    1    2    0    0 -0.15614368633E+02 -0.21423764972E+01 -0.37480234591E+02  0.40659147431E+02  0.00000000000E+00 0. -1.
         11    1    3    3    0    0 -0.60648780566E+01 -0.17190032565E+01  0.17823064674E+01  0.65509033455E+01  0.51100000000E-03 0. -1.
        -11    1    3    3    0    0  0.17215841739E+02 -0.45227539938E+00  0.32971705420E+02  0.37198428978E+02  0.51100000000E-03 0.  1.
         12    1    3    3    0    0  0.44634049507E+01  0.43136551530E+01  0.27262227030E+01  0.67795202455E+01  0.00000000000E+00 0. -1.
</event>
<event>
 7    1  0.3004200E-011  0.5052886E+02  0.7816164E-02  0.1300439E+00
        -11   -1    0    0    0    0  0.00000000000E+00  0.00000000000E+00  0.45593999997E+02  0.45594000000E+02  0.51100000000E-03 0. -1.
         11   -1    0    0    0    0 -0.00000000000E+00 -0.00000000000E+00 -0.45593999997E+02  0.45594000000E+02  0.51100000000E-03 0.  1.
    9900012    2    1    2    0    0 -0.12122846126E+02 -0.33672652851E+02 -0.19296495293E+02  0.50528859837E+02  0.29999999959E+02 0.  0.
         12    1    1    2    0    0  0.12122846126E+02  0.33672652851E+02  0.19296495293E+02  0.40659140163E+02  0.00000000000E+00 0. -1.
         11    1    3    3    0    0  0.20449971079E+01 -0.14555308662E+02 -0.20492307369E+02  0.25218518692E+02  0.51100000000E-03 0. -1.
        -11    1    3    3    0    0 -0.96971440510E+01 -0.12177803203E+02 -0.32963798056E+01  0.15912247286E+02  0.51100000000E-03 0.  1.
         12    1    3    3    0    0 -0.44706991826E+01 -0.69395409857E+01  0.44921918822E+01  0.93980938589E+01  0.00000000000E+00 0. -1.
</event>
<event>
 7    1  0.3004200E-011  0.5052887E+02  0.7816164E-02  0.1300439E+00
        -11   -1    0    0    0    0  0.00000000000E+00  0.00000000000E+00  0.45593999997E+02  0.45594000000E+02  0.51100000000E-03 0.  1.
         11   -1    0    0    0    0 -0.00000000000E+00 -0.00000000000E+00 -0.45593999997E+02  0.45594000000E+02  0.51100000000E-03 0. -1.
    9900012    2    1    2    0    0  0.81602721673E+00 -0.34199951135E+02  0.21974134076E+02  0.50528866630E+02  0.30000020607E+02 0.  0.
         12    1    1    2    0    0 -0.81602721673E+00  0.34199951135E+02 -0.21974134076E+02  0.40659133370E+02  0.00000000000E+00 0. -1.
         11    1    3    3    0    0  0.13051447372E+00 -0.27898736204E+01  0.12262419219E+02  0.12576460321E+02  0.51100000000E-03 0. -1.
        -11    1    3    3    0    0 -0.32632033397E+01 -0.11343384465E+02 -0.49386321515E+01  0.12794958185E+02  0.51100000000E-03 0.  1.
         12    1    3    3    0    0  0.39487160827E+01 -0.20066693049E+02  0.14650347009E+02  0.25157448124E+02  0.00000000000E+00 0. -1.
</event>
<event>
 7    1  0.3004200E-011  0.5052885E+02  0.7816164E-02  0.1300439E+00
        -11   -1    0    0    0    0  0.00000000000E+00  0.00000000000E+00  0.45593999997E+02  0.45594000000E+02  0.51100000000E-03 0. -1.
         11   -1    0    0    0    0 -0.00000000000E+00 -0.00000000000E+00 -0.45593999997E+02  0.45594000000E+02  0.51100000000E-03 0.  1.
    9900012    2    1    2    0    0  0.36133137055E+02  0.45531643993E+01  0.18078483111E+02  0.50528850340E+02  0.29999971095E+02 0.  0.
         12    1    1    2    0    0 -0.36133137055E+02 -0.45531643993E+01 -0.18078483111E+02  0.40659149660E+02  0.00000000000E+00 0. -1.
         11    1    3    3    0    0  0.65897709059E+01 -0.42865007649E+01  0.12020320356E+02  0.14362704172E+02  0.51100000000E-03 0. -1.
        -11    1    3    3    0    0  0.15864888954E+02  0.95127482389E+01 -0.43043207847E+01  0.18992478992E+02  0.51100000000E-03 0.  1.
        -12    1    3    3    0    0  0.13678477194E+02 -0.67308307473E+00  0.10362483539E+02  0.17173667176E+02  0.00000000000E+00 0.  1.
</event>
<event>
 7    1  0.3004200E-011  0.5052887E+02  0.7816164E-02  0.1300439E+00
        -11   -1    0    0    0    0  0.00000000000E+00  0.00000000000E+00  0.45593999997E+02  0.45594000000E+02  0.51100000000E-03 0.  1.
         11   -1    0    0    0    0 -0.00000000000E+00 -0.00000000000E+00 -0.45593999997E+02  0.45594000000E+02  0.51100000000E-03 0. -1.
    9900012    2    1    2    0    0  0.17182962945E+02  0.11557682688E+02  0.34990435453E+02  0.50528870424E+02  0.30000032142E+02 0.  0.
         12    1    1    2    0    0 -0.17182962945E+02 -0.11557682688E+02 -0.34990435453E+02  0.40659129576E+02  0.00000000000E+00 0. -1.
         11    1    3    3    0    0  0.48122436342E+01 -0.50196022936E+01  0.30398761599E+01  0.75891332383E+01  0.51100000000E-03 0. -1.
        -11    1    3    3    0    0  0.12101609168E+02  0.12330582803E+02  0.87766360468E+01  0.19378378603E+02  0.51100000000E-03 0.  1.
        -12    1    3    3    0    0  0.26911014221E+00  0.42467021788E+01  0.23173923246E+02  0.23561358583E+02  0.00000000000E+00 0.  1.
</event>
<event>
 7    1  0.3004200E-011  0.5052888E+02  0.7816164E-02  0.1300439E+00
        -11   -1    0    0    0    0  0.00000000000E+00  0.00000000000E+00  0.45593999997E+02  0.45594000000E+02  0.51100000000E-03 0.  1.
         11   -1    0    0    0    0 -0.00000000000E+00 -0.00000000000E+00 -0.45593999997E+02  0.45594000000E+02  0.51100000000E-03 0. -1.
    9900012    2    1    2    0    0  0.21775597057E+02 -0.22174113975E+02  0.26216333105E+02  0.50528879507E+02  0.30000059750E+02 0.  0.
         12    1    1    2    0    0 -0.21775597057E+02  0.22174113975E+02 -0.26216333105E+02  0.40659120493E+02  0.00000000000E+00 0. -1.
         11    1    3    3    0    0  0.13270940375E+02  0.59612128398E+00  0.74045943243E+01  0.15208590875E+02  0.51100000000E-03 0. -1.
        -11    1    3    3    0    0  0.79812228224E+01 -0.25061525521E+02  0.13614811084E+02  0.29616601093E+02  0.51100000000E-03 0.  1.
        -12    1    3    3    0    0  0.52343385954E+00  0.22912902616E+01  0.51969276963E+01  0.57036875395E+01  0.00000000000E+00 0.  1.
</event>
<event>
 7    1  0.3540062E-011  0.5052886E+02  0.7816164E-02  0.1300439E+00
        -11   -1    0    0    0    0  0.00000000000E+00  0.00000000000E+00  0.45593999997E+02  0.45594000000E+02  0.51100000000E-03 0.  1.
         11   -1    0    0    0    0 -0.00000000000E+00 -0.00000000000E+00 -0.45593999997E+02  0.45594000000E+02  0.51100000000E-03 0. -1.
    9900012    2    1    2    0    0  0.13373332532E+02  0.36387735573E+02 -0.12257729708E+02  0.50528864978E+02  0.30000015587E+02 0.  0.
         12    1    1    2    0    0 -0.13373332532E+02 -0.36387735573E+02  0.12257729708E+02  0.40659135022E+02  0.00000000000E+00 0. -1.
         11    1    3    3    0    0  0.45945668197E+01 -0.76155124357E+00  0.80058803769E-01  0.46579409861E+01  0.51100000000E-03 0. -1.
        -11    1    3    3    0    0  0.14043849178E+00  0.17568362905E+02 -0.16461121371E+02  0.24075622841E+02  0.51100000000E-03 0.  1.
        -12    1    3    3    0    0  0.86383272208E+01  0.19580923911E+02  0.41233328586E+01  0.21795301151E+02  0.00000000000E+00 0.  1.
</event>
<event>
 7    1  0.3004200E-011  0.5052886E+02  0.7816164E-02  0.1300439E+00
        -11   -1    0    0    0    0  0.00000000000E+00  0.00000000000E+00  0.45593999997E+02  0.45594000000E+02  0.51100000000E-03 0. -1.
         11   -1    0    0    0    0 -0.00000000000E+00 -0.00000000000E+00 -0.45593999997E+02  0.45594000000E+02  0.51100000000E-03 0.  1.
    9900012    2    1    2    0    0 -0.90184920540E+01  0.34162625253E+02 -0.20118330941E+02  0.50528863229E+02  0.30000010270E+02 0.  0.
         12    1    1    2    0    0  0.90184920540E+01 -0.34162625253E+02  0.20118330941E+02  0.40659136771E+02  0.00000000000E+00 0. -1.
         11    1    3    3    0    0 -0.58209111233E+01  0.16796670135E+02 -0.73536696795E+01  0.19237660771E+02  0.51100000000E-03 0. -1.
        -11    1    3    3    0    0  0.77689011568E+01 -0.24438696298E+00 -0.26590079155E+01  0.82149786079E+01  0.51100000000E-03 0.  1.
        -12    1    3    3    0    0 -0.10966482087E+02  0.17610342081E+02 -0.10105653346E+02  0.23076223850E+02  0.00000000000E+00 0.  1.
</event>
<event>
 7    1  0.3004200E-011  0.5052886E+02  0.7816164E-02  0.1300439E+00
        -11   -1    0    0    0    0  0.00000000000E+00  0.00000000000E+00  0.45593999997E+02  0.45594000000E+02  0.51100000000E-03 0.  1.
         11   -1    0    0    0    0 -0.00000000000E+00 -0.00000000000E+00 -0.45593999997E+02  0.45594000000E+02  0.51100000000E-03 0. -1.
    9900012    2    1    2    0    0 -0.99694970613E+01 -0.31532688986E+02  0.23652999646E+02  0.50528859101E+02  0.29999997725E+02 0.  0.
         12    1    1    2    0    0  0.99694970613E+01  0.31532688986E+02 -0.23652999646E+02  0.40659140899E+02  0.00000000000E+00 0. -1.
         11    1    3    3    0    0  0.69740761023E+01 -0.18177052731E+02  0.57969907244E+01  0.20313741290E+02  0.51100000000E-03 0. -1.
        -11    1    3    3    0    0 -0.28158513222E+01 -0.10253986901E+01  0.89837317247E+01  0.94703694281E+01  0.51100000000E-03 0.  1.
         12    1    3    3    0    0 -0.14127721841E+02 -0.12330237565E+02  0.88722771971E+01  0.20744748383E+02  0.00000000000E+00 0. -1.
</event>
<event>
 7    1  0.3004200E-011  0.5052890E+02  0.7816164E-02  0.1300439E+00
        -11   -1    0    0    0    0  0.00000000000E+00  0.00000000000E+00  0.45593999997E+02  0.45594000000E+02  0.51100000000E-03 0.  1.
         11   -1    0    0    0    0 -0.00000000000E+00 -0.00000000000E+00 -0.45593999997E+02  0.45594000000E+02  0.51100000000E-03 0. -1.
    9900012    2    1    2    0    0  0.29027167543E+02  0.27072344310E+02 -0.88133104438E+01  0.50528896186E+02  0.30000110446E+02 0.  0.
         12    1    1    2    0    0 -0.29027167543E+02 -0.27072344310E+02  0.88133104438E+01  0.40659103814E+02  0.00000000000E+00 0. -1.
         11    1    3    3    0    0  0.50489805464E+01  0.81635463267E+01 -0.13155500468E+02  0.16285050998E+02  0.51100000000E-03 0. -1.
        -11    1    3    3    0    0  0.70850577593E+01  0.14457610375E+02 -0.52466712244E+00  0.16108873861E+02  0.51100000000E-03 0.  1.
         12    1    3    3    0    0  0.16893129237E+02  0.44511876082E+01  0.48668571465E+01  0.18134971327E+02  0.00000000000E+00 0. -1.
</event>
<event>
 7    1  0.3004200E-011  0.5052886E+02  0.7816164E-02  0.1300439E+00
        -11   -1    0    0    0    0  0.00000000000E+00  0.00000000000E+00  0.45593999997E+02  0.45594000000E+02  0.51100000000E-03 0. -1.
         11   -1    0    0    0    0 -0.00000000000E+00 -0.00000000000E+00 -0.45593999997E+02  0.45594000000E+02  0.51100000000E-03 0.  1.
    9900012    2    1    2    0    0  0.36348642377E+02 -0.13624177432E+02 -0.12096429910E+02  0.50528860438E+02  0.30000001787E+02 0.  0.
         12    1    1    2    0    0 -0.36348642377E+02  0.13624177432E+02  0.12096429910E+02  0.40659139562E+02  0.00000000000E+00 0. -1.
         11    1    3    3    0    0  0.84415652247E+01 -0.75127655193E+01  0.13049952459E+01  0.11375617875E+02  0.51100000000E-03 0. -1.
        -11    1    3    3    0    0  0.22234659598E+02  0.63057856382E+01 -0.77215639539E+01  0.24367305352E+02  0.51100000000E-03 0.  1.
        -12    1    3    3    0    0  0.56724175542E+01 -0.12417197551E+02 -0.56798612021E+01  0.14785937211E+02  0.00000000000E+00 0.  1.
</event>
<event>
 7    1  0.3004200E-011  0.5052887E+02  0.7816164E-02  0.1300439E+00
        -11   -1    0    0    0    0  0.00000000000E+00  0.00000000000E+00  0.45593999997E+02  0.45594000000E+02  0.51100000000E-03 0. -1.
         11   -1    0    0    0    0 -0.00000000000E+00 -0.00000000000E+00 -0.45593999997E+02  0.45594000000E+02  0.51100000000E-03 0.  1.
    9900012    2    1    2    0    0 -0.19135576490E+02 -0.12125852918E+02 -0.33763272912E+02  0.50528865795E+02  0.30000018071E+02 0.  0.
         12    1    1    2    0    0  0.19135576490E+02  0.12125852918E+02  0.33763272912E+02  0.40659134205E+02  0.00000000000E+00 0. -1.
         11    1    3    3    0    0 -0.12303421000E+02  0.14914843225E+01 -0.41827133069E+01  0.13080282285E+02  0.51100000000E-03 0. -1.
        -11    1    3    3    0    0 -0.28893596985E+00 -0.15588912162E+02 -0.24028026494E+02  0.28643388833E+02  0.51100000000E-03 0.  1.
        -12    1    3    3    0    0 -0.65432195201E+01  0.19715749215E+01 -0.55525331108E+01  0.88051946773E+01  0.00000000000E+00 0.  1.
</event>
<event>
 7    1  0.3004200E-011  0.5052881E+02  0.7816164E-02  0.1300439E+00
        -11   -1    0    0    0    0  0.00000000000E+00  0.00000000000E+00  0.45593999997E+02  0.45594000000E+02  0.51100000000E-03 0. -1.
         11   -1    0    0    0    0 -0.00000000000E+00 -0.00000000000E+00 -0.45593999997E+02  0.45594000000E+02  0.51100000000E-03 0.  1.
    9900012    2    1    2    0    0 -0.32277300154E+02  0.15049943566E+02 -0.19617471514E+02  0.50528805528E+02  0.29999834882E+02 0.  0.
         12    1    1    2    0    0  0.32277300154E+02 -0.15049943566E+02  0.19617471514E+02  0.40659194472E+02  0.00000000000E+00 0. -1.
         11    1    3    3    0    0 -0.34248377386E+02  0.10696495202E+02 -0.19620882964E+02  0.40894320042E+02  0.51100000000E-03 0. -1.
        -11    1    3    3    0    0 -0.27716382727E+01  0.29489098542E+01 -0.17188923809E+01  0.43968897326E+01  0.51100000000E-03 0.  1.
         12    1    3    3    0    0  0.47427155049E+01  0.14045385093E+01  0.17223038309E+01  0.52375957528E+01  0.00000000000E+00 0. -1.
</event>
<event>
 7    1  0.3004200E-011  0.5052886E+02  0.7816164E-02  0.1300439E+00
        -11   -1    0    0    0    0  0.00000000000E+00  0.00000000000E+00  0.45593999997E+02  0.45594000000E+02  0.51100000000E-03 0.  1.
         11   -1    0    0    0    0 -0.00000000000E+00 -0.00000000000E+00 -0.45593999997E+02  0.45594000000E+02  0.51100000000E-03 0. -1.
    9900012    2    1    2    0    0  0.17330096354E+02  0.57003582031E+01  0.36336472206E+02  0.50528861597E+02  0.30000005310E+02 0.  0.
         12    1    1    2    0    0 -0.17330096354E+02 -0.57003582031E+01 -0.36336472206E+02  0.40659138403E+02  0.00000000000E+00 0. -1.
         11    1    3    3    0    0 -0.25389064558E+01 -0.77068219963E+01  0.12805668234E+02  0.15160022772E+02  0.51100000000E-03 0. -1.
        -11    1    3    3    0    0  0.12054857383E+02  0.13344561947E+02  0.12709973743E+02  0.22021361286E+02  0.51100000000E-03 0.  1.
        -12    1    3    3    0    0  0.78141454272E+01  0.62618252847E-01  0.10820830229E+02  0.13347477539E+02  0.00000000000E+00 0.  1.
</event>
<event>
 7    1  0.3004200E-011  0.5052888E+02  0.7816164E-02  0.1300439E+00
        -11   -1    0    0    0    0  0.00000000000E+00  0.00000000000E+00  0.45593999997E+02  0.45594000000E+02  0.51100000000E-03 0.  1.
         11   -1    0    0    0    0 -0.00000000000E+00 -0.00000000000E+00 -0.45593999997E+02  0.45594000000E+02  0.51100000000E-03 0. -1.
    9900012    2    1    2    0    0 -0.40356250350E+02  0.30981112184E+01 -0.38651040450E+01  0.50528877226E+02  0.30000052817E+02 0.  0.
         12    1    1    2    0    0  0.40356250350E+02 -0.30981112184E+01  0.38651040450E+01  0.40659122774E+02  0.00000000000E+00 0. -1.
         11    1    3    3    0    0 -0.23902625762E+01 -0.46241727820E+01  0.22868771449E+00  0.52104344763E+01  0.51100000000E-03 0. -1.
        -11    1    3    3    0    0 -0.33965337541E+02  0.36432220806E+01 -0.11428333497E+02  0.36021160839E+02  0.51100000000E-03 0.  1.
        -12    1    3    3    0    0 -0.40006502330E+01  0.40790619197E+01  0.73345417376E+01  0.92972819109E+01  0.00000000000E+00 0.  1.
</event>
<event>
 7    1  0.3004200E-011  0.5052886E+02  0.7816164E-02  0.1300439E+00
        -11   -1    0    0    0    0  0.00000000000E+00  0.00000000000E+00  0.45593999997E+02  0.45594000000E+02  0.51100000000E-03 0.  1.
         11   -1    0    0    0    0 -0.00000000000E+00 -0.00000000000E+00 -0.45593999997E+02  0.45594000000E+02  0.51100000000E-03 0. -1.
    9900012    2    1    2    0    0  0.10121205324E+02  0.14458149941E+02  0.36629068711E+02  0.50528861156E+02  0.30000003969E+02 0.  0.
         12    1    1    2    0    0 -0.10121205324E+02 -0.14458149941E+02 -0.36629068711E+02  0.40659138844E+02  0.00000000000E+00 0. -1.
         11    1    3    3    0    0  0.91415106878E+01  0.12311669529E+02  0.32502842867E+01  0.15675100397E+02  0.51100000000E-03 0. -1.
        -11    1    3    3    0    0 -0.22633694532E+01 -0.25149935811E+01  0.59630256773E+01  0.68560709947E+01  0.51100000000E-03 0.  1.
         12    1    3    3    0    0  0.32430640891E+01  0.46614739933E+01  0.27415758747E+02  0.27997689765E+02  0.00000000000E+00 0. -1.
</event>
<event>
 7    1  0.3004200E-011  0.5052887E+02  0.7816164E-02  0.1300439E+00
        -11   -1    0    0    0    0  0.00000000000E+00  0.00000000000E+00  0.45593999997E+02  0.45594000000E+02  0.51100000000E-03 0.  1.
         11   -1    0    0    0    0 -0.00000000000E+00 -0.00000000000E+00 -0.45593999997E+02  0.45594000000E+02  0.51100000000E-03 0. -1.
    9900012    2    1    2    0    0 -0.25431182580E+02 -0.52173886209E+01  0.31292156237E+02  0.50528865314E+02  0.30000016609E+02 0.  0.
         12    1    1    2    0    0  0.25431182580E+02  0.52173886209E+01 -0.31292156237E+02  0.40659134686E+02  0.00000000000E+00 0. -1.
         11    1    3    3    0    0 -0.71664671919E+01 -0.10935285070E+02  0.94881878303E+00  0.13108736358E+02  0.51100000000E-03 0. -1.
        -11    1    3    3    0    0 -0.91776459806E+01 -0.19684354315E+01  0.17834965201E+02  0.20154153611E+02  0.51100000000E-03 0.  1.
         12    1    3    3    0    0 -0.90870694071E+01  0.76863318803E+01  0.12508372253E+02  0.17265975345E+02  0.00000000000E+00 0. -1.
</event>
<event>
 7    1  0.3290041E-011  0.5052885E+02  0.7816164E-02  0.1300439E+00
        -11   -1    0    0    0    0  0.00000000000E+00  0.00000000000E+00  0.45593999997E+02  0.45594000000E+02  0.51100000000E-03 0.  1.
         11   -1    0    0    0    0 -0.00000000000E+00 -0.00000000000E+00 -0.45593999997E+02  0.45594000000E+02  0.51100000000E-03 0. -1.
    9900012    2    1    2    0    0 -0.34800365480E+02  0.20043813477E+02  0.63518717375E+01  0.50528853787E+02  0.29999981570E+02 0.  0.
         12    1    1    2    0    0  0.34800365480E+02 -0.20043813477E+02 -0.63518717375E+01  0.40659146213E+02  0.00000000000E+00 0. -1.
         11    1    3    3    0    0  0.23543039815E+01  0.23937263868E+01 -0.15030928686E+01  0.36785814773E+01  0.51100000000E-03 0. -1.
        -11    1    3    3    0    0 -0.18879679378E+02  0.92289078912E+01  0.14644247265E+02  0.25613844157E+02  0.51100000000E-03 0.  1.
        -12    1    3    3    0    0 -0.18274990083E+02  0.84211791993E+01 -0.67892826587E+01  0.21236428152E+02  0.00000000000E+00 0.  1.
</event>
<event>
 7    1  0.3004200E-011  0.5052886E+02  0.7816164E-02  0.1300439E+00
        -11   -1    0    0    0    0  0.00000000000E+00  0.00000000000E+00  0.45593999997E+02  0.45594000000E+02  0.51100000000E-03 0.  1.
         11   -1    0    0    0    0 -0.00000000000E+00 -0.00000000000E+00 -0.45593999997E+02  0.45594000000E+02  0.51100000000E-03 0. -1.
    9900012    2    1    2    0    0 -0.30151271492E+02 -0.21906660187E+02 -0.16253152855E+02  0.50528856984E+02  0.29999991287E+02 0.  0.
         12    1    1    2    0    0  0.30151271492E+02  0.21906660187E+02  0.16253152855E+02  0.40659143016E+02  0.00000000000E+00 0. -1.
         11    1    3    3    0    0 -0.53296205782E+01 -0.20424955401E+02 -0.90432609544E+01  0.22964412198E+02  0.51100000000E-03 0. -1.
        -11    1    3    3    0    0 -0.19165335997E+02 -0.51669256078E+01 -0.51641029597E+01  0.20510367714E+02  0.51100000000E-03 0.  1.
        -12    1    3    3    0    0 -0.56563149162E+01  0.36852208222E+01 -0.20457889405E+01  0.70540770714E+01  0.00000000000E+00 0.  1.
</event>
<event>
 7    1  0.3004200E-011  0.5052886E+02  0.7816164E-02  0.1300439E+00
        -11   -1    0    0    0    0  0.00000000000E+00  0.00000000000E+00  0.45593999997E+02  0.45594000000E+02  0.51100000000E-03 0. -1.
         11   -1    0    0    0    0 -0.00000000000E+00 -0.00000000000E+00 -0.45593999997E+02  0.45594000000E+02  0.51100000000E-03 0.  1.
    9900012    2    1    2    0    0  0.27370817098E+02 -0.18182577569E+02 -0.23945733559E+02  0.50528856978E+02  0.29999991269E+02 0.  0.
         12    1    1    2    0    0 -0.27370817098E+02  0.18182577569E+02  0.23945733559E+02  0.40659143022E+02  0.00000000000E+00 0. -1.
         11    1    3    3    0    0  0.24403250320E+02 -0.14153748640E+00 -0.14163445930E+02  0.28215985893E+02  0.51100000000E-03 0. -1.
        -11    1    3    3    0    0  0.57188146168E+01 -0.10323811291E+02 -0.49256162832E+01  0.12788573659E+02  0.51100000000E-03 0.  1.
         12    1    3    3    0    0 -0.27512478393E+01 -0.77172287907E+01 -0.48566713457E+01  0.95242974251E+01  0.00000000000E+00 0. -1.
</event>
<event>
 7    1  0.3004200E-011  0.5052886E+02  0.7816164E-02  0.1300439E+00
        -11   -1    0    0    0    0  0.00000000000E+00  0.00000000000E+00  0.45593999997E+02  0.45594000000E+02  0.51100000000E-03 0.  1.
         11   -1    0    0    0    0 -0.00000000000E+00 -0.00000000000E+00 -0.45593999997E+02  0.45594000000E+02  0.51100000000E-03 0. -1.
    9900012    2    1    2    0    0 -0.91509158137E+01 -0.19136513307E+02  0.34687465445E+02  0.50528860058E+02  0.30000000633E+02 0.  0.
         12    1    1    2    0    0  0.91509158137E+01  0.19136513307E+02 -0.34687465445E+02  0.40659139942E+02  0.00000000000E+00 0. -1.
         11    1    3    3    0    0  0.54569192363E+01 -0.14916179204E+01 -0.25958368683E+01  0.62242478164E+01  0.51100000000E-03 0. -1.
        -11    1    3    3    0    0 -0.14427594088E+02 -0.13589773145E+02  0.32019823993E+02  0.37657755298E+02  0.51100000000E-03 0.  1.
         12    1    3    3    0    0 -0.18024096185E+00 -0.40551222413E+01  0.52634783210E+01  0.66468569438E+01  0.00000000000E+00 0. -1.
</event>
<event>
 7    1  0.3004200E-011  0.5052887E+02  0.7816164E-02  0.1300439E+00
        -11   -1    0    0    0    0  0.00000000000E+00  0.00000000000E+00  0.45593999997E+02  0.45594000000E+02  0.51100000000E-03 0.  1.
         11   -1    0    0    0    0 -0.00000000000E+00 -0.00000000000E+00 -0.45593999997E+02  0.45594000000E+02  0.51100000000E-03 0. -1.
    9900012    2    1    2    0    0  0.11642712808E+02  0.27680700995E+02  0.27411505414E+02  0.50528873126E+02  0.30000040354E+02 0.  0.
         12    1    1    2    0    0 -0.11642712808E+02 -0.27680700995E+02 -0.27411505414E+02  0.40659126874E+02  0.00000000000E+00 0. -1.
         11    1    3    3    0    0  0.17657115196E+02  0.93621900849E+01  0.12193359690E+02  0.23411585616E+02  0.51100000000E-03 0. -1.
        -11    1    3    3    0    0 -0.41194204757E+01  0.16896622180E+02  0.73160633087E+01  0.18867703854E+02  0.51100000000E-03 0.  1.
        -12    1    3    3    0    0 -0.18949819126E+01  0.14218887304E+01  0.79020824150E+01  0.82495836564E+01  0.00000000000E+00 0.  1.
</event>
<event>
 7    1  0.3004200E-011  0.5052886E+02  0.7816164E-02  0.1300439E+00
        -11   -1    0    0    0    0  0.00000000000E+00  0.00000000000E+00  0.45593999997E+02  0.45594000000E+02  0.51100000000E-03 0. -1.
         11   -1    0    0    0    0 -0.00000000000E+00 -0.00000000000E+00 -0.45593999997E+02  0.45594000000E+02  0.51100000000E-03 0.  1.
    9900012    2    1    2    0    0  0.17311835645E+01  0.36660496744E+02 -0.17497903125E+02  0.50528860415E+02  0.30000001717E+02 0.  0.
         12    1    1    2    0    0 -0.17311835645E+01 -0.36660496744E+02  0.17497903125E+02  0.40659139585E+02  0.00000000000E+00 0. -1.
         11    1    3    3    0    0  0.45749521716E+01  0.40775354168E+01  0.66794745546E+00  0.61646278486E+01  0.51100000000E-03 0. -1.
        -11    1    3    3    0    0 -0.46138228139E+01  0.35163731014E+02 -0.11983592139E+02  0.37435034668E+02  0.51100000000E-03 0.  1.
        -12    1    3    3    0    0  0.17700542068E+01 -0.25807696872E+01 -0.61822584411E+01  0.69291978977E+01  0.00000000000E+00 0.  1.
</event>
<event>
 7    1  0.3004200E-011  0.5052886E+02  0.7816164E-02  0.1300439E+00
        -11   -1    0    0    0    0  0.00000000000E+00  0.00000000000E+00  0.45593999997E+02  0.45594000000E+02  0.51100000000E-03 0. -1.
         11   -1    0    0    0    0 -0.00000000000E+00 -0.00000000000E+00 -0.45593999997E+02  0.45594000000E+02  0.51100000000E-03 0.  1.
    9900012    2    1    2    0    0  0.33463363854E+02 -0.23085016331E+02 -0.67145900022E+00  0.50528861339E+02  0.30000004528E+02 0.  0.
         12    1    1    2    0    0 -0.33463363854E+02  0.23085016331E+02  0.67145900022E+00  0.40659138661E+02  0.00000000000E+00 0. -1.
         11    1    3    3    0    0  0.30813766994E+02 -0.13997262066E+02  0.10819552194E+02  0.35531314241E+02  0.51100000000E-03 0. -1.
        -11    1    3    3    0    0  0.24732701334E+01 -0.79128976233E+01 -0.89923521672E+01  0.12230838553E+02  0.51100000000E-03 0.  1.
         12    1    3    3    0    0  0.17632672655E+00 -0.11748566411E+01 -0.24986590275E+01  0.27667085457E+01  0.00000000000E+00 0. -1.
</event>
<event>
 7    1  0.3004200E-011  0.5052885E+02  0.7816164E-02  0.1300439E+00
        -11   -1    0    0    0    0  0.00000000000E+00  0.00000000000E+00  0.45593999997E+02  0.45594000000E+02  0.51100000000E-03 0.  1.
         11   -1    0    0    0    0 -0.00000000000E+00 -0.00000000000E+00 -0.45593999997E+02  0.45594000000E+02  0.51100000000E-03 0. -1.
    9900012    2    1    2    0    0 -0.76234088580E+01  0.20241304115E+02  0.34428762017E+02  0.50528850858E+02  0.29999972668E+02 0.  0.
         12    1    1    2    0    0  0.76234088580E+01 -0.20241304115E+02 -0.34428762017E+02  0.40659149142E+02  0.00000000000E+00 0. -1.
         11    1    3    3    0    0  0.44641291873E+01  0.50525944572E+01 -0.16780315453E+01  0.69478737955E+01  0.51100000000E-03 0. -1.
        -11    1    3    3    0    0 -0.16007917692E+01  0.11492501427E+02  0.26335908540E+02  0.28778815163E+02  0.51100000000E-03 0.  1.
        -12    1    3    3    0    0 -0.10486746276E+02  0.36962082314E+01  0.97708850229E+01  0.14802161899E+02  0.00000000000E+00 0.  1.
</event>
<event>
 7    1  0.3004200E-011  0.5052887E+02  0.7816164E-02  0.1300439E+00
        -11   -1    0    0    0    0  0.00000000000E+00  0.00000000000E+00  0.45593999997E+02  0.45594000000E+02  0.51100000000E-03 0. -1.
         11   -1    0    0    0    0 -0.00000000000E+00 -0.00000000000E+00 -0.45593999997E+02  0.45594000000E+02  0.51100000000E-03 0.  1.
    9900012    2    1    2    0    0 -0.12259752225E+02  0.32789906978E+02  0.20680548612E+02  0.50528872918E+02  0.30000039720E+02 0.  0.
         12    1    1    2    0    0  0.12259752225E+02 -0.32789906978E+02 -0.20680548612E+02  0.40659127082E+02  0.00000000000E+00 0. -1.
         11    1    3    3    0    0 -0.14732220304E+02  0.14489837242E+02  0.24084003512E+00  0.20665229313E+02  0.51100000000E-03 0. -1.
        -11    1    3    3    0    0  0.69074923972E+00  0.17279679833E+02  0.21468261036E+02  0.27567203373E+02  0.51100000000E-03 0.  1.
         12    1    3    3    0    0  0.17817188387E+01  0.10203899032E+01 -0.10285524597E+01  0.22964402315E+01  0.00000000000E+00 0. -1.
</event>
<event>
 7    1  0.3004200E-011  0.5052888E+02  0.7816164E-02  0.1300439E+00
        -11   -1    0    0    0    0  0.00000000000E+00  0.00000000000E+00  0.45593999997E+02  0.45594000000E+02  0.51100000000E-03 0.  1.
         11   -1    0    0    0    0 -0.00000000000E+00 -0.00000000000E+00 -0.45593999997E+02  0.45594000000E+02  0.51100000000E-03 0. -1.
    9900012    2    1    2    0    0 -0.20608511943E+02  0.76243226985E+01  0.34209985371E+02  0.50528878512E+02  0.30000056724E+02 0.  0.
         12    1    1    2    0    0  0.20608511943E+02 -0.76243226985E+01 -0.34209985371E+02  0.40659121488E+02  0.00000000000E+00 0. -1.
         11    1    3    3    0    0 -0.16186103271E+02 -0.21943429209E+01  0.80655487375E+01  0.18216974410E+02  0.51100000000E-03 0. -1.
        -11    1    3    3    0    0 -0.16364355296E+01  0.13924187196E+02  0.19663529248E+02  0.24149850788E+02  0.51100000000E-03 0.  1.
         12    1    3    3    0    0 -0.27859731426E+01 -0.41055215769E+01  0.64809073851E+01  0.81620533142E+01  0.00000000000E+00 0. -1.
</event>
<event>
 7    1  0.3004200E-011  0.5052886E+02  0.7816164E-02  0.1300439E+00
        -11   -1    0    0    0    0  0.00000000000E+00  0.00000000000E+00  0.45593999997E+02  0.45594000000E+02  0.51100000000E-03 0. -1.
         11   -1    0    0    0    0 -0.00000000000E+00 -0.00000000000E+00 -0.45593999997E+02  0.45594000000E+02  0.51100000000E-03 0.  1.
    9900012    2    1    2    0    0  0.34256159437E+02  0.17269927106E+02 -0.13469629116E+02  0.50528858959E+02  0.29999997292E+02 0.  0.
         12    1    1    2    0    0 -0.34256159437E+02 -0.17269927106E+02  0.13469629116E+02  0.40659141041E+02  0.00000000000E+00 0. -1.
         11    1    3    3    0    0  0.21091400080E+02  0.15967735082E+02 -0.20815106804E+02  0.33661318936E+02  0.51100000000E-03 0.  1.
        -11    1    3    3    0    0  0.59938303294E+01 -0.31166827741E+01  0.34912694465E+01  0.76045168250E+01  0.51100000000E-03 0. -1.
        -12    1    3    3    0    0  0.71709290275E+01  0.44188747986E+01  0.38542082413E+01  0.92630231982E+01  0.00000000000E+00 0.  1.
</event>
<event>
 7    1  0.3004200E-011  0.5052890E+02  0.7816164E-02  0.1300439E+00
        -11   -1    0    0    0    0  0.00000000000E+00  0.00000000000E+00  0.45593999997E+02  0.45594000000E+02  0.51100000000E-03 0.  1.
         11   -1    0    0    0    0 -0.00000000000E+00 -0.00000000000E+00 -0.45593999997E+02  0.45594000000E+02  0.51100000000E-03 0. -1.
    9900012    2    1    2    0    0 -0.51430703248E+01  0.21502501369E+01  0.40275145159E+02  0.50528904270E+02  0.30000135020E+02 0.  0.
         12    1    1    2    0    0  0.51430703248E+01 -0.21502501369E+01 -0.40275145159E+02  0.40659095730E+02  0.00000000000E+00 0. -1.
         11    1    3    3    0    0 -0.27808246064E+01  0.69247179261E+01  0.56390879836E+01  0.93532891218E+01  0.51100000000E-03 0. -1.
        -11    1    3    3    0    0 -0.51858946319E+01 -0.10036399334E+02  0.33149636729E+02  0.35021725118E+02  0.51100000000E-03 0.  1.
        -12    1    3    3    0    0  0.28236489135E+01  0.52619315443E+01  0.14864204457E+01  0.61538900302E+01  0.00000000000E+00 0.  1.
</event>
<event>
 7    1  0.3004200E-011  0.5052885E+02  0.7816164E-02  0.1300439E+00
        -11   -1    0    0    0    0  0.00000000000E+00  0.00000000000E+00  0.45593999997E+02  0.45594000000E+02  0.51100000000E-03 0. -1.
         11   -1    0    0    0    0 -0.00000000000E+00 -0.00000000000E+00 -0.45593999997E+02  0.45594000000E+02  0.51100000000E-03 0.  1.
    9900012    2    1    2    0    0 -0.22372718457E+02 -0.33220905650E+02 -0.69999754218E+01  0.50528846549E+02  0.29999959572E+02 0.  0.
         12    1    1    2    0    0  0.22372718457E+02  0.33220905650E+02  0.69999754218E+01  0.40659153451E+02  0.00000000000E+00 0. -1.
         11    1    3    3    0    0 -0.14194062493E+02 -0.11884802528E+02  0.10168748637E+02  0.21121633230E+02  0.51100000000E-03 0. -1.
        -11    1    3    3    0    0 -0.59941447554E+01 -0.14489076506E+02 -0.15459889160E+02  0.22019792970E+02  0.51100000000E-03 0.  1.
         12    1    3    3    0    0 -0.21845112091E+01 -0.68470266164E+01 -0.17088348990E+01  0.73874203495E+01  0.00000000000E+00 0. -1.
</event>
<event>
 7    1  0.3004200E-011  0.5052884E+02  0.7816164E-02  0.1300439E+00
        -11   -1    0    0    0    0  0.00000000000E+00  0.00000000000E+00  0.45593999997E+02  0.45594000000E+02  0.51100000000E-03 0. -1.
         11   -1    0    0    0    0 -0.00000000000E+00 -0.00000000000E+00 -0.45593999997E+02  0.45594000000E+02  0.51100000000E-03 0.  1.
    9900012    2    1    2    0    0 -0.15838086233E+02  0.23872560683E+02 -0.28851748481E+02  0.50528837201E+02  0.29999931157E+02 0.  0.
         12    1    1    2    0    0  0.15838086233E+02 -0.23872560683E+02  0.28851748481E+02  0.40659162799E+02  0.00000000000E+00 0. -1.
         11    1    3    3    0    0  0.15237852534E+01  0.23331630941E+02 -0.13295529059E+02  0.26897174890E+02  0.51100000000E-03 0. -1.
        -11    1    3    3    0    0 -0.10379167949E+02  0.21767061116E+01 -0.88418099632E+01  0.13807345164E+02  0.51100000000E-03 0.  1.
         12    1    3    3    0    0 -0.69827035375E+01 -0.16357763693E+01 -0.67144094587E+01  0.98243171468E+01  0.00000000000E+00 0. -1.
</event>
<event>
 7    1  0.3004200E-011  0.5052884E+02  0.7816164E-02  0.1300439E+00
        -11   -1    0    0    0    0  0.00000000000E+00  0.00000000000E+00  0.45593999997E+02  0.45594000000E+02  0.51100000000E-03 0.  1.
         11   -1    0    0    0    0 -0.00000000000E+00 -0.00000000000E+00 -0.45593999997E+02  0.45594000000E+02  0.51100000000E-03 0. -1.
    9900012    2    1    2    0    0 -0.65752476295E+01 -0.14475355472E+02  0.37421885120E+02  0.50528840105E+02  0.29999939982E+02 0.  0.
         12    1    1    2    0    0  0.65752476295E+01  0.14475355472E+02 -0.37421885120E+02  0.40659159895E+02  0.00000000000E+00 0. -1.
         11    1    3    3    0    0  0.59700678860E+01  0.47635670564E+01  0.31943846353E+01  0.82787302845E+01  0.51100000000E-03 0. -1.
        -11    1    3    3    0    0 -0.12468880899E+02 -0.11303683061E+02  0.23629947496E+02  0.29010699070E+02  0.51100000000E-03 0.  1.
         12    1    3    3    0    0 -0.76434616334E-01 -0.79352394671E+01  0.10597552989E+02  0.13239410750E+02  0.00000000000E+00 0. -1.
</event>
<event>
 7    1  0.3004200E-011  0.5052885E+02  0.7816164E-02  0.1300439E+00
        -11   -1    0    0    0    0  0.00000000000E+00  0.00000000000E+00  0.45593999997E+02  0.45594000000E+02  0.51100000000E-03 0. -1.
         11   -1    0    0    0    0 -0.00000000000E+00 -0.00000000000E+00 -0.45593999997E+02  0.45594000000E+02  0.51100000000E-03 0.  1.
    9900012    2    1    2    0    0  0.28815561062E+02 -0.25385980658E+02 -0.13355978692E+02  0.50528846786E+02  0.29999960290E+02 0.  0.
         12    1    1    2    0    0 -0.28815561062E+02  0.25385980658E+02  0.13355978692E+02  0.40659153214E+02  0.00000000000E+00 0. -1.
         11    1    3    3    0    0  0.81160061116E+01  0.15704865175E+01 -0.23587301894E+01  0.85964871589E+01  0.51100000000E-03 0. -1.
        -11    1    3    3    0    0 -0.32368768882E+00 -0.15958336443E+02 -0.84759890537E+01  0.18072511349E+02  0.51100000000E-03 0.  1.
        -12    1    3    3    0    0  0.21023242639E+02 -0.10998130732E+02 -0.25212594491E+01  0.23859848278E+02  0.00000000000E+00 0.  1.
</event>
<event>
 7    1  0.3004200E-011  0.5052887E+02  0.7816164E-02  0.1300439E+00
        -11   -1    0    0    0    0  0.00000000000E+00  0.00000000000E+00  0.45593999997E+02  0.45594000000E+02  0.51100000000E-03 0.  1.
         11   -1    0    0    0    0 -0.00000000000E+00 -0.00000000000E+00 -0.45593999997E+02  0.45594000000E+02  0.51100000000E-03 0. -1.
    9900012    2    1    2    0    0 -0.44535567121E+01  0.18656670687E+02  0.35850511171E+02  0.50528872123E+02  0.30000037304E+02 0.  0.
         12    1    1    2    0    0  0.44535567121E+01 -0.18656670687E+02 -0.35850511171E+02  0.40659127877E+02  0.00000000000E+00 0. -1.
         11    1    3    3    0    0 -0.15467679188E+01  0.50328839979E+01  0.28209360847E+01  0.59732815927E+01  0.51100000000E-03 0. -1.
        -11    1    3    3    0    0  0.13256621787E+00 -0.85527188119E+00  0.29280564608E+02  0.29293352963E+02  0.51100000000E-03 0.  1.
        -12    1    3    3    0    0 -0.30393550112E+01  0.14479058570E+02  0.37490104784E+01  0.15262237567E+02  0.00000000000E+00 0.  1.
</event>
<event>
 7    1  0.3004200E-011  0.5052885E+02  0.7816164E-02  0.1300439E+00
        -11   -1    0    0    0    0  0.00000000000E+00  0.00000000000E+00  0.45593999997E+02  0.45594000000E+02  0.51100000000E-03 0.  1.
         11   -1    0    0    0    0 -0.00000000000E+00 -0.00000000000E+00 -0.45593999997E+02  0.45594000000E+02  0.51100000000E-03 0. -1.
    9900012    2    1    2    0    0 -0.39463155579E+02  0.67506395250E+01  0.70890306867E+01  0.50528854186E+02  0.29999982785E+02 0.  0.
         12    1    1    2    0    0  0.39463155579E+02 -0.67506395250E+01 -0.70890306867E+01  0.40659145814E+02  0.00000000000E+00 0. -1.
         11    1    3    3    0    0 -0.27305486115E+02 -0.55333670034E+01  0.11085870566E+01  0.27882551675E+02  0.51100000000E-03 0.  1.
        -11    1    3    3    0    0  0.26580154698E+01  0.41821948247E+01  0.12762999957E+01  0.51171028649E+01  0.51100000000E-03 0. -1.
         12    1    3    3    0    0 -0.14815684933E+02  0.81018117037E+01  0.47041436344E+01  0.17529199647E+02  0.00000000000E+00 0. -1.
</event>
<event>
 7    1  0.3004200E-011  0.5052885E+02  0.7816164E-02  0.1300439E+00
        -11   -1    0    0    0    0  0.00000000000E+00  0.00000000000E+00  0.45593999997E+02  0.45594000000E+02  0.51100000000E-03 0. -1.
         11   -1    0    0    0    0 -0.00000000000E+00 -0.00000000000E+00 -0.45593999997E+02  0.45594000000E+02  0.51100000000E-03 0.  1.
    9900012    2    1    2    0    0 -0.46715189325E+01  0.36288784540E+02 -0.17733222339E+02  0.50528854079E+02  0.29999982458E+02 0.  0.
         12    1    1    2    0    0  0.46715189325E+01 -0.36288784540E+02  0.17733222339E+02  0.40659145921E+02  0.00000000000E+00 0. -1.
         11    1    3    3    0    0 -0.82302450682E+01  0.11321171733E+02 -0.23480674338E+01  0.14192226190E+02  0.51100000000E-03 0. -1.
        -11    1    3    3    0    0  0.10363659732E+02  0.15851941352E+02 -0.16213134551E+02  0.24931009203E+02  0.51100000000E-03 0.  1.
        -12    1    3    3    0    0 -0.68049335958E+01  0.91156714556E+01  0.82797964557E+00  0.11405618687E+02  0.00000000000E+00 0.  1.
</event>
<event>
 7    1  0.3004200E-011  0.5052886E+02  0.7816164E-02  0.1300439E+00
        -11   -1    0    0    0    0  0.00000000000E+00  0.00000000000E+00  0.45593999997E+02  0.45594000000E+02  0.51100000000E-03 0. -1.
         11   -1    0    0    0    0 -0.00000000000E+00 -0.00000000000E+00 -0.45593999997E+02  0.45594000000E+02  0.51100000000E-03 0.  1.
    9900012    2    1    2    0    0 -0.24405177015E+00  0.37134923530E+02  0.16556078371E+02  0.50528857881E+02  0.29999994015E+02 0.  0.
         12    1    1    2    0    0  0.24405177015E+00 -0.37134923530E+02 -0.16556078371E+02  0.40659142119E+02  0.00000000000E+00 0. -1.
         11    1    3    3    0    0 -0.57539057268E+01  0.28377103483E+02  0.16994141505E+02  0.33573326898E+02  0.51100000000E-03 0. -1.
        -11    1    3    3    0    0  0.30759690067E+01  0.12282700191E+02 -0.49412514206E+00  0.12671640353E+02  0.51100000000E-03 0.  1.
         12    1    3    3    0    0  0.24338849499E+01 -0.35248801446E+01  0.56062008136E-01  0.42838906303E+01  0.00000000000E+00 0. -1.
</event>
<event>
 7    1  0.3004200E-011  0.5052885E+02  0.7816164E-02  0.1300439E+00
        -11   -1    0    0    0    0  0.00000000000E+00  0.00000000000E+00  0.45593999997E+02  0.45594000000E+02  0.51100000000E-03 0.  1.
         11   -1    0    0    0    0 -0.00000000000E+00 -0.00000000000E+00 -0.45593999997E+02  0.45594000000E+02  0.51100000000E-03 0. -1.
    9900012    2    1    2    0    0  0.18792498056E+02 -0.53739623582E+00  0.36051620052E+02  0.50528854826E+02  0.29999984730E+02 0.  0.
         12    1    1    2    0    0 -0.18792498056E+02  0.53739623582E+00 -0.36051620052E+02  0.40659145174E+02  0.00000000000E+00 0. -1.
         11    1    3    3    0    0  0.10208776680E+02 -0.37431283211E+01  0.88061514042E+01  0.13992084682E+02  0.51100000000E-03 0. -1.
        -11    1    3    3    0    0 -0.70198220128E+01  0.35389274839E+01  0.48418108598E+01  0.92328241341E+01  0.51100000000E-03 0.  1.
        -12    1    3    3    0    0  0.15603543389E+02 -0.33319539862E+00  0.22403657788E+02  0.27303946011E+02  0.00000000000E+00 0.  1.
</event>
<event>
 7    1  0.3004200E-011  0.5052885E+02  0.7816164E-02  0.1300439E+00
        -11   -1    0    0    0    0  0.00000000000E+00  0.00000000000E+00  0.45593999997E+02  0.45594000000E+02  0.51100000000E-03 0. -1.
         11   -1    0    0    0    0 -0.00000000000E+00 -0.00000000000E+00 -0.45593999997E+02  0.45594000000E+02  0.51100000000E-03 0.  1.
    9900012    2    1    2    0    0 -0.85826712852E+01 -0.36969142180E+02 -0.14587216144E+02  0.50528848573E+02  0.29999965724E+02 0.  0.
         12    1    1    2    0    0  0.85826712852E+01  0.36969142180E+02  0.14587216144E+02  0.40659151427E+02  0.00000000000E+00 0. -1.
         11    1    3    3    0    0 -0.87511880791E+00  0.38352973907E+00 -0.18891382583E+00  0.97396954954E+00  0.51100000000E-03 0. -1.
        -11    1    3    3    0    0  0.18885406556E+01 -0.11151153925E+02  0.79337610794E+01  0.13815186745E+02  0.51100000000E-03 0.  1.
        -12    1    3    3    0    0 -0.95960931329E+01 -0.26201517994E+02 -0.22332063398E+02  0.35739692279E+02  0.00000000000E+00 0.  1.
</event>
<event>
 7    1  0.3004200E-011  0.5052885E+02  0.7816164E-02  0.1300439E+00
        -11   -1    0    0    0    0  0.00000000000E+00  0.00000000000E+00  0.45593999997E+02  0.45594000000E+02  0.51100000000E-03 0. -1.
         11   -1    0    0    0    0 -0.00000000000E+00 -0.00000000000E+00 -0.45593999997E+02  0.45594000000E+02  0.51100000000E-03 0.  1.
    9900012    2    1    2    0    0  0.36039315947E+02  0.18533453197E+02 -0.32932251735E+01  0.50528849574E+02  0.29999968765E+02 0.  0.
         12    1    1    2    0    0 -0.36039315947E+02 -0.18533453197E+02  0.32932251735E+01  0.40659150426E+02  0.00000000000E+00 0. -1.
         11    1    3    3    0    0  0.51505207233E+01  0.28353789722E+01  0.10016465803E+02  0.11614509249E+02  0.51100000000E-03 0. -1.
        -11    1    3    3    0    0  0.27903921735E+02  0.17553525336E+02 -0.12796581541E+02  0.35362516869E+02  0.51100000000E-03 0.  1.
        -12    1    3    3    0    0  0.29848734890E+01 -0.18554511112E+01 -0.51310943570E+00  0.35518234563E+01  0.00000000000E+00 0.  1.
</event>
<event>
 7    1  0.3004200E-011  0.5052886E+02  0.7816164E-02  0.1300439E+00
        -11   -1    0    0    0    0  0.00000000000E+00  0.00000000000E+00  0.45593999997E+02  0.45594000000E+02  0.51100000000E-03 0.  1.
         11   -1    0    0    0    0 -0.00000000000E+00 -0.00000000000E+00 -0.45593999997E+02  0.45594000000E+02  0.51100000000E-03 0. -1.
    9900012    2    1    2    0    0  0.14965241964E+02  0.53830073987E+01  0.37419652274E+02  0.50528860658E+02  0.30000002456E+02 0.  0.
         12    1    1    2    0    0 -0.14965241964E+02 -0.53830073987E+01 -0.37419652274E+02  0.40659139342E+02  0.00000000000E+00 0. -1.
         11    1    3    3    0    0  0.18823194935E+01 -0.45627233311E+01  0.16125725314E+02  0.16864180621E+02  0.51100000000E-03 0. -1.
        -11    1    3    3    0    0  0.15253078537E+02  0.11014055322E+02  0.23695375380E+02  0.30256183404E+02  0.51100000000E-03 0.  1.
        -12    1    3    3    0    0 -0.21701560659E+01 -0.10683245922E+01 -0.24014484197E+01  0.34084966330E+01  0.00000000000E+00 0.  1.
</event>
<event>
 7    1  0.3004200E-011  0.5052897E+02  0.7816164E-02  0.1300438E+00
        -11   -1    0    0    0    0  0.00000000000E+00  0.00000000000E+00  0.45593999997E+02  0.45594000000E+02  0.51100000000E-03 0. -1.
         11   -1    0    0    0    0 -0.00000000000E+00 -0.00000000000E+00 -0.45593999997E+02  0.45594000000E+02  0.51100000000E-03 0.  1.
    9900012    2    1    2    0    0 -0.21731862955E+02  0.17711246926E+02 -0.29448162887E+02  0.50528973541E+02  0.30000345574E+02 0.  0.
         12    1    1    2    0    0  0.21731862955E+02 -0.17711246926E+02  0.29448162887E+02  0.40659026459E+02  0.00000000000E+00 0. -1.
         11    1    3    3    0    0  0.38379961123E+01 -0.32423554677E+01 -0.56131120242E+01  0.75332668872E+01  0.51100000000E-03 0. -1.
        -11    1    3    3    0    0 -0.15569518077E+02  0.18464386682E+02 -0.21705191954E+02  0.32472431795E+02  0.51100000000E-03 0.  1.
         12    1    3    3    0    0 -0.10000340990E+02  0.24892157123E+01 -0.21298589091E+01  0.10523274859E+02  0.00000000000E+00 0. -1.
</event>
<event>
 7    1  0.3004200E-011  0.5052887E+02  0.7816164E-02  0.1300439E+00
        -11   -1    0    0    0    0  0.00000000000E+00  0.00000000000E+00  0.45593999997E+02  0.45594000000E+02  0.51100000000E-03 0.  1.
         11   -1    0    0    0    0 -0.00000000000E+00 -0.00000000000E+00 -0.45593999997E+02  0.45594000000E+02  0.51100000000E-03 0. -1.
    9900012    2    1    2    0    0 -0.14444614990E+02  0.94249601202E+01  0.36819670980E+02  0.50528868841E+02  0.30000027330E+02 0.  0.
         12    1    1    2    0    0  0.14444614990E+02 -0.94249601202E+01 -0.36819670980E+02  0.40659131159E+02  0.00000000000E+00 0. -1.
         11    1    3    3    0    0 -0.79764638667E+00 -0.86021455345E+01  0.11252081267E+02  0.14185995935E+02  0.51100000000E-03 0.  1.
        -11    1    3    3    0    0 -0.87490268285E+01  0.18104183579E+02  0.16395068750E+02  0.25944271296E+02  0.51100000000E-03 0. -1.
        -12    1    3    3    0    0 -0.48979417749E+01 -0.77077924109E-01  0.91725209634E+01  0.10398601611E+02  0.00000000000E+00 0.  1.
</event>
<event>
 7    1  0.3004200E-011  0.5052886E+02  0.7816164E-02  0.1300439E+00
        -11   -1    0    0    0    0  0.00000000000E+00  0.00000000000E+00  0.45593999997E+02  0.45594000000E+02  0.51100000000E-03 0.  1.
         11   -1    0    0    0    0 -0.00000000000E+00 -0.00000000000E+00 -0.45593999997E+02  0.45594000000E+02  0.51100000000E-03 0. -1.
    9900012    2    1    2    0    0 -0.14012094103E+02  0.58862712643E+01  0.37711785104E+02  0.50528859499E+02  0.29999998933E+02 0.  0.
         12    1    1    2    0    0  0.14012094103E+02 -0.58862712643E+01 -0.37711785104E+02  0.40659140501E+02  0.00000000000E+00 0. -1.
         11    1    3    3    0    0  0.48816047975E+01  0.38771378304E+01  0.10351482198E+00  0.62348198638E+01  0.51100000000E-03 0. -1.
        -11    1    3    3    0    0 -0.19449723198E+02 -0.17759300035E+01  0.30392961988E+02  0.36127244546E+02  0.51100000000E-03 0.  1.
        -12    1    3    3    0    0  0.55602429722E+00  0.37850634374E+01  0.72153082940E+01  0.81667950888E+01  0.00000000000E+00 0.  1.
</event>
<event>
 7    1  0.3004200E-011  0.5052885E+02  0.7816164E-02  0.1300439E+00
        -11   -1    0    0    0    0  0.00000000000E+00  0.00000000000E+00  0.45593999997E+02  0.45594000000E+02  0.51100000000E-03 0. -1.
         11   -1    0    0    0    0 -0.00000000000E+00 -0.00000000000E+00 -0.45593999997E+02  0.45594000000E+02  0.51100000000E-03 0.  1.
    9900012    2    1    2    0    0  0.23162820211E+02  0.33407352628E+02 -0.77413350713E+00  0.50528846880E+02  0.29999960578E+02 0.  0.
         12    1    1    2    0    0 -0.23162820211E+02 -0.33407352628E+02  0.77413350713E+00  0.40659153120E+02  0.00000000000E+00 0. -1.
         11    1    3    3    0    0  0.14264596838E+02  0.19311199662E+02 -0.13453270292E+02  0.27520749211E+02  0.51100000000E-03 0. -1.
        -11    1    3    3    0    0  0.10524943627E+02  0.90718770876E+01  0.86759719929E+01  0.16381266206E+02  0.51100000000E-03 0.  1.
         12    1    3    3    0    0 -0.16267202542E+01  0.50242758779E+01  0.40031647919E+01  0.66268314626E+01  0.00000000000E+00 0. -1.
</event>
<event>
 7    1  0.3004200E-011  0.5052890E+02  0.7816164E-02  0.1300439E+00
        -11   -1    0    0    0    0  0.00000000000E+00  0.00000000000E+00  0.45593999997E+02  0.45594000000E+02  0.51100000000E-03 0.  1.
         11   -1    0    0    0    0 -0.00000000000E+00 -0.00000000000E+00 -0.45593999997E+02  0.45594000000E+02  0.51100000000E-03 0. -1.
    9900012    2    1    2    0    0 -0.58058947419E+01 -0.24304787969E+02  0.32073840215E+02  0.50528900673E+02  0.30000124085E+02 0.  0.
         12    1    1    2    0    0  0.58058947419E+01  0.24304787969E+02 -0.32073840215E+02  0.40659099327E+02  0.00000000000E+00 0. -1.
         11    1    3    3    0    0  0.19197955118E+01 -0.34386054366E+01 -0.53780150763E+01  0.66657834182E+01  0.51100000000E-03 0. -1.
        -11    1    3    3    0    0 -0.75437210230E+01 -0.17182899611E+02  0.33875036339E+02  0.38725674341E+02  0.51100000000E-03 0.  1.
         12    1    3    3    0    0 -0.18196923072E+00 -0.36832829213E+01  0.35768189518E+01  0.51374429138E+01  0.00000000000E+00 0. -1.
</event>
<event>
 7    1  0.3004200E-011  0.5052888E+02  0.7816164E-02  0.1300439E+00
        -11   -1    0    0    0    0  0.00000000000E+00  0.00000000000E+00  0.45593999997E+02  0.45594000000E+02  0.51100000000E-03 0.  1.
         11   -1    0    0    0    0 -0.00000000000E+00 -0.00000000000E+00 -0.45593999997E+02  0.45594000000E+02  0.51100000000E-03 0. -1.
    9900012    2    1    2    0    0  0.14915086904E+02 -0.31385373329E+02 -0.21110712930E+02  0.50528884457E+02  0.30000074794E+02 0.  0.
         12    1    1    2    0    0 -0.14915086904E+02  0.31385373329E+02  0.21110712930E+02  0.40659115543E+02  0.00000000000E+00 0. -1.
         11    1    3    3    0    0  0.44640921165E+00  0.78283297284E+00  0.13407746084E+01  0.16154830421E+01  0.51100000000E-03 0. -1.
        -11    1    3    3    0    0  0.56633877576E+01 -0.33644499150E+02 -0.20403435475E+02  0.39753320156E+02  0.51100000000E-03 0.  1.
        -12    1    3    3    0    0  0.88052899351E+01  0.14762928482E+01 -0.20480520634E+01  0.91600812589E+01  0.00000000000E+00 0.  1.
</event>
<event>
 7    1  0.3004200E-011  0.5052886E+02  0.7816164E-02  0.1300439E+00
        -11   -1    0    0    0    0  0.00000000000E+00  0.00000000000E+00  0.45593999997E+02  0.45594000000E+02  0.51100000000E-03 0.  1.
         11   -1    0    0    0    0 -0.00000000000E+00 -0.00000000000E+00 -0.45593999997E+02  0.45594000000E+02  0.51100000000E-03 0. -1.
    9900012    2    1    2    0    0 -0.10190397446E+01  0.31751105994E+02  0.25377045472E+02  0.50528860674E+02  0.30000002505E+02 0.  0.
         12    1    1    2    0    0  0.10190397446E+01 -0.31751105994E+02 -0.25377045472E+02  0.40659139326E+02  0.00000000000E+00 0. -1.
         11    1    3    3    0    0 -0.28952763927E+01  0.24744649654E+02  0.25261705454E+01  0.25041203042E+02  0.51100000000E-03 0. -1.
        -11    1    3    3    0    0  0.28751057256E+01 -0.10927827162E+01  0.51988823100E+01  0.60405947168E+01  0.51100000000E-03 0.  1.
         12    1    3    3    0    0 -0.99886907748E+00  0.80992390561E+01  0.17651992617E+02  0.19447062916E+02  0.00000000000E+00 0. -1.
</event>
<event>
 7    1  0.3004200E-011  0.5052900E+02  0.7816164E-02  0.1300438E+00
        -11   -1    0    0    0    0  0.00000000000E+00  0.00000000000E+00  0.45593999997E+02  0.45594000000E+02  0.51100000000E-03 0. -1.
         11   -1    0    0    0    0 -0.00000000000E+00 -0.00000000000E+00 -0.45593999997E+02  0.45594000000E+02  0.51100000000E-03 0.  1.
    9900012    2    1    2    0    0  0.28427128613E+02 -0.18334153048E+02 -0.22559070779E+02  0.50528997508E+02  0.30000418424E+02 0.  0.
         12    1    1    2    0    0 -0.28427128613E+02  0.18334153048E+02  0.22559070779E+02  0.40659002492E+02  0.00000000000E+00 0. -1.
         11    1    3    3    0    0  0.83522725125E+01 -0.39129635365E+01  0.47853031567E+01  0.10390903056E+02  0.51100000000E-03 0. -1.
        -11    1    3    3    0    0  0.21760443995E+02 -0.16040828757E+02 -0.24855474645E+02  0.36723558245E+02  0.51100000000E-03 0.  1.
        -12    1    3    3    0    0 -0.16855878937E+01  0.16196392456E+01 -0.24888992901E+01  0.34145362071E+01  0.00000000000E+00 0.  1.
</event>
<event>
 7    1  0.3004200E-011  0.5052886E+02  0.7816164E-02  0.1300439E+00
        -11   -1    0    0    0    0  0.00000000000E+00  0.00000000000E+00  0.45593999997E+02  0.45594000000E+02  0.51100000000E-03 0.  1.
         11   -1    0    0    0    0 -0.00000000000E+00 -0.00000000000E+00 -0.45593999997E+02  0.45594000000E+02  0.51100000000E-03 0. -1.
    9900012    2    1    2    0    0  0.28983674597E+02  0.23009853518E+02  0.16842166536E+02  0.50528864179E+02  0.30000013159E+02 0.  0.
         12    1    1    2    0    0 -0.28983674597E+02 -0.23009853518E+02 -0.16842166536E+02  0.40659135821E+02  0.00000000000E+00 0. -1.
         11    1    3    3    0    0 -0.34229346296E+01  0.11676544758E+01 -0.62319373865E+00  0.36699140522E+01  0.51100000000E-03 0. -1.
        -11    1    3    3    0    0  0.20249277666E+02  0.23687666730E+02  0.13202216598E+02  0.33844310076E+02  0.51100000000E-03 0.  1.
         12    1    3    3    0    0  0.12157331560E+02 -0.18454676879E+01  0.42631436764E+01  0.13014640051E+02  0.00000000000E+00 0. -1.
</event>
<event>
 7    1  0.3004200E-011  0.5052885E+02  0.7816164E-02  0.1300439E+00
        -11   -1    0    0    0    0  0.00000000000E+00  0.00000000000E+00  0.45593999997E+02  0.45594000000E+02  0.51100000000E-03 0.  1.
         11   -1    0    0    0    0 -0.00000000000E+00 -0.00000000000E+00 -0.45593999997E+02  0.45594000000E+02  0.51100000000E-03 0. -1.
    9900012    2    1    2    0    0 -0.10670723506E+01 -0.27146806182E+02  0.30250268562E+02  0.50528850017E+02  0.29999970111E+02 0.  0.
         12    1    1    2    0    0  0.10670723506E+01  0.27146806182E+02 -0.30250268562E+02  0.40659149983E+02  0.00000000000E+00 0. -1.
         11    1    3    3    0    0 -0.10045119594E+02 -0.18992613457E+02  0.27155850636E+02  0.34627503773E+02  0.51100000000E-03 0. -1.
        -11    1    3    3    0    0  0.75882263559E+01 -0.30577240273E+01  0.57394181989E+01  0.99935867925E+01  0.51100000000E-03 0.  1.
         12    1    3    3    0    0  0.13898208876E+01 -0.50964686979E+01 -0.26450002722E+01  0.59077594508E+01  0.00000000000E+00 0. -1.
</event>
<event>
 7    1  0.3004200E-011  0.5052888E+02  0.7816164E-02  0.1300439E+00
        -11   -1    0    0    0    0  0.00000000000E+00  0.00000000000E+00  0.45593999997E+02  0.45594000000E+02  0.51100000000E-03 0.  1.
         11   -1    0    0    0    0 -0.00000000000E+00 -0.00000000000E+00 -0.45593999997E+02  0.45594000000E+02  0.51100000000E-03 0. -1.
    9900012    2    1    2    0    0 -0.19394042283E+02 -0.21458244306E+02  0.28575844588E+02  0.50528880252E+02  0.30000062014E+02 0.  0.
         12    1    1    2    0    0  0.19394042283E+02  0.21458244306E+02 -0.28575844588E+02  0.40659119748E+02  0.00000000000E+00 0. -1.
         11    1    3    3    0    0 -0.17021189639E+02 -0.50430765254E+01  0.11079197287E+02  0.20926111209E+02  0.51100000000E-03 0. -1.
        -11    1    3    3    0    0  0.86378668108E+00 -0.11831373702E+02  0.68864103047E+00  0.11882834588E+02  0.51100000000E-03 0.  1.
        -12    1    3    3    0    0 -0.32366393248E+01 -0.45837940784E+01  0.16808006271E+02  0.17719934455E+02  0.00000000000E+00 0.  1.
</event>
<event>
 7    1  0.3004200E-011  0.5052886E+02  0.7816164E-02  0.1300439E+00
        -11   -1    0    0    0    0  0.00000000000E+00  0.00000000000E+00  0.45593999997E+02  0.45594000000E+02  0.51100000000E-03 0.  1.
         11   -1    0    0    0    0 -0.00000000000E+00 -0.00000000000E+00 -0.45593999997E+02  0.45594000000E+02  0.51100000000E-03 0. -1.
    9900012    2    1    2    0    0  0.17854841329E+02 -0.36282552607E+02  0.42363657966E+01  0.50528858620E+02  0.29999996262E+02 0.  0.
         12    1    1    2    0    0 -0.17854841329E+02  0.36282552607E+02 -0.42363657966E+01  0.40659141380E+02  0.00000000000E+00 0. -1.
         11    1    3    3    0    0  0.82182482465E+01  0.11161521394E+01  0.32319925681E+01  0.89011895868E+01  0.51100000000E-03 0. -1.
        -11    1    3    3    0    0  0.10930514558E+02 -0.35756929357E+02  0.43916333658E+01  0.37647318490E+02  0.51100000000E-03 0.  1.
        -12    1    3    3    0    0 -0.12939214757E+01 -0.16417753892E+01 -0.33872601374E+01  0.39803505439E+01  0.00000000000E+00 0.  1.
</event>
<event>
 7    1  0.3004200E-011  0.5052885E+02  0.7816164E-02  0.1300439E+00
        -11   -1    0    0    0    0  0.00000000000E+00  0.00000000000E+00  0.45593999997E+02  0.45594000000E+02  0.51100000000E-03 0.  1.
         11   -1    0    0    0    0 -0.00000000000E+00 -0.00000000000E+00 -0.45593999997E+02  0.45594000000E+02  0.51100000000E-03 0. -1.
    9900012    2    1    2    0    0 -0.21724313758E+02 -0.31130256069E+02  0.14564622276E+02  0.50528845149E+02  0.29999955314E+02 0.  0.
         12    1    1    2    0    0  0.21724313758E+02  0.31130256069E+02 -0.14564622276E+02  0.40659154851E+02  0.00000000000E+00 0. -1.
         11    1    3    3    0    0 -0.26672154213E+01 -0.14651824149E+02 -0.25827108641E+00  0.14894854588E+02  0.51100000000E-03 0. -1.
        -11    1    3    3    0    0 -0.54166917232E+01  0.42486607623E+01  0.64854146029E+01  0.94579210364E+01  0.51100000000E-03 0.  1.
        -12    1    3    3    0    0 -0.13640406613E+02 -0.20727092683E+02  0.83374787593E+01  0.26176069524E+02  0.00000000000E+00 0.  1.
</event>
<event>
 7    1  0.3004200E-011  0.5052887E+02  0.7816164E-02  0.1300439E+00
        -11   -1    0    0    0    0  0.00000000000E+00  0.00000000000E+00  0.45593999997E+02  0.45594000000E+02  0.51100000000E-03 0.  1.
         11   -1    0    0    0    0 -0.00000000000E+00 -0.00000000000E+00 -0.45593999997E+02  0.45594000000E+02  0.51100000000E-03 0. -1.
    9900012    2    1    2    0    0 -0.23915524883E+02  0.18996848943E+02  0.26839013366E+02  0.50528865250E+02  0.30000016414E+02 0.  0.
         12    1    1    2    0    0  0.23915524883E+02 -0.18996848943E+02 -0.26839013366E+02  0.40659134750E+02  0.00000000000E+00 0. -1.
         11    1    3    3    0    0 -0.10366937885E+02 -0.52764900016E+01  0.34120723679E+00  0.11637489871E+02  0.51100000000E-03 0. -1.
        -11    1    3    3    0    0 -0.44286936344E+01  0.72606502854E+01  0.44882031706E+01  0.96163578260E+01  0.51100000000E-03 0.  1.
         12    1    3    3    0    0 -0.91198933632E+01  0.17012688659E+02  0.22009602958E+02  0.29275017553E+02  0.00000000000E+00 0. -1.
</event>
<event>
 7    1  0.3004200E-011  0.5052886E+02  0.7816164E-02  0.1300439E+00
        -11   -1    0    0    0    0  0.00000000000E+00  0.00000000000E+00  0.45593999997E+02  0.45594000000E+02  0.51100000000E-03 0.  1.
         11   -1    0    0    0    0 -0.00000000000E+00 -0.00000000000E+00 -0.45593999997E+02  0.45594000000E+02  0.51100000000E-03 0. -1.
    9900012    2    1    2    0    0  0.10417367137E+02  0.38867774926E+02  0.58258083615E+01  0.50528861928E+02  0.30000006315E+02 0.  0.
         12    1    1    2    0    0 -0.10417367137E+02 -0.38867774926E+02 -0.58258083615E+01  0.40659138072E+02  0.00000000000E+00 0. -1.
         11    1    3    3    0    0  0.41327042478E+00  0.15276817568E+02 -0.45208354076E+01  0.15937060597E+02  0.51100000000E-03 0. -1.
        -11    1    3    3    0    0  0.12417905364E+02  0.54275146242E+01  0.60737636810E-02  0.13552207413E+02  0.51100000000E-03 0.  1.
        -12    1    3    3    0    0 -0.24138086522E+01  0.18163442734E+02  0.10340570005E+02  0.21039593917E+02  0.00000000000E+00 0.  1.
</event>
<event>
 7    1  0.3004200E-011  0.5052886E+02  0.7816164E-02  0.1300439E+00
        -11   -1    0    0    0    0  0.00000000000E+00  0.00000000000E+00  0.45593999997E+02  0.45594000000E+02  0.51100000000E-03 0.  1.
         11   -1    0    0    0    0 -0.00000000000E+00 -0.00000000000E+00 -0.45593999997E+02  0.45594000000E+02  0.51100000000E-03 0. -1.
    9900012    2    1    2    0    0  0.26587009870E-01 -0.20884541576E+02  0.34885545009E+02  0.50528855466E+02  0.29999986673E+02 0.  0.
         12    1    1    2    0    0 -0.26587009870E-01  0.20884541576E+02 -0.34885545009E+02  0.40659144534E+02  0.00000000000E+00 0. -1.
         11    1    3    3    0    0  0.10486160087E+02  0.17071472928E-01  0.17807867338E+02  0.20665913582E+02  0.51100000000E-03 0. -1.
        -11    1    3    3    0    0 -0.47869545088E+01 -0.15696575034E+02  0.90503945710E+01  0.18740518761E+02  0.51100000000E-03 0.  1.
        -12    1    3    3    0    0 -0.56726185680E+01 -0.52050380151E+01  0.80272831002E+01  0.11122423123E+02  0.00000000000E+00 0.  1.
</event>
<event>
 7    1  0.3004200E-011  0.5052886E+02  0.7816164E-02  0.1300439E+00
        -11   -1    0    0    0    0  0.00000000000E+00  0.00000000000E+00  0.45593999997E+02  0.45594000000E+02  0.51100000000E-03 0.  1.
         11   -1    0    0    0    0 -0.00000000000E+00 -0.00000000000E+00 -0.45593999997E+02  0.45594000000E+02  0.51100000000E-03 0. -1.
    9900012    2    1    2    0    0 -0.22271797348E+02  0.33153162502E+02  0.76158020291E+01  0.50528861033E+02  0.30000003595E+02 0.  0.
         12    1    1    2    0    0  0.22271797348E+02 -0.33153162502E+02 -0.76158020291E+01  0.40659138967E+02  0.00000000000E+00 0. -1.
         11    1    3    3    0    0 -0.15220963428E+02  0.68544719140E+01  0.59693815181E+01  0.17728367914E+02  0.51100000000E-03 0.  1.
        -11    1    3    3    0    0  0.22395566182E+01  0.22673075635E+02  0.13475496575E+01  0.22823230773E+02  0.51100000000E-03 0. -1.
         12    1    3    3    0    0 -0.92903905378E+01  0.36256149537E+01  0.29887085354E+00  0.99772623462E+01  0.00000000000E+00 0. -1.
</event>
<event>
 7    1  0.3004200E-011  0.5052887E+02  0.7816164E-02  0.1300439E+00
        -11   -1    0    0    0    0  0.00000000000E+00  0.00000000000E+00  0.45593999997E+02  0.45594000000E+02  0.51100000000E-03 0. -1.
         11   -1    0    0    0    0 -0.00000000000E+00 -0.00000000000E+00 -0.45593999997E+02  0.45594000000E+02  0.51100000000E-03 0.  1.
    9900012    2    1    2    0    0  0.38081794437E+02 -0.10561524203E-01 -0.14245769521E+02  0.50528866606E+02  0.30000020536E+02 0.  0.
         12    1    1    2    0    0 -0.38081794437E+02  0.10561524203E-01  0.14245769521E+02  0.40659133394E+02  0.00000000000E+00 0. -1.
         11    1    3    3    0    0  0.73205866490E+01  0.16002529287E+01 -0.10565773055E+02  0.12953275989E+02  0.51100000000E-03 0. -1.
        -11    1    3    3    0    0  0.11870523200E+02  0.25705496992E+01  0.83988826735E+01  0.14766796444E+02  0.51100000000E-03 0.  1.
        -12    1    3    3    0    0  0.18890684588E+02 -0.41813641521E+01 -0.12078879139E+02  0.22808794173E+02  0.00000000000E+00 0.  1.
</event>
<event>
 7    1  0.3004200E-011  0.5052886E+02  0.7816164E-02  0.1300439E+00
        -11   -1    0    0    0    0  0.00000000000E+00  0.00000000000E+00  0.45593999997E+02  0.45594000000E+02  0.51100000000E-03 0. -1.
         11   -1    0    0    0    0 -0.00000000000E+00 -0.00000000000E+00 -0.45593999997E+02  0.45594000000E+02  0.51100000000E-03 0.  1.
    9900012    2    1    2    0    0  0.28974814549E+02  0.22591847345E+02 -0.17413629805E+02  0.50528856532E+02  0.29999989914E+02 0.  0.
         12    1    1    2    0    0 -0.28974814549E+02 -0.22591847345E+02  0.17413629805E+02  0.40659143468E+02  0.00000000000E+00 0. -1.
         11    1    3    3    0    0  0.41881417424E+01  0.11397518074E+02  0.40238746575E+01  0.12792009890E+02  0.51100000000E-03 0. -1.
        -11    1    3    3    0    0  0.21984812572E+02  0.10807453898E+02 -0.23722169671E+02  0.34100943942E+02  0.51100000000E-03 0.  1.
        -12    1    3    3    0    0  0.28018602344E+01  0.38687537297E+00  0.22846652090E+01  0.36359027001E+01  0.00000000000E+00 0.  1.
</event>
<event>
 7    1  0.3004200E-011  0.5052885E+02  0.7816164E-02  0.1300439E+00
        -11   -1    0    0    0    0  0.00000000000E+00  0.00000000000E+00  0.45593999997E+02  0.45594000000E+02  0.51100000000E-03 0. -1.
         11   -1    0    0    0    0 -0.00000000000E+00 -0.00000000000E+00 -0.45593999997E+02  0.45594000000E+02  0.51100000000E-03 0.  1.
    9900012    2    1    2    0    0  0.30255204500E+02  0.26697122559E+02  0.50053008213E+01  0.50528846189E+02  0.29999958477E+02 0.  0.
         12    1    1    2    0    0 -0.30255204500E+02 -0.26697122559E+02 -0.50053008213E+01  0.40659153811E+02  0.00000000000E+00 0. -1.
         11    1    3    3    0    0  0.14163010438E+02  0.23809369616E+02  0.90498475980E+01  0.29144067801E+02  0.51100000000E-03 0.  1.
        -11    1    3    3    0    0  0.14237317759E+02 -0.13150813816E+01  0.12767321039E+01  0.14354814563E+02  0.51100000000E-03 0. -1.
        -12    1    3    3    0    0  0.18548763034E+01  0.42028343252E+01 -0.53212788807E+01  0.70299638258E+01  0.00000000000E+00 0.  1.
</event>
