<event>
 7    1  0.1457722E-010  0.4778727E+02  0.7816164E-02  0.1312668E+00
        -11   -1    0    0    0    0  0.00000000000E+00  0.00000000000E+00  0.45593999997E+02  0.45594000000E+02  0.51100000000E-03 0. -1.
         11   -1    0    0    0    0 -0.00000000000E+00 -0.00000000000E+00 -0.45593999997E+02  0.45594000000E+02  0.51100000000E-03 0.  1.
    9900012    2    1    2    0    0  0.25685656540E+02 -0.23388405142E+02  0.26016397814E+02  0.47787269566E+02  0.19999993260E+02 0.  0.
        -12    1    1    2    0    0 -0.25685656540E+02  0.23388405142E+02 -0.26016397814E+02  0.43400730434E+02  0.00000000000E+00 0.  1.
         11    1    3    3    0    0  0.84816532009E+01 -0.88038454970E+01  0.49448008310E+01  0.13187008458E+02  0.51100000000E-03 0. -1.
        -11    1    3    3    0    0  0.21128643386E+01 -0.83508205210E+01  0.14770287392E+02  0.17098590263E+02  0.51100000000E-03 0.  1.
        -12    1    3    3    0    0  0.15091139001E+02 -0.62337391241E+01  0.63013095911E+01  0.17501670845E+02  0.00000000000E+00 0.  1.
</event>
<event>
 7    1  0.1457722E-010  0.4778727E+02  0.7816164E-02  0.1312668E+00
        -11   -1    0    0    0    0  0.00000000000E+00  0.00000000000E+00  0.45593999997E+02  0.45594000000E+02  0.51100000000E-03 0.  1.
         11   -1    0    0    0    0 -0.00000000000E+00 -0.00000000000E+00 -0.45593999997E+02  0.45594000000E+02  0.51100000000E-03 0. -1.
    9900012    2    1    2    0    0  0.28700205535E+02 -0.76711804607E+01 -0.31639766201E+02  0.47787267141E+02  0.19999982204E+02 0.  0.
        -12    1    1    2    0    0 -0.28700205535E+02  0.76711804607E+01  0.31639766201E+02  0.43400732859E+02  0.00000000000E+00 0.  1.
         11    1    3    3    0    0  0.13750131899E+02 -0.12022000704E+01 -0.12411135566E+02  0.18561996082E+02  0.51100000000E-03 0. -1.
        -11    1    3    3    0    0  0.69699968638E+01 -0.73810616947E+01 -0.21857391516E+01  0.10384526177E+02  0.51100000000E-03 0.  1.
        -12    1    3    3    0    0  0.79800767714E+01  0.91208130440E+00 -0.17042891484E+02  0.18840744882E+02  0.00000000000E+00 0.  1.
</event>
<event>
 7    1  0.1457722E-010  0.4778727E+02  0.7816164E-02  0.1312668E+00
        -11   -1    0    0    0    0  0.00000000000E+00  0.00000000000E+00  0.45593999997E+02  0.45594000000E+02  0.51100000000E-03 0.  1.
         11   -1    0    0    0    0 -0.00000000000E+00 -0.00000000000E+00 -0.45593999997E+02  0.45594000000E+02  0.51100000000E-03 0. -1.
    9900012    2    1    2    0    0  0.38455844488E+02  0.10910303047E+02 -0.16903749006E+02  0.47787269381E+02  0.19999992415E+02 0.  0.
        -12    1    1    2    0    0 -0.38455844488E+02 -0.10910303047E+02  0.16903749006E+02  0.43400730619E+02  0.00000000000E+00 0.  1.
         11    1    3    3    0    0  0.31847251485E+01 -0.11964879543E+01 -0.68880248765E+00  0.34710959112E+01  0.51100000000E-03 0. -1.
        -11    1    3    3    0    0 -0.15202736696E+01 -0.58853706336E-01 -0.30183875311E+01  0.33801419109E+01  0.51100000000E-03 0.  1.
         12    1    3    3    0    0  0.36791393009E+02  0.12165644707E+02 -0.13196558987E+02  0.40936031559E+02  0.00000000000E+00 0. -1.
</event>
<event>
 7    1  0.1457722E-010  0.4778727E+02  0.7816164E-02  0.1312668E+00
        -11   -1    0    0    0    0  0.00000000000E+00  0.00000000000E+00  0.45593999997E+02  0.45594000000E+02  0.51100000000E-03 0.  1.
         11   -1    0    0    0    0 -0.00000000000E+00 -0.00000000000E+00 -0.45593999997E+02  0.45594000000E+02  0.51100000000E-03 0. -1.
    9900012    2    1    2    0    0 -0.38716736800E+02 -0.17782515620E+02  0.82716343651E+01  0.47787268379E+02  0.19999987845E+02 0.  0.
        -12    1    1    2    0    0  0.38716736800E+02  0.17782515620E+02 -0.82716343651E+01  0.43400731621E+02  0.00000000000E+00 0.  1.
         11    1    3    3    0    0 -0.11933960963E+02 -0.99999868639E+01  0.23746646176E+01  0.15749863296E+02  0.51100000000E-03 0. -1.
        -11    1    3    3    0    0 -0.20089807456E+02 -0.38345111237E+01  0.10515987090E+02  0.22997604742E+02  0.51100000000E-03 0.  1.
        -12    1    3    3    0    0 -0.66929683812E+01 -0.39480176324E+01 -0.46190173420E+01  0.90398003398E+01  0.00000000000E+00 0.  1.
</event>
<event>
 7    1  0.1457722E-010  0.4778727E+02  0.7816164E-02  0.1312668E+00
        -11   -1    0    0    0    0  0.00000000000E+00  0.00000000000E+00  0.45593999997E+02  0.45594000000E+02  0.51100000000E-03 0. -1.
         11   -1    0    0    0    0 -0.00000000000E+00 -0.00000000000E+00 -0.45593999997E+02  0.45594000000E+02  0.51100000000E-03 0.  1.
    9900012    2    1    2    0    0 -0.31373009860E+02  0.14595400776E+02  0.26197942040E+02  0.47787266842E+02  0.19999980841E+02 0.  0.
        -12    1    1    2    0    0  0.31373009860E+02 -0.14595400776E+02 -0.26197942040E+02  0.43400733158E+02  0.00000000000E+00 0.  1.
         11    1    3    3    0    0 -0.62573384875E+01  0.61788280581E+01  0.16294617029E+02  0.18516121232E+02  0.51100000000E-03 0. -1.
        -11    1    3    3    0    0 -0.99311858996E+01  0.72683444971E+01  0.40285808240E+01  0.12949391832E+02  0.51100000000E-03 0.  1.
        -12    1    3    3    0    0 -0.15184485473E+02  0.11482282204E+01  0.58747441875E+01  0.16321753778E+02  0.00000000000E+00 0.  1.
</event>
<event>
 7    1  0.1457722E-010  0.4778727E+02  0.7816164E-02  0.1312668E+00
        -11   -1    0    0    0    0  0.00000000000E+00  0.00000000000E+00  0.45593999997E+02  0.45594000000E+02  0.51100000000E-03 0. -1.
         11   -1    0    0    0    0 -0.00000000000E+00 -0.00000000000E+00 -0.45593999997E+02  0.45594000000E+02  0.51100000000E-03 0.  1.
    9900012    2    1    2    0    0  0.20598282300E+02  0.35434857066E+02  0.14272536022E+02  0.47787267132E+02  0.19999982161E+02 0.  0.
        -12    1    1    2    0    0 -0.20598282300E+02 -0.35434857066E+02 -0.14272536022E+02  0.43400732868E+02  0.00000000000E+00 0.  1.
         11    1    3    3    0    0  0.10828287460E+02  0.60000345372E+01  0.48588709098E+01  0.13298904111E+02  0.51100000000E-03 0. -1.
        -11    1    3    3    0    0 -0.25377095481E+01  0.29045136245E+01  0.36402685157E+00  0.38741044068E+01  0.51100000000E-03 0.  1.
        -12    1    3    3    0    0  0.12307704388E+02  0.26530308904E+02  0.90496382605E+01  0.30614258614E+02  0.00000000000E+00 0.  1.
</event>
<event>
 7    1  0.1457722E-010  0.4778728E+02  0.7816164E-02  0.1312668E+00
        -11   -1    0    0    0    0  0.00000000000E+00  0.00000000000E+00  0.45593999997E+02  0.45594000000E+02  0.51100000000E-03 0. -1.
         11   -1    0    0    0    0 -0.00000000000E+00 -0.00000000000E+00 -0.45593999997E+02  0.45594000000E+02  0.51100000000E-03 0.  1.
    9900012    2    1    2    0    0 -0.58502618550E+01 -0.41343460212E+02  0.11837041334E+02  0.47787276347E+02  0.20000024175E+02 0.  0.
        -12    1    1    2    0    0  0.58502618550E+01  0.41343460212E+02 -0.11837041334E+02  0.43400723653E+02  0.00000000000E+00 0.  1.
         11    1    3    3    0    0 -0.48687546075E+01 -0.25758772072E+02  0.21059814890E-01  0.26214872761E+02  0.51100000000E-03 0. -1.
        -11    1    3    3    0    0 -0.47437873630E+01 -0.11568947232E+02  0.75164539550E+01  0.14589076013E+02  0.51100000000E-03 0.  1.
        -12    1    3    3    0    0  0.37622801155E+01 -0.40157409080E+01  0.42995275645E+01  0.69833275726E+01  0.00000000000E+00 0.  1.
</event>
<event>
 7    1  0.1457722E-010  0.4778721E+02  0.7816164E-02  0.1312668E+00
        -11   -1    0    0    0    0  0.00000000000E+00  0.00000000000E+00  0.45593999997E+02  0.45594000000E+02  0.51100000000E-03 0.  1.
         11   -1    0    0    0    0 -0.00000000000E+00 -0.00000000000E+00 -0.45593999997E+02  0.45594000000E+02  0.51100000000E-03 0. -1.
    9900012    2    1    2    0    0 -0.14876086287E+02  0.40705528146E+02 -0.23217395817E+01  0.47787211533E+02  0.19999728663E+02 0.  0.
        -12    1    1    2    0    0  0.14876086287E+02 -0.40705528146E+02  0.23217395817E+01  0.43400788467E+02  0.00000000000E+00 0.  1.
         11    1    3    3    0    0 -0.37013054582E+01 -0.64018372626E+00 -0.31246302396E+01  0.48859811393E+01  0.51100000000E-03 0. -1.
        -11    1    3    3    0    0 -0.53496725901E+01  0.15426693169E+02  0.23610124631E+00  0.16329654100E+02  0.51100000000E-03 0.  1.
         12    1    3    3    0    0 -0.58251082383E+01  0.25919018703E+02  0.56678941160E+00  0.26571576294E+02  0.00000000000E+00 0. -1.
</event>
<event>
 7    1  0.1457722E-010  0.4778727E+02  0.7816164E-02  0.1312668E+00
        -11   -1    0    0    0    0  0.00000000000E+00  0.00000000000E+00  0.45593999997E+02  0.45594000000E+02  0.51100000000E-03 0. -1.
         11   -1    0    0    0    0 -0.00000000000E+00 -0.00000000000E+00 -0.45593999997E+02  0.45594000000E+02  0.51100000000E-03 0.  1.
    9900012    2    1    2    0    0 -0.41076494601E+02 -0.10715118054E+02  0.90294660898E+01  0.47787269344E+02  0.19999992248E+02 0.  0.
        -12    1    1    2    0    0  0.41076494601E+02  0.10715118054E+02 -0.90294660898E+01  0.43400730656E+02  0.00000000000E+00 0.  1.
         11    1    3    3    0    0 -0.65995040040E+01 -0.26943688654E+01 -0.20149274761E+01  0.74076318535E+01  0.51100000000E-03 0. -1.
        -11    1    3    3    0    0 -0.30467400882E+02 -0.10314408097E+02  0.13799558283E+02  0.35001104839E+02  0.51100000000E-03 0.  1.
        -12    1    3    3    0    0 -0.40095897146E+01  0.22936589081E+01 -0.27551647169E+01  0.53785326515E+01  0.00000000000E+00 0.  1.
</event>
<event>
 7    1  0.1457722E-010  0.4778728E+02  0.7816164E-02  0.1312668E+00
        -11   -1    0    0    0    0  0.00000000000E+00  0.00000000000E+00  0.45593999997E+02  0.45594000000E+02  0.51100000000E-03 0. -1.
         11   -1    0    0    0    0 -0.00000000000E+00 -0.00000000000E+00 -0.45593999997E+02  0.45594000000E+02  0.51100000000E-03 0.  1.
    9900012    2    1    2    0    0 -0.12518890443E+02 -0.32149918815E+02  0.26330253892E+02  0.47787283788E+02  0.20000058104E+02 0.  0.
        -12    1    1    2    0    0  0.12518890443E+02  0.32149918815E+02 -0.26330253892E+02  0.43400716212E+02  0.00000000000E+00 0.  1.
         11    1    3    3    0    0  0.21112758392E+00  0.38166984134E+00 -0.81996504374E+00  0.92875705034E+00  0.51100000000E-03 0. -1.
        -11    1    3    3    0    0  0.55544355413E+00  0.50214297715E+00 -0.11527464390E+01  0.13745871108E+01  0.51100000000E-03 0.  1.
         12    1    3    3    0    0 -0.13285461581E+02 -0.33033731633E+02  0.28302965374E+02  0.45483939627E+02  0.00000000000E+00 0. -1.
</event>
<event>
 7    1  0.1457722E-010  0.4778727E+02  0.7816164E-02  0.1312668E+00
        -11   -1    0    0    0    0  0.00000000000E+00  0.00000000000E+00  0.45593999997E+02  0.45594000000E+02  0.51100000000E-03 0. -1.
         11   -1    0    0    0    0 -0.00000000000E+00 -0.00000000000E+00 -0.45593999997E+02  0.45594000000E+02  0.51100000000E-03 0.  1.
    9900012    2    1    2    0    0 -0.13747431670E+02  0.37884261460E+02  0.16106329289E+02  0.47787274349E+02  0.20000015066E+02 0.  0.
        -12    1    1    2    0    0  0.13747431670E+02 -0.37884261460E+02 -0.16106329289E+02  0.43400725651E+02  0.00000000000E+00 0.  1.
         11    1    3    3    0    0  0.25335738222E+01  0.98448491425E+01  0.32700149024E+01  0.10678625786E+02  0.51100000000E-03 0. -1.
        -11    1    3    3    0    0 -0.15487502058E+02  0.22906024513E+02  0.56176402124E+01  0.28215360370E+02  0.51100000000E-03 0.  1.
         12    1    3    3    0    0 -0.79350343429E+00  0.51333878038E+01  0.72186741744E+01  0.88932881928E+01  0.00000000000E+00 0. -1.
</event>
<event>
 7    1  0.1457722E-010  0.4778727E+02  0.7816164E-02  0.1312668E+00
        -11   -1    0    0    0    0  0.00000000000E+00  0.00000000000E+00  0.45593999997E+02  0.45594000000E+02  0.51100000000E-03 0. -1.
         11   -1    0    0    0    0 -0.00000000000E+00 -0.00000000000E+00 -0.45593999997E+02  0.45594000000E+02  0.51100000000E-03 0.  1.
    9900012    2    1    2    0    0 -0.23457523628E+02 -0.20787614440E+01  0.36456092988E+02  0.47787269824E+02  0.19999994434E+02 0.  0.
        -12    1    1    2    0    0  0.23457523628E+02  0.20787614440E+01 -0.36456092988E+02  0.43400730176E+02  0.00000000000E+00 0.  1.
         11    1    3    3    0    0 -0.12499034144E+02 -0.14243874904E+01  0.30060194923E+02  0.32586347652E+02  0.51100000000E-03 0. -1.
        -11    1    3    3    0    0 -0.11107435309E+02 -0.29053071489E+01  0.58234931792E+01  0.12873577663E+02  0.51100000000E-03 0.  1.
        -12    1    3    3    0    0  0.14894582516E+00  0.22509331954E+01  0.57240488591E+00  0.23273445087E+01  0.00000000000E+00 0.  1.
</event>
<event>
 7    1  0.1457722E-010  0.4778727E+02  0.7816164E-02  0.1312668E+00
        -11   -1    0    0    0    0  0.00000000000E+00  0.00000000000E+00  0.45593999997E+02  0.45594000000E+02  0.51100000000E-03 0.  1.
         11   -1    0    0    0    0 -0.00000000000E+00 -0.00000000000E+00 -0.45593999997E+02  0.45594000000E+02  0.51100000000E-03 0. -1.
    9900012    2    1    2    0    0  0.18289550355E+02  0.34128810052E+02 -0.19604591340E+02  0.47787270406E+02  0.19999997088E+02 0.  0.
        -12    1    1    2    0    0 -0.18289550355E+02 -0.34128810052E+02  0.19604591340E+02  0.43400729594E+02  0.00000000000E+00 0.  1.
         11    1    3    3    0    0  0.30212463001E+01 -0.22532655251E+01 -0.22061611360E+01  0.43671823813E+01  0.51100000000E-03 0.  1.
        -11    1    3    3    0    0  0.26882095583E+01  0.11850856581E+02 -0.64423913659E+01  0.13754042283E+02  0.51100000000E-03 0. -1.
        -12    1    3    3    0    0  0.12580094496E+02  0.24531218996E+02 -0.10956038838E+02  0.29666045742E+02  0.00000000000E+00 0.  1.
</event>
<event>
 7    1  0.1457722E-010  0.4778727E+02  0.7816164E-02  0.1312668E+00
        -11   -1    0    0    0    0  0.00000000000E+00  0.00000000000E+00  0.45593999997E+02  0.45594000000E+02  0.51100000000E-03 0.  1.
         11   -1    0    0    0    0 -0.00000000000E+00 -0.00000000000E+00 -0.45593999997E+02  0.45594000000E+02  0.51100000000E-03 0. -1.
    9900012    2    1    2    0    0  0.27690134714E+02 -0.32096315926E+02 -0.93116063321E+01  0.47787273405E+02  0.20000010763E+02 0.  0.
        -12    1    1    2    0    0 -0.27690134714E+02  0.32096315926E+02  0.93116063321E+01  0.43400726595E+02  0.00000000000E+00 0.  1.
         11    1    3    3    0    0  0.14651720627E+01 -0.19755551069E+01 -0.54585269306E+01  0.59870747170E+01  0.51100000000E-03 0.  1.
        -11    1    3    3    0    0  0.18350934589E+02 -0.23249870783E+02 -0.78001187065E+01  0.30629318370E+02  0.51100000000E-03 0. -1.
        -12    1    3    3    0    0  0.78740280617E+01 -0.68708900365E+01  0.39470393051E+01  0.11170880318E+02  0.00000000000E+00 0.  1.
</event>
<event>
 7    1  0.1457722E-010  0.4778728E+02  0.7816164E-02  0.1312668E+00
        -11   -1    0    0    0    0  0.00000000000E+00  0.00000000000E+00  0.45593999997E+02  0.45594000000E+02  0.51100000000E-03 0.  1.
         11   -1    0    0    0    0 -0.00000000000E+00 -0.00000000000E+00 -0.45593999997E+02  0.45594000000E+02  0.51100000000E-03 0. -1.
    9900012    2    1    2    0    0  0.12280761427E+02 -0.27270987011E+02 -0.31449942732E+02  0.47787277291E+02  0.20000028482E+02 0.  0.
        -12    1    1    2    0    0 -0.12280761427E+02  0.27270987011E+02  0.31449942732E+02  0.43400722709E+02  0.00000000000E+00 0.  1.
         11    1    3    3    0    0  0.42753700461E+01 -0.57892202003E+01 -0.17451498960E+02  0.18877199892E+02  0.51100000000E-03 0. -1.
        -11    1    3    3    0    0  0.89665979065E+01 -0.92019428019E+01 -0.56852948381E+01  0.14049847224E+02  0.51100000000E-03 0.  1.
         12    1    3    3    0    0 -0.96120652527E+00 -0.12279824009E+02 -0.83131489338E+01  0.14860230176E+02  0.00000000000E+00 0. -1.
</event>
<event>
 7    1  0.1457722E-010  0.4778727E+02  0.7816164E-02  0.1312668E+00
        -11   -1    0    0    0    0  0.00000000000E+00  0.00000000000E+00  0.45593999997E+02  0.45594000000E+02  0.51100000000E-03 0. -1.
         11   -1    0    0    0    0 -0.00000000000E+00 -0.00000000000E+00 -0.45593999997E+02  0.45594000000E+02  0.51100000000E-03 0.  1.
    9900012    2    1    2    0    0  0.15436585501E+01  0.40954031892E+02  0.14283126819E+02  0.47787270494E+02  0.19999997490E+02 0.  0.
        -12    1    1    2    0    0 -0.15436585501E+01 -0.40954031892E+02 -0.14283126819E+02  0.43400729506E+02  0.00000000000E+00 0.  1.
         11    1    3    3    0    0 -0.62457896915E+00  0.50772862107E+01  0.38551876458E+00  0.51300642426E+01  0.51100000000E-03 0. -1.
        -11    1    3    3    0    0 -0.30033608997E+01  0.77235286767E+01 -0.36793933257E+01  0.90670285882E+01  0.51100000000E-03 0.  1.
         12    1    3    3    0    0  0.51715984189E+01  0.28153217005E+02  0.17577001380E+02  0.33590177663E+02  0.00000000000E+00 0. -1.
</event>
<event>
 7    1  0.1457722E-010  0.4778728E+02  0.7816164E-02  0.1312668E+00
        -11   -1    0    0    0    0  0.00000000000E+00  0.00000000000E+00  0.45593999997E+02  0.45594000000E+02  0.51100000000E-03 0.  1.
         11   -1    0    0    0    0 -0.00000000000E+00 -0.00000000000E+00 -0.45593999997E+02  0.45594000000E+02  0.51100000000E-03 0. -1.
    9900012    2    1    2    0    0 -0.83349689487E+01 -0.18710686331E+02 -0.38263046563E+02  0.47787283156E+02  0.20000055219E+02 0.  0.
        -12    1    1    2    0    0  0.83349689487E+01  0.18710686331E+02  0.38263046563E+02  0.43400716844E+02  0.00000000000E+00 0.  1.
         11    1    3    3    0    0  0.48065276451E+01 -0.11839620398E+02 -0.15992785242E+02  0.20470674127E+02  0.51100000000E-03 0.  1.
        -11    1    3    3    0    0 -0.39354051148E+01 -0.14048758412E+01 -0.26005930729E+01  0.49218059834E+01  0.51100000000E-03 0. -1.
         12    1    3    3    0    0 -0.92060914791E+01 -0.54661900923E+01 -0.19669668248E+02  0.22394803045E+02  0.00000000000E+00 0. -1.
</event>
<event>
 7    1  0.1457722E-010  0.4778727E+02  0.7816164E-02  0.1312668E+00
        -11   -1    0    0    0    0  0.00000000000E+00  0.00000000000E+00  0.45593999997E+02  0.45594000000E+02  0.51100000000E-03 0.  1.
         11   -1    0    0    0    0 -0.00000000000E+00 -0.00000000000E+00 -0.45593999997E+02  0.45594000000E+02  0.51100000000E-03 0. -1.
    9900012    2    1    2    0    0  0.20149390730E+01  0.57531125018E+01 -0.42970511311E+02  0.47787272756E+02  0.20000007805E+02 0.  0.
        -12    1    1    2    0    0 -0.20149390730E+01 -0.57531125018E+01  0.42970511311E+02  0.43400727244E+02  0.00000000000E+00 0.  1.
         11    1    3    3    0    0  0.18114198078E+01 -0.38219164100E+01 -0.18213195600E+02  0.18697828243E+02  0.51100000000E-03 0. -1.
        -11    1    3    3    0    0 -0.10098825510E+01  0.19540927510E+00  0.11302976607E+01  0.15282737368E+01  0.51100000000E-03 0.  1.
         12    1    3    3    0    0  0.12134018162E+01  0.93796196367E+01 -0.25887613372E+02  0.27561170777E+02  0.00000000000E+00 0. -1.
</event>
<event>
 7    1  0.1457722E-010  0.4778727E+02  0.7816164E-02  0.1312668E+00
        -11   -1    0    0    0    0  0.00000000000E+00  0.00000000000E+00  0.45593999997E+02  0.45594000000E+02  0.51100000000E-03 0.  1.
         11   -1    0    0    0    0 -0.00000000000E+00 -0.00000000000E+00 -0.45593999997E+02  0.45594000000E+02  0.51100000000E-03 0. -1.
    9900012    2    1    2    0    0  0.42886248336E+01  0.22448439153E+02 -0.36895780165E+02  0.47787270544E+02  0.19999997718E+02 0.  0.
        -12    1    1    2    0    0 -0.42886248336E+01 -0.22448439153E+02  0.36895780165E+02  0.43400729456E+02  0.00000000000E+00 0.  1.
         11    1    3    3    0    0  0.72290224248E+01  0.15348393085E+02 -0.15390020225E+02  0.22905996121E+02  0.51100000000E-03 0. -1.
        -11    1    3    3    0    0  0.41618168224E+00 -0.19290108549E+01 -0.97086075240E+00  0.21992864598E+01  0.51100000000E-03 0.  1.
         12    1    3    3    0    0 -0.33565792735E+01  0.90290569231E+01 -0.20534899187E+02  0.22681987963E+02  0.00000000000E+00 0. -1.
</event>
<event>
 7    1  0.1457722E-010  0.4778727E+02  0.7816164E-02  0.1312668E+00
        -11   -1    0    0    0    0  0.00000000000E+00  0.00000000000E+00  0.45593999997E+02  0.45594000000E+02  0.51100000000E-03 0.  1.
         11   -1    0    0    0    0 -0.00000000000E+00 -0.00000000000E+00 -0.45593999997E+02  0.45594000000E+02  0.51100000000E-03 0. -1.
    9900012    2    1    2    0    0  0.32526697658E+02  0.12439250736E+02 -0.25901790924E+02  0.47787265070E+02  0.19999972759E+02 0.  0.
        -12    1    1    2    0    0 -0.32526697658E+02 -0.12439250736E+02  0.25901790924E+02  0.43400734930E+02  0.00000000000E+00 0.  1.
         11    1    3    3    0    0  0.48567517569E+01 -0.83749369986E+00 -0.92179520906E+01  0.10452754390E+02  0.51100000000E-03 0. -1.
        -11    1    3    3    0    0  0.62621301810E+01  0.63733412769E+01 -0.10929175533E+02  0.14116679197E+02  0.51100000000E-03 0.  1.
        -12    1    3    3    0    0  0.21407815720E+02  0.69034031594E+01 -0.57546632995E+01  0.23217831483E+02  0.00000000000E+00 0.  1.
</event>
<event>
 7    1  0.1457722E-010  0.4778726E+02  0.7816164E-02  0.1312668E+00
        -11   -1    0    0    0    0  0.00000000000E+00  0.00000000000E+00  0.45593999997E+02  0.45594000000E+02  0.51100000000E-03 0.  1.
         11   -1    0    0    0    0 -0.00000000000E+00 -0.00000000000E+00 -0.45593999997E+02  0.45594000000E+02  0.51100000000E-03 0. -1.
    9900012    2    1    2    0    0  0.31621095266E+01 -0.11426840932E+02 -0.41749878384E+02  0.47787262963E+02  0.19999963151E+02 0.  0.
        -12    1    1    2    0    0 -0.31621095266E+01  0.11426840932E+02  0.41749878384E+02  0.43400737037E+02  0.00000000000E+00 0.  1.
         11    1    3    3    0    0 -0.20979992243E+01 -0.13629122815E+02 -0.33213419158E+02  0.35962283046E+02  0.51100000000E-03 0. -1.
        -11    1    3    3    0    0 -0.12614061969E+01  0.42948856484E-01 -0.88149885499E+00  0.15394903995E+01  0.51100000000E-03 0.  1.
         12    1    3    3    0    0  0.65215149477E+01  0.21593330260E+01 -0.76549603704E+01  0.10285489517E+02  0.00000000000E+00 0. -1.
</event>
<event>
 7    1  0.1457722E-010  0.4778727E+02  0.7816164E-02  0.1312668E+00
        -11   -1    0    0    0    0  0.00000000000E+00  0.00000000000E+00  0.45593999997E+02  0.45594000000E+02  0.51100000000E-03 0. -1.
         11   -1    0    0    0    0 -0.00000000000E+00 -0.00000000000E+00 -0.45593999997E+02  0.45594000000E+02  0.51100000000E-03 0.  1.
    9900012    2    1    2    0    0  0.22114064829E+02 -0.37322548624E+02 -0.12724174187E+01  0.47787267919E+02  0.19999985751E+02 0.  0.
        -12    1    1    2    0    0 -0.22114064829E+02  0.37322548624E+02  0.12724174187E+01  0.43400732081E+02  0.00000000000E+00 0.  1.
         11    1    3    3    0    0  0.77552450696E+01 -0.26897205948E+01  0.24253625240E+01  0.85592526895E+01  0.51100000000E-03 0. -1.
        -11    1    3    3    0    0  0.42486826631E+01 -0.11112102362E+02 -0.63572732338E+01  0.13488700697E+02  0.51100000000E-03 0.  1.
        -12    1    3    3    0    0  0.10110137097E+02 -0.23520725668E+02  0.26594932911E+01  0.25739314533E+02  0.00000000000E+00 0.  1.
</event>
<event>
 7    1  0.1457722E-010  0.4778727E+02  0.7816164E-02  0.1312668E+00
        -11   -1    0    0    0    0  0.00000000000E+00  0.00000000000E+00  0.45593999997E+02  0.45594000000E+02  0.51100000000E-03 0.  1.
         11   -1    0    0    0    0 -0.00000000000E+00 -0.00000000000E+00 -0.45593999997E+02  0.45594000000E+02  0.51100000000E-03 0. -1.
    9900012    2    1    2    0    0  0.19550947465E+02 -0.38685923691E+02  0.21870203461E+01  0.47787270783E+02  0.19999998806E+02 0.  0.
        -12    1    1    2    0    0 -0.19550947465E+02  0.38685923691E+02 -0.21870203461E+01  0.43400729217E+02  0.00000000000E+00 0.  1.
         11    1    3    3    0    0  0.10522617226E+02 -0.17193602215E+02  0.27533123267E+01  0.20345175336E+02  0.51100000000E-03 0. -1.
        -11    1    3    3    0    0  0.99430808559E+00  0.14070985030E+01  0.24418469033E+01  0.29885098839E+01  0.51100000000E-03 0.  1.
        -12    1    3    3    0    0  0.80340221535E+01 -0.22899419979E+02 -0.30081388839E+01  0.24453585563E+02  0.00000000000E+00 0.  1.
</event>
<event>
 7    1  0.1457722E-010  0.4778727E+02  0.7816164E-02  0.1312668E+00
        -11   -1    0    0    0    0  0.00000000000E+00  0.00000000000E+00  0.45593999997E+02  0.45594000000E+02  0.51100000000E-03 0.  1.
         11   -1    0    0    0    0 -0.00000000000E+00 -0.00000000000E+00 -0.45593999997E+02  0.45594000000E+02  0.51100000000E-03 0. -1.
    9900012    2    1    2    0    0 -0.31398694492E+02  0.18181921625E+02 -0.23815189636E+02  0.47787267895E+02  0.19999985642E+02 0.  0.
        -12    1    1    2    0    0  0.31398694492E+02 -0.18181921625E+02  0.23815189636E+02  0.43400732105E+02  0.00000000000E+00 0.  1.
         11    1    3    3    0    0 -0.10224952161E+02  0.83927992204E+01 -0.59711785604E+01  0.14513569482E+02  0.51100000000E-03 0. -1.
        -11    1    3    3    0    0  0.25098414291E+01  0.16049739207E+00 -0.17462401534E+01  0.30617671934E+01  0.51100000000E-03 0.  1.
        -12    1    3    3    0    0 -0.23683583761E+02  0.96286250129E+01 -0.16097770922E+02  0.30211931220E+02  0.00000000000E+00 0.  1.
</event>
<event>
 7    1  0.1457722E-010  0.4778727E+02  0.7816164E-02  0.1312668E+00
        -11   -1    0    0    0    0  0.00000000000E+00  0.00000000000E+00  0.45593999997E+02  0.45594000000E+02  0.51100000000E-03 0. -1.
         11   -1    0    0    0    0 -0.00000000000E+00 -0.00000000000E+00 -0.45593999997E+02  0.45594000000E+02  0.51100000000E-03 0.  1.
    9900012    2    1    2    0    0 -0.42143175663E+02  0.74029404744E+01  0.72644868132E+01  0.47787267849E+02  0.19999985429E+02 0.  0.
        -12    1    1    2    0    0  0.42143175663E+02 -0.74029404744E+01 -0.72644868132E+01  0.43400732151E+02  0.00000000000E+00 0.  1.
         11    1    3    3    0    0 -0.53052941258E+00  0.25644386072E+01  0.18803437762E+01  0.32238951294E+01  0.51100000000E-03 0. -1.
        -11    1    3    3    0    0 -0.46178941121E+01  0.49603958997E+01  0.32251654874E+01  0.75054757474E+01  0.51100000000E-03 0.  1.
         12    1    3    3    0    0 -0.36994752138E+02 -0.12189403243E+00  0.21589775496E+01  0.37057896972E+02  0.00000000000E+00 0. -1.
</event>
<event>
 7    1  0.1457722E-010  0.4778727E+02  0.7816164E-02  0.1312668E+00
        -11   -1    0    0    0    0  0.00000000000E+00  0.00000000000E+00  0.45593999997E+02  0.45594000000E+02  0.51100000000E-03 0. -1.
         11   -1    0    0    0    0 -0.00000000000E+00 -0.00000000000E+00 -0.45593999997E+02  0.45594000000E+02  0.51100000000E-03 0.  1.
    9900012    2    1    2    0    0 -0.10321044362E+02 -0.14485779279E+02  0.39588654958E+02  0.47787270059E+02  0.19999995506E+02 0.  0.
        -12    1    1    2    0    0  0.10321044362E+02  0.14485779279E+02 -0.39588654958E+02  0.43400729941E+02  0.00000000000E+00 0.  1.
         11    1    3    3    0    0 -0.26069168080E+01 -0.81042030790E+01  0.73425850301E+01  0.11242227447E+02  0.51100000000E-03 0. -1.
        -11    1    3    3    0    0 -0.45639278875E+01 -0.10142076540E+02  0.15378904092E+02  0.18978984315E+02  0.51100000000E-03 0.  1.
        -12    1    3    3    0    0 -0.31501996666E+01  0.37605003392E+01  0.16867165836E+02  0.17566058297E+02  0.00000000000E+00 0.  1.
</event>
<event>
 7    1  0.1457722E-010  0.4778727E+02  0.7816164E-02  0.1312668E+00
        -11   -1    0    0    0    0  0.00000000000E+00  0.00000000000E+00  0.45593999997E+02  0.45594000000E+02  0.51100000000E-03 0. -1.
         11   -1    0    0    0    0 -0.00000000000E+00 -0.00000000000E+00 -0.45593999997E+02  0.45594000000E+02  0.51100000000E-03 0.  1.
    9900012    2    1    2    0    0 -0.66478195641E+01 -0.78362617163E+01  0.42166606645E+02  0.47787271681E+02  0.20000002901E+02 0.  0.
        -12    1    1    2    0    0  0.66478195641E+01  0.78362617163E+01 -0.42166606645E+02  0.43400728319E+02  0.00000000000E+00 0.  1.
         11    1    3    3    0    0 -0.10851918292E+01 -0.69381214425E+01  0.75379916591E+01  0.10302256499E+02  0.51100000000E-03 0. -1.
        -11    1    3    3    0    0  0.38625928368E+01  0.95570951019E+00  0.16451407280E+02  0.16925773419E+02  0.51100000000E-03 0.  1.
        -12    1    3    3    0    0 -0.94252205716E+01 -0.18538497840E+01  0.18177207706E+02  0.20559241762E+02  0.00000000000E+00 0.  1.
</event>
<event>
 7    1  0.1457722E-010  0.4778721E+02  0.7816164E-02  0.1312668E+00
        -11   -1    0    0    0    0  0.00000000000E+00  0.00000000000E+00  0.45593999997E+02  0.45594000000E+02  0.51100000000E-03 0.  1.
         11   -1    0    0    0    0 -0.00000000000E+00 -0.00000000000E+00 -0.45593999997E+02  0.45594000000E+02  0.51100000000E-03 0. -1.
    9900012    2    1    2    0    0 -0.38773903141E+02 -0.19103039983E+02 -0.39098383382E+01  0.47787210408E+02  0.19999723531E+02 0.  0.
        -12    1    1    2    0    0  0.38773903141E+02  0.19103039983E+02  0.39098383382E+01  0.43400789592E+02  0.00000000000E+00 0.  1.
         11    1    3    3    0    0 -0.11538486122E+02 -0.13279503871E+01  0.35216751682E+01  0.12136816323E+02  0.51100000000E-03 0. -1.
        -11    1    3    3    0    0 -0.19430743185E+02 -0.17479104789E+02 -0.21541076102E+01  0.26224283876E+02  0.51100000000E-03 0.  1.
         12    1    3    3    0    0 -0.78046738340E+01 -0.29598480636E+00 -0.52774058961E+01  0.94261102080E+01  0.00000000000E+00 0. -1.
</event>
<event>
 7    1  0.1457722E-010  0.4778728E+02  0.7816164E-02  0.1312668E+00
        -11   -1    0    0    0    0  0.00000000000E+00  0.00000000000E+00  0.45593999997E+02  0.45594000000E+02  0.51100000000E-03 0. -1.
         11   -1    0    0    0    0 -0.00000000000E+00 -0.00000000000E+00 -0.45593999997E+02  0.45594000000E+02  0.51100000000E-03 0.  1.
    9900012    2    1    2    0    0  0.21172286542E+02 -0.10417128432E+02  0.36425822473E+02  0.47787276216E+02  0.20000023577E+02 0.  0.
        -12    1    1    2    0    0 -0.21172286542E+02  0.10417128432E+02 -0.36425822473E+02  0.43400723784E+02  0.00000000000E+00 0.  1.
         11    1    3    3    0    0  0.10096928072E+01 -0.21952847388E+01  0.11556111693E+02  0.11806035421E+02  0.51100000000E-03 0. -1.
        -11    1    3    3    0    0  0.83240621879E+01 -0.39377651615E+01  0.13540940240E+01  0.93075010965E+01  0.51100000000E-03 0.  1.
         12    1    3    3    0    0  0.11838531547E+02 -0.42840785315E+01  0.23515616756E+02  0.26673739698E+02  0.00000000000E+00 0. -1.
</event>
<event>
 7    1  0.1457722E-010  0.4778722E+02  0.7816164E-02  0.1312668E+00
        -11   -1    0    0    0    0  0.00000000000E+00  0.00000000000E+00  0.45593999997E+02  0.45594000000E+02  0.51100000000E-03 0.  1.
         11   -1    0    0    0    0 -0.00000000000E+00 -0.00000000000E+00 -0.45593999997E+02  0.45594000000E+02  0.51100000000E-03 0. -1.
    9900012    2    1    2    0    0 -0.30578394823E+01 -0.35119770219E+02 -0.25315593966E+02  0.47787217284E+02  0.19999754883E+02 0.  0.
        -12    1    1    2    0    0  0.30578394823E+01  0.35119770219E+02  0.25315593966E+02  0.43400782716E+02  0.00000000000E+00 0.  1.
         11    1    3    3    0    0  0.51715767748E+00 -0.56616146352E+01 -0.14233431476E+02  0.15326836079E+02  0.51100000000E-03 0. -1.
        -11    1    3    3    0    0 -0.55582162218E+00 -0.53999321218E+01  0.75083282552E+00  0.54801418585E+01  0.51100000000E-03 0.  1.
         12    1    3    3    0    0 -0.30191755376E+01 -0.24058223462E+02 -0.11832995315E+02  0.26980239347E+02  0.00000000000E+00 0. -1.
</event>
<event>
 7    1  0.1457722E-010  0.4778726E+02  0.7816164E-02  0.1312668E+00
        -11   -1    0    0    0    0  0.00000000000E+00  0.00000000000E+00  0.45593999997E+02  0.45594000000E+02  0.51100000000E-03 0.  1.
         11   -1    0    0    0    0 -0.00000000000E+00 -0.00000000000E+00 -0.45593999997E+02  0.45594000000E+02  0.51100000000E-03 0. -1.
    9900012    2    1    2    0    0  0.13107090990E+02 -0.41297975256E+02  0.25110662286E+01  0.47787262125E+02  0.19999959334E+02 0.  0.
        -12    1    1    2    0    0 -0.13107090990E+02  0.41297975256E+02 -0.25110662286E+01  0.43400737875E+02  0.00000000000E+00 0.  1.
         11    1    3    3    0    0  0.75887733086E+01 -0.23651688273E+02  0.25767754304E+01  0.24972617211E+02  0.51100000000E-03 0. -1.
        -11    1    3    3    0    0 -0.23117712596E+01 -0.11048497983E+02 -0.38083241700E+01  0.11912889124E+02  0.51100000000E-03 0.  1.
        -12    1    3    3    0    0  0.78300889409E+01 -0.65977890002E+01  0.37426149682E+01  0.10901755790E+02  0.00000000000E+00 0.  1.
</event>
<event>
 7    1  0.1457722E-010  0.4778727E+02  0.7816164E-02  0.1312668E+00
        -11   -1    0    0    0    0  0.00000000000E+00  0.00000000000E+00  0.45593999997E+02  0.45594000000E+02  0.51100000000E-03 0.  1.
         11   -1    0    0    0    0 -0.00000000000E+00 -0.00000000000E+00 -0.45593999997E+02  0.45594000000E+02  0.51100000000E-03 0. -1.
    9900012    2    1    2    0    0 -0.15863976788E+02 -0.14464498103E+02 -0.37719172393E+02  0.47787269235E+02  0.19999991751E+02 0.  0.
        -12    1    1    2    0    0  0.15863976788E+02  0.14464498103E+02  0.37719172393E+02  0.43400730765E+02  0.00000000000E+00 0.  1.
         11    1    3    3    0    0 -0.82825451835E+01 -0.17577593263E+01 -0.75798352288E+01  0.11364161866E+02  0.51100000000E-03 0. -1.
        -11    1    3    3    0    0 -0.89113095846E+01 -0.41711980277E+01 -0.23661131435E+02  0.25625367754E+02  0.51100000000E-03 0.  1.
        -12    1    3    3    0    0  0.13298779802E+01 -0.85355407486E+01 -0.64782057296E+01  0.10797739615E+02  0.00000000000E+00 0.  1.
</event>
<event>
 7    1  0.1457722E-010  0.4778728E+02  0.7816164E-02  0.1312668E+00
        -11   -1    0    0    0    0  0.00000000000E+00  0.00000000000E+00  0.45593999997E+02  0.45594000000E+02  0.51100000000E-03 0.  1.
         11   -1    0    0    0    0 -0.00000000000E+00 -0.00000000000E+00 -0.45593999997E+02  0.45594000000E+02  0.51100000000E-03 0. -1.
    9900012    2    1    2    0    0  0.29763379838E+02 -0.31501779265E+02  0.23242068899E+01  0.47787276343E+02  0.20000024159E+02 0.  0.
        -12    1    1    2    0    0 -0.29763379838E+02  0.31501779265E+02 -0.23242068899E+01  0.43400723657E+02  0.00000000000E+00 0.  1.
         11    1    3    3    0    0  0.25372951527E+02 -0.14659375140E+02  0.14595956564E+01  0.29339638178E+02  0.51100000000E-03 0. -1.
        -11    1    3    3    0    0 -0.20939284159E+00 -0.17406979642E+01  0.19517062597E+01  0.26235533824E+01  0.51100000000E-03 0.  1.
         12    1    3    3    0    0  0.45998211531E+01 -0.15101706161E+02 -0.10870950263E+01  0.15824084783E+02  0.00000000000E+00 0. -1.
</event>
<event>
 7    1  0.1457722E-010  0.4778728E+02  0.7816164E-02  0.1312668E+00
        -11   -1    0    0    0    0  0.00000000000E+00  0.00000000000E+00  0.45593999997E+02  0.45594000000E+02  0.51100000000E-03 0.  1.
         11   -1    0    0    0    0 -0.00000000000E+00 -0.00000000000E+00 -0.45593999997E+02  0.45594000000E+02  0.51100000000E-03 0. -1.
    9900012    2    1    2    0    0 -0.38139457254E+02  0.96666939178E+01 -0.18318283677E+02  0.47787277796E+02  0.20000030785E+02 0.  0.
        -12    1    1    2    0    0  0.38139457254E+02 -0.96666939178E+01  0.18318283677E+02  0.43400722204E+02  0.00000000000E+00 0.  1.
         11    1    3    3    0    0 -0.23889323362E+02  0.23874055486E+01 -0.66516912102E+01  0.24912737147E+02  0.51100000000E-03 0. -1.
        -11    1    3    3    0    0 -0.13604337957E+01 -0.26648757206E+01 -0.36751730836E+01  0.47391180798E+01  0.51100000000E-03 0.  1.
        -12    1    3    3    0    0 -0.12889700097E+02  0.99441640899E+01 -0.79914193829E+01  0.18135422570E+02  0.00000000000E+00 0.  1.
</event>
<event>
 7    1  0.1457722E-010  0.4778727E+02  0.7816164E-02  0.1312668E+00
        -11   -1    0    0    0    0  0.00000000000E+00  0.00000000000E+00  0.45593999997E+02  0.45594000000E+02  0.51100000000E-03 0.  1.
         11   -1    0    0    0    0 -0.00000000000E+00 -0.00000000000E+00 -0.45593999997E+02  0.45594000000E+02  0.51100000000E-03 0. -1.
    9900012    2    1    2    0    0 -0.82473515094E+01 -0.40812669682E+02 -0.12244619212E+02  0.47787268288E+02  0.19999987433E+02 0.  0.
        -12    1    1    2    0    0  0.82473515094E+01  0.40812669682E+02  0.12244619212E+02  0.43400731712E+02  0.00000000000E+00 0.  1.
         11    1    3    3    0    0 -0.27180888151E+01 -0.22466862713E+02 -0.15262876479E+02  0.27296580842E+02  0.51100000000E-03 0. -1.
        -11    1    3    3    0    0  0.14094573903E+00 -0.10707125458E+02  0.90969446643E+00  0.10746624845E+02  0.51100000000E-03 0.  1.
        -12    1    3    3    0    0 -0.56702084333E+01 -0.76386815106E+01  0.21085628004E+01  0.97440626014E+01  0.00000000000E+00 0.  1.
</event>
<event>
 7    1  0.1457722E-010  0.4778728E+02  0.7816164E-02  0.1312668E+00
        -11   -1    0    0    0    0  0.00000000000E+00  0.00000000000E+00  0.45593999997E+02  0.45594000000E+02  0.51100000000E-03 0.  1.
         11   -1    0    0    0    0 -0.00000000000E+00 -0.00000000000E+00 -0.45593999997E+02  0.45594000000E+02  0.51100000000E-03 0. -1.
    9900012    2    1    2    0    0  0.38326623243E+02 -0.29982290813E+01 -0.20142066986E+02  0.47787282387E+02  0.20000051715E+02 0.  0.
        -12    1    1    2    0    0 -0.38326623243E+02  0.29982290813E+01  0.20142066986E+02  0.43400717613E+02  0.00000000000E+00 0.  1.
         11    1    3    3    0    0  0.30665974309E+02 -0.11905826705E+01 -0.17090676663E+02  0.35127065014E+02  0.51100000000E-03 0. -1.
        -11    1    3    3    0    0  0.50199623115E+01  0.34167928013E+01 -0.29819447881E-01  0.60725105283E+01  0.51100000000E-03 0.  1.
         12    1    3    3    0    0  0.26406866228E+01 -0.52244392122E+01 -0.30215708753E+01  0.65877068450E+01  0.00000000000E+00 0. -1.
</event>
<event>
 7    1  0.1457722E-010  0.4778727E+02  0.7816164E-02  0.1312668E+00
        -11   -1    0    0    0    0  0.00000000000E+00  0.00000000000E+00  0.45593999997E+02  0.45594000000E+02  0.51100000000E-03 0.  1.
         11   -1    0    0    0    0 -0.00000000000E+00 -0.00000000000E+00 -0.45593999997E+02  0.45594000000E+02  0.51100000000E-03 0. -1.
    9900012    2    1    2    0    0 -0.18955821077E+02 -0.10296658726E+02 -0.37660041296E+02  0.47787273692E+02  0.20000012070E+02 0.  0.
        -12    1    1    2    0    0  0.18955821077E+02  0.10296658726E+02  0.37660041296E+02  0.43400726308E+02  0.00000000000E+00 0.  1.
         11    1    3    3    0    0 -0.20546655371E+02 -0.48890731073E+01 -0.21715272807E+02  0.30292262314E+02  0.51100000000E-03 0. -1.
        -11    1    3    3    0    0  0.82473832858E+00  0.44151784247E+00 -0.47484038324E+01  0.48396766971E+01  0.51100000000E-03 0.  1.
        -12    1    3    3    0    0  0.76609596554E+00 -0.58491034616E+01 -0.11196364657E+02  0.12655334680E+02  0.00000000000E+00 0.  1.
</event>
<event>
 7    1  0.1457722E-010  0.4778727E+02  0.7816164E-02  0.1312668E+00
        -11   -1    0    0    0    0  0.00000000000E+00  0.00000000000E+00  0.45593999997E+02  0.45594000000E+02  0.51100000000E-03 0.  1.
         11   -1    0    0    0    0 -0.00000000000E+00 -0.00000000000E+00 -0.45593999997E+02  0.45594000000E+02  0.51100000000E-03 0. -1.
    9900012    2    1    2    0    0 -0.43075494119E+02  0.10533986953E+01 -0.51976437267E+01  0.47787270251E+02  0.19999996384E+02 0.  0.
        -12    1    1    2    0    0  0.43075494119E+02 -0.10533986953E+01  0.51976437267E+01  0.43400729749E+02  0.00000000000E+00 0.  1.
         11    1    3    3    0    0 -0.17912466626E+01  0.28731602333E+01 -0.21827707395E+01  0.40284119321E+01  0.51100000000E-03 0. -1.
        -11    1    3    3    0    0 -0.41579984186E+02 -0.19004446456E+00 -0.40948142256E+01  0.41781559396E+02  0.51100000000E-03 0.  1.
         12    1    3    3    0    0  0.29573672917E+00 -0.16297170734E+01  0.10799412384E+01  0.19772989229E+01  0.00000000000E+00 0. -1.
</event>
<event>
 7    1  0.1457722E-010  0.4778727E+02  0.7816164E-02  0.1312668E+00
        -11   -1    0    0    0    0  0.00000000000E+00  0.00000000000E+00  0.45593999997E+02  0.45594000000E+02  0.51100000000E-03 0.  1.
         11   -1    0    0    0    0 -0.00000000000E+00 -0.00000000000E+00 -0.45593999997E+02  0.45594000000E+02  0.51100000000E-03 0. -1.
    9900012    2    1    2    0    0  0.13956907736E+02  0.25197291472E+02 -0.32464198929E+02  0.47787274393E+02  0.20000015269E+02 0.  0.
        -12    1    1    2    0    0 -0.13956907736E+02 -0.25197291472E+02  0.32464198929E+02  0.43400725607E+02  0.00000000000E+00 0.  1.
         11    1    3    3    0    0  0.36428797069E+01  0.16728219634E+02 -0.20173358568E+02  0.26458803844E+02  0.51100000000E-03 0. -1.
        -11    1    3    3    0    0  0.85930068112E+01  0.95736933857E+01 -0.50765333874E+01  0.13829915495E+02  0.51100000000E-03 0.  1.
        -12    1    3    3    0    0  0.17210212180E+01 -0.11046215473E+01 -0.72143069737E+01  0.74985550545E+01  0.00000000000E+00 0.  1.
</event>
<event>
 7    1  0.1457722E-010  0.4778727E+02  0.7816164E-02  0.1312668E+00
        -11   -1    0    0    0    0  0.00000000000E+00  0.00000000000E+00  0.45593999997E+02  0.45594000000E+02  0.51100000000E-03 0.  1.
         11   -1    0    0    0    0 -0.00000000000E+00 -0.00000000000E+00 -0.45593999997E+02  0.45594000000E+02  0.51100000000E-03 0. -1.
    9900012    2    1    2    0    0  0.15236460180E+02 -0.23919281248E+02 -0.32853336973E+02  0.47787268618E+02  0.19999988939E+02 0.  0.
        -12    1    1    2    0    0 -0.15236460180E+02  0.23919281248E+02  0.32853336973E+02  0.43400731382E+02  0.00000000000E+00 0.  1.
         11    1    3    3    0    0  0.67940099211E+01 -0.33068765014E+01 -0.93609029943E+01  0.12029983713E+02  0.51100000000E-03 0. -1.
        -11    1    3    3    0    0  0.82292596692E+01 -0.20640014621E+02 -0.14000667796E+02  0.26263084687E+02  0.51100000000E-03 0.  1.
        -12    1    3    3    0    0  0.21319058989E+00  0.27609874867E-01 -0.94917661825E+01  0.94942002189E+01  0.00000000000E+00 0.  1.
</event>
<event>
 7    1  0.1457722E-010  0.4778727E+02  0.7816164E-02  0.1312668E+00
        -11   -1    0    0    0    0  0.00000000000E+00  0.00000000000E+00  0.45593999997E+02  0.45594000000E+02  0.51100000000E-03 0. -1.
         11   -1    0    0    0    0 -0.00000000000E+00 -0.00000000000E+00 -0.45593999997E+02  0.45594000000E+02  0.51100000000E-03 0.  1.
    9900012    2    1    2    0    0  0.32899658524E+01 -0.39023554196E+02  0.18707262528E+02  0.47787270413E+02  0.19999997122E+02 0.  0.
        -12    1    1    2    0    0 -0.32899658524E+01  0.39023554196E+02 -0.18707262528E+02  0.43400729587E+02  0.00000000000E+00 0.  1.
         11    1    3    3    0    0 -0.26143156563E+01 -0.57176725001E+01  0.57379426789E+01  0.85117807547E+01  0.51100000000E-03 0. -1.
        -11    1    3    3    0    0  0.57236255831E+01 -0.12169104023E+02 -0.16877112330E+01  0.13553425840E+02  0.51100000000E-03 0.  1.
        -12    1    3    3    0    0  0.18065592560E+00 -0.21136777673E+02  0.14657031082E+02  0.25722063819E+02  0.00000000000E+00 0.  1.
</event>
<event>
 7    1  0.1457722E-010  0.4778727E+02  0.7816164E-02  0.1312668E+00
        -11   -1    0    0    0    0  0.00000000000E+00  0.00000000000E+00  0.45593999997E+02  0.45594000000E+02  0.51100000000E-03 0.  1.
         11   -1    0    0    0    0 -0.00000000000E+00 -0.00000000000E+00 -0.45593999997E+02  0.45594000000E+02  0.51100000000E-03 0. -1.
    9900012    2    1    2    0    0  0.29152118407E+01 -0.89366183567E+01 -0.42370528782E+02  0.47787270547E+02  0.19999997734E+02 0.  0.
        -12    1    1    2    0    0 -0.29152118407E+01  0.89366183567E+01  0.42370528782E+02  0.43400729453E+02  0.00000000000E+00 0.  1.
         11    1    3    3    0    0 -0.32660796829E+00 -0.55227613452E+01 -0.23376097113E+02  0.24021854261E+02  0.51100000000E-03 0. -1.
        -11    1    3    3    0    0 -0.32230082612E+01 -0.61645906558E+01 -0.11878995276E+02  0.13765917668E+02  0.51100000000E-03 0.  1.
         12    1    3    3    0    0  0.64648280702E+01  0.27507336443E+01 -0.71154363938E+01  0.99994986191E+01  0.00000000000E+00 0. -1.
</event>
<event>
 7    1  0.1457722E-010  0.4778727E+02  0.7816164E-02  0.1312668E+00
        -11   -1    0    0    0    0  0.00000000000E+00  0.00000000000E+00  0.45593999997E+02  0.45594000000E+02  0.51100000000E-03 0.  1.
         11   -1    0    0    0    0 -0.00000000000E+00 -0.00000000000E+00 -0.45593999997E+02  0.45594000000E+02  0.51100000000E-03 0. -1.
    9900012    2    1    2    0    0 -0.19802625594E+01  0.43343688681E+02  0.10131619695E+01  0.47787270911E+02  0.19999999391E+02 0.  0.
        -12    1    1    2    0    0  0.19802625594E+01 -0.43343688681E+02 -0.10131619695E+01  0.43400729089E+02  0.00000000000E+00 0.  1.
         11    1    3    3    0    0  0.17235469677E+01  0.59444289786E+01  0.24406517960E+00  0.61940631337E+01  0.51100000000E-03 0. -1.
        -11    1    3    3    0    0 -0.25822138869E+01  0.32231015224E+02  0.73415016537E+01  0.33157258900E+02  0.51100000000E-03 0.  1.
         12    1    3    3    0    0 -0.11215956402E+01  0.51682444782E+01 -0.65724048638E+01  0.84359488772E+01  0.00000000000E+00 0. -1.
</event>
<event>
 7    1  0.1457722E-010  0.4778728E+02  0.7816164E-02  0.1312668E+00
        -11   -1    0    0    0    0  0.00000000000E+00  0.00000000000E+00  0.45593999997E+02  0.45594000000E+02  0.51100000000E-03 0.  1.
         11   -1    0    0    0    0 -0.00000000000E+00 -0.00000000000E+00 -0.45593999997E+02  0.45594000000E+02  0.51100000000E-03 0. -1.
    9900012    2    1    2    0    0 -0.90032687418E+01 -0.23126567161E+02 -0.35605132814E+02  0.47787280658E+02  0.20000043833E+02 0.  0.
        -12    1    1    2    0    0  0.90032687418E+01  0.23126567161E+02  0.35605132814E+02  0.43400719342E+02  0.00000000000E+00 0.  1.
         11    1    3    3    0    0  0.32474622534E+00 -0.61110898930E+01 -0.11289540204E+02  0.12841518527E+02  0.51100000000E-03 0. -1.
        -11    1    3    3    0    0 -0.32847894822E+01 -0.10257319178E+02 -0.21297168038E+01  0.10978985955E+02  0.51100000000E-03 0.  1.
         12    1    3    3    0    0 -0.60432254849E+01 -0.67581580900E+01 -0.22185875806E+02  0.23966776177E+02  0.00000000000E+00 0. -1.
</event>
<event>
 7    1  0.1457722E-010  0.4778727E+02  0.7816164E-02  0.1312668E+00
        -11   -1    0    0    0    0  0.00000000000E+00  0.00000000000E+00  0.45593999997E+02  0.45594000000E+02  0.51100000000E-03 0.  1.
         11   -1    0    0    0    0 -0.00000000000E+00 -0.00000000000E+00 -0.45593999997E+02  0.45594000000E+02  0.51100000000E-03 0. -1.
    9900012    2    1    2    0    0 -0.14494990771E+02  0.32642175578E+02 -0.24657790808E+02  0.47787273837E+02  0.20000012734E+02 0.  0.
        -12    1    1    2    0    0  0.14494990771E+02 -0.32642175578E+02  0.24657790808E+02  0.43400726163E+02  0.00000000000E+00 0.  1.
         11    1    3    3    0    0 -0.24181821338E+01  0.89293736065E+01 -0.82566744322E+00  0.92877900937E+01  0.51100000000E-03 0. -1.
        -11    1    3    3    0    0 -0.39358218485E+01  0.84527589804E+01 -0.34414943233E+00  0.93305019745E+01  0.51100000000E-03 0.  1.
         12    1    3    3    0    0 -0.81409867886E+01  0.15260042991E+02 -0.23487973933E+02  0.29168981769E+02  0.00000000000E+00 0. -1.
</event>
<event>
 7    1  0.1457722E-010  0.4778727E+02  0.7816164E-02  0.1312668E+00
        -11   -1    0    0    0    0  0.00000000000E+00  0.00000000000E+00  0.45593999997E+02  0.45594000000E+02  0.51100000000E-03 0.  1.
         11   -1    0    0    0    0 -0.00000000000E+00 -0.00000000000E+00 -0.45593999997E+02  0.45594000000E+02  0.51100000000E-03 0. -1.
    9900012    2    1    2    0    0 -0.20916216066E+02  0.80417214344E+01 -0.37168076306E+02  0.47787271038E+02  0.19999999968E+02 0.  0.
        -12    1    1    2    0    0  0.20916216066E+02 -0.80417214344E+01  0.37168076306E+02  0.43400728962E+02  0.00000000000E+00 0.  1.
         11    1    3    3    0    0 -0.69750867023E+01 -0.51069830760E+01 -0.53729936319E+01  0.10178515190E+02  0.51100000000E-03 0. -1.
        -11    1    3    3    0    0 -0.12119107662E+01  0.37301827454E+01 -0.93582185811E+01  0.10146883575E+02  0.51100000000E-03 0.  1.
         12    1    3    3    0    0 -0.12729218598E+02  0.94185217650E+01 -0.22436864093E+02  0.27461872272E+02  0.00000000000E+00 0. -1.
</event>
<event>
 7    1  0.1457722E-010  0.4778727E+02  0.7816164E-02  0.1312668E+00
        -11   -1    0    0    0    0  0.00000000000E+00  0.00000000000E+00  0.45593999997E+02  0.45594000000E+02  0.51100000000E-03 0.  1.
         11   -1    0    0    0    0 -0.00000000000E+00 -0.00000000000E+00 -0.45593999997E+02  0.45594000000E+02  0.51100000000E-03 0. -1.
    9900012    2    1    2    0    0 -0.37719557911E+02  0.32007228785E+01 -0.21227665697E+02  0.47787268821E+02  0.19999989862E+02 0.  0.
        -12    1    1    2    0    0  0.37719557911E+02 -0.32007228785E+01  0.21227665697E+02  0.43400731179E+02  0.00000000000E+00 0.  1.
         11    1    3    3    0    0 -0.12915990802E+02  0.19086187207E+01 -0.28450923141E+01  0.13362641743E+02  0.51100000000E-03 0. -1.
        -11    1    3    3    0    0 -0.20747178744E+02 -0.35528721337E+01 -0.85128630306E+01  0.22705443477E+02  0.51100000000E-03 0.  1.
         12    1    3    3    0    0 -0.40563883644E+01  0.48449762915E+01 -0.98697103526E+01  0.11719183601E+02  0.00000000000E+00 0. -1.
</event>
<event>
 7    1  0.1457722E-010  0.4778727E+02  0.7816164E-02  0.1312668E+00
        -11   -1    0    0    0    0  0.00000000000E+00  0.00000000000E+00  0.45593999997E+02  0.45594000000E+02  0.51100000000E-03 0.  1.
         11   -1    0    0    0    0 -0.00000000000E+00 -0.00000000000E+00 -0.45593999997E+02  0.45594000000E+02  0.51100000000E-03 0. -1.
    9900012    2    1    2    0    0 -0.26409315324E+02  0.57661319082E+01 -0.33954719876E+02  0.47787271724E+02  0.20000003099E+02 0.  0.
        -12    1    1    2    0    0  0.26409315324E+02 -0.57661319082E+01  0.33954719876E+02  0.43400728276E+02  0.00000000000E+00 0.  1.
         11    1    3    3    0    0  0.14937280993E+01  0.99419092758E+00 -0.76134706600E+01  0.78220569537E+01  0.51100000000E-03 0. -1.
        -11    1    3    3    0    0 -0.11154045284E+02 -0.29917629548E+01 -0.11230018837E+02  0.16108280327E+02  0.51100000000E-03 0.  1.
         12    1    3    3    0    0 -0.16748998139E+02  0.77637039353E+01 -0.15111230379E+02  0.23856934443E+02  0.00000000000E+00 0. -1.
</event>
<event>
 7    1  0.1457722E-010  0.4778727E+02  0.7816164E-02  0.1312668E+00
        -11   -1    0    0    0    0  0.00000000000E+00  0.00000000000E+00  0.45593999997E+02  0.45594000000E+02  0.51100000000E-03 0. -1.
         11   -1    0    0    0    0 -0.00000000000E+00 -0.00000000000E+00 -0.45593999997E+02  0.45594000000E+02  0.51100000000E-03 0.  1.
    9900012    2    1    2    0    0  0.40105293554E+02 -0.16048065020E+02 -0.42009963442E+01  0.47787270372E+02  0.19999996933E+02 0.  0.
        -12    1    1    2    0    0 -0.40105293554E+02  0.16048065020E+02  0.42009963442E+01  0.43400729628E+02  0.00000000000E+00 0.  1.
         11    1    3    3    0    0  0.51974243370E+01 -0.53856193688E+01  0.11513183620E+01  0.75725590097E+01  0.51100000000E-03 0. -1.
        -11    1    3    3    0    0  0.31124227562E+01 -0.22280358112E+01  0.44695459016E+01  0.58845696374E+01  0.51100000000E-03 0.  1.
        -12    1    3    3    0    0  0.31795446461E+02 -0.84344098404E+01 -0.98218606078E+01  0.34330141725E+02  0.00000000000E+00 0.  1.
</event>
<event>
 7    1  0.1457722E-010  0.4778729E+02  0.7816164E-02  0.1312668E+00
        -11   -1    0    0    0    0  0.00000000000E+00  0.00000000000E+00  0.45593999997E+02  0.45594000000E+02  0.51100000000E-03 0.  1.
         11   -1    0    0    0    0 -0.00000000000E+00 -0.00000000000E+00 -0.45593999997E+02  0.45594000000E+02  0.51100000000E-03 0. -1.
    9900012    2    1    2    0    0  0.35170620613E+02 -0.44299081607E+01 -0.25040461696E+02  0.47787293064E+02  0.20000100395E+02 0.  0.
        -12    1    1    2    0    0 -0.35170620613E+02  0.44299081607E+01  0.25040461696E+02  0.43400706936E+02  0.00000000000E+00 0.  1.
         11    1    3    3    0    0  0.53818861202E+01  0.41025532464E+01 -0.45281892395E+00  0.67823805990E+01  0.51100000000E-03 0. -1.
        -11    1    3    3    0    0  0.89658008483E+01 -0.49440123968E-01 -0.21080101820E+01  0.92104145600E+01  0.51100000000E-03 0.  1.
         12    1    3    3    0    0  0.20822933644E+02 -0.84830212832E+01 -0.22479632590E+02  0.31794497905E+02  0.00000000000E+00 0. -1.
</event>
<event>
 7    1  0.1457722E-010  0.4778727E+02  0.7816164E-02  0.1312668E+00
        -11   -1    0    0    0    0  0.00000000000E+00  0.00000000000E+00  0.45593999997E+02  0.45594000000E+02  0.51100000000E-03 0.  1.
         11   -1    0    0    0    0 -0.00000000000E+00 -0.00000000000E+00 -0.45593999997E+02  0.45594000000E+02  0.51100000000E-03 0. -1.
    9900012    2    1    2    0    0  0.18037654763E+02  0.28297797113E+02 -0.27522730499E+02  0.47787274143E+02  0.20000014126E+02 0.  0.
        -12    1    1    2    0    0 -0.18037654763E+02 -0.28297797113E+02  0.27522730499E+02  0.43400725857E+02  0.00000000000E+00 0.  1.
         11    1    3    3    0    0  0.12552134182E+02  0.13723261843E+02 -0.82162971450E+01  0.20332032047E+02  0.51100000000E-03 0. -1.
        -11    1    3    3    0    0 -0.43732443198E+00 -0.19333069340E+01 -0.19244178783E+01  0.27626640750E+01  0.51100000000E-03 0.  1.
         12    1    3    3    0    0  0.59228450132E+01  0.16507842204E+02 -0.17382015476E+02  0.24692578020E+02  0.00000000000E+00 0. -1.
</event>
<event>
 7    1  0.1457722E-010  0.4778727E+02  0.7816164E-02  0.1312668E+00
        -11   -1    0    0    0    0  0.00000000000E+00  0.00000000000E+00  0.45593999997E+02  0.45594000000E+02  0.51100000000E-03 0.  1.
         11   -1    0    0    0    0 -0.00000000000E+00 -0.00000000000E+00 -0.45593999997E+02  0.45594000000E+02  0.51100000000E-03 0. -1.
    9900012    2    1    2    0    0 -0.18574871124E+02  0.21037320071E+02 -0.33106323419E+02  0.47787270474E+02  0.19999997401E+02 0.  0.
        -12    1    1    2    0    0  0.18574871124E+02 -0.21037320071E+02  0.33106323419E+02  0.43400729526E+02  0.00000000000E+00 0.  1.
         11    1    3    3    0    0  0.46644787193E+00 -0.15572249777E+01 -0.24795493444E+01  0.29649095199E+01  0.51100000000E-03 0. -1.
        -11    1    3    3    0    0 -0.11567119274E+02  0.14495847434E+02 -0.91424414915E+01  0.20676365198E+02  0.51100000000E-03 0.  1.
         12    1    3    3    0    0 -0.74741997222E+01  0.80986976147E+01 -0.21484332583E+02  0.24145995757E+02  0.00000000000E+00 0. -1.
</event>
<event>
 7    1  0.1457722E-010  0.4778727E+02  0.7816164E-02  0.1312668E+00
        -11   -1    0    0    0    0  0.00000000000E+00  0.00000000000E+00  0.45593999997E+02  0.45594000000E+02  0.51100000000E-03 0.  1.
         11   -1    0    0    0    0 -0.00000000000E+00 -0.00000000000E+00 -0.45593999997E+02  0.45594000000E+02  0.51100000000E-03 0. -1.
    9900012    2    1    2    0    0  0.13941589658E+02  0.20311802447E+02 -0.35730742649E+02  0.47787271767E+02  0.20000003297E+02 0.  0.
        -12    1    1    2    0    0 -0.13941589658E+02 -0.20311802447E+02  0.35730742649E+02  0.43400728233E+02  0.00000000000E+00 0.  1.
         11    1    3    3    0    0  0.26892206923E+01  0.19111803304E+01 -0.10884448739E+02  0.11373466613E+02  0.51100000000E-03 0. -1.
        -11    1    3    3    0    0  0.12041234908E+02  0.11844833970E+02 -0.87643715692E+01  0.19029073523E+02  0.51100000000E-03 0.  1.
        -12    1    3    3    0    0 -0.78886594234E+00  0.65557881464E+01 -0.16081922342E+02  0.17384731631E+02  0.00000000000E+00 0.  1.
</event>
<event>
 7    1  0.1457722E-010  0.4778727E+02  0.7816164E-02  0.1312668E+00
        -11   -1    0    0    0    0  0.00000000000E+00  0.00000000000E+00  0.45593999997E+02  0.45594000000E+02  0.51100000000E-03 0.  1.
         11   -1    0    0    0    0 -0.00000000000E+00 -0.00000000000E+00 -0.45593999997E+02  0.45594000000E+02  0.51100000000E-03 0. -1.
    9900012    2    1    2    0    0  0.10387955974E+02 -0.41293150343E+02 -0.84017487599E+01  0.47787271011E+02  0.19999999847E+02 0.  0.
        -12    1    1    2    0    0 -0.10387955974E+02  0.41293150343E+02  0.84017487599E+01  0.43400728989E+02  0.00000000000E+00 0.  1.
         11    1    3    3    0    0  0.44834976612E+01 -0.25426900152E+02  0.48892408240E+00  0.25823788444E+02  0.51100000000E-03 0. -1.
        -11    1    3    3    0    0  0.83843878494E+01 -0.15432355404E+02 -0.79024586398E+01  0.19258878621E+02  0.51100000000E-03 0.  1.
         12    1    3    3    0    0 -0.24799295363E+01 -0.43389478710E+00 -0.98821420254E+00  0.27046039454E+01  0.00000000000E+00 0. -1.
</event>
<event>
 7    1  0.1457722E-010  0.4778727E+02  0.7816164E-02  0.1312668E+00
        -11   -1    0    0    0    0  0.00000000000E+00  0.00000000000E+00  0.45593999997E+02  0.45594000000E+02  0.51100000000E-03 0.  1.
         11   -1    0    0    0    0 -0.00000000000E+00 -0.00000000000E+00 -0.45593999997E+02  0.45594000000E+02  0.51100000000E-03 0. -1.
    9900012    2    1    2    0    0 -0.14825752087E+02  0.14238887074E+02 -0.38224004164E+02  0.47787270462E+02  0.19999997347E+02 0.  0.
        -12    1    1    2    0    0  0.14825752087E+02 -0.14238887074E+02  0.38224004164E+02  0.43400729538E+02  0.00000000000E+00 0.  1.
         11    1    3    3    0    0 -0.49105921132E+00 -0.22147936819E+01 -0.21422485776E+01  0.31202050304E+01  0.51100000000E-03 0. -1.
        -11    1    3    3    0    0 -0.87311616494E+01  0.15776599980E+02 -0.17050303200E+02  0.24816267450E+02  0.51100000000E-03 0.  1.
         12    1    3    3    0    0 -0.56035312259E+01  0.67708077605E+00 -0.19031452387E+02  0.19850797982E+02  0.00000000000E+00 0. -1.
</event>
<event>
 7    1  0.1457722E-010  0.4778726E+02  0.7816164E-02  0.1312668E+00
        -11   -1    0    0    0    0  0.00000000000E+00  0.00000000000E+00  0.45593999997E+02  0.45594000000E+02  0.51100000000E-03 0.  1.
         11   -1    0    0    0    0 -0.00000000000E+00 -0.00000000000E+00 -0.45593999997E+02  0.45594000000E+02  0.51100000000E-03 0. -1.
    9900012    2    1    2    0    0  0.39888613918E+01  0.90655642317E+01 -0.42255513154E+02  0.47787264270E+02  0.19999969112E+02 0.  0.
        -12    1    1    2    0    0 -0.39888613918E+01 -0.90655642317E+01  0.42255513154E+02  0.43400735730E+02  0.00000000000E+00 0.  1.
         11    1    3    3    0    0  0.99878915350E+00  0.52432508111E+00 -0.20268814417E+02  0.20300180657E+02  0.51100000000E-03 0. -1.
        -11    1    3    3    0    0  0.82849701088E+01  0.35405744194E+01 -0.99902753187E+01  0.13452954996E+02  0.51100000000E-03 0.  1.
         12    1    3    3    0    0 -0.52948978705E+01  0.50006647312E+01 -0.11996423418E+02  0.14034128617E+02  0.00000000000E+00 0. -1.
</event>
<event>
 7    1  0.1457722E-010  0.4778727E+02  0.7816164E-02  0.1312668E+00
        -11   -1    0    0    0    0  0.00000000000E+00  0.00000000000E+00  0.45593999997E+02  0.45594000000E+02  0.51100000000E-03 0. -1.
         11   -1    0    0    0    0 -0.00000000000E+00 -0.00000000000E+00 -0.45593999997E+02  0.45594000000E+02  0.51100000000E-03 0.  1.
    9900012    2    1    2    0    0 -0.21163747306E+02 -0.30187033648E+02  0.22901140128E+02  0.47787269365E+02  0.19999992344E+02 0.  0.
        -12    1    1    2    0    0  0.21163747306E+02  0.30187033648E+02 -0.22901140128E+02  0.43400730635E+02  0.00000000000E+00 0.  1.
         11    1    3    3    0    0 -0.17937836344E+02 -0.25932654720E+02  0.14253912315E+02  0.34604083142E+02  0.51100000000E-03 0. -1.
        -11    1    3    3    0    0 -0.31849551033E+01  0.92090713149E+00  0.25729916591E+00  0.33253890114E+01  0.51100000000E-03 0.  1.
        -12    1    3    3    0    0 -0.40955858375E-01 -0.51752860595E+01  0.83899286464E+01  0.98577972119E+01  0.00000000000E+00 0.  1.
</event>
<event>
 7    1  0.1457722E-010  0.4778728E+02  0.7816164E-02  0.1312668E+00
        -11   -1    0    0    0    0  0.00000000000E+00  0.00000000000E+00  0.45593999997E+02  0.45594000000E+02  0.51100000000E-03 0. -1.
         11   -1    0    0    0    0 -0.00000000000E+00 -0.00000000000E+00 -0.45593999997E+02  0.45594000000E+02  0.51100000000E-03 0.  1.
    9900012    2    1    2    0    0 -0.20130057234E+02 -0.28718086444E+01  0.38342612547E+02  0.47787280812E+02  0.20000044533E+02 0.  0.
        -12    1    1    2    0    0  0.20130057234E+02  0.28718086444E+01 -0.38342612547E+02  0.43400719188E+02  0.00000000000E+00 0.  1.
         11    1    3    3    0    0 -0.73776182301E-01  0.16706843691E+01 -0.33685083758E+00  0.17059009157E+01  0.51100000000E-03 0.  1.
        -11    1    3    3    0    0 -0.12759576830E+02  0.26468435540E+00  0.33674068594E+02  0.36011383681E+02  0.51100000000E-03 0. -1.
         12    1    3    3    0    0 -0.72967042219E+01 -0.48071773689E+01  0.50053947902E+01  0.10069996215E+02  0.00000000000E+00 0. -1.
</event>
<event>
 7    1  0.1457722E-010  0.4778727E+02  0.7816164E-02  0.1312668E+00
        -11   -1    0    0    0    0  0.00000000000E+00  0.00000000000E+00  0.45593999997E+02  0.45594000000E+02  0.51100000000E-03 0.  1.
         11   -1    0    0    0    0 -0.00000000000E+00 -0.00000000000E+00 -0.45593999997E+02  0.45594000000E+02  0.51100000000E-03 0. -1.
    9900012    2    1    2    0    0  0.27335315750E+02  0.32316802781E+02 -0.95931227792E+01  0.47787271506E+02  0.20000002106E+02 0.  0.
        -12    1    1    2    0    0 -0.27335315750E+02 -0.32316802781E+02  0.95931227792E+01  0.43400728494E+02  0.00000000000E+00 0.  1.
         11    1    3    3    0    0  0.26793913557E+02  0.24559457169E+02 -0.16505926660E+01  0.36384133857E+02  0.51100000000E-03 0. -1.
        -11    1    3    3    0    0  0.15271892984E+01  0.36192291473E+01 -0.38134752045E+01  0.54748260402E+01  0.51100000000E-03 0.  1.
         12    1    3    3    0    0 -0.98578710571E+00  0.41381164649E+01 -0.41290549087E+01  0.59283116090E+01  0.00000000000E+00 0. -1.
</event>
<event>
 7    1  0.1457722E-010  0.4778727E+02  0.7816164E-02  0.1312668E+00
        -11   -1    0    0    0    0  0.00000000000E+00  0.00000000000E+00  0.45593999997E+02  0.45594000000E+02  0.51100000000E-03 0.  1.
         11   -1    0    0    0    0 -0.00000000000E+00 -0.00000000000E+00 -0.45593999997E+02  0.45594000000E+02  0.51100000000E-03 0. -1.
    9900012    2    1    2    0    0  0.27475565892E+02 -0.31151360282E+02 -0.12582098169E+02  0.47787272323E+02  0.20000005831E+02 0.  0.
        -12    1    1    2    0    0 -0.27475565892E+02  0.31151360282E+02  0.12582098169E+02  0.43400727677E+02  0.00000000000E+00 0.  1.
         11    1    3    3    0    0  0.15074788038E+01 -0.24549785186E+01  0.20317780379E+01  0.35252707878E+01  0.51100000000E-03 0.  1.
        -11    1    3    3    0    0  0.22493650628E+02 -0.16841914209E+02 -0.15098191328E+02  0.31899369499E+02  0.51100000000E-03 0. -1.
         12    1    3    3    0    0  0.34744364608E+01 -0.11854467555E+02  0.48431512192E+00  0.12362632037E+02  0.00000000000E+00 0. -1.
</event>
<event>
 7    1  0.1459847E-010  0.4778727E+02  0.7816164E-02  0.1312668E+00
        -11   -1    0    0    0    0  0.00000000000E+00  0.00000000000E+00  0.45593999997E+02  0.45594000000E+02  0.51100000000E-03 0. -1.
         11   -1    0    0    0    0 -0.00000000000E+00 -0.00000000000E+00 -0.45593999997E+02  0.45594000000E+02  0.51100000000E-03 0.  1.
    9900012    2    1    2    0    0  0.37089693282E+02 -0.18193082384E+02 -0.13303748122E+02  0.47787270646E+02  0.19999998183E+02 0.  0.
        -12    1    1    2    0    0 -0.37089693282E+02  0.18193082384E+02  0.13303748122E+02  0.43400729354E+02  0.00000000000E+00 0.  1.
         11    1    3    3    0    0  0.26295224509E+02 -0.13482119971E+02 -0.68445650556E+01  0.30332399542E+02  0.51100000000E-03 0. -1.
        -11    1    3    3    0    0  0.70283148393E+01 -0.65085675325E+01 -0.85025663546E+01  0.12808290115E+02  0.51100000000E-03 0.  1.
        -12    1    3    3    0    0  0.37661539334E+01  0.17976051199E+01  0.20433832886E+01  0.46465809883E+01  0.00000000000E+00 0.  1.
</event>
<event>
 7    1  0.1457722E-010  0.4778727E+02  0.7816164E-02  0.1312668E+00
        -11   -1    0    0    0    0  0.00000000000E+00  0.00000000000E+00  0.45593999997E+02  0.45594000000E+02  0.51100000000E-03 0.  1.
         11   -1    0    0    0    0 -0.00000000000E+00 -0.00000000000E+00 -0.45593999997E+02  0.45594000000E+02  0.51100000000E-03 0. -1.
    9900012    2    1    2    0    0 -0.35967246769E+02 -0.21693427376E+02  0.10925926000E+02  0.47787268550E+02  0.19999988626E+02 0.  0.
        -12    1    1    2    0    0  0.35967246769E+02  0.21693427376E+02 -0.10925926000E+02  0.43400731450E+02  0.00000000000E+00 0.  1.
         11    1    3    3    0    0 -0.28377288345E+02 -0.17127127679E+02  0.11746355810E+02  0.35165122941E+02  0.51100000000E-03 0. -1.
        -11    1    3    3    0    0 -0.26566514769E+01 -0.66798869763E+01  0.25792717388E-01  0.71888352750E+01  0.51100000000E-03 0.  1.
        -12    1    3    3    0    0 -0.49333069465E+01  0.21135872796E+01 -0.84622252678E+00  0.54333103337E+01  0.00000000000E+00 0.  1.
</event>
<event>
 7    1  0.1457722E-010  0.4778727E+02  0.7816164E-02  0.1312668E+00
        -11   -1    0    0    0    0  0.00000000000E+00  0.00000000000E+00  0.45593999997E+02  0.45594000000E+02  0.51100000000E-03 0.  1.
         11   -1    0    0    0    0 -0.00000000000E+00 -0.00000000000E+00 -0.45593999997E+02  0.45594000000E+02  0.51100000000E-03 0. -1.
    9900012    2    1    2    0    0  0.49314121432E+01 -0.41684872936E+02 -0.11030660770E+02  0.47787274955E+02  0.20000017831E+02 0.  0.
        -12    1    1    2    0    0 -0.49314121432E+01  0.41684872936E+02  0.11030660770E+02  0.43400725045E+02  0.00000000000E+00 0.  1.
         11    1    3    3    0    0  0.17118106666E+01 -0.15783144788E+02 -0.65396571296E+01  0.17169888490E+02  0.51100000000E-03 0. -1.
        -11    1    3    3    0    0 -0.89339134293E+00 -0.18780944268E+02  0.35292925926E+01  0.19130549447E+02  0.51100000000E-03 0.  1.
         12    1    3    3    0    0  0.41129928196E+01 -0.71207838802E+01 -0.80202962329E+01  0.11486837017E+02  0.00000000000E+00 0. -1.
</event>
<event>
 7    1  0.1457722E-010  0.4778728E+02  0.7816164E-02  0.1312668E+00
        -11   -1    0    0    0    0  0.00000000000E+00  0.00000000000E+00  0.45593999997E+02  0.45594000000E+02  0.51100000000E-03 0. -1.
         11   -1    0    0    0    0 -0.00000000000E+00 -0.00000000000E+00 -0.45593999997E+02  0.45594000000E+02  0.51100000000E-03 0.  1.
    9900012    2    1    2    0    0 -0.35332968908E+02  0.14481295674E+02  0.20627555534E+02  0.47787278076E+02  0.20000032059E+02 0.  0.
        -12    1    1    2    0    0  0.35332968908E+02 -0.14481295674E+02 -0.20627555534E+02  0.43400721924E+02  0.00000000000E+00 0.  1.
         11    1    3    3    0    0 -0.15801820882E+02  0.25867814936E+01  0.12097748186E+02  0.20068495039E+02  0.51100000000E-03 0. -1.
        -11    1    3    3    0    0 -0.42820131461E+01  0.31266093542E+01  0.86297606748E+01  0.10128380532E+02  0.51100000000E-03 0.  1.
        -12    1    3    3    0    0 -0.15249134880E+02  0.87679048260E+01 -0.99953327023E-01  0.17590402505E+02  0.00000000000E+00 0.  1.
</event>
<event>
 7    1  0.1457722E-010  0.4778728E+02  0.7816164E-02  0.1312668E+00
        -11   -1    0    0    0    0  0.00000000000E+00  0.00000000000E+00  0.45593999997E+02  0.45594000000E+02  0.51100000000E-03 0.  1.
         11   -1    0    0    0    0 -0.00000000000E+00 -0.00000000000E+00 -0.45593999997E+02  0.45594000000E+02  0.51100000000E-03 0. -1.
    9900012    2    1    2    0    0 -0.10613913183E+02  0.86154729843E+01 -0.41191516105E+02  0.47787279650E+02  0.20000039238E+02 0.  0.
        -12    1    1    2    0    0  0.10613913183E+02 -0.86154729843E+01  0.41191516105E+02  0.43400720350E+02  0.00000000000E+00 0.  1.
         11    1    3    3    0    0 -0.27313996864E+00  0.54063236248E+01 -0.64440866588E+01  0.84160081812E+01  0.51100000000E-03 0. -1.
        -11    1    3    3    0    0 -0.14249707930E+02  0.29239353321E+01 -0.28464972719E+02  0.31966517578E+02  0.51100000000E-03 0.  1.
        -12    1    3    3    0    0  0.39089347158E+01  0.28521402729E+00 -0.62824567276E+01  0.74047538911E+01  0.00000000000E+00 0.  1.
</event>
<event>
 7    1  0.1457722E-010  0.4778727E+02  0.7816164E-02  0.1312668E+00
        -11   -1    0    0    0    0  0.00000000000E+00  0.00000000000E+00  0.45593999997E+02  0.45594000000E+02  0.51100000000E-03 0. -1.
         11   -1    0    0    0    0 -0.00000000000E+00 -0.00000000000E+00 -0.45593999997E+02  0.45594000000E+02  0.51100000000E-03 0.  1.
    9900012    2    1    2    0    0  0.13141465103E+02 -0.30125609663E+02  0.28343831358E+02  0.47787271450E+02  0.20000001848E+02 0.  0.
        -12    1    1    2    0    0 -0.13141465103E+02  0.30125609663E+02 -0.28343831358E+02  0.43400728550E+02  0.00000000000E+00 0.  1.
         11    1    3    3    0    0 -0.23996351855E+00 -0.23625386166E+00 -0.52809658853E+00  0.62632630898E+00  0.51100000000E-03 0. -1.
        -11    1    3    3    0    0 -0.35061543469E+01 -0.81971719402E+00  0.36979081536E+01  0.51613544304E+01  0.51100000000E-03 0.  1.
         12    1    3    3    0    0  0.16887582968E+02 -0.29069638608E+02  0.25174019793E+02  0.41999590710E+02  0.00000000000E+00 0. -1.
</event>
<event>
 7    1  0.1457722E-010  0.4778725E+02  0.7816164E-02  0.1312668E+00
        -11   -1    0    0    0    0  0.00000000000E+00  0.00000000000E+00  0.45593999997E+02  0.45594000000E+02  0.51100000000E-03 0.  1.
         11   -1    0    0    0    0 -0.00000000000E+00 -0.00000000000E+00 -0.45593999997E+02  0.45594000000E+02  0.51100000000E-03 0. -1.
    9900012    2    1    2    0    0  0.13434652858E+02 -0.36806439170E+02 -0.18666034859E+02  0.47787254394E+02  0.19999924083E+02 0.  0.
        -12    1    1    2    0    0 -0.13434652858E+02  0.36806439170E+02  0.18666034859E+02  0.43400745606E+02  0.00000000000E+00 0.  1.
         11    1    3    3    0    0  0.26283692748E+01 -0.41371819504E+01  0.13250205678E+00  0.49032801870E+01  0.51100000000E-03 0. -1.
        -11    1    3    3    0    0  0.22881519828E+00 -0.21505355436E+02 -0.46862565568E+01  0.22011216905E+02  0.51100000000E-03 0.  1.
         12    1    3    3    0    0  0.10577468384E+02 -0.11163901784E+02 -0.14112280359E+02  0.20872757302E+02  0.00000000000E+00 0. -1.
</event>
<event>
 7    1  0.1856128E-010  0.4778727E+02  0.7816164E-02  0.1312668E+00
        -11   -1    0    0    0    0  0.00000000000E+00  0.00000000000E+00  0.45593999997E+02  0.45594000000E+02  0.51100000000E-03 0.  1.
         11   -1    0    0    0    0 -0.00000000000E+00 -0.00000000000E+00 -0.45593999997E+02  0.45594000000E+02  0.51100000000E-03 0. -1.
    9900012    2    1    2    0    0  0.42966430871E+02 -0.55578969779E+01  0.25727265582E+01  0.47787270483E+02  0.19999997442E+02 0.  0.
        -12    1    1    2    0    0 -0.42966430871E+02  0.55578969779E+01 -0.25727265582E+01  0.43400729517E+02  0.00000000000E+00 0.  1.
         11    1    3    3    0    0  0.22708511215E+02  0.67815531132E+00  0.37750452095E+01  0.23030139879E+02  0.51100000000E-03 0. -1.
        -11    1    3    3    0    0  0.83099181517E+01  0.77123010264E+00 -0.57995732442E+01  0.10162902422E+02  0.51100000000E-03 0.  1.
         12    1    3    3    0    0  0.11948001504E+02 -0.70072823919E+01  0.45972545929E+01  0.14594228183E+02  0.00000000000E+00 0. -1.
</event>
<event>
 7    1  0.1457722E-010  0.4778727E+02  0.7816164E-02  0.1312668E+00
        -11   -1    0    0    0    0  0.00000000000E+00  0.00000000000E+00  0.45593999997E+02  0.45594000000E+02  0.51100000000E-03 0.  1.
         11   -1    0    0    0    0 -0.00000000000E+00 -0.00000000000E+00 -0.45593999997E+02  0.45594000000E+02  0.51100000000E-03 0. -1.
    9900012    2    1    2    0    0  0.36063467448E+02 -0.19901423792E+02  0.13674177779E+02  0.47787268540E+02  0.19999988582E+02 0.  0.
        -12    1    1    2    0    0 -0.36063467448E+02  0.19901423792E+02 -0.13674177779E+02  0.43400731460E+02  0.00000000000E+00 0.  1.
         11    1    3    3    0    0  0.51641126605E+01 -0.37403122138E+01  0.21941968626E+01  0.67433296790E+01  0.51100000000E-03 0. -1.
        -11    1    3    3    0    0  0.27295967089E+02 -0.13679582706E+02  0.16236924113E+02  0.34580898011E+02  0.51100000000E-03 0.  1.
         12    1    3    3    0    0  0.36033876992E+01 -0.24815288722E+01 -0.47569431972E+01  0.64630408505E+01  0.00000000000E+00 0. -1.
</event>
<event>
 7    1  0.1457722E-010  0.4778727E+02  0.7816164E-02  0.1312668E+00
        -11   -1    0    0    0    0  0.00000000000E+00  0.00000000000E+00  0.45593999997E+02  0.45594000000E+02  0.51100000000E-03 0.  1.
         11   -1    0    0    0    0 -0.00000000000E+00 -0.00000000000E+00 -0.45593999997E+02  0.45594000000E+02  0.51100000000E-03 0. -1.
    9900012    2    1    2    0    0 -0.76287266680E+01 -0.40384229081E+02  0.13947753258E+02  0.47787271320E+02  0.20000001256E+02 0.  0.
        -12    1    1    2    0    0  0.76287266680E+01  0.40384229081E+02 -0.13947753258E+02  0.43400728680E+02  0.00000000000E+00 0.  1.
         11    1    3    3    0    0 -0.94489726616E+00  0.10913684601E+01 -0.36294834770E+00  0.14885051977E+01  0.51100000000E-03 0. -1.
        -11    1    3    3    0    0  0.83639600536E+00  0.75213160260E+00  0.18147939193E+00  0.11393837177E+01  0.51100000000E-03 0.  1.
         12    1    3    3    0    0 -0.75202254072E+01 -0.42227729143E+02  0.14129222214E+02  0.45159382404E+02  0.00000000000E+00 0. -1.
</event>
<event>
 7    1  0.1457722E-010  0.4778727E+02  0.7816164E-02  0.1312668E+00
        -11   -1    0    0    0    0  0.00000000000E+00  0.00000000000E+00  0.45593999997E+02  0.45594000000E+02  0.51100000000E-03 0.  1.
         11   -1    0    0    0    0 -0.00000000000E+00 -0.00000000000E+00 -0.45593999997E+02  0.45594000000E+02  0.51100000000E-03 0. -1.
    9900012    2    1    2    0    0 -0.20025358094E+02 -0.10847574832E+01 -0.38489369270E+02  0.47787271753E+02  0.20000003228E+02 0.  0.
        -12    1    1    2    0    0  0.20025358094E+02  0.10847574832E+01  0.38489369270E+02  0.43400728247E+02  0.00000000000E+00 0.  1.
         11    1    3    3    0    0 -0.18688785223E+02 -0.20307688978E+01 -0.25214242776E+02  0.31450798948E+02  0.51100000000E-03 0. -1.
        -11    1    3    3    0    0  0.11317427460E+01 -0.37650294875E+01 -0.37832958448E+01  0.54561539930E+01  0.51100000000E-03 0.  1.
        -12    1    3    3    0    0 -0.24683156169E+01  0.47110409021E+01 -0.94918306495E+01  0.10880318812E+02  0.00000000000E+00 0.  1.
</event>
<event>
 7    1  0.1457722E-010  0.4778727E+02  0.7816164E-02  0.1312668E+00
        -11   -1    0    0    0    0  0.00000000000E+00  0.00000000000E+00  0.45593999997E+02  0.45594000000E+02  0.51100000000E-03 0.  1.
         11   -1    0    0    0    0 -0.00000000000E+00 -0.00000000000E+00 -0.45593999997E+02  0.45594000000E+02  0.51100000000E-03 0. -1.
    9900012    2    1    2    0    0 -0.19924785763E+02  0.38015867976E+02 -0.64358196636E+01  0.47787273273E+02  0.20000010161E+02 0.  0.
        -12    1    1    2    0    0  0.19924785763E+02 -0.38015867976E+02  0.64358196636E+01  0.43400726727E+02  0.00000000000E+00 0.  1.
         11    1    3    3    0    0 -0.10229516232E+02  0.16343660335E+02 -0.35049294713E+01  0.19597009118E+02  0.51100000000E-03 0. -1.
        -11    1    3    3    0    0 -0.17564759428E+01  0.10622659103E+02  0.55950290441E+01  0.12133855299E+02  0.51100000000E-03 0.  1.
         12    1    3    3    0    0 -0.79387935883E+01  0.11049548537E+02 -0.85259192364E+01  0.16056408856E+02  0.00000000000E+00 0. -1.
</event>
<event>
 7    1  0.1457722E-010  0.4778727E+02  0.7816164E-02  0.1312668E+00
        -11   -1    0    0    0    0  0.00000000000E+00  0.00000000000E+00  0.45593999997E+02  0.45594000000E+02  0.51100000000E-03 0. -1.
         11   -1    0    0    0    0 -0.00000000000E+00 -0.00000000000E+00 -0.45593999997E+02  0.45594000000E+02  0.51100000000E-03 0.  1.
    9900012    2    1    2    0    0  0.16154933823E+02  0.27044223254E+02  0.29853832483E+02  0.47787271755E+02  0.20000003240E+02 0.  0.
        -12    1    1    2    0    0 -0.16154933823E+02 -0.27044223254E+02 -0.29853832483E+02  0.43400728245E+02  0.00000000000E+00 0.  1.
         11    1    3    3    0    0 -0.97124692064E+00 -0.14039294163E+01  0.78182219320E+00  0.18776540122E+01  0.51100000000E-03 0. -1.
        -11    1    3    3    0    0  0.47572833061E+01  0.53125805926E+01  0.54281254829E+00  0.71519160182E+01  0.51100000000E-03 0.  1.
         12    1    3    3    0    0  0.12368897438E+02  0.23135572078E+02  0.28529197742E+02  0.38757701725E+02  0.00000000000E+00 0. -1.
</event>
<event>
 7    1  0.1457722E-010  0.4778728E+02  0.7816164E-02  0.1312668E+00
        -11   -1    0    0    0    0  0.00000000000E+00  0.00000000000E+00  0.45593999997E+02  0.45594000000E+02  0.51100000000E-03 0. -1.
         11   -1    0    0    0    0 -0.00000000000E+00 -0.00000000000E+00 -0.45593999997E+02  0.45594000000E+02  0.51100000000E-03 0.  1.
    9900012    2    1    2    0    0 -0.37017623093E+02  0.15485320119E+02  0.16538535483E+02  0.47787277488E+02  0.20000029379E+02 0.  0.
        -12    1    1    2    0    0  0.37017623093E+02 -0.15485320119E+02 -0.16538535483E+02  0.43400722512E+02  0.00000000000E+00 0.  1.
         11    1    3    3    0    0  0.12150112198E+00 -0.10224547507E+01  0.78575735575E+00  0.12952185619E+01  0.51100000000E-03 0. -1.
        -11    1    3    3    0    0 -0.16209777695E+02  0.85571559981E+01 -0.12598277577E+01  0.18373050317E+02  0.51100000000E-03 0.  1.
         12    1    3    3    0    0 -0.20929346520E+02  0.79506188718E+01  0.17012605885E+02  0.28119008610E+02  0.00000000000E+00 0. -1.
</event>
<event>
 7    1  0.1457722E-010  0.4778727E+02  0.7816164E-02  0.1312668E+00
        -11   -1    0    0    0    0  0.00000000000E+00  0.00000000000E+00  0.45593999997E+02  0.45594000000E+02  0.51100000000E-03 0.  1.
         11   -1    0    0    0    0 -0.00000000000E+00 -0.00000000000E+00 -0.45593999997E+02  0.45594000000E+02  0.51100000000E-03 0. -1.
    9900012    2    1    2    0    0 -0.42197368354E+02 -0.49207425220E+01 -0.88764533686E+01  0.47787273885E+02  0.20000012950E+02 0.  0.
        -12    1    1    2    0    0  0.42197368354E+02  0.49207425220E+01  0.88764533686E+01  0.43400726115E+02  0.00000000000E+00 0.  1.
         11    1    3    3    0    0 -0.32311817621E+02 -0.63334171625E+01 -0.13434669428E+02  0.35562003231E+02  0.51100000000E-03 0. -1.
        -11    1    3    3    0    0 -0.87408880455E+01 -0.49109850640E+00  0.22873120506E+01  0.90485412219E+01  0.51100000000E-03 0.  1.
         12    1    3    3    0    0 -0.11446626871E+01  0.19037731469E+01  0.22709040089E+01  0.31767294313E+01  0.00000000000E+00 0. -1.
</event>
<event>
 7    1  0.1457722E-010  0.4778729E+02  0.7816164E-02  0.1312668E+00
        -11   -1    0    0    0    0  0.00000000000E+00  0.00000000000E+00  0.45593999997E+02  0.45594000000E+02  0.51100000000E-03 0.  1.
         11   -1    0    0    0    0 -0.00000000000E+00 -0.00000000000E+00 -0.45593999997E+02  0.45594000000E+02  0.51100000000E-03 0. -1.
    9900012    2    1    2    0    0  0.45234888601E+01  0.42189880895E+02 -0.91199401376E+01  0.47787293675E+02  0.20000103182E+02 0.  0.
        -12    1    1    2    0    0 -0.45234888601E+01 -0.42189880895E+02  0.91199401376E+01  0.43400706325E+02  0.00000000000E+00 0.  1.
         11    1    3    3    0    0  0.62459986856E+01  0.88273493533E+01 -0.55731302058E+01  0.12165293944E+02  0.51100000000E-03 0. -1.
        -11    1    3    3    0    0  0.45917965078E+01  0.12415792146E+02  0.10048320696E+01  0.13275774084E+02  0.51100000000E-03 0.  1.
         12    1    3    3    0    0 -0.63143063334E+01  0.20946739396E+02 -0.45516420014E+01  0.22346225647E+02  0.00000000000E+00 0. -1.
</event>
<event>
 7    1  0.1457722E-010  0.4778727E+02  0.7816164E-02  0.1312668E+00
        -11   -1    0    0    0    0  0.00000000000E+00  0.00000000000E+00  0.45593999997E+02  0.45594000000E+02  0.51100000000E-03 0.  1.
         11   -1    0    0    0    0 -0.00000000000E+00 -0.00000000000E+00 -0.45593999997E+02  0.45594000000E+02  0.51100000000E-03 0. -1.
    9900012    2    1    2    0    0  0.19091725212E+02  0.34707120103E+02 -0.17735419666E+02  0.47787271111E+02  0.20000000303E+02 0.  0.
        -12    1    1    2    0    0 -0.19091725212E+02 -0.34707120103E+02  0.17735419666E+02  0.43400728889E+02  0.00000000000E+00 0.  1.
         11    1    3    3    0    0  0.14837397675E+02  0.17338962629E+02 -0.73454788453E+01  0.23973820191E+02  0.51100000000E-03 0. -1.
        -11    1    3    3    0    0  0.53902428621E+01  0.10086957460E+02 -0.11663209002E+02  0.16334989238E+02  0.51100000000E-03 0.  1.
        -12    1    3    3    0    0 -0.11359153253E+01  0.72812000138E+01  0.12732681816E+01  0.74784616820E+01  0.00000000000E+00 0.  1.
</event>
<event>
 7    1  0.1457722E-010  0.4778728E+02  0.7816164E-02  0.1312668E+00
        -11   -1    0    0    0    0  0.00000000000E+00  0.00000000000E+00  0.45593999997E+02  0.45594000000E+02  0.51100000000E-03 0.  1.
         11   -1    0    0    0    0 -0.00000000000E+00 -0.00000000000E+00 -0.45593999997E+02  0.45594000000E+02  0.51100000000E-03 0. -1.
    9900012    2    1    2    0    0 -0.16658189789E+02  0.27271980705E+02 -0.29366080360E+02  0.47787275417E+02  0.20000019937E+02 0.  0.
        -12    1    1    2    0    0  0.16658189789E+02 -0.27271980705E+02  0.29366080360E+02  0.43400724583E+02  0.00000000000E+00 0.  1.
         11    1    3    3    0    0 -0.77116099421E+01  0.70552272897E+01 -0.11919680423E+02  0.15853199729E+02  0.51100000000E-03 0. -1.
        -11    1    3    3    0    0 -0.14220833620E+01  0.16527192257E+02 -0.57732330889E+01  0.17564185878E+02  0.51100000000E-03 0.  1.
        -12    1    3    3    0    0 -0.75244964847E+01  0.36895611579E+01 -0.11673166848E+02  0.14369889810E+02  0.00000000000E+00 0.  1.
</event>
<event>
 7    1  0.1457722E-010  0.4778722E+02  0.7816164E-02  0.1312668E+00
        -11   -1    0    0    0    0  0.00000000000E+00  0.00000000000E+00  0.45593999997E+02  0.45594000000E+02  0.51100000000E-03 0. -1.
         11   -1    0    0    0    0 -0.00000000000E+00 -0.00000000000E+00 -0.45593999997E+02  0.45594000000E+02  0.51100000000E-03 0.  1.
    9900012    2    1    2    0    0  0.35008893920E+02 -0.20783235768E+02  0.15035358441E+02  0.47787221827E+02  0.19999775598E+02 0.  0.
        -12    1    1    2    0    0 -0.35008893920E+02  0.20783235768E+02 -0.15035358441E+02  0.43400778173E+02  0.00000000000E+00 0.  1.
         11    1    3    3    0    0  0.11901512803E+02 -0.13617677250E+02  0.62478575432E+01  0.19134337324E+02  0.51100000000E-03 0. -1.
        -11    1    3    3    0    0  0.58950964189E+00  0.28912904264E+00  0.45013488249E+01  0.45489843620E+01  0.51100000000E-03 0.  1.
         12    1    3    3    0    0  0.22517871475E+02 -0.74546875606E+01  0.42861520731E+01  0.24103900141E+02  0.00000000000E+00 0. -1.
</event>
<event>
 7    1  0.1457722E-010  0.4778727E+02  0.7816164E-02  0.1312668E+00
        -11   -1    0    0    0    0  0.00000000000E+00  0.00000000000E+00  0.45593999997E+02  0.45594000000E+02  0.51100000000E-03 0. -1.
         11   -1    0    0    0    0 -0.00000000000E+00 -0.00000000000E+00 -0.45593999997E+02  0.45594000000E+02  0.51100000000E-03 0.  1.
    9900012    2    1    2    0    0 -0.73689858249E+01  0.54678643328E+01  0.42419614177E+02  0.47787272364E+02  0.20000006014E+02 0.  0.
        -12    1    1    2    0    0  0.73689858249E+01 -0.54678643328E+01 -0.42419614177E+02  0.43400727636E+02  0.00000000000E+00 0.  1.
         11    1    3    3    0    0 -0.32734948268E+01  0.14850579043E+01  0.26817994464E+02  0.27057826828E+02  0.51100000000E-03 0. -1.
        -11    1    3    3    0    0 -0.20373577522E+01 -0.38436287372E+01  0.99481977645E+01  0.10857759783E+02  0.51100000000E-03 0.  1.
         12    1    3    3    0    0 -0.20581332459E+01  0.78264351657E+01  0.56534219488E+01  0.98716857523E+01  0.00000000000E+00 0. -1.
</event>
<event>
 7    1  0.1457722E-010  0.4778726E+02  0.7816164E-02  0.1312668E+00
        -11   -1    0    0    0    0  0.00000000000E+00  0.00000000000E+00  0.45593999997E+02  0.45594000000E+02  0.51100000000E-03 0.  1.
         11   -1    0    0    0    0 -0.00000000000E+00 -0.00000000000E+00 -0.45593999997E+02  0.45594000000E+02  0.51100000000E-03 0. -1.
    9900012    2    1    2    0    0 -0.31591996793E+02 -0.17790245684E+02 -0.23855329309E+02  0.47787264531E+02  0.19999970301E+02 0.  0.
        -12    1    1    2    0    0  0.31591996793E+02  0.17790245684E+02  0.23855329309E+02  0.43400735469E+02  0.00000000000E+00 0.  1.
         11    1    3    3    0    0 -0.10278185064E+02 -0.91705971592E+01 -0.16875073032E+02  0.21783228194E+02  0.51100000000E-03 0. -1.
        -11    1    3    3    0    0 -0.45626531398E+01  0.20574044962E+01 -0.18194673134E+00  0.50083751665E+01  0.51100000000E-03 0.  1.
        -12    1    3    3    0    0 -0.16751158589E+02 -0.10677053021E+02 -0.67983095454E+01  0.20995661170E+02  0.00000000000E+00 0.  1.
</event>
<event>
 7    1  0.1874035E-010  0.4778727E+02  0.7816164E-02  0.1312668E+00
        -11   -1    0    0    0    0  0.00000000000E+00  0.00000000000E+00  0.45593999997E+02  0.45594000000E+02  0.51100000000E-03 0. -1.
         11   -1    0    0    0    0 -0.00000000000E+00 -0.00000000000E+00 -0.45593999997E+02  0.45594000000E+02  0.51100000000E-03 0.  1.
    9900012    2    1    2    0    0  0.29283888155E+02  0.11334984613E+02  0.29959890762E+02  0.47787273784E+02  0.20000012489E+02 0.  0.
        -12    1    1    2    0    0 -0.29283888155E+02 -0.11334984613E+02 -0.29959890762E+02  0.43400726216E+02  0.00000000000E+00 0.  1.
         11    1    3    3    0    0  0.14200483651E+02  0.12566374346E+02  0.24298492089E+02  0.30821813999E+02  0.51100000000E-03 0. -1.
        -11    1    3    3    0    0  0.11938255332E+01 -0.12747972339E+01 -0.43020422173E+00  0.17987226926E+01  0.51100000000E-03 0.  1.
         12    1    3    3    0    0  0.13889578970E+02  0.43407501090E-01  0.60916028941E+01  0.15166737092E+02  0.00000000000E+00 0. -1.
</event>
<event>
 7    1  0.1457722E-010  0.4778727E+02  0.7816164E-02  0.1312668E+00
        -11   -1    0    0    0    0  0.00000000000E+00  0.00000000000E+00  0.45593999997E+02  0.45594000000E+02  0.51100000000E-03 0.  1.
         11   -1    0    0    0    0 -0.00000000000E+00 -0.00000000000E+00 -0.45593999997E+02  0.45594000000E+02  0.51100000000E-03 0. -1.
    9900012    2    1    2    0    0  0.96906852992E+00 -0.43118344112E+02 -0.48469195805E+01  0.47787270488E+02  0.19999997463E+02 0.  0.
        -12    1    1    2    0    0 -0.96906852992E+00  0.43118344112E+02  0.48469195805E+01  0.43400729512E+02  0.00000000000E+00 0.  1.
         11    1    3    3    0    0  0.17946038521E+00 -0.21912723630E+02 -0.15939952375E+01  0.21971355989E+02  0.51100000000E-03 0. -1.
        -11    1    3    3    0    0  0.20331636044E+00 -0.18592509300E+01  0.45712297497E+01  0.49390579313E+01  0.51100000000E-03 0.  1.
         12    1    3    3    0    0  0.58629178427E+00 -0.19346369551E+02 -0.78241540927E+01  0.20876856568E+02  0.00000000000E+00 0. -1.
</event>
<event>
 7    1  0.1457722E-010  0.4778728E+02  0.7816164E-02  0.1312668E+00
        -11   -1    0    0    0    0  0.00000000000E+00  0.00000000000E+00  0.45593999997E+02  0.45594000000E+02  0.51100000000E-03 0. -1.
         11   -1    0    0    0    0 -0.00000000000E+00 -0.00000000000E+00 -0.45593999997E+02  0.45594000000E+02  0.51100000000E-03 0.  1.
    9900012    2    1    2    0    0 -0.36337512333E+02 -0.18127747938E+02  0.15316425244E+02  0.47787275005E+02  0.20000018057E+02 0.  0.
        -12    1    1    2    0    0  0.36337512333E+02  0.18127747938E+02 -0.15316425244E+02  0.43400724995E+02  0.00000000000E+00 0.  1.
         11    1    3    3    0    0 -0.88271547128E+01 -0.26850601932E+00  0.49995170043E+01  0.10148198182E+02  0.51100000000E-03 0. -1.
        -11    1    3    3    0    0 -0.16423167682E+02 -0.35720240871E+01 -0.23244018784E-01  0.16807151255E+02  0.51100000000E-03 0.  1.
         12    1    3    3    0    0 -0.11087189938E+02 -0.14287217832E+02  0.10340152258E+02  0.20831925567E+02  0.00000000000E+00 0. -1.
</event>
<event>
 7    1  0.1457722E-010  0.4778728E+02  0.7816164E-02  0.1312668E+00
        -11   -1    0    0    0    0  0.00000000000E+00  0.00000000000E+00  0.45593999997E+02  0.45594000000E+02  0.51100000000E-03 0. -1.
         11   -1    0    0    0    0 -0.00000000000E+00 -0.00000000000E+00 -0.45593999997E+02  0.45594000000E+02  0.51100000000E-03 0.  1.
    9900012    2    1    2    0    0 -0.25283433062E+02  0.12799595380E+02 -0.32871582777E+02  0.47787278997E+02  0.20000036258E+02 0.  0.
        -12    1    1    2    0    0  0.25283433062E+02 -0.12799595380E+02  0.32871582777E+02  0.43400721003E+02  0.00000000000E+00 0.  1.
         11    1    3    3    0    0 -0.19921920367E+02  0.72871055387E+01 -0.14814576686E+02  0.25873857480E+02  0.51100000000E-03 0. -1.
        -11    1    3    3    0    0 -0.71147740921E+01  0.20782378708E+01 -0.15783275206E+02  0.17437054210E+02  0.51100000000E-03 0.  1.
         12    1    3    3    0    0  0.17532613974E+01  0.34342519708E+01 -0.22737308855E+01  0.44763673069E+01  0.00000000000E+00 0. -1.
</event>
<event>
 7    1  0.1457722E-010  0.4778727E+02  0.7816164E-02  0.1312668E+00
        -11   -1    0    0    0    0  0.00000000000E+00  0.00000000000E+00  0.45593999997E+02  0.45594000000E+02  0.51100000000E-03 0. -1.
         11   -1    0    0    0    0 -0.00000000000E+00 -0.00000000000E+00 -0.45593999997E+02  0.45594000000E+02  0.51100000000E-03 0.  1.
    9900012    2    1    2    0    0 -0.33416989207E+02  0.26467966301E+02  0.81470745568E+01  0.47787271531E+02  0.20000002218E+02 0.  0.
        -12    1    1    2    0    0  0.33416989207E+02 -0.26467966301E+02 -0.81470745568E+01  0.43400728469E+02  0.00000000000E+00 0.  1.
         11    1    3    3    0    0 -0.29160686887E+01  0.99194794804E+01 -0.97228486159E+00  0.10384838365E+02  0.51100000000E-03 0. -1.
        -11    1    3    3    0    0 -0.76597998025E+01  0.28410105179E+01  0.68606830854E+01  0.10668310383E+02  0.51100000000E-03 0.  1.
         12    1    3    3    0    0 -0.22841120716E+02  0.13707476303E+02  0.22586763330E+01  0.26734122782E+02  0.00000000000E+00 0. -1.
</event>
<event>
 7    1  0.1457722E-010  0.4778727E+02  0.7816164E-02  0.1312668E+00
        -11   -1    0    0    0    0  0.00000000000E+00  0.00000000000E+00  0.45593999997E+02  0.45594000000E+02  0.51100000000E-03 0.  1.
         11   -1    0    0    0    0 -0.00000000000E+00 -0.00000000000E+00 -0.45593999997E+02  0.45594000000E+02  0.51100000000E-03 0. -1.
    9900012    2    1    2    0    0  0.15067743975E+02  0.37784515656E+02  0.15129995846E+02  0.47787270673E+02  0.19999998304E+02 0.  0.
        -12    1    1    2    0    0 -0.15067743975E+02 -0.37784515656E+02 -0.15129995846E+02  0.43400729327E+02  0.00000000000E+00 0.  1.
         11    1    3    3    0    0  0.90243876048E+01  0.21446430596E+02  0.13713909451E+02  0.27008522167E+02  0.51100000000E-03 0. -1.
        -11    1    3    3    0    0  0.60933345450E+01  0.13821017105E+02  0.54212727896E+01  0.16048035351E+02  0.51100000000E-03 0.  1.
        -12    1    3    3    0    0 -0.49978174525E-01  0.25170679543E+01 -0.40051863938E+01  0.47307131549E+01  0.00000000000E+00 0.  1.
</event>
<event>
 7    1  0.1478221E-010  0.4778727E+02  0.7816164E-02  0.1312668E+00
        -11   -1    0    0    0    0  0.00000000000E+00  0.00000000000E+00  0.45593999997E+02  0.45594000000E+02  0.51100000000E-03 0. -1.
         11   -1    0    0    0    0 -0.00000000000E+00 -0.00000000000E+00 -0.45593999997E+02  0.45594000000E+02  0.51100000000E-03 0.  1.
    9900012    2    1    2    0    0 -0.12961048881E+01  0.42971994334E+02  0.59456793314E+01  0.47787270886E+02  0.19999999279E+02 0.  0.
        -12    1    1    2    0    0  0.12961048881E+01 -0.42971994334E+02 -0.59456793314E+01  0.43400729114E+02  0.00000000000E+00 0.  1.
         11    1    3    3    0    0 -0.39424308568E+01  0.16624068351E+02  0.69639237601E+01  0.18449895501E+02  0.51100000000E-03 0. -1.
        -11    1    3    3    0    0  0.65412646941E+01  0.15176446357E+02  0.30917055393E+01  0.16812831743E+02  0.51100000000E-03 0.  1.
        -12    1    3    3    0    0 -0.38949387254E+01  0.11171479626E+02 -0.41099499680E+01  0.12524543642E+02  0.00000000000E+00 0.  1.
</event>
<event>
 7    1  0.1457722E-010  0.4778727E+02  0.7816164E-02  0.1312668E+00
        -11   -1    0    0    0    0  0.00000000000E+00  0.00000000000E+00  0.45593999997E+02  0.45594000000E+02  0.51100000000E-03 0.  1.
         11   -1    0    0    0    0 -0.00000000000E+00 -0.00000000000E+00 -0.45593999997E+02  0.45594000000E+02  0.51100000000E-03 0. -1.
    9900012    2    1    2    0    0  0.25304634307E+02  0.33099424685E+02 -0.12154280996E+02  0.47787274448E+02  0.20000015520E+02 0.  0.
        -12    1    1    2    0    0 -0.25304634307E+02 -0.33099424685E+02  0.12154280996E+02  0.43400725552E+02  0.00000000000E+00 0.  1.
         11    1    3    3    0    0  0.73553169626E+01  0.11697878603E+02  0.36783841280E+01  0.14299355282E+02  0.51100000000E-03 0. -1.
        -11    1    3    3    0    0  0.12472826222E+02  0.18488894296E+02 -0.84608499419E+01  0.23853649370E+02  0.51100000000E-03 0.  1.
        -12    1    3    3    0    0  0.54764911224E+01  0.29126517858E+01 -0.73718151817E+01  0.96342697965E+01  0.00000000000E+00 0.  1.
</event>
<event>
 7    1  0.1457722E-010  0.4778727E+02  0.7816164E-02  0.1312668E+00
        -11   -1    0    0    0    0  0.00000000000E+00  0.00000000000E+00  0.45593999997E+02  0.45594000000E+02  0.51100000000E-03 0.  1.
         11   -1    0    0    0    0 -0.00000000000E+00 -0.00000000000E+00 -0.45593999997E+02  0.45594000000E+02  0.51100000000E-03 0. -1.
    9900012    2    1    2    0    0 -0.25369827913E+02 -0.23392227406E+02 -0.26321069372E+02  0.47787272308E+02  0.20000005761E+02 0.  0.
        -12    1    1    2    0    0  0.25369827913E+02  0.23392227406E+02  0.26321069372E+02  0.43400727692E+02  0.00000000000E+00 0.  1.
         11    1    3    3    0    0 -0.18703830943E+02 -0.15549282675E+02 -0.23802763275E+02  0.34032117528E+02  0.51100000000E-03 0.  1.
        -11    1    3    3    0    0 -0.88068875260E+01 -0.62138976734E+01 -0.15169040914E+01  0.10884612555E+02  0.51100000000E-03 0. -1.
        -12    1    3    3    0    0  0.21408905561E+01 -0.16290470576E+01 -0.10014020055E+01  0.28705422250E+01  0.00000000000E+00 0.  1.
</event>
<event>
 7    1  0.1457722E-010  0.4778727E+02  0.7816164E-02  0.1312668E+00
        -11   -1    0    0    0    0  0.00000000000E+00  0.00000000000E+00  0.45593999997E+02  0.45594000000E+02  0.51100000000E-03 0.  1.
         11   -1    0    0    0    0 -0.00000000000E+00 -0.00000000000E+00 -0.45593999997E+02  0.45594000000E+02  0.51100000000E-03 0. -1.
    9900012    2    1    2    0    0 -0.32215553782E+02  0.24338885863E+02 -0.15918546358E+02  0.47787269722E+02  0.19999993970E+02 0.  0.
        -12    1    1    2    0    0  0.32215553782E+02 -0.24338885863E+02  0.15918546358E+02  0.43400730278E+02  0.00000000000E+00 0.  1.
         11    1    3    3    0    0 -0.16110489627E+02  0.65687644818E+01 -0.10719808193E+02  0.20435528640E+02  0.51100000000E-03 0. -1.
        -11    1    3    3    0    0 -0.13203335585E+02  0.81927882742E+01  0.10158447955E+01  0.15571826842E+02  0.51100000000E-03 0.  1.
         12    1    3    3    0    0 -0.29017285699E+01  0.95773331069E+01 -0.62145829595E+01  0.11779914240E+02  0.00000000000E+00 0. -1.
</event>
<event>
 7    1  0.1846120E-010  0.4778727E+02  0.7816164E-02  0.1312668E+00
        -11   -1    0    0    0    0  0.00000000000E+00  0.00000000000E+00  0.45593999997E+02  0.45594000000E+02  0.51100000000E-03 0.  1.
         11   -1    0    0    0    0 -0.00000000000E+00 -0.00000000000E+00 -0.45593999997E+02  0.45594000000E+02  0.51100000000E-03 0. -1.
    9900012    2    1    2    0    0  0.41581353015E+02  0.15747339058E+01  0.12334279515E+02  0.47787272396E+02  0.20000006162E+02 0.  0.
        -12    1    1    2    0    0 -0.41581353015E+02 -0.15747339058E+01 -0.12334279515E+02  0.43400727604E+02  0.00000000000E+00 0.  1.
         11    1    3    3    0    0  0.28470898680E+02  0.17339821193E+01  0.79025011033E+01  0.29598112940E+02  0.51100000000E-03 0. -1.
        -11    1    3    3    0    0  0.81579973260E+01 -0.19246604367E+01 -0.31571744466E+01  0.89568403421E+01  0.51100000000E-03 0.  1.
         12    1    3    3    0    0  0.49524570087E+01  0.17654122232E+01  0.75889528583E+01  0.92323191142E+01  0.00000000000E+00 0. -1.
</event>
<event>
 7    1  0.1457722E-010  0.4778727E+02  0.7816164E-02  0.1312668E+00
        -11   -1    0    0    0    0  0.00000000000E+00  0.00000000000E+00  0.45593999997E+02  0.45594000000E+02  0.51100000000E-03 0. -1.
         11   -1    0    0    0    0 -0.00000000000E+00 -0.00000000000E+00 -0.45593999997E+02  0.45594000000E+02  0.51100000000E-03 0.  1.
    9900012    2    1    2    0    0  0.57978533091E+01 -0.30024050453E+02  0.30798782438E+02  0.47787266040E+02  0.19999977185E+02 0.  0.
        -12    1    1    2    0    0 -0.57978533091E+01  0.30024050453E+02 -0.30798782438E+02  0.43400733960E+02  0.00000000000E+00 0.  1.
         11    1    3    3    0    0  0.14193229590E+01 -0.12371414778E+02  0.18684430971E+02  0.22453826895E+02  0.51100000000E-03 0. -1.
        -11    1    3    3    0    0  0.21897324001E+01 -0.18735771154E+02  0.78752977158E+01  0.20441241721E+02  0.51100000000E-03 0.  1.
         12    1    3    3    0    0  0.21887979500E+01  0.10831354796E+01  0.42390537511E+01  0.48921974242E+01  0.00000000000E+00 0. -1.
</event>
<event>
 7    1  0.1457722E-010  0.4778727E+02  0.7816164E-02  0.1312668E+00
        -11   -1    0    0    0    0  0.00000000000E+00  0.00000000000E+00  0.45593999997E+02  0.45594000000E+02  0.51100000000E-03 0.  1.
         11   -1    0    0    0    0 -0.00000000000E+00 -0.00000000000E+00 -0.45593999997E+02  0.45594000000E+02  0.51100000000E-03 0. -1.
    9900012    2    1    2    0    0 -0.36955896890E+02 -0.18740233029E+02 -0.12910786320E+02  0.47787273596E+02  0.20000011635E+02 0.  0.
        -12    1    1    2    0    0  0.36955896890E+02  0.18740233029E+02  0.12910786320E+02  0.43400726404E+02  0.00000000000E+00 0.  1.
         11    1    3    3    0    0 -0.18052792690E+02 -0.36518759865E+01 -0.56635025687E+01  0.19269529931E+02  0.51100000000E-03 0. -1.
        -11    1    3    3    0    0 -0.18433357909E+02 -0.14418493576E+02 -0.23136008608E+01  0.23516683227E+02  0.51100000000E-03 0.  1.
        -12    1    3    3    0    0 -0.46974629129E+00 -0.66986346663E+00 -0.49336828908E+01  0.50010604385E+01  0.00000000000E+00 0.  1.
</event>
<event>
 7    1  0.1457722E-010  0.4778727E+02  0.7816164E-02  0.1312668E+00
        -11   -1    0    0    0    0  0.00000000000E+00  0.00000000000E+00  0.45593999997E+02  0.45594000000E+02  0.51100000000E-03 0.  1.
         11   -1    0    0    0    0 -0.00000000000E+00 -0.00000000000E+00 -0.45593999997E+02  0.45594000000E+02  0.51100000000E-03 0. -1.
    9900012    2    1    2    0    0 -0.33865922611E+02  0.78132947279E+01 -0.25993747899E+02  0.47787271681E+02  0.20000002903E+02 0.  0.
        -12    1    1    2    0    0  0.33865922611E+02 -0.78132947279E+01  0.25993747899E+02  0.43400728319E+02  0.00000000000E+00 0.  1.
         11    1    3    3    0    0 -0.12437401397E+02  0.59690964684E+01 -0.62852273129E+01  0.15159919155E+02  0.51100000000E-03 0. -1.
        -11    1    3    3    0    0 -0.91080854853E+01  0.21924569688E+01 -0.17854927088E+02  0.20163395308E+02  0.51100000000E-03 0.  1.
        -12    1    3    3    0    0 -0.12320435728E+02 -0.34825870930E+00 -0.18535934978E+01  0.12463957218E+02  0.00000000000E+00 0.  1.
</event>
<event>
 7    1  0.1457722E-010  0.4778727E+02  0.7816164E-02  0.1312668E+00
        -11   -1    0    0    0    0  0.00000000000E+00  0.00000000000E+00  0.45593999997E+02  0.45594000000E+02  0.51100000000E-03 0.  1.
         11   -1    0    0    0    0 -0.00000000000E+00 -0.00000000000E+00 -0.45593999997E+02  0.45594000000E+02  0.51100000000E-03 0. -1.
    9900012    2    1    2    0    0 -0.12777866838E+01  0.11182479082E+02 -0.41915898729E+02  0.47787272546E+02  0.20000006848E+02 0.  0.
        -12    1    1    2    0    0  0.12777866838E+01 -0.11182479082E+02  0.41915898729E+02  0.43400727454E+02  0.00000000000E+00 0.  1.
         11    1    3    3    0    0  0.17807744632E+01  0.35762508316E+01 -0.25457633373E+02  0.25769203032E+02  0.51100000000E-03 0. -1.
        -11    1    3    3    0    0 -0.17168599613E+01 -0.29734830903E+01 -0.17595159211E+01  0.38581221278E+01  0.51100000000E-03 0.  1.
        -12    1    3    3    0    0 -0.13417011857E+01  0.10579711341E+02 -0.14698749435E+02  0.18159947386E+02  0.00000000000E+00 0.  1.
</event>
<event>
 7    1  0.1457722E-010  0.4778727E+02  0.7816164E-02  0.1312668E+00
        -11   -1    0    0    0    0  0.00000000000E+00  0.00000000000E+00  0.45593999997E+02  0.45594000000E+02  0.51100000000E-03 0. -1.
         11   -1    0    0    0    0 -0.00000000000E+00 -0.00000000000E+00 -0.45593999997E+02  0.45594000000E+02  0.51100000000E-03 0.  1.
    9900012    2    1    2    0    0  0.41179691083E+02 -0.70478770679E+01 -0.11755152930E+02  0.47787272480E+02  0.20000006545E+02 0.  0.
        -12    1    1    2    0    0 -0.41179691083E+02  0.70478770679E+01  0.11755152930E+02  0.43400727520E+02  0.00000000000E+00 0.  1.
         11    1    3    3    0    0  0.19229837655E+02 -0.11345699027E+01  0.22063226945E+01  0.19389217756E+02  0.51100000000E-03 0. -1.
        -11    1    3    3    0    0  0.19453804475E+01  0.16918046036E+01 -0.40783923892E+01  0.48249344704E+01  0.51100000000E-03 0.  1.
         12    1    3    3    0    0  0.20004472981E+02 -0.76051117688E+01 -0.98830832349E+01  0.23573120254E+02  0.00000000000E+00 0. -1.
</event>
<event>
 7    1  0.1457722E-010  0.4778726E+02  0.7816164E-02  0.1312668E+00
        -11   -1    0    0    0    0  0.00000000000E+00  0.00000000000E+00  0.45593999997E+02  0.45594000000E+02  0.51100000000E-03 0.  1.
         11   -1    0    0    0    0 -0.00000000000E+00 -0.00000000000E+00 -0.45593999997E+02  0.45594000000E+02  0.51100000000E-03 0. -1.
    9900012    2    1    2    0    0 -0.36265430669E+02 -0.21125758955E+02  0.11051933553E+02  0.47787258206E+02  0.19999941462E+02 0.  0.
        -12    1    1    2    0    0  0.36265430669E+02  0.21125758955E+02 -0.11051933553E+02  0.43400741794E+02  0.00000000000E+00 0.  1.
         11    1    3    3    0    0 -0.28411366615E+02 -0.19725572404E+02  0.13766487500E+02  0.37226605243E+02  0.51100000000E-03 0. -1.
        -11    1    3    3    0    0  0.87468522722E+00  0.66669384482E+00 -0.87129239107E+00  0.14031057057E+01  0.51100000000E-03 0.  1.
         12    1    3    3    0    0 -0.87287492814E+01 -0.20668803965E+01 -0.18432615566E+01  0.91575472566E+01  0.00000000000E+00 0. -1.
</event>
<event>
 7    1  0.1457722E-010  0.4778727E+02  0.7816164E-02  0.1312668E+00
        -11   -1    0    0    0    0  0.00000000000E+00  0.00000000000E+00  0.45593999997E+02  0.45594000000E+02  0.51100000000E-03 0. -1.
         11   -1    0    0    0    0 -0.00000000000E+00 -0.00000000000E+00 -0.45593999997E+02  0.45594000000E+02  0.51100000000E-03 0.  1.
    9900012    2    1    2    0    0  0.21321453146E+02 -0.11428094219E+02  0.36033559782E+02  0.47787272676E+02  0.20000007437E+02 0.  0.
        -12    1    1    2    0    0 -0.21321453146E+02  0.11428094219E+02 -0.36033559782E+02  0.43400727324E+02  0.00000000000E+00 0.  1.
         11    1    3    3    0    0  0.18926581245E+02 -0.10482693115E+02  0.23192727959E+02  0.31717581292E+02  0.51100000000E-03 0.  1.
        -11    1    3    3    0    0  0.29191538803E+01 -0.48083942844E+01  0.62194284032E+01  0.83859051327E+01  0.51100000000E-03 0. -1.
        -12    1    3    3    0    0 -0.52428197878E+00  0.38629931806E+01  0.66214034193E+01  0.76837862508E+01  0.00000000000E+00 0.  1.
</event>
<event>
 7    1  0.1457722E-010  0.4778727E+02  0.7816164E-02  0.1312668E+00
        -11   -1    0    0    0    0  0.00000000000E+00  0.00000000000E+00  0.45593999997E+02  0.45594000000E+02  0.51100000000E-03 0.  1.
         11   -1    0    0    0    0 -0.00000000000E+00 -0.00000000000E+00 -0.45593999997E+02  0.45594000000E+02  0.51100000000E-03 0. -1.
    9900012    2    1    2    0    0  0.40520836835E+02  0.53665959002E+01 -0.14590561013E+02  0.47787273738E+02  0.20000012282E+02 0.  0.
        -12    1    1    2    0    0 -0.40520836835E+02 -0.53665959002E+01  0.14590561013E+02  0.43400726262E+02  0.00000000000E+00 0.  1.
         11    1    3    3    0    0  0.54553543849E+01 -0.99136001065E+00  0.29527470060E+01  0.62819106391E+01  0.51100000000E-03 0.  1.
        -11    1    3    3    0    0  0.20819660423E+02  0.15385725240E+01 -0.16165226728E+02  0.26403409268E+02  0.51100000000E-03 0. -1.
         12    1    3    3    0    0  0.14245822028E+02  0.48193833869E+01 -0.13780812907E+01  0.15101953831E+02  0.00000000000E+00 0. -1.
</event>
<event>
 7    1  0.1457722E-010  0.4778727E+02  0.7816164E-02  0.1312668E+00
        -11   -1    0    0    0    0  0.00000000000E+00  0.00000000000E+00  0.45593999997E+02  0.45594000000E+02  0.51100000000E-03 0.  1.
         11   -1    0    0    0    0 -0.00000000000E+00 -0.00000000000E+00 -0.45593999997E+02  0.45594000000E+02  0.51100000000E-03 0. -1.
    9900012    2    1    2    0    0 -0.46920499109E+01  0.69281220754E+01 -0.42586490629E+02  0.47787269684E+02  0.19999993796E+02 0.  0.
        -12    1    1    2    0    0  0.46920499109E+01 -0.69281220754E+01  0.42586490629E+02  0.43400730316E+02  0.00000000000E+00 0.  1.
         11    1    3    3    0    0  0.32668763532E+01  0.24990531113E+01 -0.56302645159E+01  0.69726341035E+01  0.51100000000E-03 0. -1.
        -11    1    3    3    0    0  0.43773925349E+01  0.70618389832E+00 -0.97819693202E+01  0.10739980686E+02  0.51100000000E-03 0.  1.
        -12    1    3    3    0    0 -0.12336318799E+02  0.37228850657E+01 -0.27174256793E+02  0.30074654894E+02  0.00000000000E+00 0.  1.
</event>
<event>
 7    1  0.1457722E-010  0.4778727E+02  0.7816164E-02  0.1312668E+00
        -11   -1    0    0    0    0  0.00000000000E+00  0.00000000000E+00  0.45593999997E+02  0.45594000000E+02  0.51100000000E-03 0.  1.
         11   -1    0    0    0    0 -0.00000000000E+00 -0.00000000000E+00 -0.45593999997E+02  0.45594000000E+02  0.51100000000E-03 0. -1.
    9900012    2    1    2    0    0  0.27282603821E+02 -0.33559368885E+02  0.36126995677E+01  0.47787270635E+02  0.19999998135E+02 0.  0.
        -12    1    1    2    0    0 -0.27282603821E+02  0.33559368885E+02 -0.36126995677E+01  0.43400729365E+02  0.00000000000E+00 0.  1.
         11    1    3    3    0    0  0.98069171549E+01 -0.38183254818E+01  0.25450664257E+01  0.10827400285E+02  0.51100000000E-03 0. -1.
        -11    1    3    3    0    0  0.46050189866E+01 -0.34783343353E+00  0.15419349096E+01  0.48687525600E+01  0.51100000000E-03 0.  1.
        -12    1    3    3    0    0  0.12870667680E+02 -0.29393209970E+02 -0.47430176761E+00  0.32091117790E+02  0.00000000000E+00 0.  1.
</event>
<event>
 7    1  0.1457722E-010  0.4778728E+02  0.7816164E-02  0.1312668E+00
        -11   -1    0    0    0    0  0.00000000000E+00  0.00000000000E+00  0.45593999997E+02  0.45594000000E+02  0.51100000000E-03 0.  1.
         11   -1    0    0    0    0 -0.00000000000E+00 -0.00000000000E+00 -0.45593999997E+02  0.45594000000E+02  0.51100000000E-03 0. -1.
    9900012    2    1    2    0    0 -0.10676276267E+02 -0.34979943986E+02 -0.23367574913E+02  0.47787275196E+02  0.20000018928E+02 0.  0.
        -12    1    1    2    0    0  0.10676276267E+02  0.34979943986E+02  0.23367574913E+02  0.43400724804E+02  0.00000000000E+00 0.  1.
         11    1    3    3    0    0 -0.26532050085E+01 -0.17416865108E+02 -0.16470641663E+02  0.24117809271E+02  0.51100000000E-03 0. -1.
        -11    1    3    3    0    0  0.61104391862E+00  0.14069849749E+01 -0.14867300968E+01  0.21361994364E+01  0.51100000000E-03 0.  1.
         12    1    3    3    0    0 -0.86341151774E+01 -0.18970063853E+02 -0.54102031534E+01  0.21533266488E+02  0.00000000000E+00 0. -1.
</event>
<event>
 7    1  0.1457722E-010  0.4778726E+02  0.7816164E-02  0.1312668E+00
        -11   -1    0    0    0    0  0.00000000000E+00  0.00000000000E+00  0.45593999997E+02  0.45594000000E+02  0.51100000000E-03 0.  1.
         11   -1    0    0    0    0 -0.00000000000E+00 -0.00000000000E+00 -0.45593999997E+02  0.45594000000E+02  0.51100000000E-03 0. -1.
    9900012    2    1    2    0    0  0.24639351733E+01 -0.35700659964E+02 -0.24556383960E+02  0.47787261624E+02  0.19999957047E+02 0.  0.
        -12    1    1    2    0    0 -0.24639351733E+01  0.35700659964E+02  0.24556383960E+02  0.43400738376E+02  0.00000000000E+00 0.  1.
         11    1    3    3    0    0 -0.44694502009E+01 -0.13776115401E+02 -0.66008594050E+01  0.15916302516E+02  0.51100000000E-03 0. -1.
        -11    1    3    3    0    0  0.17414067856E+01  0.35356788229E+00 -0.55940277864E+01  0.58694680318E+01  0.51100000000E-03 0.  1.
        -12    1    3    3    0    0  0.51919785886E+01 -0.22278112446E+02 -0.12361496769E+02  0.26001491076E+02  0.00000000000E+00 0.  1.
</event>
<event>
 7    1  0.1457722E-010  0.4778731E+02  0.7816164E-02  0.1312668E+00
        -11   -1    0    0    0    0  0.00000000000E+00  0.00000000000E+00  0.45593999997E+02  0.45594000000E+02  0.51100000000E-03 0. -1.
         11   -1    0    0    0    0 -0.00000000000E+00 -0.00000000000E+00 -0.45593999997E+02  0.45594000000E+02  0.51100000000E-03 0.  1.
    9900012    2    1    2    0    0 -0.40708366888E+02  0.10362210673E+00  0.15047864607E+02  0.47787307592E+02  0.20000166634E+02 0.  0.
        -12    1    1    2    0    0  0.40708366888E+02 -0.10362210673E+00 -0.15047864607E+02  0.43400692408E+02  0.00000000000E+00 0.  1.
         11    1    3    3    0    0 -0.16067580679E+02 -0.20574034737E+01  0.47591752380E+01  0.16883418112E+02  0.51100000000E-03 0.  1.
        -11    1    3    3    0    0 -0.74634210506E+00  0.58902651315E+00 -0.32563882080E+01  0.33923506884E+01  0.51100000000E-03 0. -1.
         12    1    3    3    0    0 -0.23894444104E+02  0.15719990673E+01  0.13545077577E+02  0.27511538792E+02  0.00000000000E+00 0. -1.
</event>
<event>
 7    1  0.1457722E-010  0.4778727E+02  0.7816164E-02  0.1312668E+00
        -11   -1    0    0    0    0  0.00000000000E+00  0.00000000000E+00  0.45593999997E+02  0.45594000000E+02  0.51100000000E-03 0. -1.
         11   -1    0    0    0    0 -0.00000000000E+00 -0.00000000000E+00 -0.45593999997E+02  0.45594000000E+02  0.51100000000E-03 0.  1.
    9900012    2    1    2    0    0  0.41189193244E+02  0.85023886177E+01  0.10713685521E+02  0.47787270632E+02  0.19999998118E+02 0.  0.
        -12    1    1    2    0    0 -0.41189193244E+02 -0.85023886177E+01 -0.10713685521E+02  0.43400729368E+02  0.00000000000E+00 0.  1.
         11    1    3    3    0    0  0.52206013752E+01  0.60265654478E+01  0.81116267285E+01  0.11374210226E+02  0.51100000000E-03 0. -1.
        -11    1    3    3    0    0  0.24489335350E+02  0.24033020049E+01 -0.15359969207E+00  0.24607458209E+02  0.51100000000E-03 0.  1.
         12    1    3    3    0    0  0.11479256519E+02  0.72521164991E-01  0.27556584842E+01  0.11805602197E+02  0.00000000000E+00 0. -1.
</event>
<event>
 7    1  0.1457722E-010  0.4778727E+02  0.7816164E-02  0.1312668E+00
        -11   -1    0    0    0    0  0.00000000000E+00  0.00000000000E+00  0.45593999997E+02  0.45594000000E+02  0.51100000000E-03 0.  1.
         11   -1    0    0    0    0 -0.00000000000E+00 -0.00000000000E+00 -0.45593999997E+02  0.45594000000E+02  0.51100000000E-03 0. -1.
    9900012    2    1    2    0    0 -0.29383737002E+02  0.29457451693E+02 -0.12348194170E+02  0.47787270055E+02  0.19999995489E+02 0.  0.
        -12    1    1    2    0    0  0.29383737002E+02 -0.29457451693E+02  0.12348194170E+02  0.43400729945E+02  0.00000000000E+00 0.  1.
         11    1    3    3    0    0 -0.70661095901E+01  0.13422596322E+02 -0.74797497708E+00  0.15187345508E+02  0.51100000000E-03 0. -1.
        -11    1    3    3    0    0 -0.13479707795E+01  0.66868893506E+00 -0.57622294182E+01  0.59554561742E+01  0.51100000000E-03 0.  1.
        -12    1    3    3    0    0 -0.20969656633E+02  0.15366166436E+02 -0.58379897748E+01  0.26644468373E+02  0.00000000000E+00 0.  1.
</event>
<event>
 7    1  0.1457722E-010  0.4778727E+02  0.7816164E-02  0.1312668E+00
        -11   -1    0    0    0    0  0.00000000000E+00  0.00000000000E+00  0.45593999997E+02  0.45594000000E+02  0.51100000000E-03 0.  1.
         11   -1    0    0    0    0 -0.00000000000E+00 -0.00000000000E+00 -0.45593999997E+02  0.45594000000E+02  0.51100000000E-03 0. -1.
    9900012    2    1    2    0    0 -0.19967527446E+02  0.28626446144E+01 -0.38428201797E+02  0.47787267519E+02  0.19999983927E+02 0.  0.
        -12    1    1    2    0    0  0.19967527446E+02 -0.28626446144E+01  0.38428201797E+02  0.43400732481E+02  0.00000000000E+00 0.  1.
         11    1    3    3    0    0 -0.14880559767E+02 -0.52203931681E+01 -0.14344805973E+02  0.21317997619E+02  0.51100000000E-03 0. -1.
        -11    1    3    3    0    0 -0.52401812961E+01  0.35388196025E+01 -0.12105975040E+02  0.13657868653E+02  0.51100000000E-03 0.  1.
        -12    1    3    3    0    0  0.15321361772E+00  0.45442181801E+01 -0.11977420784E+02  0.12811401247E+02  0.00000000000E+00 0.  1.
</event>
<event>
 7    1  0.1457722E-010  0.4778727E+02  0.7816164E-02  0.1312668E+00
        -11   -1    0    0    0    0  0.00000000000E+00  0.00000000000E+00  0.45593999997E+02  0.45594000000E+02  0.51100000000E-03 0.  1.
         11   -1    0    0    0    0 -0.00000000000E+00 -0.00000000000E+00 -0.45593999997E+02  0.45594000000E+02  0.51100000000E-03 0. -1.
    9900012    2    1    2    0    0  0.16636522955E+02  0.29269782825E+02 -0.27388486292E+02  0.47787271158E+02  0.20000000520E+02 0.  0.
        -12    1    1    2    0    0 -0.16636522955E+02 -0.29269782825E+02  0.27388486292E+02  0.43400728842E+02  0.00000000000E+00 0.  1.
         11    1    3    3    0    0  0.15362640305E+02  0.20348185258E+02 -0.16998183933E+02  0.30643068021E+02  0.51100000000E-03 0. -1.
        -11    1    3    3    0    0  0.19889847662E+01  0.17855582913E+01 -0.95575172248E+01  0.99242337022E+01  0.51100000000E-03 0.  1.
        -12    1    3    3    0    0 -0.71510211628E+00  0.71360392752E+01 -0.83278513396E+00  0.72199694357E+01  0.00000000000E+00 0.  1.
</event>
<event>
 7    1  0.1457722E-010  0.4778727E+02  0.7816164E-02  0.1312668E+00
        -11   -1    0    0    0    0  0.00000000000E+00  0.00000000000E+00  0.45593999997E+02  0.45594000000E+02  0.51100000000E-03 0.  1.
         11   -1    0    0    0    0 -0.00000000000E+00 -0.00000000000E+00 -0.45593999997E+02  0.45594000000E+02  0.51100000000E-03 0. -1.
    9900012    2    1    2    0    0  0.29170079988E+02  0.66042221536E+01 -0.31450183132E+02  0.47787270331E+02  0.19999996747E+02 0.  0.
        -12    1    1    2    0    0 -0.29170079988E+02 -0.66042221536E+01  0.31450183132E+02  0.43400729669E+02  0.00000000000E+00 0.  1.
         11    1    3    3    0    0  0.13404695604E+02 -0.37299548230E+01 -0.59168120915E+01  0.15119758358E+02  0.51100000000E-03 0. -1.
        -11    1    3    3    0    0  0.14030158015E+02  0.57600398362E+01 -0.16620936628E+02  0.22500642824E+02  0.51100000000E-03 0.  1.
        -12    1    3    3    0    0  0.17352263686E+01  0.45741371404E+01 -0.89124344133E+01  0.10166869149E+02  0.00000000000E+00 0.  1.
</event>
<event>
 7    1  0.1457722E-010  0.4778727E+02  0.7816164E-02  0.1312668E+00
        -11   -1    0    0    0    0  0.00000000000E+00  0.00000000000E+00  0.45593999997E+02  0.45594000000E+02  0.51100000000E-03 0.  1.
         11   -1    0    0    0    0 -0.00000000000E+00 -0.00000000000E+00 -0.45593999997E+02  0.45594000000E+02  0.51100000000E-03 0. -1.
    9900012    2    1    2    0    0  0.22541897854E+02 -0.57750505409E+01 -0.36635159721E+02  0.47787270797E+02  0.19999998870E+02 0.  0.
        -12    1    1    2    0    0 -0.22541897854E+02  0.57750505409E+01  0.36635159721E+02  0.43400729203E+02  0.00000000000E+00 0.  1.
         11    1    3    3    0    0  0.51801199609E+01 -0.55395924481E+01 -0.10306950954E+02  0.12796638837E+02  0.51100000000E-03 0. -1.
        -11    1    3    3    0    0  0.15965530455E+02  0.53449962995E+01 -0.16325903076E+02  0.23452126975E+02  0.51100000000E-03 0.  1.
        -12    1    3    3    0    0  0.13962474380E+01 -0.55804543924E+01 -0.10002305691E+02  0.11538504984E+02  0.00000000000E+00 0.  1.
</event>
<event>
 7    1  0.1457722E-010  0.4778727E+02  0.7816164E-02  0.1312668E+00
        -11   -1    0    0    0    0  0.00000000000E+00  0.00000000000E+00  0.45593999997E+02  0.45594000000E+02  0.51100000000E-03 0.  1.
         11   -1    0    0    0    0 -0.00000000000E+00 -0.00000000000E+00 -0.45593999997E+02  0.45594000000E+02  0.51100000000E-03 0. -1.
    9900012    2    1    2    0    0  0.34314274999E+02  0.21006146057E+02 -0.16275611930E+02  0.47787272073E+02  0.20000004690E+02 0.  0.
        -12    1    1    2    0    0 -0.34314274999E+02 -0.21006146057E+02  0.16275611930E+02  0.43400727927E+02  0.00000000000E+00 0.  1.
         11    1    3    3    0    0  0.12556630458E+02  0.31207419062E+01 -0.12293678606E+02  0.17847759872E+02  0.51100000000E-03 0. -1.
        -11    1    3    3    0    0  0.11456925028E+02  0.71941452020E+01 -0.62828399995E+01  0.14916130028E+02  0.51100000000E-03 0.  1.
        -12    1    3    3    0    0  0.10300719513E+02  0.10691258949E+02  0.23009066756E+01  0.15023382173E+02  0.00000000000E+00 0.  1.
</event>
<event>
 7    1  0.1457722E-010  0.4778727E+02  0.7816164E-02  0.1312668E+00
        -11   -1    0    0    0    0  0.00000000000E+00  0.00000000000E+00  0.45593999997E+02  0.45594000000E+02  0.51100000000E-03 0.  1.
         11   -1    0    0    0    0 -0.00000000000E+00 -0.00000000000E+00 -0.45593999997E+02  0.45594000000E+02  0.51100000000E-03 0. -1.
    9900012    2    1    2    0    0 -0.32802795373E+02 -0.26782401747E+02 -0.95027979634E+01  0.47787267324E+02  0.19999983039E+02 0.  0.
        -12    1    1    2    0    0  0.32802795373E+02  0.26782401747E+02  0.95027979634E+01  0.43400732676E+02  0.00000000000E+00 0.  1.
         11    1    3    3    0    0 -0.14626416850E+02 -0.10237714394E+02 -0.11528389466E+02  0.21251979433E+02  0.51100000000E-03 0. -1.
        -11    1    3    3    0    0 -0.15610980586E+01  0.69238534282E+00  0.19524201262E+01  0.25939100258E+01  0.51100000000E-03 0.  1.
        -12    1    3    3    0    0 -0.16615280465E+02 -0.17237072696E+02  0.73171376618E-01  0.23941377866E+02  0.00000000000E+00 0.  1.
</event>
<event>
 7    1  0.1457722E-010  0.4778727E+02  0.7816164E-02  0.1312668E+00
        -11   -1    0    0    0    0  0.00000000000E+00  0.00000000000E+00  0.45593999997E+02  0.45594000000E+02  0.51100000000E-03 0.  1.
         11   -1    0    0    0    0 -0.00000000000E+00 -0.00000000000E+00 -0.45593999997E+02  0.45594000000E+02  0.51100000000E-03 0. -1.
    9900012    2    1    2    0    0  0.30283494872E+02  0.60755078557E+01 -0.30489691896E+02  0.47787272249E+02  0.20000005493E+02 0.  0.
        -12    1    1    2    0    0 -0.30283494872E+02 -0.60755078557E+01  0.30489691896E+02  0.43400727751E+02  0.00000000000E+00 0.  1.
         11    1    3    3    0    0  0.37238005929E+01  0.20113706289E+01  0.77583401913E+00  0.43028155141E+01  0.51100000000E-03 0.  1.
        -11    1    3    3    0    0  0.25613733252E+02  0.83621777282E+00 -0.30833373006E+02  0.40093135104E+02  0.51100000000E-03 0. -1.
         12    1    3    3    0    0  0.94596102688E+00  0.32279194540E+01 -0.43215290907E+00  0.33913216307E+01  0.00000000000E+00 0. -1.
</event>
<event>
 7    1  0.1457722E-010  0.4778727E+02  0.7816164E-02  0.1312668E+00
        -11   -1    0    0    0    0  0.00000000000E+00  0.00000000000E+00  0.45593999997E+02  0.45594000000E+02  0.51100000000E-03 0. -1.
         11   -1    0    0    0    0 -0.00000000000E+00 -0.00000000000E+00 -0.45593999997E+02  0.45594000000E+02  0.51100000000E-03 0.  1.
    9900012    2    1    2    0    0  0.17543122902E+02  0.25883667204E+02  0.30098140370E+02  0.47787269098E+02  0.19999991127E+02 0.  0.
        -12    1    1    2    0    0 -0.17543122902E+02 -0.25883667204E+02 -0.30098140370E+02  0.43400730902E+02  0.00000000000E+00 0.  1.
         11    1    3    3    0    0  0.18479161605E+02  0.10217341922E+02  0.18930503792E+02  0.28359080797E+02  0.51100000000E-03 0. -1.
        -11    1    3    3    0    0  0.79461002052E+00  0.67951729625E+01  0.52692664106E+01  0.86354472635E+01  0.51100000000E-03 0.  1.
        -12    1    3    3    0    0 -0.17306487234E+01  0.88711523200E+01  0.58983701668E+01  0.10792741038E+02  0.00000000000E+00 0.  1.
</event>
<event>
 7    1  0.1457722E-010  0.4778727E+02  0.7816164E-02  0.1312668E+00
        -11   -1    0    0    0    0  0.00000000000E+00  0.00000000000E+00  0.45593999997E+02  0.45594000000E+02  0.51100000000E-03 0.  1.
         11   -1    0    0    0    0 -0.00000000000E+00 -0.00000000000E+00 -0.45593999997E+02  0.45594000000E+02  0.51100000000E-03 0. -1.
    9900012    2    1    2    0    0  0.16205908214E+02  0.18215016819E+02 -0.35905502109E+02  0.47787269817E+02  0.19999994402E+02 0.  0.
        -12    1    1    2    0    0 -0.16205908214E+02 -0.18215016819E+02  0.35905502109E+02  0.43400730183E+02  0.00000000000E+00 0.  1.
         11    1    3    3    0    0  0.31989275464E+01  0.25584912901E+01 -0.83012788046E+01  0.92569025695E+01  0.51100000000E-03 0. -1.
        -11    1    3    3    0    0 -0.34035242320E+01  0.70285666370E+01 -0.11896204108E+02  0.14230404021E+02  0.51100000000E-03 0.  1.
        -12    1    3    3    0    0  0.16410504900E+02  0.86279588923E+01 -0.15708019196E+02  0.24299963226E+02  0.00000000000E+00 0.  1.
</event>
<event>
 7    1  0.1457722E-010  0.4778728E+02  0.7816164E-02  0.1312668E+00
        -11   -1    0    0    0    0  0.00000000000E+00  0.00000000000E+00  0.45593999997E+02  0.45594000000E+02  0.51100000000E-03 0. -1.
         11   -1    0    0    0    0 -0.00000000000E+00 -0.00000000000E+00 -0.45593999997E+02  0.45594000000E+02  0.51100000000E-03 0.  1.
    9900012    2    1    2    0    0 -0.38185846539E+02 -0.99992127127E+01  0.18041055654E+02  0.47787276275E+02  0.20000023847E+02 0.  0.
        -12    1    1    2    0    0  0.38185846539E+02  0.99992127127E+01 -0.18041055654E+02  0.43400723725E+02  0.00000000000E+00 0.  1.
         11    1    3    3    0    0 -0.23792682319E+02 -0.69872730575E+01  0.18649701616E+02  0.31027811514E+02  0.51100000000E-03 0. -1.
        -11    1    3    3    0    0 -0.22423402661E+01  0.24601080306E+01  0.58602370351E+00  0.33798883759E+01  0.51100000000E-03 0.  1.
        -12    1    3    3    0    0 -0.12150823954E+02 -0.54720476859E+01 -0.11946696652E+01  0.13379576385E+02  0.00000000000E+00 0.  1.
</event>
<event>
 7    1  0.1457722E-010  0.4778727E+02  0.7816164E-02  0.1312668E+00
        -11   -1    0    0    0    0  0.00000000000E+00  0.00000000000E+00  0.45593999997E+02  0.45594000000E+02  0.51100000000E-03 0.  1.
         11   -1    0    0    0    0 -0.00000000000E+00 -0.00000000000E+00 -0.45593999997E+02  0.45594000000E+02  0.51100000000E-03 0. -1.
    9900012    2    1    2    0    0  0.19649881113E+02 -0.30375905908E+02 -0.23975193144E+02  0.47787269894E+02  0.19999994754E+02 0.  0.
        -12    1    1    2    0    0 -0.19649881113E+02  0.30375905908E+02  0.23975193144E+02  0.43400730106E+02  0.00000000000E+00 0.  1.
         11    1    3    3    0    0  0.79642207473E+01 -0.21382019149E+02 -0.62483840671E+01  0.23657173515E+02  0.51100000000E-03 0. -1.
        -11    1    3    3    0    0  0.53931532767E+00  0.11687203712E+01 -0.13453217873E+01  0.18618966946E+01  0.51100000000E-03 0.  1.
         12    1    3    3    0    0  0.11146345038E+02 -0.10162607130E+02 -0.16381487289E+02  0.22268199685E+02  0.00000000000E+00 0. -1.
</event>
<event>
 7    1  0.1457722E-010  0.4778727E+02  0.7816164E-02  0.1312668E+00
        -11   -1    0    0    0    0  0.00000000000E+00  0.00000000000E+00  0.45593999997E+02  0.45594000000E+02  0.51100000000E-03 0. -1.
         11   -1    0    0    0    0 -0.00000000000E+00 -0.00000000000E+00 -0.45593999997E+02  0.45594000000E+02  0.51100000000E-03 0.  1.
    9900012    2    1    2    0    0  0.12828984957E+02 -0.13882074379E+02  0.39068254727E+02  0.47787269920E+02  0.19999994872E+02 0.  0.
        -12    1    1    2    0    0 -0.12828984957E+02  0.13882074379E+02 -0.39068254727E+02  0.43400730080E+02  0.00000000000E+00 0.  1.
         11    1    3    3    0    0  0.54238288507E+01 -0.95511180914E+01  0.14525510026E+02  0.18210772031E+02  0.51100000000E-03 0. -1.
        -11    1    3    3    0    0  0.55507958153E+00  0.68897250701E+00 -0.17420199323E+01  0.19538244965E+01  0.51100000000E-03 0.  1.
         12    1    3    3    0    0  0.68500765243E+01 -0.50199287948E+01  0.26284764634E+02  0.27622673392E+02  0.00000000000E+00 0. -1.
</event>
<event>
 7    1  0.1457722E-010  0.4778727E+02  0.7816164E-02  0.1312668E+00
        -11   -1    0    0    0    0  0.00000000000E+00  0.00000000000E+00  0.45593999997E+02  0.45594000000E+02  0.51100000000E-03 0.  1.
         11   -1    0    0    0    0 -0.00000000000E+00 -0.00000000000E+00 -0.45593999997E+02  0.45594000000E+02  0.51100000000E-03 0. -1.
    9900012    2    1    2    0    0 -0.10572909413E+02 -0.36336222903E+02 -0.21248899140E+02  0.47787271631E+02  0.20000002672E+02 0.  0.
        -12    1    1    2    0    0  0.10572909413E+02  0.36336222903E+02  0.21248899140E+02  0.43400728369E+02  0.00000000000E+00 0.  1.
         11    1    3    3    0    0  0.39234849619E+00 -0.10876603009E+02 -0.35140226031E+01  0.11436904541E+02  0.51100000000E-03 0. -1.
        -11    1    3    3    0    0 -0.12635830506E+02 -0.12693125938E+02 -0.58861592796E+01  0.18852759214E+02  0.51100000000E-03 0.  1.
         12    1    3    3    0    0  0.16705725965E+01 -0.12766493957E+02 -0.11848717257E+02  0.17497607876E+02  0.00000000000E+00 0. -1.
</event>
<event>
 7    1  0.1457722E-010  0.4778727E+02  0.7816164E-02  0.1312668E+00
        -11   -1    0    0    0    0  0.00000000000E+00  0.00000000000E+00  0.45593999997E+02  0.45594000000E+02  0.51100000000E-03 0.  1.
         11   -1    0    0    0    0 -0.00000000000E+00 -0.00000000000E+00 -0.45593999997E+02  0.45594000000E+02  0.51100000000E-03 0. -1.
    9900012    2    1    2    0    0  0.23026102344E+02 -0.73020364049E+01 -0.36056928262E+02  0.47787271890E+02  0.20000003853E+02 0.  0.
        -12    1    1    2    0    0 -0.23026102344E+02  0.73020364049E+01  0.36056928262E+02  0.43400728110E+02  0.00000000000E+00 0.  1.
         11    1    3    3    0    0  0.12336870254E+02 -0.52739167305E+01 -0.23600072877E+02  0.27147301991E+02  0.51100000000E-03 0. -1.
        -11    1    3    3    0    0  0.68840636050E+01  0.46966856802E+01 -0.87033576955E+01  0.12049797655E+02  0.51100000000E-03 0.  1.
        -12    1    3    3    0    0  0.38051684851E+01 -0.67248053546E+01 -0.37534976895E+01  0.85901722429E+01  0.00000000000E+00 0.  1.
</event>
<event>
 7    1  0.1457722E-010  0.4778727E+02  0.7816164E-02  0.1312668E+00
        -11   -1    0    0    0    0  0.00000000000E+00  0.00000000000E+00  0.45593999997E+02  0.45594000000E+02  0.51100000000E-03 0. -1.
         11   -1    0    0    0    0 -0.00000000000E+00 -0.00000000000E+00 -0.45593999997E+02  0.45594000000E+02  0.51100000000E-03 0.  1.
    9900012    2    1    2    0    0 -0.42697677017E+02  0.77047786037E+01  0.10807473469E+01  0.47787271311E+02  0.20000001213E+02 0.  0.
        -12    1    1    2    0    0  0.42697677017E+02 -0.77047786037E+01 -0.10807473469E+01  0.43400728689E+02  0.00000000000E+00 0.  1.
         11    1    3    3    0    0 -0.25512654149E+02 -0.27835055201E+01 -0.24970625383E+01  0.25785242801E+02  0.51100000000E-03 0. -1.
        -11    1    3    3    0    0 -0.17159829911E+02  0.81327098068E+01  0.18475421885E+01  0.19079154693E+02  0.51100000000E-03 0.  1.
        -12    1    3    3    0    0 -0.25192956150E-01  0.23555743170E+01  0.17302676968E+01  0.29228738171E+01  0.00000000000E+00 0.  1.
</event>
<event>
 7    1  0.1457722E-010  0.4778728E+02  0.7816164E-02  0.1312668E+00
        -11   -1    0    0    0    0  0.00000000000E+00  0.00000000000E+00  0.45593999997E+02  0.45594000000E+02  0.51100000000E-03 0.  1.
         11   -1    0    0    0    0 -0.00000000000E+00 -0.00000000000E+00 -0.45593999997E+02  0.45594000000E+02  0.51100000000E-03 0. -1.
    9900012    2    1    2    0    0 -0.23095423051E+02 -0.34252363272E+02  0.13304131615E+02  0.47787275655E+02  0.20000021021E+02 0.  0.
        -12    1    1    2    0    0  0.23095423051E+02  0.34252363272E+02 -0.13304131615E+02  0.43400724345E+02  0.00000000000E+00 0.  1.
         11    1    3    3    0    0 -0.36976492007E+01 -0.41553144336E+01  0.86399399725E+01  0.10275592958E+02  0.51100000000E-03 0. -1.
        -11    1    3    3    0    0 -0.14218825902E+02 -0.13182382625E+02  0.40697480402E+01  0.19811942637E+02  0.51100000000E-03 0.  1.
         12    1    3    3    0    0 -0.51789479485E+01 -0.16914666214E+02  0.59444360267E+00  0.17699740059E+02  0.00000000000E+00 0. -1.
</event>
<event>
 7    1  0.1457722E-010  0.4778727E+02  0.7816164E-02  0.1312668E+00
        -11   -1    0    0    0    0  0.00000000000E+00  0.00000000000E+00  0.45593999997E+02  0.45594000000E+02  0.51100000000E-03 0. -1.
         11   -1    0    0    0    0 -0.00000000000E+00 -0.00000000000E+00 -0.45593999997E+02  0.45594000000E+02  0.51100000000E-03 0.  1.
    9900012    2    1    2    0    0 -0.25214660150E+02  0.14936275181E+02  0.32011748936E+02  0.47787268754E+02  0.19999989558E+02 0.  0.
        -12    1    1    2    0    0  0.25214660150E+02 -0.14936275181E+02 -0.32011748936E+02  0.43400731246E+02  0.00000000000E+00 0.  1.
         11    1    3    3    0    0 -0.14843549352E+02  0.40994011164E+01  0.11978416688E+02  0.19509446775E+02  0.51100000000E-03 0. -1.
        -11    1    3    3    0    0 -0.92982638949E+01  0.59536155562E+01  0.44360787536E+01  0.11898825346E+02  0.51100000000E-03 0.  1.
        -12    1    3    3    0    0 -0.10728469031E+01  0.48832585085E+01  0.15597253494E+02  0.16378996633E+02  0.00000000000E+00 0.  1.
</event>
<event>
 7    1  0.1457722E-010  0.4778727E+02  0.7816164E-02  0.1312668E+00
        -11   -1    0    0    0    0  0.00000000000E+00  0.00000000000E+00  0.45593999997E+02  0.45594000000E+02  0.51100000000E-03 0.  1.
         11   -1    0    0    0    0 -0.00000000000E+00 -0.00000000000E+00 -0.45593999997E+02  0.45594000000E+02  0.51100000000E-03 0. -1.
    9900012    2    1    2    0    0  0.21393654334E+01 -0.42977261674E+02  0.56569848163E+01  0.47787269791E+02  0.19999994286E+02 0.  0.
        -12    1    1    2    0    0 -0.21393654334E+01  0.42977261674E+02 -0.56569848163E+01  0.43400730209E+02  0.00000000000E+00 0.  1.
         11    1    3    3    0    0  0.83082308556E+01 -0.11546232711E+02  0.11829314739E+00  0.14225195369E+02  0.51100000000E-03 0. -1.
        -11    1    3    3    0    0 -0.47250168727E+01 -0.11145343328E+02 -0.11335478677E+01  0.12158511150E+02  0.51100000000E-03 0.  1.
        -12    1    3    3    0    0 -0.14438485495E+01 -0.20285685635E+02  0.66722395366E+01  0.21403563272E+02  0.00000000000E+00 0.  1.
</event>
<event>
 7    1  0.1457722E-010  0.4778727E+02  0.7816164E-02  0.1312668E+00
        -11   -1    0    0    0    0  0.00000000000E+00  0.00000000000E+00  0.45593999997E+02  0.45594000000E+02  0.51100000000E-03 0.  1.
         11   -1    0    0    0    0 -0.00000000000E+00 -0.00000000000E+00 -0.45593999997E+02  0.45594000000E+02  0.51100000000E-03 0. -1.
    9900012    2    1    2    0    0  0.13835043807E+02  0.12186375456E+02 -0.39290038378E+02  0.47787270747E+02  0.19999998646E+02 0.  0.
        -12    1    1    2    0    0 -0.13835043807E+02 -0.12186375456E+02  0.39290038378E+02  0.43400729253E+02  0.00000000000E+00 0.  1.
         11    1    3    3    0    0 -0.18814182038E+01 -0.16488097179E+01 -0.26543410187E+01  0.36474421789E+01  0.51100000000E-03 0. -1.
        -11    1    3    3    0    0 -0.40892806033E+00  0.82849047327E+00 -0.11631403832E+02  0.11668040709E+02  0.51100000000E-03 0.  1.
         12    1    3    3    0    0  0.16125390071E+02  0.13006694700E+02 -0.25004293527E+02  0.32471787859E+02  0.00000000000E+00 0. -1.
</event>
<event>
 7    1  0.1457722E-010  0.4778727E+02  0.7816164E-02  0.1312668E+00
        -11   -1    0    0    0    0  0.00000000000E+00  0.00000000000E+00  0.45593999997E+02  0.45594000000E+02  0.51100000000E-03 0.  1.
         11   -1    0    0    0    0 -0.00000000000E+00 -0.00000000000E+00 -0.45593999997E+02  0.45594000000E+02  0.51100000000E-03 0. -1.
    9900012    2    1    2    0    0  0.23964659121E+02  0.11265251381E+02 -0.34386228778E+02  0.47787268381E+02  0.19999987857E+02 0.  0.
        -12    1    1    2    0    0 -0.23964659121E+02 -0.11265251381E+02  0.34386228778E+02  0.43400731619E+02  0.00000000000E+00 0.  1.
         11    1    3    3    0    0  0.59483855002E+01  0.92864040112E+01 -0.18297567275E+02  0.21364024854E+02  0.51100000000E-03 0. -1.
        -11    1    3    3    0    0  0.16381474898E+02  0.43092789302E+01 -0.16378063945E+02  0.23561909591E+02  0.51100000000E-03 0.  1.
        -12    1    3    3    0    0  0.16347987227E+01 -0.23304315603E+01  0.28940244164E+00  0.28613339362E+01  0.00000000000E+00 0.  1.
</event>
<event>
 7    1  0.1457722E-010  0.4778727E+02  0.7816164E-02  0.1312668E+00
        -11   -1    0    0    0    0  0.00000000000E+00  0.00000000000E+00  0.45593999997E+02  0.45594000000E+02  0.51100000000E-03 0.  1.
         11   -1    0    0    0    0 -0.00000000000E+00 -0.00000000000E+00 -0.45593999997E+02  0.45594000000E+02  0.51100000000E-03 0. -1.
    9900012    2    1    2    0    0 -0.95003390524E+01 -0.41718468392E+02 -0.72757589669E+01  0.47787265955E+02  0.19999976797E+02 0.  0.
        -12    1    1    2    0    0  0.95003390524E+01  0.41718468392E+02  0.72757589669E+01  0.43400734045E+02  0.00000000000E+00 0.  1.
         11    1    3    3    0    0 -0.84163333021E+01 -0.25151278738E+02 -0.74379938592E+01  0.27545330663E+02  0.51100000000E-03 0. -1.
        -11    1    3    3    0    0 -0.35886265444E+01 -0.16608775414E+02 -0.17620746626E+01  0.17083166235E+02  0.51100000000E-03 0.  1.
        -12    1    3    3    0    0  0.25046207941E+01  0.41585760205E-01  0.19243095549E+01  0.31587690579E+01  0.00000000000E+00 0.  1.
</event>
<event>
 7    1  0.1457722E-010  0.4778727E+02  0.7816164E-02  0.1312668E+00
        -11   -1    0    0    0    0  0.00000000000E+00  0.00000000000E+00  0.45593999997E+02  0.45594000000E+02  0.51100000000E-03 0.  1.
         11   -1    0    0    0    0 -0.00000000000E+00 -0.00000000000E+00 -0.45593999997E+02  0.45594000000E+02  0.51100000000E-03 0. -1.
    9900012    2    1    2    0    0  0.23519075359E+02  0.38877631381E+01 -0.36267913365E+02  0.47787272496E+02  0.20000006620E+02 0.  0.
        -12    1    1    2    0    0 -0.23519075359E+02 -0.38877631381E+01  0.36267913365E+02  0.43400727504E+02  0.00000000000E+00 0.  1.
         11    1    3    3    0    0  0.12559375904E+02  0.26166221755E+01 -0.15363115263E+02  0.20015242830E+02  0.51100000000E-03 0. -1.
        -11    1    3    3    0    0  0.43800537367E+01 -0.12565215250E+01  0.10817016694E+01  0.46833530555E+01  0.51100000000E-03 0.  1.
        -12    1    3    3    0    0  0.65796457189E+01  0.25276624875E+01 -0.21986499772E+02  0.23088676611E+02  0.00000000000E+00 0.  1.
</event>
<event>
 7    1  0.1457722E-010  0.4778728E+02  0.7816164E-02  0.1312668E+00
        -11   -1    0    0    0    0  0.00000000000E+00  0.00000000000E+00  0.45593999997E+02  0.45594000000E+02  0.51100000000E-03 0.  1.
         11   -1    0    0    0    0 -0.00000000000E+00 -0.00000000000E+00 -0.45593999997E+02  0.45594000000E+02  0.51100000000E-03 0. -1.
    9900012    2    1    2    0    0  0.22393753532E+01  0.42124216814E+02  0.10205783206E+02  0.47787280478E+02  0.20000043014E+02 0.  0.
        -12    1    1    2    0    0 -0.22393753532E+01 -0.42124216814E+02 -0.10205783206E+02  0.43400719522E+02  0.00000000000E+00 0.  1.
         11    1    3    3    0    0  0.79305689024E+00  0.13057872203E+02  0.26809785000E+01  0.13353823859E+02  0.51100000000E-03 0. -1.
        -11    1    3    3    0    0 -0.14437224274E+01  0.14730113556E+01  0.63365225832E+01  0.66637538677E+01  0.51100000000E-03 0.  1.
        -12    1    3    3    0    0  0.28900408903E+01  0.27593333255E+02  0.11882821229E+01  0.27769702751E+02  0.00000000000E+00 0.  1.
</event>
<event>
 7    1  0.1457722E-010  0.4778727E+02  0.7816164E-02  0.1312668E+00
        -11   -1    0    0    0    0  0.00000000000E+00  0.00000000000E+00  0.45593999997E+02  0.45594000000E+02  0.51100000000E-03 0. -1.
         11   -1    0    0    0    0 -0.00000000000E+00 -0.00000000000E+00 -0.45593999997E+02  0.45594000000E+02  0.51100000000E-03 0.  1.
    9900012    2    1    2    0    0  0.51401827176E+01 -0.43068455291E+02  0.15198924239E+01  0.47787269678E+02  0.19999993768E+02 0.  0.
        -12    1    1    2    0    0 -0.51401827176E+01  0.43068455291E+02 -0.15198924239E+01  0.43400730322E+02  0.00000000000E+00 0.  1.
         11    1    3    3    0    0 -0.15807592072E+01 -0.19684624629E+01  0.36390966786E+01  0.44290708998E+01  0.51100000000E-03 0. -1.
        -11    1    3    3    0    0 -0.18626155370E+01 -0.24641257488E+02 -0.38132552890E+00  0.24714496083E+02  0.51100000000E-03 0.  1.
         12    1    3    3    0    0  0.85835574618E+01 -0.16458735340E+02 -0.17378787258E+01  0.18643702695E+02  0.00000000000E+00 0. -1.
</event>
<event>
 7    1  0.1457722E-010  0.4778727E+02  0.7816164E-02  0.1312668E+00
        -11   -1    0    0    0    0  0.00000000000E+00  0.00000000000E+00  0.45593999997E+02  0.45594000000E+02  0.51100000000E-03 0.  1.
         11   -1    0    0    0    0 -0.00000000000E+00 -0.00000000000E+00 -0.45593999997E+02  0.45594000000E+02  0.51100000000E-03 0. -1.
    9900012    2    1    2    0    0 -0.52865998286E+01 -0.91405070513E+00 -0.43067852106E+02  0.47787268308E+02  0.19999987522E+02 0.  0.
        -12    1    1    2    0    0  0.52865998286E+01  0.91405070513E+00  0.43067852106E+02  0.43400731692E+02  0.00000000000E+00 0.  1.
         11    1    3    3    0    0 -0.10366560412E+02  0.16590576614E+00 -0.26844642175E+02  0.28777211701E+02  0.51100000000E-03 0. -1.
        -11    1    3    3    0    0  0.22854297922E+01  0.24985651212E+01 -0.16906813053E+01  0.37847616222E+01  0.51100000000E-03 0.  1.
        -12    1    3    3    0    0  0.27945307911E+01 -0.35785215925E+01 -0.14532528625E+02  0.15225294984E+02  0.00000000000E+00 0.  1.
</event>
<event>
 7    1  0.1457722E-010  0.4778727E+02  0.7816164E-02  0.1312668E+00
        -11   -1    0    0    0    0  0.00000000000E+00  0.00000000000E+00  0.45593999997E+02  0.45594000000E+02  0.51100000000E-03 0. -1.
         11   -1    0    0    0    0 -0.00000000000E+00 -0.00000000000E+00 -0.45593999997E+02  0.45594000000E+02  0.51100000000E-03 0.  1.
    9900012    2    1    2    0    0  0.57271998074E+01  0.39786110066E+02  0.16367279649E+02  0.47787271724E+02  0.20000003098E+02 0.  0.
        -12    1    1    2    0    0 -0.57271998074E+01 -0.39786110066E+02 -0.16367279649E+02  0.43400728276E+02  0.00000000000E+00 0.  1.
         11    1    3    3    0    0  0.10335969897E+02  0.15654215794E+02  0.30646556810E+01  0.19007337018E+02  0.51100000000E-03 0. -1.
        -11    1    3    3    0    0 -0.45366053977E-01  0.89407311360E+00  0.26788605643E+01  0.28244856161E+01  0.51100000000E-03 0.  1.
         12    1    3    3    0    0 -0.45634040355E+01  0.23237821159E+02  0.10623763403E+02  0.25955449090E+02  0.00000000000E+00 0. -1.
</event>
<event>
 7    1  0.1457722E-010  0.4778727E+02  0.7816164E-02  0.1312668E+00
        -11   -1    0    0    0    0  0.00000000000E+00  0.00000000000E+00  0.45593999997E+02  0.45594000000E+02  0.51100000000E-03 0.  1.
         11   -1    0    0    0    0 -0.00000000000E+00 -0.00000000000E+00 -0.45593999997E+02  0.45594000000E+02  0.51100000000E-03 0. -1.
    9900012    2    1    2    0    0  0.19223867112E+02  0.38330607729E+02 -0.66955663712E+01  0.47787272303E+02  0.20000005738E+02 0.  0.
        -12    1    1    2    0    0 -0.19223867112E+02 -0.38330607729E+02  0.66955663712E+01  0.43400727697E+02  0.00000000000E+00 0.  1.
         11    1    3    3    0    0  0.13663843094E+02  0.14857965842E+02  0.76804706492E+00  0.20200238949E+02  0.51100000000E-03 0. -1.
        -11    1    3    3    0    0  0.34962003157E+00  0.14511364564E+02  0.48607633948E+00  0.14523711858E+02  0.51100000000E-03 0.  1.
        -12    1    3    3    0    0  0.52104039866E+01  0.89612773233E+01 -0.79496897756E+01  0.13063321496E+02  0.00000000000E+00 0.  1.
</event>
<event>
 7    1  0.1457722E-010  0.4778727E+02  0.7816164E-02  0.1312668E+00
        -11   -1    0    0    0    0  0.00000000000E+00  0.00000000000E+00  0.45593999997E+02  0.45594000000E+02  0.51100000000E-03 0. -1.
         11   -1    0    0    0    0 -0.00000000000E+00 -0.00000000000E+00 -0.45593999997E+02  0.45594000000E+02  0.51100000000E-03 0.  1.
    9900012    2    1    2    0    0 -0.30135398978E+02  0.27697729704E+02  0.14433185285E+02  0.47787270285E+02  0.19999996538E+02 0.  0.
        -12    1    1    2    0    0  0.30135398978E+02 -0.27697729704E+02 -0.14433185285E+02  0.43400729715E+02  0.00000000000E+00 0.  1.
         11    1    3    3    0    0 -0.19252357136E+02  0.21140887870E+02  0.14596954349E+02  0.32103916767E+02  0.51100000000E-03 0. -1.
        -11    1    3    3    0    0 -0.46945749483E+01 -0.70587778173E+00  0.30176309019E+01  0.56252461198E+01  0.51100000000E-03 0.  1.
         12    1    3    3    0    0 -0.61884668933E+01  0.72627196152E+01 -0.31813999656E+01  0.10058107399E+02  0.00000000000E+00 0. -1.
</event>
<event>
 7    1  0.1457722E-010  0.4778726E+02  0.7816164E-02  0.1312668E+00
        -11   -1    0    0    0    0  0.00000000000E+00  0.00000000000E+00  0.45593999997E+02  0.45594000000E+02  0.51100000000E-03 0. -1.
         11   -1    0    0    0    0 -0.00000000000E+00 -0.00000000000E+00 -0.45593999997E+02  0.45594000000E+02  0.51100000000E-03 0.  1.
    9900012    2    1    2    0    0  0.48073069935E-02 -0.43166199990E+02 -0.45058888727E+01  0.47787264071E+02  0.19999968203E+02 0.  0.
        -12    1    1    2    0    0 -0.48073069935E-02  0.43166199990E+02  0.45058888727E+01  0.43400735929E+02  0.00000000000E+00 0.  1.
         11    1    3    3    0    0  0.44540925420E+01 -0.29490784641E+01  0.20640193151E+01  0.57267949286E+01  0.51100000000E-03 0. -1.
        -11    1    3    3    0    0 -0.32830041498E+01 -0.16512486659E+02 -0.72193445503E+01  0.18318276882E+02  0.51100000000E-03 0.  1.
        -12    1    3    3    0    0 -0.11662810852E+01 -0.23704634867E+02  0.64943636250E+00  0.23742192260E+02  0.00000000000E+00 0.  1.
</event>
<event>
 7    1  0.1457722E-010  0.4778727E+02  0.7816164E-02  0.1312668E+00
        -11   -1    0    0    0    0  0.00000000000E+00  0.00000000000E+00  0.45593999997E+02  0.45594000000E+02  0.51100000000E-03 0. -1.
         11   -1    0    0    0    0 -0.00000000000E+00 -0.00000000000E+00 -0.45593999997E+02  0.45594000000E+02  0.51100000000E-03 0.  1.
    9900012    2    1    2    0    0 -0.27302942520E+02  0.29918195638E+02 -0.15590851808E+02  0.47787265437E+02  0.19999974433E+02 0.  0.
        -12    1    1    2    0    0  0.27302942520E+02 -0.29918195638E+02  0.15590851808E+02  0.43400734563E+02  0.00000000000E+00 0.  1.
         11    1    3    3    0    0 -0.51933741890E+01  0.41143298285E+00  0.13643455915E+01  0.53853367324E+01  0.51100000000E-03 0. -1.
        -11    1    3    3    0    0 -0.49855404375E+01  0.16834545765E+02 -0.79703478286E+01  0.19281700894E+02  0.51100000000E-03 0.  1.
         12    1    3    3    0    0 -0.17124027894E+02  0.12672216890E+02 -0.89848495707E+01  0.23120227811E+02  0.00000000000E+00 0. -1.
</event>
<event>
 7    1  0.1457722E-010  0.4778727E+02  0.7816164E-02  0.1312668E+00
        -11   -1    0    0    0    0  0.00000000000E+00  0.00000000000E+00  0.45593999997E+02  0.45594000000E+02  0.51100000000E-03 0.  1.
         11   -1    0    0    0    0 -0.00000000000E+00 -0.00000000000E+00 -0.45593999997E+02  0.45594000000E+02  0.51100000000E-03 0. -1.
    9900012    2    1    2    0    0  0.34096873560E+00  0.20700229949E+02 -0.38144562072E+02  0.47787269646E+02  0.19999993625E+02 0.  0.
        -12    1    1    2    0    0 -0.34096873560E+00 -0.20700229949E+02  0.38144562072E+02  0.43400730354E+02  0.00000000000E+00 0.  1.
         11    1    3    3    0    0  0.39744639914E+00 -0.13055281765E+01  0.67468573501E+00  0.15223562533E+01  0.51100000000E-03 0. -1.
        -11    1    3    3    0    0 -0.32835318999E+01  0.16488956847E+02 -0.18661048382E+02  0.25117762771E+02  0.51100000000E-03 0.  1.
         12    1    3    3    0    0  0.32270542363E+01  0.55168012783E+01 -0.20158199424E+02  0.21147150622E+02  0.00000000000E+00 0. -1.
</event>
<event>
 7    1  0.1457722E-010  0.4778727E+02  0.7816164E-02  0.1312668E+00
        -11   -1    0    0    0    0  0.00000000000E+00  0.00000000000E+00  0.45593999997E+02  0.45594000000E+02  0.51100000000E-03 0. -1.
         11   -1    0    0    0    0 -0.00000000000E+00 -0.00000000000E+00 -0.45593999997E+02  0.45594000000E+02  0.51100000000E-03 0.  1.
    9900012    2    1    2    0    0 -0.22707425883E+02  0.32009555611E+02  0.18530635351E+02  0.47787270892E+02  0.19999999303E+02 0.  0.
        -12    1    1    2    0    0  0.22707425883E+02 -0.32009555611E+02 -0.18530635351E+02  0.43400729108E+02  0.00000000000E+00 0.  1.
         11    1    3    3    0    0 -0.11605092264E+02  0.11072887488E+02  0.11689604795E+02  0.19847767238E+02  0.51100000000E-03 0. -1.
        -11    1    3    3    0    0 -0.34437344238E+01  0.17810625966E+02  0.17461233350E+01  0.18224342266E+02  0.51100000000E-03 0.  1.
         12    1    3    3    0    0 -0.76585991955E+01  0.31260421565E+01  0.50949072202E+01  0.97151613874E+01  0.00000000000E+00 0. -1.
</event>
<event>
 7    1  0.1457722E-010  0.4778727E+02  0.7816164E-02  0.1312668E+00
        -11   -1    0    0    0    0  0.00000000000E+00  0.00000000000E+00  0.45593999997E+02  0.45594000000E+02  0.51100000000E-03 0.  1.
         11   -1    0    0    0    0 -0.00000000000E+00 -0.00000000000E+00 -0.45593999997E+02  0.45594000000E+02  0.51100000000E-03 0. -1.
    9900012    2    1    2    0    0  0.33010720922E+00 -0.43101865090E+02  0.50737915758E+01  0.47787272979E+02  0.20000008820E+02 0.  0.
        -12    1    1    2    0    0 -0.33010720922E+00  0.43101865090E+02 -0.50737915758E+01  0.43400727021E+02  0.00000000000E+00 0.  1.
         11    1    3    3    0    0 -0.11256710138E+01 -0.16787026354E+02 -0.34288459913E+00  0.16828219132E+02  0.51100000000E-03 0. -1.
        -11    1    3    3    0    0 -0.18176758600E+01 -0.22048985628E+02  0.96290900608E+01  0.24128429050E+02  0.51100000000E-03 0.  1.
         12    1    3    3    0    0  0.32734540830E+01 -0.42658531078E+01 -0.42124138859E+01  0.68306247969E+01  0.00000000000E+00 0. -1.
</event>
<event>
 7    1  0.1457722E-010  0.4778727E+02  0.7816164E-02  0.1312668E+00
        -11   -1    0    0    0    0  0.00000000000E+00  0.00000000000E+00  0.45593999997E+02  0.45594000000E+02  0.51100000000E-03 0. -1.
         11   -1    0    0    0    0 -0.00000000000E+00 -0.00000000000E+00 -0.45593999997E+02  0.45594000000E+02  0.51100000000E-03 0.  1.
    9900012    2    1    2    0    0  0.38414147802E+02 -0.19134652243E+02  0.64685094962E+01  0.47787270940E+02  0.19999999526E+02 0.  0.
        -12    1    1    2    0    0 -0.38414147802E+02  0.19134652243E+02 -0.64685094962E+01  0.43400729060E+02  0.00000000000E+00 0.  1.
         11    1    3    3    0    0  0.12202937270E+02 -0.11128350629E+02  0.58648899079E+01  0.17525661175E+02  0.51100000000E-03 0. -1.
        -11    1    3    3    0    0  0.27630672941E+01 -0.54554799599E+00 -0.43300443193E+01  0.51654087501E+01  0.51100000000E-03 0.  1.
         12    1    3    3    0    0  0.23448143237E+02 -0.74607536184E+01  0.49336639075E+01  0.25096201015E+02  0.00000000000E+00 0. -1.
</event>
<event>
 7    1  0.1457722E-010  0.4778726E+02  0.7816164E-02  0.1312668E+00
        -11   -1    0    0    0    0  0.00000000000E+00  0.00000000000E+00  0.45593999997E+02  0.45594000000E+02  0.51100000000E-03 0.  1.
         11   -1    0    0    0    0 -0.00000000000E+00 -0.00000000000E+00 -0.45593999997E+02  0.45594000000E+02  0.51100000000E-03 0. -1.
    9900012    2    1    2    0    0  0.15914353297E+02 -0.18937582132E+02 -0.35661256420E+02  0.47787264207E+02  0.19999968827E+02 0.  0.
        -12    1    1    2    0    0 -0.15914353297E+02  0.18937582132E+02  0.35661256420E+02  0.43400735793E+02  0.00000000000E+00 0.  1.
         11    1    3    3    0    0  0.13593313509E+02 -0.22249029134E+02 -0.30721925680E+02  0.40294344359E+02  0.51100000000E-03 0. -1.
        -11    1    3    3    0    0  0.33128694611E+01  0.21705448417E+01 -0.43156378567E+01  0.58575676990E+01  0.51100000000E-03 0.  1.
         12    1    3    3    0    0 -0.99182967290E+00  0.11409021603E+01 -0.62369288308E+00  0.16353521492E+01  0.00000000000E+00 0. -1.
</event>
<event>
 7    1  0.1457722E-010  0.4778728E+02  0.7816164E-02  0.1312668E+00
        -11   -1    0    0    0    0  0.00000000000E+00  0.00000000000E+00  0.45593999997E+02  0.45594000000E+02  0.51100000000E-03 0. -1.
         11   -1    0    0    0    0 -0.00000000000E+00 -0.00000000000E+00 -0.45593999997E+02  0.45594000000E+02  0.51100000000E-03 0.  1.
    9900012    2    1    2    0    0 -0.19697890187E+02  0.38609093381E+02  0.22256898535E+01  0.47787278061E+02  0.20000031990E+02 0.  0.
        -12    1    1    2    0    0  0.19697890187E+02 -0.38609093381E+02 -0.22256898535E+01  0.43400721939E+02  0.00000000000E+00 0.  1.
         11    1    3    3    0    0 -0.11019873739E+02  0.10166851977E+02  0.52783607128E+01  0.15895395195E+02  0.51100000000E-03 0. -1.
        -11    1    3    3    0    0  0.18759907948E+01  0.45593550164E+01 -0.30186744924E+01  0.57809562859E+01  0.51100000000E-03 0.  1.
         12    1    3    3    0    0 -0.10554007243E+02  0.23882886388E+02 -0.33996366996E-01  0.26110926580E+02  0.00000000000E+00 0. -1.
</event>
<event>
 7    1  0.1457722E-010  0.4778732E+02  0.7816164E-02  0.1312668E+00
        -11   -1    0    0    0    0  0.00000000000E+00  0.00000000000E+00  0.45593999997E+02  0.45594000000E+02  0.51100000000E-03 0. -1.
         11   -1    0    0    0    0 -0.00000000000E+00 -0.00000000000E+00 -0.45593999997E+02  0.45594000000E+02  0.51100000000E-03 0.  1.
    9900012    2    1    2    0    0  0.11612708295E+02 -0.36509799805E+02 -0.20391129305E+02  0.47787324543E+02  0.20000243922E+02 0.  0.
        -12    1    1    2    0    0 -0.11612708295E+02  0.36509799805E+02  0.20391129305E+02  0.43400675457E+02  0.00000000000E+00 0.  1.
         11    1    3    3    0    0  0.37769089463E+01 -0.71279909436E+01 -0.84967438936E+01  0.11716140710E+02  0.51100000000E-03 0. -1.
        -11    1    3    3    0    0  0.14829921053E+01 -0.12791876486E+02 -0.12965933400E+02  0.18274211305E+02  0.51100000000E-03 0.  1.
        -12    1    3    3    0    0  0.63528072438E+01 -0.16589932375E+02  0.10715479885E+01  0.17796972529E+02  0.00000000000E+00 0.  1.
</event>
<event>
 7    1  0.1457722E-010  0.4778727E+02  0.7816164E-02  0.1312668E+00
        -11   -1    0    0    0    0  0.00000000000E+00  0.00000000000E+00  0.45593999997E+02  0.45594000000E+02  0.51100000000E-03 0. -1.
         11   -1    0    0    0    0 -0.00000000000E+00 -0.00000000000E+00 -0.45593999997E+02  0.45594000000E+02  0.51100000000E-03 0.  1.
    9900012    2    1    2    0    0  0.10195267841E+01 -0.34434556787E+02  0.26397824720E+02  0.47787270905E+02  0.19999999366E+02 0.  0.
        -12    1    1    2    0    0 -0.10195267841E+01  0.34434556787E+02 -0.26397824720E+02  0.43400729095E+02  0.00000000000E+00 0.  1.
         11    1    3    3    0    0  0.92835124222E+00 -0.76928710962E+01  0.87600445000E+00  0.77980437155E+01  0.51100000000E-03 0. -1.
        -11    1    3    3    0    0  0.82908511510E+00 -0.50962006238E+01  0.15091783716E+02  0.15950566727E+02  0.51100000000E-03 0.  1.
        -12    1    3    3    0    0 -0.73790957318E+00 -0.21645485068E+02  0.10430036554E+02  0.24038660463E+02  0.00000000000E+00 0.  1.
</event>
<event>
 7    1  0.1457722E-010  0.4778727E+02  0.7816164E-02  0.1312668E+00
        -11   -1    0    0    0    0  0.00000000000E+00  0.00000000000E+00  0.45593999997E+02  0.45594000000E+02  0.51100000000E-03 0.  1.
         11   -1    0    0    0    0 -0.00000000000E+00 -0.00000000000E+00 -0.45593999997E+02  0.45594000000E+02  0.51100000000E-03 0. -1.
    9900012    2    1    2    0    0  0.43063384738E+02 -0.51778015052E+01  0.15358485598E+01  0.47787267698E+02  0.19999984743E+02 0.  0.
        -12    1    1    2    0    0 -0.43063384738E+02  0.51778015052E+01 -0.15358485598E+01  0.43400732302E+02  0.00000000000E+00 0.  1.
         11    1    3    3    0    0  0.31677879006E+02 -0.92538446389E+01 -0.26833244503E+01  0.33110751868E+02  0.51100000000E-03 0. -1.
        -11    1    3    3    0    0  0.59185701083E+00 -0.11770404501E+01  0.21115160576E+01  0.24888188494E+01  0.51100000000E-03 0.  1.
         12    1    3    3    0    0  0.10793648721E+02  0.52530835838E+01  0.21076569525E+01  0.12187696980E+02  0.00000000000E+00 0. -1.
</event>
<event>
 7    1  0.1457722E-010  0.4778727E+02  0.7816164E-02  0.1312668E+00
        -11   -1    0    0    0    0  0.00000000000E+00  0.00000000000E+00  0.45593999997E+02  0.45594000000E+02  0.51100000000E-03 0. -1.
         11   -1    0    0    0    0 -0.00000000000E+00 -0.00000000000E+00 -0.45593999997E+02  0.45594000000E+02  0.51100000000E-03 0.  1.
    9900012    2    1    2    0    0  0.30475394270E+02  0.29496213994E+02 -0.92112332062E+01  0.47787272897E+02  0.20000008445E+02 0.  0.
        -12    1    1    2    0    0 -0.30475394270E+02 -0.29496213994E+02  0.92112332062E+01  0.43400727103E+02  0.00000000000E+00 0.  1.
         11    1    3    3    0    0  0.30254239402E+01  0.88309633389E+01 -0.71703920691E+00  0.93623313868E+01  0.51100000000E-03 0. -1.
        -11    1    3    3    0    0  0.18652095008E+02  0.60713809557E+01 -0.54888320123E+00  0.19623037174E+02  0.51100000000E-03 0.  1.
        -12    1    3    3    0    0  0.87978753222E+01  0.14593869699E+02 -0.79453107980E+01  0.18801904336E+02  0.00000000000E+00 0.  1.
</event>
<event>
 7    1  0.1457722E-010  0.4778727E+02  0.7816164E-02  0.1312668E+00
        -11   -1    0    0    0    0  0.00000000000E+00  0.00000000000E+00  0.45593999997E+02  0.45594000000E+02  0.51100000000E-03 0. -1.
         11   -1    0    0    0    0 -0.00000000000E+00 -0.00000000000E+00 -0.45593999997E+02  0.45594000000E+02  0.51100000000E-03 0.  1.
    9900012    2    1    2    0    0  0.34303996631E+02  0.25971976016E+02  0.56846996060E+01  0.47787268063E+02  0.19999986407E+02 0.  0.
        -12    1    1    2    0    0 -0.34303996631E+02 -0.25971976016E+02 -0.56846996060E+01  0.43400731937E+02  0.00000000000E+00 0.  1.
         11    1    3    3    0    0  0.16068762761E+02  0.11463135915E+02  0.77235058365E+01  0.21195781758E+02  0.51100000000E-03 0. -1.
        -11    1    3    3    0    0  0.21160763416E+01 -0.83184453402E+00 -0.36290122019E+01  0.42824612357E+01  0.51100000000E-03 0.  1.
         12    1    3    3    0    0  0.16119157528E+02  0.15340684636E+02  0.15902059714E+01  0.22309025069E+02  0.00000000000E+00 0. -1.
</event>
<event>
 7    1  0.1457722E-010  0.4778727E+02  0.7816164E-02  0.1312668E+00
        -11   -1    0    0    0    0  0.00000000000E+00  0.00000000000E+00  0.45593999997E+02  0.45594000000E+02  0.51100000000E-03 0.  1.
         11   -1    0    0    0    0 -0.00000000000E+00 -0.00000000000E+00 -0.45593999997E+02  0.45594000000E+02  0.51100000000E-03 0. -1.
    9900012    2    1    2    0    0 -0.17353995217E+02  0.19795669780E+02 -0.34504981338E+02  0.47787269255E+02  0.19999991843E+02 0.  0.
        -12    1    1    2    0    0  0.17353995217E+02 -0.19795669780E+02  0.34504981338E+02  0.43400730745E+02  0.00000000000E+00 0.  1.
         11    1    3    3    0    0 -0.96307453334E+01  0.15082094913E+02 -0.25607392272E+02  0.31240348620E+02  0.51100000000E-03 0. -1.
        -11    1    3    3    0    0  0.79918390951E-01  0.44918169393E+01  0.27655002558E+00  0.45010317199E+01  0.51100000000E-03 0.  1.
        -12    1    3    3    0    0 -0.78031682741E+01  0.22175792765E+00 -0.91741390913E+01  0.12045888915E+02  0.00000000000E+00 0.  1.
</event>
<event>
 7    1  0.1457722E-010  0.4778727E+02  0.7816164E-02  0.1312668E+00
        -11   -1    0    0    0    0  0.00000000000E+00  0.00000000000E+00  0.45593999997E+02  0.45594000000E+02  0.51100000000E-03 0. -1.
         11   -1    0    0    0    0 -0.00000000000E+00 -0.00000000000E+00 -0.45593999997E+02  0.45594000000E+02  0.51100000000E-03 0.  1.
    9900012    2    1    2    0    0 -0.36448999993E+02  0.91949172369E+01  0.21692094197E+02  0.47787273576E+02  0.20000011542E+02 0.  0.
        -12    1    1    2    0    0  0.36448999993E+02 -0.91949172369E+01 -0.21692094197E+02  0.43400726424E+02  0.00000000000E+00 0.  1.
         11    1    3    3    0    0 -0.10494951213E+02  0.10563714984E+02  0.10862026768E+02  0.18431486673E+02  0.51100000000E-03 0. -1.
        -11    1    3    3    0    0 -0.38146219606E+01 -0.13756639652E+01 -0.11067498258E+01  0.42034137895E+01  0.51100000000E-03 0.  1.
        -12    1    3    3    0    0 -0.22139426819E+02  0.68662177205E-02  0.11936817255E+02  0.25152373113E+02  0.00000000000E+00 0.  1.
</event>
<event>
 7    1  0.1457722E-010  0.4778727E+02  0.7816164E-02  0.1312668E+00
        -11   -1    0    0    0    0  0.00000000000E+00  0.00000000000E+00  0.45593999997E+02  0.45594000000E+02  0.51100000000E-03 0.  1.
         11   -1    0    0    0    0 -0.00000000000E+00 -0.00000000000E+00 -0.45593999997E+02  0.45594000000E+02  0.51100000000E-03 0. -1.
    9900012    2    1    2    0    0 -0.14561186937E+02 -0.40461822846E+02 -0.58682301393E+01  0.47787269615E+02  0.19999993481E+02 0.  0.
        -12    1    1    2    0    0  0.14561186937E+02  0.40461822846E+02  0.58682301393E+01  0.43400730385E+02  0.00000000000E+00 0.  1.
         11    1    3    3    0    0  0.61188812399E+00 -0.67843133673E+01 -0.56098104326E+01  0.88244709922E+01  0.51100000000E-03 0.  1.
        -11    1    3    3    0    0 -0.13172554525E+02 -0.15750349127E+02 -0.28842799610E+01  0.20734241281E+02  0.51100000000E-03 0. -1.
        -12    1    3    3    0    0 -0.20005205359E+01 -0.17927160351E+02  0.26258602542E+01  0.18228557342E+02  0.00000000000E+00 0.  1.
</event>
<event>
 7    1  0.1457722E-010  0.4778727E+02  0.7816164E-02  0.1312668E+00
        -11   -1    0    0    0    0  0.00000000000E+00  0.00000000000E+00  0.45593999997E+02  0.45594000000E+02  0.51100000000E-03 0.  1.
         11   -1    0    0    0    0 -0.00000000000E+00 -0.00000000000E+00 -0.45593999997E+02  0.45594000000E+02  0.51100000000E-03 0. -1.
    9900012    2    1    2    0    0 -0.11950205811E+02  0.33769633101E+01 -0.41586200271E+02  0.47787270131E+02  0.19999995837E+02 0.  0.
        -12    1    1    2    0    0  0.11950205811E+02 -0.33769633101E+01  0.41586200271E+02  0.43400729869E+02  0.00000000000E+00 0.  1.
         11    1    3    3    0    0  0.23793411090E+01  0.50613489260E+01 -0.10007002275E+02  0.11463795700E+02  0.51100000000E-03 0. -1.
        -11    1    3    3    0    0 -0.11002341914E+02  0.33225735973E+01 -0.16670592933E+02  0.20248449123E+02  0.51100000000E-03 0.  1.
        -12    1    3    3    0    0 -0.33272050061E+01 -0.50069592131E+01 -0.14908605064E+02  0.16075025308E+02  0.00000000000E+00 0.  1.
</event>
<event>
 7    1  0.1457722E-010  0.4778728E+02  0.7816164E-02  0.1312668E+00
        -11   -1    0    0    0    0  0.00000000000E+00  0.00000000000E+00  0.45593999997E+02  0.45594000000E+02  0.51100000000E-03 0.  1.
         11   -1    0    0    0    0 -0.00000000000E+00 -0.00000000000E+00 -0.45593999997E+02  0.45594000000E+02  0.51100000000E-03 0. -1.
    9900012    2    1    2    0    0  0.36243537316E+02  0.23810893944E+02  0.17521180376E+01  0.47787278978E+02  0.20000036173E+02 0.  0.
        -12    1    1    2    0    0 -0.36243537316E+02 -0.23810893944E+02 -0.17521180376E+01  0.43400721022E+02  0.00000000000E+00 0.  1.
         11    1    3    3    0    0  0.73231708970E+01  0.88198063800E+01  0.85151694867E+01  0.14280263591E+02  0.51100000000E-03 0. -1.
        -11    1    3    3    0    0  0.10219411307E+02  0.33042939768E+01 -0.16068257273E+01  0.10859862583E+02  0.51100000000E-03 0.  1.
         12    1    3    3    0    0  0.18700955112E+02  0.11686793588E+02 -0.51562257218E+01  0.22647152805E+02  0.00000000000E+00 0. -1.
</event>
<event>
 7    1  0.1457722E-010  0.4778725E+02  0.7816164E-02  0.1312668E+00
        -11   -1    0    0    0    0  0.00000000000E+00  0.00000000000E+00  0.45593999997E+02  0.45594000000E+02  0.51100000000E-03 0.  1.
         11   -1    0    0    0    0 -0.00000000000E+00 -0.00000000000E+00 -0.45593999997E+02  0.45594000000E+02  0.51100000000E-03 0. -1.
    9900012    2    1    2    0    0  0.11656935524E+02  0.52125426469E+01 -0.41479763396E+02  0.47787245190E+02  0.19999882121E+02 0.  0.
        -12    1    1    2    0    0 -0.11656935524E+02 -0.52125426469E+01  0.41479763396E+02  0.43400754810E+02  0.00000000000E+00 0.  1.
         11    1    3    3    0    0  0.45831045958E+01  0.76500737120E+01 -0.23153770584E+02  0.24811802998E+02  0.51100000000E-03 0. -1.
        -11    1    3    3    0    0 -0.29080651489E+01 -0.39223263266E+00 -0.14771560578E+01  0.32852213972E+01  0.51100000000E-03 0.  1.
        -12    1    3    3    0    0  0.99818960766E+01 -0.20452984324E+01 -0.16848836755E+02  0.19690220795E+02  0.00000000000E+00 0.  1.
</event>
<event>
 7    1  0.1457722E-010  0.4778727E+02  0.7816164E-02  0.1312668E+00
        -11   -1    0    0    0    0  0.00000000000E+00  0.00000000000E+00  0.45593999997E+02  0.45594000000E+02  0.51100000000E-03 0.  1.
         11   -1    0    0    0    0 -0.00000000000E+00 -0.00000000000E+00 -0.45593999997E+02  0.45594000000E+02  0.51100000000E-03 0. -1.
    9900012    2    1    2    0    0 -0.38687845909E+02  0.18954128968E+02  0.52550158723E+01  0.47787267082E+02  0.19999981932E+02 0.  0.
        -12    1    1    2    0    0  0.38687845909E+02 -0.18954128968E+02 -0.52550158723E+01  0.43400732918E+02  0.00000000000E+00 0.  1.
         11    1    3    3    0    0 -0.26557716688E+02  0.15855619074E+02 -0.20456374640E+01  0.30998348421E+02  0.51100000000E-03 0. -1.
        -11    1    3    3    0    0 -0.82605746367E+01  0.34420301791E+01  0.50745048920E+00  0.89633794599E+01  0.51100000000E-03 0.  1.
        -12    1    3    3    0    0 -0.38695545841E+01 -0.34352028479E+00  0.67932028470E+01  0.78255392010E+01  0.00000000000E+00 0.  1.
</event>
<event>
 7    1  0.1457722E-010  0.4778727E+02  0.7816164E-02  0.1312668E+00
        -11   -1    0    0    0    0  0.00000000000E+00  0.00000000000E+00  0.45593999997E+02  0.45594000000E+02  0.51100000000E-03 0.  1.
         11   -1    0    0    0    0 -0.00000000000E+00 -0.00000000000E+00 -0.45593999997E+02  0.45594000000E+02  0.51100000000E-03 0. -1.
    9900012    2    1    2    0    0 -0.30896789234E+02 -0.11168520081E+02 -0.28359760270E+02  0.47787269265E+02  0.19999991886E+02 0.  0.
        -12    1    1    2    0    0  0.30896789234E+02  0.11168520081E+02  0.28359760270E+02  0.43400730735E+02  0.00000000000E+00 0.  1.
         11    1    3    3    0    0 -0.66338519235E+01 -0.92743863616E+01 -0.11297774837E+02  0.16051851926E+02  0.51100000000E-03 0.  1.
        -11    1    3    3    0    0 -0.37514453009E+01 -0.41186984092E+01 -0.11698995723E+01  0.56925990288E+01  0.51100000000E-03 0. -1.
        -12    1    3    3    0    0 -0.20511492010E+02  0.22245646900E+01 -0.15892085860E+02  0.26042818310E+02  0.00000000000E+00 0.  1.
</event>
<event>
 7    1  0.1457722E-010  0.4778723E+02  0.7816164E-02  0.1312668E+00
        -11   -1    0    0    0    0  0.00000000000E+00  0.00000000000E+00  0.45593999997E+02  0.45594000000E+02  0.51100000000E-03 0. -1.
         11   -1    0    0    0    0 -0.00000000000E+00 -0.00000000000E+00 -0.45593999997E+02  0.45594000000E+02  0.51100000000E-03 0.  1.
    9900012    2    1    2    0    0 -0.20385523958E+02  0.15963294184E+02  0.34831452831E+02  0.47787234401E+02  0.19999832928E+02 0.  0.
        -12    1    1    2    0    0  0.20385523958E+02 -0.15963294184E+02 -0.34831452831E+02  0.43400765599E+02  0.00000000000E+00 0.  1.
         11    1    3    3    0    0 -0.17874455676E+02  0.15454793814E+02  0.32204320024E+02  0.39943272851E+02  0.51100000000E-03 0. -1.
        -11    1    3    3    0    0 -0.46912836760E+01 -0.79912783622E+00  0.22841388661E+01  0.52786398294E+01  0.51100000000E-03 0.  1.
         12    1    3    3    0    0  0.21802153938E+01  0.13076282066E+01  0.34299394048E+00  0.25653217212E+01  0.00000000000E+00 0. -1.
</event>
<event>
 7    1  0.1457722E-010  0.4778727E+02  0.7816164E-02  0.1312668E+00
        -11   -1    0    0    0    0  0.00000000000E+00  0.00000000000E+00  0.45593999997E+02  0.45594000000E+02  0.51100000000E-03 0.  1.
         11   -1    0    0    0    0 -0.00000000000E+00 -0.00000000000E+00 -0.45593999997E+02  0.45594000000E+02  0.51100000000E-03 0. -1.
    9900012    2    1    2    0    0 -0.88238014976E+01 -0.38013007291E+02 -0.18994076563E+02  0.47787272580E+02  0.20000006999E+02 0.  0.
        -12    1    1    2    0    0  0.88238014976E+01  0.38013007291E+02  0.18994076563E+02  0.43400727420E+02  0.00000000000E+00 0.  1.
         11    1    3    3    0    0 -0.60942042841E+01 -0.12667954768E+02 -0.19005400996E+01  0.14185501640E+02  0.51100000000E-03 0. -1.
        -11    1    3    3    0    0 -0.11840430340E+01 -0.22759148003E+02 -0.19302733568E+02  0.29865972262E+02  0.51100000000E-03 0.  1.
        -12    1    3    3    0    0 -0.15455541795E+01 -0.25859045201E+01  0.22091971046E+01  0.37357986771E+01  0.00000000000E+00 0.  1.
</event>
<event>
 7    1  0.1457722E-010  0.4778727E+02  0.7816164E-02  0.1312668E+00
        -11   -1    0    0    0    0  0.00000000000E+00  0.00000000000E+00  0.45593999997E+02  0.45594000000E+02  0.51100000000E-03 0. -1.
         11   -1    0    0    0    0 -0.00000000000E+00 -0.00000000000E+00 -0.45593999997E+02  0.45594000000E+02  0.51100000000E-03 0.  1.
    9900012    2    1    2    0    0 -0.40466979139E+02 -0.15215467314E+02  0.38126745474E+01  0.47787270359E+02  0.19999996873E+02 0.  0.
        -12    1    1    2    0    0  0.40466979139E+02  0.15215467314E+02 -0.38126745474E+01  0.43400729641E+02  0.00000000000E+00 0.  1.
         11    1    3    3    0    0  0.14671939787E+01 -0.63787962837E+00 -0.12526950413E+01  0.20319433355E+01  0.51100000000E-03 0.  1.
        -11    1    3    3    0    0 -0.33406335669E+02 -0.10226109243E+02  0.26700850301E-01  0.34936475012E+02  0.51100000000E-03 0. -1.
         12    1    3    3    0    0 -0.85278374484E+01 -0.43514784423E+01  0.50386687383E+01  0.10818852011E+02  0.00000000000E+00 0. -1.
</event>
<event>
 7    1  0.1457722E-010  0.4778727E+02  0.7816164E-02  0.1312668E+00
        -11   -1    0    0    0    0  0.00000000000E+00  0.00000000000E+00  0.45593999997E+02  0.45594000000E+02  0.51100000000E-03 0. -1.
         11   -1    0    0    0    0 -0.00000000000E+00 -0.00000000000E+00 -0.45593999997E+02  0.45594000000E+02  0.51100000000E-03 0.  1.
    9900012    2    1    2    0    0 -0.24903259465E+02 -0.47831977647E+01  0.35221752951E+02  0.47787271967E+02  0.20000004206E+02 0.  0.
        -12    1    1    2    0    0  0.24903259465E+02  0.47831977647E+01 -0.35221752951E+02  0.43400728033E+02  0.00000000000E+00 0.  1.
         11    1    3    3    0    0 -0.10158450505E+02 -0.20837766140E+01  0.23179977656E+02  0.25393849768E+02  0.51100000000E-03 0. -1.
        -11    1    3    3    0    0 -0.91545590867E+01 -0.33095160451E+01  0.13443618364E+02  0.16597883103E+02  0.51100000000E-03 0.  1.
        -12    1    3    3    0    0 -0.55902498737E+01  0.61009489439E+00 -0.14018430685E+01  0.57955390965E+01  0.00000000000E+00 0.  1.
</event>
<event>
 7    1  0.1457722E-010  0.4778727E+02  0.7816164E-02  0.1312668E+00
        -11   -1    0    0    0    0  0.00000000000E+00  0.00000000000E+00  0.45593999997E+02  0.45594000000E+02  0.51100000000E-03 0.  1.
         11   -1    0    0    0    0 -0.00000000000E+00 -0.00000000000E+00 -0.45593999997E+02  0.45594000000E+02  0.51100000000E-03 0. -1.
    9900012    2    1    2    0    0  0.28695649969E+02 -0.13565246555E+01 -0.32532180915E+02  0.47787270958E+02  0.19999999608E+02 0.  0.
        -12    1    1    2    0    0 -0.28695649969E+02  0.13565246555E+01  0.32532180915E+02  0.43400729042E+02  0.00000000000E+00 0.  1.
         11    1    3    3    0    0  0.11368399763E+02 -0.59921916862E+01 -0.11641881260E+02  0.17340134772E+02  0.51100000000E-03 0. -1.
        -11    1    3    3    0    0  0.13666447651E+02  0.36134472850E+01 -0.22291844475E+02  0.26396119470E+02  0.51100000000E-03 0.  1.
        -12    1    3    3    0    0  0.36608025554E+01  0.10222197456E+01  0.14015448207E+01  0.40510167171E+01  0.00000000000E+00 0.  1.
</event>
<event>
 7    1  0.1457722E-010  0.4778727E+02  0.7816164E-02  0.1312668E+00
        -11   -1    0    0    0    0  0.00000000000E+00  0.00000000000E+00  0.45593999997E+02  0.45594000000E+02  0.51100000000E-03 0.  1.
         11   -1    0    0    0    0 -0.00000000000E+00 -0.00000000000E+00 -0.45593999997E+02  0.45594000000E+02  0.51100000000E-03 0. -1.
    9900012    2    1    2    0    0 -0.19115198144E+02  0.35643350118E+02 -0.15741172349E+02  0.47787265967E+02  0.19999976850E+02 0.  0.
        -12    1    1    2    0    0  0.19115198144E+02 -0.35643350118E+02  0.15741172349E+02  0.43400734033E+02  0.00000000000E+00 0.  1.
         11    1    3    3    0    0 -0.13279692538E+02  0.19266903603E+02 -0.11035674297E+02  0.25871797692E+02  0.51100000000E-03 0. -1.
        -11    1    3    3    0    0 -0.74697018589E+01  0.48913102577E+01  0.10054608627E+01  0.89851162322E+01  0.51100000000E-03 0.  1.
         12    1    3    3    0    0  0.16341962531E+01  0.11485136257E+02 -0.57109589147E+01  0.12930352043E+02  0.00000000000E+00 0. -1.
</event>
<event>
 7    1  0.1457722E-010  0.4778727E+02  0.7816164E-02  0.1312668E+00
        -11   -1    0    0    0    0  0.00000000000E+00  0.00000000000E+00  0.45593999997E+02  0.45594000000E+02  0.51100000000E-03 0.  1.
         11   -1    0    0    0    0 -0.00000000000E+00 -0.00000000000E+00 -0.45593999997E+02  0.45594000000E+02  0.51100000000E-03 0. -1.
    9900012    2    1    2    0    0 -0.28796683438E+02 -0.14513932830E+02 -0.29046865221E+02  0.47787267260E+02  0.19999982744E+02 0.  0.
        -12    1    1    2    0    0  0.28796683438E+02  0.14513932830E+02  0.29046865221E+02  0.43400732740E+02  0.00000000000E+00 0.  1.
         11    1    3    3    0    0 -0.67676548565E+01 -0.97814719250E+01 -0.17620863079E+02  0.21259660421E+02  0.51100000000E-03 0. -1.
        -11    1    3    3    0    0 -0.48149083280E+01  0.11003177911E+01  0.21517633225E+00  0.49437174842E+01  0.51100000000E-03 0.  1.
        -12    1    3    3    0    0 -0.17214120253E+02 -0.58327786957E+01 -0.11641178474E+02  0.21583889355E+02  0.00000000000E+00 0.  1.
</event>
<event>
 7    1  0.1457722E-010  0.4778727E+02  0.7816164E-02  0.1312668E+00
        -11   -1    0    0    0    0  0.00000000000E+00  0.00000000000E+00  0.45593999997E+02  0.45594000000E+02  0.51100000000E-03 0.  1.
         11   -1    0    0    0    0 -0.00000000000E+00 -0.00000000000E+00 -0.45593999997E+02  0.45594000000E+02  0.51100000000E-03 0. -1.
    9900012    2    1    2    0    0  0.11834446386E+02  0.13644588649E+02 -0.39463834752E+02  0.47787272195E+02  0.20000005244E+02 0.  0.
        -12    1    1    2    0    0 -0.11834446386E+02 -0.13644588649E+02  0.39463834752E+02  0.43400727805E+02  0.00000000000E+00 0.  1.
         11    1    3    3    0    0  0.15230684514E+02  0.79012316864E+01 -0.29862951197E+02  0.34441240793E+02  0.51100000000E-03 0. -1.
        -11    1    3    3    0    0 -0.28891279005E+00  0.60824939006E+01 -0.56367477433E+01  0.82977784999E+01  0.51100000000E-03 0.  1.
        -12    1    3    3    0    0 -0.31073253379E+01 -0.33913693757E+00 -0.39641358124E+01  0.50482529014E+01  0.00000000000E+00 0.  1.
</event>
<event>
 7    1  0.1457722E-010  0.4778727E+02  0.7816164E-02  0.1312668E+00
        -11   -1    0    0    0    0  0.00000000000E+00  0.00000000000E+00  0.45593999997E+02  0.45594000000E+02  0.51100000000E-03 0.  1.
         11   -1    0    0    0    0 -0.00000000000E+00 -0.00000000000E+00 -0.45593999997E+02  0.45594000000E+02  0.51100000000E-03 0. -1.
    9900012    2    1    2    0    0  0.90891894571E+01  0.10336002383E+02 -0.41160384073E+02  0.47787268125E+02  0.19999986689E+02 0.  0.
        -12    1    1    2    0    0 -0.90891894571E+01 -0.10336002383E+02  0.41160384073E+02  0.43400731875E+02  0.00000000000E+00 0.  1.
         11    1    3    3    0    0  0.14487911953E+01 -0.33827598056E+01 -0.38743170212E+01  0.53434438775E+01  0.51100000000E-03 0. -1.
        -11    1    3    3    0    0  0.55265837143E+01  0.14921265654E+02 -0.23094403072E+02  0.28045298176E+02  0.51100000000E-03 0.  1.
         12    1    3    3    0    0  0.21138145475E+01 -0.12025034647E+01 -0.14191663979E+02  0.14398526071E+02  0.00000000000E+00 0. -1.
</event>
<event>
 7    1  0.1457722E-010  0.4778727E+02  0.7816164E-02  0.1312668E+00
        -11   -1    0    0    0    0  0.00000000000E+00  0.00000000000E+00  0.45593999997E+02  0.45594000000E+02  0.51100000000E-03 0. -1.
         11   -1    0    0    0    0 -0.00000000000E+00 -0.00000000000E+00 -0.45593999997E+02  0.45594000000E+02  0.51100000000E-03 0.  1.
    9900012    2    1    2    0    0  0.36235842334E+02  0.23758527513E+02  0.24737091154E+01  0.47787272633E+02  0.20000007242E+02 0.  0.
        -12    1    1    2    0    0 -0.36235842334E+02 -0.23758527513E+02 -0.24737091154E+01  0.43400727367E+02  0.00000000000E+00 0.  1.
         11    1    3    3    0    0  0.67898974379E+01  0.10800075433E+02 -0.33090383220E+01  0.13179304665E+02  0.51100000000E-03 0.  1.
        -11    1    3    3    0    0  0.24299037345E+02  0.14007277684E+02  0.75848886065E+01  0.29054734200E+02  0.51100000000E-03 0. -1.
         12    1    3    3    0    0  0.51469075503E+01 -0.10488256039E+01 -0.18021411691E+01  0.55532337671E+01  0.00000000000E+00 0. -1.
</event>
<event>
 7    1  0.1457722E-010  0.4778727E+02  0.7816164E-02  0.1312668E+00
        -11   -1    0    0    0    0  0.00000000000E+00  0.00000000000E+00  0.45593999997E+02  0.45594000000E+02  0.51100000000E-03 0.  1.
         11   -1    0    0    0    0 -0.00000000000E+00 -0.00000000000E+00 -0.45593999997E+02  0.45594000000E+02  0.51100000000E-03 0. -1.
    9900012    2    1    2    0    0  0.28125328967E+02  0.22283669532E+02 -0.24413667777E+02  0.47787271531E+02  0.20000002219E+02 0.  0.
        -12    1    1    2    0    0 -0.28125328967E+02 -0.22283669532E+02  0.24413667777E+02  0.43400728469E+02  0.00000000000E+00 0.  1.
         11    1    3    3    0    0  0.23467422534E+02  0.73809347339E+01 -0.11461914594E+02  0.27139889543E+02  0.51100000000E-03 0.  1.
        -11    1    3    3    0    0  0.45739227541E+01  0.88619510302E+01 -0.89581768189E+01  0.13405367492E+02  0.51100000000E-03 0. -1.
        -12    1    3    3    0    0  0.83983678029E-01  0.60407837680E+01 -0.39935763640E+01  0.72420144963E+01  0.00000000000E+00 0.  1.
</event>
<event>
 7    1  0.1457722E-010  0.4778727E+02  0.7816164E-02  0.1312668E+00
        -11   -1    0    0    0    0  0.00000000000E+00  0.00000000000E+00  0.45593999997E+02  0.45594000000E+02  0.51100000000E-03 0. -1.
         11   -1    0    0    0    0 -0.00000000000E+00 -0.00000000000E+00 -0.45593999997E+02  0.45594000000E+02  0.51100000000E-03 0.  1.
    9900012    2    1    2    0    0 -0.36233976832E+02  0.19988281152E+02  0.13083978271E+02  0.47787274800E+02  0.20000017122E+02 0.  0.
        -12    1    1    2    0    0  0.36233976832E+02 -0.19988281152E+02 -0.13083978271E+02  0.43400725200E+02  0.00000000000E+00 0.  1.
         11    1    3    3    0    0 -0.12192873746E+02  0.15196957598E+02  0.51210141849E+01  0.20145433154E+02  0.51100000000E-03 0. -1.
        -11    1    3    3    0    0 -0.46126640956E+01 -0.30114950387E+01  0.21467565651E+01  0.59122192481E+01  0.51100000000E-03 0.  1.
        -12    1    3    3    0    0 -0.19428438991E+02  0.78028185925E+01  0.58162075211E+01  0.21729622397E+02  0.00000000000E+00 0.  1.
</event>
<event>
 7    1  0.1457722E-010  0.4778727E+02  0.7816164E-02  0.1312668E+00
        -11   -1    0    0    0    0  0.00000000000E+00  0.00000000000E+00  0.45593999997E+02  0.45594000000E+02  0.51100000000E-03 0.  1.
         11   -1    0    0    0    0 -0.00000000000E+00 -0.00000000000E+00 -0.45593999997E+02  0.45594000000E+02  0.51100000000E-03 0. -1.
    9900012    2    1    2    0    0  0.19692812539E+02  0.17988080456E+02 -0.34238067179E+02  0.47787272491E+02  0.20000006594E+02 0.  0.
        -12    1    1    2    0    0 -0.19692812539E+02 -0.17988080456E+02  0.34238067179E+02  0.43400727509E+02  0.00000000000E+00 0.  1.
         11    1    3    3    0    0  0.11068372103E+02  0.83577562309E+01 -0.24435908571E+02  0.28097590256E+02  0.51100000000E-03 0. -1.
        -11    1    3    3    0    0  0.17747042276E+01  0.51102047317E+00 -0.79171181327E+01  0.81296664635E+01  0.51100000000E-03 0.  1.
        -12    1    3    3    0    0  0.68497362087E+01  0.91193037518E+01 -0.18850404754E+01  0.11560015772E+02  0.00000000000E+00 0.  1.
</event>
<event>
 7    1  0.1457722E-010  0.4778727E+02  0.7816164E-02  0.1312668E+00
        -11   -1    0    0    0    0  0.00000000000E+00  0.00000000000E+00  0.45593999997E+02  0.45594000000E+02  0.51100000000E-03 0.  1.
         11   -1    0    0    0    0 -0.00000000000E+00 -0.00000000000E+00 -0.45593999997E+02  0.45594000000E+02  0.51100000000E-03 0. -1.
    9900012    2    1    2    0    0  0.23573606436E+02  0.10276184709E+01 -0.36425985604E+02  0.47787270198E+02  0.19999996142E+02 0.  0.
        -12    1    1    2    0    0 -0.23573606436E+02 -0.10276184709E+01  0.36425985604E+02  0.43400729802E+02  0.00000000000E+00 0.  1.
         11    1    3    3    0    0  0.12887366888E+02  0.38292463407E+01 -0.23029525047E+02  0.26666577902E+02  0.51100000000E-03 0. -1.
        -11    1    3    3    0    0 -0.30370424109E-01  0.30806845952E+01 -0.13435252929E+00  0.30837624424E+01  0.51100000000E-03 0.  1.
        -12    1    3    3    0    0  0.10716609972E+02 -0.58823124650E+01 -0.13262108028E+02  0.18036929854E+02  0.00000000000E+00 0.  1.
</event>
<event>
 7    1  0.1457722E-010  0.4778727E+02  0.7816164E-02  0.1312668E+00
        -11   -1    0    0    0    0  0.00000000000E+00  0.00000000000E+00  0.45593999997E+02  0.45594000000E+02  0.51100000000E-03 0. -1.
         11   -1    0    0    0    0 -0.00000000000E+00 -0.00000000000E+00 -0.45593999997E+02  0.45594000000E+02  0.51100000000E-03 0.  1.
    9900012    2    1    2    0    0  0.76658377843E+01 -0.28542904146E+02  0.31783031921E+02  0.47787267701E+02  0.19999984755E+02 0.  0.
        -12    1    1    2    0    0 -0.76658377843E+01  0.28542904146E+02 -0.31783031921E+02  0.43400732299E+02  0.00000000000E+00 0.  1.
         11    1    3    3    0    0  0.10133024056E+01 -0.20094284918E+01 -0.27274890706E+01  0.35360686532E+01  0.51100000000E-03 0. -1.
        -11    1    3    3    0    0  0.27739005741E+00 -0.60858747530E+01  0.99139184042E+01  0.11636176139E+02  0.51100000000E-03 0.  1.
         12    1    3    3    0    0  0.63751453213E+01 -0.20447600902E+02  0.24596602587E+02  0.32615022908E+02  0.00000000000E+00 0. -1.
</event>
<event>
 7    1  0.1457722E-010  0.4778727E+02  0.7816164E-02  0.1312668E+00
        -11   -1    0    0    0    0  0.00000000000E+00  0.00000000000E+00  0.45593999997E+02  0.45594000000E+02  0.51100000000E-03 0.  1.
         11   -1    0    0    0    0 -0.00000000000E+00 -0.00000000000E+00 -0.45593999997E+02  0.45594000000E+02  0.51100000000E-03 0. -1.
    9900012    2    1    2    0    0  0.20296370912E+02  0.14373676520E+02 -0.35567936001E+02  0.47787270510E+02  0.19999997563E+02 0.  0.
        -12    1    1    2    0    0 -0.20296370912E+02 -0.14373676520E+02  0.35567936001E+02  0.43400729490E+02  0.00000000000E+00 0.  1.
         11    1    3    3    0    0  0.15648691442E+01 -0.13926823054E+01 -0.39353848636E+00  0.21314906154E+01  0.51100000000E-03 0. -1.
        -11    1    3    3    0    0 -0.15906200664E+01 -0.10179392998E+01 -0.25477761717E+00  0.19055667160E+01  0.51100000000E-03 0.  1.
         12    1    3    3    0    0  0.20322121834E+02  0.16784298125E+02 -0.34919619897E+02  0.43750213179E+02  0.00000000000E+00 0. -1.
</event>
<event>
 7    1  0.1457722E-010  0.4778727E+02  0.7816164E-02  0.1312668E+00
        -11   -1    0    0    0    0  0.00000000000E+00  0.00000000000E+00  0.45593999997E+02  0.45594000000E+02  0.51100000000E-03 0.  1.
         11   -1    0    0    0    0 -0.00000000000E+00 -0.00000000000E+00 -0.45593999997E+02  0.45594000000E+02  0.51100000000E-03 0. -1.
    9900012    2    1    2    0    0 -0.25845982684E+02  0.11377161308E+02 -0.32957073266E+02  0.47787270760E+02  0.19999998701E+02 0.  0.
        -12    1    1    2    0    0  0.25845982684E+02 -0.11377161308E+02  0.32957073266E+02  0.43400729240E+02  0.00000000000E+00 0.  1.
         11    1    3    3    0    0 -0.22188329278E+01 -0.44746569572E+01 -0.22187011354E+01  0.54651998532E+01  0.51100000000E-03 0. -1.
        -11    1    3    3    0    0 -0.10791604124E+02  0.82364802940E+01 -0.10431388818E+02  0.17120519856E+02  0.51100000000E-03 0.  1.
        -12    1    3    3    0    0 -0.12835545633E+02  0.76153379710E+01 -0.20306983312E+02  0.25201551051E+02  0.00000000000E+00 0.  1.
</event>
<event>
 7    1  0.1457722E-010  0.4778727E+02  0.7816164E-02  0.1312668E+00
        -11   -1    0    0    0    0  0.00000000000E+00  0.00000000000E+00  0.45593999997E+02  0.45594000000E+02  0.51100000000E-03 0.  1.
         11   -1    0    0    0    0 -0.00000000000E+00 -0.00000000000E+00 -0.45593999997E+02  0.45594000000E+02  0.51100000000E-03 0. -1.
    9900012    2    1    2    0    0 -0.19342040979E+02 -0.10400009519E+02 -0.37434587616E+02  0.47787273080E+02  0.20000009282E+02 0.  0.
        -12    1    1    2    0    0  0.19342040979E+02  0.10400009519E+02  0.37434587616E+02  0.43400726920E+02  0.00000000000E+00 0.  1.
         11    1    3    3    0    0 -0.45019580250E+01 -0.97064953312E+01 -0.87568956235E+01  0.13826311833E+02  0.51100000000E-03 0. -1.
        -11    1    3    3    0    0 -0.12915846345E+02 -0.10221926000E+01 -0.13698290155E+02  0.18854896392E+02  0.51100000000E-03 0.  1.
        -12    1    3    3    0    0 -0.19242366084E+01  0.32867841221E+00 -0.14979401837E+02  0.15106064855E+02  0.00000000000E+00 0.  1.
</event>
<event>
 7    1  0.1457722E-010  0.4778727E+02  0.7816164E-02  0.1312668E+00
        -11   -1    0    0    0    0  0.00000000000E+00  0.00000000000E+00  0.45593999997E+02  0.45594000000E+02  0.51100000000E-03 0.  1.
         11   -1    0    0    0    0 -0.00000000000E+00 -0.00000000000E+00 -0.45593999997E+02  0.45594000000E+02  0.51100000000E-03 0. -1.
    9900012    2    1    2    0    0 -0.39797589769E+02 -0.97254395299E+01 -0.14324490306E+02  0.47787270190E+02  0.19999996106E+02 0.  0.
        -12    1    1    2    0    0  0.39797589769E+02  0.97254395299E+01  0.14324490306E+02  0.43400729810E+02  0.00000000000E+00 0.  1.
         11    1    3    3    0    0 -0.36154686487E+01 -0.13172978586E+01 -0.60355366518E+01  0.71578341790E+01  0.51100000000E-03 0. -1.
        -11    1    3    3    0    0 -0.11318227498E+02 -0.27687569622E+00  0.36203851554E+01  0.11886383924E+02  0.51100000000E-03 0.  1.
         12    1    3    3    0    0 -0.24863893623E+02 -0.81312659750E+01 -0.11909338809E+02  0.28743052088E+02  0.00000000000E+00 0. -1.
</event>
<event>
 7    1  0.1457722E-010  0.4778727E+02  0.7816164E-02  0.1312668E+00
        -11   -1    0    0    0    0  0.00000000000E+00  0.00000000000E+00  0.45593999997E+02  0.45594000000E+02  0.51100000000E-03 0. -1.
         11   -1    0    0    0    0 -0.00000000000E+00 -0.00000000000E+00 -0.45593999997E+02  0.45594000000E+02  0.51100000000E-03 0.  1.
    9900012    2    1    2    0    0 -0.97017612922E+01  0.42260659654E+02 -0.18803159435E+01  0.47787272880E+02  0.20000008368E+02 0.  0.
        -12    1    1    2    0    0  0.97017612922E+01 -0.42260659654E+02  0.18803159435E+01  0.43400727120E+02  0.00000000000E+00 0.  1.
         11    1    3    3    0    0  0.85867086327E+00  0.54972753901E+01  0.46525807798E+01  0.72528518900E+01  0.51100000000E-03 0. -1.
        -11    1    3    3    0    0 -0.40728132404E+01  0.20485317329E+02 -0.91758218787E+01  0.22812973089E+02  0.51100000000E-03 0.  1.
         12    1    3    3    0    0 -0.64876189150E+01  0.16278066935E+02  0.26429251554E+01  0.17721447901E+02  0.00000000000E+00 0. -1.
</event>
<event>
 7    1  0.1457722E-010  0.4778726E+02  0.7816164E-02  0.1312668E+00
        -11   -1    0    0    0    0  0.00000000000E+00  0.00000000000E+00  0.45593999997E+02  0.45594000000E+02  0.51100000000E-03 0. -1.
         11   -1    0    0    0    0 -0.00000000000E+00 -0.00000000000E+00 -0.45593999997E+02  0.45594000000E+02  0.51100000000E-03 0.  1.
    9900012    2    1    2    0    0  0.30822606804E+02  0.26797752148E+02  0.14678955476E+02  0.47787258713E+02  0.19999943775E+02 0.  0.
        -12    1    1    2    0    0 -0.30822606804E+02 -0.26797752148E+02 -0.14678955476E+02  0.43400741287E+02  0.00000000000E+00 0.  1.
         11    1    3    3    0    0  0.94606659230E+01  0.19412474925E+00  0.49603637484E+00  0.94756496596E+01  0.51100000000E-03 0. -1.
        -11    1    3    3    0    0  0.97873733941E+01  0.13753742325E+02  0.16654289083E+01  0.16962657799E+02  0.51100000000E-03 0.  1.
         12    1    3    3    0    0  0.11574567487E+02  0.12849885074E+02  0.12517490193E+02  0.21348951254E+02  0.00000000000E+00 0. -1.
</event>
<event>
 7    1  0.1457722E-010  0.4778726E+02  0.7816164E-02  0.1312668E+00
        -11   -1    0    0    0    0  0.00000000000E+00  0.00000000000E+00  0.45593999997E+02  0.45594000000E+02  0.51100000000E-03 0.  1.
         11   -1    0    0    0    0 -0.00000000000E+00 -0.00000000000E+00 -0.45593999997E+02  0.45594000000E+02  0.51100000000E-03 0. -1.
    9900012    2    1    2    0    0 -0.42150102173E+02 -0.98246494085E+01 -0.32356370092E+01  0.47787260421E+02  0.19999951561E+02 0.  0.
        -12    1    1    2    0    0  0.42150102173E+02  0.98246494085E+01  0.32356370092E+01  0.43400739579E+02  0.00000000000E+00 0.  1.
         11    1    3    3    0    0 -0.35749021502E+02 -0.13892661660E+02 -0.24525704219E+01  0.38431935786E+02  0.51100000000E-03 0. -1.
        -11    1    3    3    0    0 -0.18956997068E+01  0.20574346099E+01 -0.28613984020E+01  0.40017890535E+01  0.51100000000E-03 0.  1.
        -12    1    3    3    0    0 -0.45053809643E+01  0.20105776412E+01  0.20783318147E+01  0.53535355810E+01  0.00000000000E+00 0.  1.
</event>
<event>
 7    1  0.1457722E-010  0.4778728E+02  0.7816164E-02  0.1312668E+00
        -11   -1    0    0    0    0  0.00000000000E+00  0.00000000000E+00  0.45593999997E+02  0.45594000000E+02  0.51100000000E-03 0. -1.
         11   -1    0    0    0    0 -0.00000000000E+00 -0.00000000000E+00 -0.45593999997E+02  0.45594000000E+02  0.51100000000E-03 0.  1.
    9900012    2    1    2    0    0 -0.31212700048E+02  0.20074780987E+02  0.22503183787E+02  0.47787277005E+02  0.20000027175E+02 0.  0.
        -12    1    1    2    0    0  0.31212700048E+02 -0.20074780987E+02 -0.22503183787E+02  0.43400722995E+02  0.00000000000E+00 0.  1.
         11    1    3    3    0    0 -0.65971153400E+01  0.12845994662E+02  0.15067463686E+02  0.20870313171E+02  0.51100000000E-03 0. -1.
        -11    1    3    3    0    0 -0.66121114351E+01  0.51054764011E+00  0.23913535090E+01  0.70497693855E+01  0.51100000000E-03 0.  1.
         12    1    3    3    0    0 -0.18003473273E+02  0.67182386844E+01  0.50443665923E+01  0.19867194448E+02  0.00000000000E+00 0. -1.
</event>
<event>
 7    1  0.1457722E-010  0.4778727E+02  0.7816164E-02  0.1312668E+00
        -11   -1    0    0    0    0  0.00000000000E+00  0.00000000000E+00  0.45593999997E+02  0.45594000000E+02  0.51100000000E-03 0. -1.
         11   -1    0    0    0    0 -0.00000000000E+00 -0.00000000000E+00 -0.45593999997E+02  0.45594000000E+02  0.51100000000E-03 0.  1.
    9900012    2    1    2    0    0 -0.19810244548E+02 -0.38353811207E+02 -0.44902770738E+01  0.47787271764E+02  0.20000003282E+02 0.  0.
        -12    1    1    2    0    0  0.19810244548E+02  0.38353811207E+02  0.44902770738E+01  0.43400728236E+02  0.00000000000E+00 0.  1.
         11    1    3    3    0    0 -0.65729439075E+01 -0.17453799890E+02 -0.26127611042E+01  0.18832558059E+02  0.51100000000E-03 0. -1.
        -11    1    3    3    0    0 -0.13939456113E+02 -0.82623688268E+01 -0.17348603622E+01  0.16296776249E+02  0.51100000000E-03 0.  1.
         12    1    3    3    0    0  0.70215547238E+00 -0.12637642491E+02 -0.14265560732E+00  0.12657937457E+02  0.00000000000E+00 0. -1.
</event>
<event>
 7    1  0.1457722E-010  0.4778727E+02  0.7816164E-02  0.1312668E+00
        -11   -1    0    0    0    0  0.00000000000E+00  0.00000000000E+00  0.45593999997E+02  0.45594000000E+02  0.51100000000E-03 0.  1.
         11   -1    0    0    0    0 -0.00000000000E+00 -0.00000000000E+00 -0.45593999997E+02  0.45594000000E+02  0.51100000000E-03 0. -1.
    9900012    2    1    2    0    0 -0.87142057774E+01 -0.16875603138E+02 -0.39024347141E+02  0.47787273815E+02  0.20000012634E+02 0.  0.
        -12    1    1    2    0    0  0.87142057774E+01  0.16875603138E+02  0.39024347141E+02  0.43400726185E+02  0.00000000000E+00 0.  1.
         11    1    3    3    0    0 -0.48153545109E+01 -0.15664153195E+01 -0.66546188029E+01  0.83621317672E+01  0.51100000000E-03 0.  1.
        -11    1    3    3    0    0 -0.76253062995E+00 -0.13055881113E+02 -0.33013904152E+02  0.35509933149E+02  0.51100000000E-03 0. -1.
         12    1    3    3    0    0 -0.31363206365E+01 -0.22533067062E+01  0.64417581461E+00  0.39152088996E+01  0.00000000000E+00 0. -1.
</event>
<event>
 7    1  0.1457722E-010  0.4778727E+02  0.7816164E-02  0.1312668E+00
        -11   -1    0    0    0    0  0.00000000000E+00  0.00000000000E+00  0.45593999997E+02  0.45594000000E+02  0.51100000000E-03 0.  1.
         11   -1    0    0    0    0 -0.00000000000E+00 -0.00000000000E+00 -0.45593999997E+02  0.45594000000E+02  0.51100000000E-03 0. -1.
    9900012    2    1    2    0    0 -0.25721779501E+02  0.13771519236E+02 -0.32130342989E+02  0.47787267018E+02  0.19999981640E+02 0.  0.
        -12    1    1    2    0    0  0.25721779501E+02 -0.13771519236E+02  0.32130342989E+02  0.43400732982E+02  0.00000000000E+00 0.  1.
         11    1    3    3    0    0 -0.22156608149E+01 -0.93586834025E+00  0.83529165443E+00  0.25461175947E+01  0.51100000000E-03 0. -1.
        -11    1    3    3    0    0 -0.46815410822E+00 -0.21518603384E+01 -0.11124146938E+01  0.24672125764E+01  0.51100000000E-03 0.  1.
         12    1    3    3    0    0 -0.23037964578E+02  0.16859247915E+02 -0.31853219950E+02  0.42773936847E+02  0.00000000000E+00 0. -1.
</event>
<event>
 7    1  0.1457722E-010  0.4778727E+02  0.7816164E-02  0.1312668E+00
        -11   -1    0    0    0    0  0.00000000000E+00  0.00000000000E+00  0.45593999997E+02  0.45594000000E+02  0.51100000000E-03 0.  1.
         11   -1    0    0    0    0 -0.00000000000E+00 -0.00000000000E+00 -0.45593999997E+02  0.45594000000E+02  0.51100000000E-03 0. -1.
    9900012    2    1    2    0    0 -0.16615424260E+02  0.40093690720E+02 -0.21698785624E+00  0.47787269100E+02  0.19999991136E+02 0.  0.
        -12    1    1    2    0    0  0.16615424260E+02 -0.40093690720E+02  0.21698785624E+00  0.43400730900E+02  0.00000000000E+00 0.  1.
         11    1    3    3    0    0 -0.56476149460E+01  0.26292081442E+01 -0.19458740798E+01  0.65264627662E+01  0.51100000000E-03 0. -1.
        -11    1    3    3    0    0 -0.50351416663E+01  0.15459230106E+02  0.72637885759E+01  0.17807388124E+02  0.51100000000E-03 0.  1.
        -12    1    3    3    0    0 -0.59326676472E+01  0.22005252470E+02 -0.55349023523E+01  0.23453418210E+02  0.00000000000E+00 0.  1.
</event>
<event>
 7    1  0.1457722E-010  0.4778727E+02  0.7816164E-02  0.1312668E+00
        -11   -1    0    0    0    0  0.00000000000E+00  0.00000000000E+00  0.45593999997E+02  0.45594000000E+02  0.51100000000E-03 0. -1.
         11   -1    0    0    0    0 -0.00000000000E+00 -0.00000000000E+00 -0.45593999997E+02  0.45594000000E+02  0.51100000000E-03 0.  1.
    9900012    2    1    2    0    0 -0.18687005956E+02 -0.33693104701E+02  0.19979831017E+02  0.47787272547E+02  0.20000006850E+02 0.  0.
        -12    1    1    2    0    0  0.18687005956E+02  0.33693104701E+02 -0.19979831017E+02  0.43400727453E+02  0.00000000000E+00 0.  1.
         11    1    3    3    0    0 -0.36336856302E+01 -0.55808891150E+01  0.86394022606E+00  0.67153843932E+01  0.51100000000E-03 0. -1.
        -11    1    3    3    0    0 -0.99656561851E+01 -0.33698826712E+01  0.24258376121E+01  0.10796068766E+02  0.51100000000E-03 0.  1.
         12    1    3    3    0    0 -0.50876641410E+01 -0.24742332915E+02  0.16690053179E+02  0.30275819388E+02  0.00000000000E+00 0. -1.
</event>
<event>
 7    1  0.1457722E-010  0.4778727E+02  0.7816164E-02  0.1312668E+00
        -11   -1    0    0    0    0  0.00000000000E+00  0.00000000000E+00  0.45593999997E+02  0.45594000000E+02  0.51100000000E-03 0. -1.
         11   -1    0    0    0    0 -0.00000000000E+00 -0.00000000000E+00 -0.45593999997E+02  0.45594000000E+02  0.51100000000E-03 0.  1.
    9900012    2    1    2    0    0  0.28591099497E+02 -0.32646952089E+01  0.32488674504E+02  0.47787272169E+02  0.20000005127E+02 0.  0.
        -12    1    1    2    0    0 -0.28591099497E+02  0.32646952089E+01 -0.32488674504E+02  0.43400727831E+02  0.00000000000E+00 0.  1.
         11    1    3    3    0    0  0.12876836032E+02 -0.22092757053E+01  0.25993325756E+02  0.29092039967E+02  0.51100000000E-03 0. -1.
        -11    1    3    3    0    0  0.27824688707E+01 -0.33428111500E+01  0.10221011618E+01  0.44677970463E+01  0.51100000000E-03 0.  1.
        -12    1    3    3    0    0  0.12931794594E+02  0.22873916463E+01  0.54732475863E+01  0.14227435156E+02  0.00000000000E+00 0.  1.
</event>
<event>
 7    1  0.1457722E-010  0.4778727E+02  0.7816164E-02  0.1312668E+00
        -11   -1    0    0    0    0  0.00000000000E+00  0.00000000000E+00  0.45593999997E+02  0.45594000000E+02  0.51100000000E-03 0.  1.
         11   -1    0    0    0    0 -0.00000000000E+00 -0.00000000000E+00 -0.45593999997E+02  0.45594000000E+02  0.51100000000E-03 0. -1.
    9900012    2    1    2    0    0  0.11753375072E+02  0.40841947339E+02  0.87986924834E+01  0.47787268699E+02  0.19999989308E+02 0.  0.
        -12    1    1    2    0    0 -0.11753375072E+02 -0.40841947339E+02 -0.87986924834E+01  0.43400731301E+02  0.00000000000E+00 0.  1.
         11    1    3    3    0    0  0.13966636184E+01  0.12842045002E+02  0.78772745909E+01  0.15130110520E+02  0.51100000000E-03 0.  1.
        -11    1    3    3    0    0  0.39515613501E+01  0.22757765079E+02 -0.33552945206E+01  0.23340709289E+02  0.51100000000E-03 0. -1.
         12    1    3    3    0    0  0.64051501033E+01  0.52421372572E+01  0.42767124131E+01  0.93164488907E+01  0.00000000000E+00 0. -1.
</event>
<event>
 7    1  0.1457722E-010  0.4778729E+02  0.7816164E-02  0.1312668E+00
        -11   -1    0    0    0    0  0.00000000000E+00  0.00000000000E+00  0.45593999997E+02  0.45594000000E+02  0.51100000000E-03 0.  1.
         11   -1    0    0    0    0 -0.00000000000E+00 -0.00000000000E+00 -0.45593999997E+02  0.45594000000E+02  0.51100000000E-03 0. -1.
    9900012    2    1    2    0    0  0.15060309186E+02 -0.19892041100E+02 -0.35512184298E+02  0.47787292108E+02  0.20000096036E+02 0.  0.
        -12    1    1    2    0    0 -0.15060309186E+02  0.19892041100E+02  0.35512184298E+02  0.43400707892E+02  0.00000000000E+00 0.  1.
         11    1    3    3    0    0  0.36588675155E+01 -0.13043531729E+02 -0.10445379829E+02  0.17106343604E+02  0.51100000000E-03 0. -1.
        -11    1    3    3    0    0  0.12948206822E+02 -0.84523984226E+01 -0.21878784113E+02  0.26791422014E+02  0.51100000000E-03 0.  1.
        -12    1    3    3    0    0 -0.15467651508E+01  0.16038890522E+01 -0.31880203563E+01  0.38895264900E+01  0.00000000000E+00 0.  1.
</event>
<event>
 7    1  0.1457722E-010  0.4778727E+02  0.7816164E-02  0.1312668E+00
        -11   -1    0    0    0    0  0.00000000000E+00  0.00000000000E+00  0.45593999997E+02  0.45594000000E+02  0.51100000000E-03 0.  1.
         11   -1    0    0    0    0 -0.00000000000E+00 -0.00000000000E+00 -0.45593999997E+02  0.45594000000E+02  0.51100000000E-03 0. -1.
    9900012    2    1    2    0    0 -0.16185264600E+02 -0.28803818502E+02 -0.28142501579E+02  0.47787272522E+02  0.20000006737E+02 0.  0.
        -12    1    1    2    0    0  0.16185264600E+02  0.28803818502E+02  0.28142501579E+02  0.43400727478E+02  0.00000000000E+00 0.  1.
         11    1    3    3    0    0 -0.41944160278E+01 -0.11964682340E+02 -0.49916453894E+01  0.13625831103E+02  0.51100000000E-03 0. -1.
        -11    1    3    3    0    0 -0.13646812868E+02 -0.73861617043E+01 -0.13934529647E+02  0.20855742684E+02  0.51100000000E-03 0.  1.
        -12    1    3    3    0    0  0.16559642957E+01 -0.94529744584E+01 -0.92163265429E+01  0.13305698734E+02  0.00000000000E+00 0.  1.
</event>
<event>
 7    1  0.1457722E-010  0.4778728E+02  0.7816164E-02  0.1312668E+00
        -11   -1    0    0    0    0  0.00000000000E+00  0.00000000000E+00  0.45593999997E+02  0.45594000000E+02  0.51100000000E-03 0.  1.
         11   -1    0    0    0    0 -0.00000000000E+00 -0.00000000000E+00 -0.45593999997E+02  0.45594000000E+02  0.51100000000E-03 0. -1.
    9900012    2    1    2    0    0  0.11857506937E+02 -0.35040203146E+02 -0.22698155093E+02  0.47787279362E+02  0.20000037923E+02 0.  0.
        -12    1    1    2    0    0 -0.11857506937E+02  0.35040203146E+02  0.22698155093E+02  0.43400720638E+02  0.00000000000E+00 0.  1.
         11    1    3    3    0    0  0.60808053152E+01 -0.76211054111E+01 -0.15922180834E+01  0.98788966820E+01  0.51100000000E-03 0. -1.
        -11    1    3    3    0    0 -0.10392999894E+01 -0.17853627320E+01 -0.81143474334E+01  0.83731893018E+01  0.51100000000E-03 0.  1.
         12    1    3    3    0    0  0.68160016114E+01 -0.25633735003E+02 -0.12991589576E+02  0.29535193378E+02  0.00000000000E+00 0. -1.
</event>
<event>
 7    1  0.1457722E-010  0.4778727E+02  0.7816164E-02  0.1312668E+00
        -11   -1    0    0    0    0  0.00000000000E+00  0.00000000000E+00  0.45593999997E+02  0.45594000000E+02  0.51100000000E-03 0. -1.
         11   -1    0    0    0    0 -0.00000000000E+00 -0.00000000000E+00 -0.45593999997E+02  0.45594000000E+02  0.51100000000E-03 0.  1.
    9900012    2    1    2    0    0 -0.30585260828E+02  0.15713285890E+02  0.26481272967E+02  0.47787270152E+02  0.19999995932E+02 0.  0.
        -12    1    1    2    0    0  0.30585260828E+02 -0.15713285890E+02 -0.26481272967E+02  0.43400729848E+02  0.00000000000E+00 0.  1.
         11    1    3    3    0    0 -0.11820720365E+02  0.11266143971E+02  0.24936483516E+01  0.16518889560E+02  0.51100000000E-03 0. -1.
        -11    1    3    3    0    0 -0.11401309268E+02  0.38206219595E+01  0.10854835373E+02  0.16199211598E+02  0.51100000000E-03 0.  1.
        -12    1    3    3    0    0 -0.73632311951E+01  0.62651995998E+00  0.13132789243E+02  0.15069168994E+02  0.00000000000E+00 0.  1.
</event>
<event>
 7    1  0.1457722E-010  0.4778722E+02  0.7816164E-02  0.1312668E+00
        -11   -1    0    0    0    0  0.00000000000E+00  0.00000000000E+00  0.45593999997E+02  0.45594000000E+02  0.51100000000E-03 0.  1.
         11   -1    0    0    0    0 -0.00000000000E+00 -0.00000000000E+00 -0.45593999997E+02  0.45594000000E+02  0.51100000000E-03 0. -1.
    9900012    2    1    2    0    0  0.23023564110E+02 -0.62175502414E+01 -0.36261345138E+02  0.47787221360E+02  0.19999773468E+02 0.  0.
        -12    1    1    2    0    0 -0.23023564110E+02  0.62175502414E+01  0.36261345138E+02  0.43400778640E+02  0.00000000000E+00 0.  1.
         11    1    3    3    0    0  0.17414679953E+02 -0.84874248920E+01 -0.21939626106E+02  0.29268663329E+02  0.51100000000E-03 0. -1.
        -11    1    3    3    0    0  0.36971648341E+01  0.75377014844E+00  0.21418881022E+00  0.37792954839E+01  0.51100000000E-03 0.  1.
        -12    1    3    3    0    0  0.19117193235E+01  0.15161045022E+01 -0.14535907842E+02  0.14739262547E+02  0.00000000000E+00 0.  1.
</event>
<event>
 7    1  0.1991936E-010  0.4778727E+02  0.7816164E-02  0.1312668E+00
        -11   -1    0    0    0    0  0.00000000000E+00  0.00000000000E+00  0.45593999997E+02  0.45594000000E+02  0.51100000000E-03 0. -1.
         11   -1    0    0    0    0 -0.00000000000E+00 -0.00000000000E+00 -0.45593999997E+02  0.45594000000E+02  0.51100000000E-03 0.  1.
    9900012    2    1    2    0    0  0.24978467314E+02 -0.33834684057E+02  0.10719781935E+02  0.47787269599E+02  0.19999993411E+02 0.  0.
        -12    1    1    2    0    0 -0.24978467314E+02  0.33834684057E+02 -0.10719781935E+02  0.43400730401E+02  0.00000000000E+00 0.  1.
         11    1    3    3    0    0  0.11773393595E+02 -0.11221139648E+02  0.32158538335E+01  0.16579158238E+02  0.51100000000E-03 0. -1.
        -11    1    3    3    0    0  0.51974440460E+00 -0.12000430209E+02 -0.19322849862E+01  0.12166108046E+02  0.51100000000E-03 0.  1.
        -12    1    3    3    0    0  0.12685329315E+02 -0.10613114200E+02  0.94362130873E+01  0.19042003315E+02  0.00000000000E+00 0.  1.
</event>
<event>
 7    1  0.1457722E-010  0.4778726E+02  0.7816164E-02  0.1312668E+00
        -11   -1    0    0    0    0  0.00000000000E+00  0.00000000000E+00  0.45593999997E+02  0.45594000000E+02  0.51100000000E-03 0.  1.
         11   -1    0    0    0    0 -0.00000000000E+00 -0.00000000000E+00 -0.45593999997E+02  0.45594000000E+02  0.51100000000E-03 0. -1.
    9900012    2    1    2    0    0  0.38315834327E+01 -0.15477723862E+02 -0.40365614916E+02  0.47787264579E+02  0.19999970521E+02 0.  0.
        -12    1    1    2    0    0 -0.38315834327E+01  0.15477723862E+02  0.40365614916E+02  0.43400735421E+02  0.00000000000E+00 0.  1.
         11    1    3    3    0    0 -0.37354235534E+01 -0.75783553784E+00 -0.76681030686E+01  0.85631482971E+01  0.51100000000E-03 0. -1.
        -11    1    3    3    0    0  0.20398467861E+01  0.18973717699E+01 -0.10967364360E+02  0.11315656226E+02  0.51100000000E-03 0.  1.
        -12    1    3    3    0    0  0.55271602000E+01 -0.16617260094E+02 -0.21730147487E+02  0.27908460056E+02  0.00000000000E+00 0.  1.
</event>
<event>
 7    1  0.1457722E-010  0.4778727E+02  0.7816164E-02  0.1312668E+00
        -11   -1    0    0    0    0  0.00000000000E+00  0.00000000000E+00  0.45593999997E+02  0.45594000000E+02  0.51100000000E-03 0. -1.
         11   -1    0    0    0    0 -0.00000000000E+00 -0.00000000000E+00 -0.45593999997E+02  0.45594000000E+02  0.51100000000E-03 0.  1.
    9900012    2    1    2    0    0  0.38394502157E+02 -0.17801445344E+02  0.96225845661E+01  0.47787269753E+02  0.19999994112E+02 0.  0.
        -12    1    1    2    0    0 -0.38394502157E+02  0.17801445344E+02 -0.96225845661E+01  0.43400730247E+02  0.00000000000E+00 0.  1.
         11    1    3    3    0    0  0.25009013268E+02 -0.99551227621E+01  0.33963009352E+01  0.27130979970E+02  0.51100000000E-03 0. -1.
        -11    1    3    3    0    0  0.15187057411E+02 -0.44627060040E+01  0.54805375013E+01  0.16751082032E+02  0.51100000000E-03 0.  1.
        -12    1    3    3    0    0 -0.18015685218E+01 -0.33836165783E+01  0.74574612967E+00  0.39052077509E+01  0.00000000000E+00 0.  1.
</event>
<event>
 7    1  0.1457722E-010  0.4778727E+02  0.7816164E-02  0.1312668E+00
        -11   -1    0    0    0    0  0.00000000000E+00  0.00000000000E+00  0.45593999997E+02  0.45594000000E+02  0.51100000000E-03 0.  1.
         11   -1    0    0    0    0 -0.00000000000E+00 -0.00000000000E+00 -0.45593999997E+02  0.45594000000E+02  0.51100000000E-03 0. -1.
    9900012    2    1    2    0    0  0.18181578807E+02 -0.38633143670E+02 -0.77803401355E+01  0.47787270854E+02  0.19999999132E+02 0.  0.
        -12    1    1    2    0    0 -0.18181578807E+02  0.38633143670E+02  0.77803401355E+01  0.43400729146E+02  0.00000000000E+00 0.  1.
         11    1    3    3    0    0  0.67368867387E+01 -0.16185041733E+02  0.10765072000E+01  0.17564170542E+02  0.51100000000E-03 0.  1.
        -11    1    3    3    0    0  0.14382364680E+02 -0.17893294737E+02 -0.93344058340E+01  0.24782121436E+02  0.51100000000E-03 0. -1.
         12    1    3    3    0    0 -0.29376726118E+01 -0.45548072006E+01  0.47755849844E+00  0.54409788760E+01  0.00000000000E+00 0. -1.
</event>
<event>
 7    1  0.1457722E-010  0.4778723E+02  0.7816164E-02  0.1312668E+00
        -11   -1    0    0    0    0  0.00000000000E+00  0.00000000000E+00  0.45593999997E+02  0.45594000000E+02  0.51100000000E-03 0.  1.
         11   -1    0    0    0    0 -0.00000000000E+00 -0.00000000000E+00 -0.45593999997E+02  0.45594000000E+02  0.51100000000E-03 0. -1.
    9900012    2    1    2    0    0  0.13423514786E+02  0.13611314209E+01 -0.41250258590E+02  0.47787225103E+02  0.19999790531E+02 0.  0.
        -12    1    1    2    0    0 -0.13423514786E+02 -0.13611314209E+01  0.41250258590E+02  0.43400774897E+02  0.00000000000E+00 0.  1.
         11    1    3    3    0    0  0.51095636873E+01  0.74371864934E+01 -0.17110844120E+02  0.19344259375E+02  0.51100000000E-03 0. -1.
        -11    1    3    3    0    0 -0.93689275380E+00 -0.14894392534E+01  0.41326256307E+00  0.18074798834E+01  0.51100000000E-03 0.  1.
         12    1    3    3    0    0  0.92508438522E+01 -0.45866158191E+01 -0.24552677033E+02  0.26635485844E+02  0.00000000000E+00 0. -1.
</event>
<event>
 7    1  0.1457722E-010  0.4778727E+02  0.7816164E-02  0.1312668E+00
        -11   -1    0    0    0    0  0.00000000000E+00  0.00000000000E+00  0.45593999997E+02  0.45594000000E+02  0.51100000000E-03 0.  1.
         11   -1    0    0    0    0 -0.00000000000E+00 -0.00000000000E+00 -0.45593999997E+02  0.45594000000E+02  0.51100000000E-03 0. -1.
    9900012    2    1    2    0    0  0.18032894206E+02  0.38115418082E+02 -0.10278762023E+02  0.47787270539E+02  0.19999997695E+02 0.  0.
        -12    1    1    2    0    0 -0.18032894206E+02 -0.38115418082E+02  0.10278762023E+02  0.43400729461E+02  0.00000000000E+00 0.  1.
         11    1    3    3    0    0 -0.16121492455E+01  0.22923614109E+01 -0.10530796438E+01  0.29938141267E+01  0.51100000000E-03 0. -1.
        -11    1    3    3    0    0  0.18672973737E+02  0.37425525310E+02 -0.80853606467E+01  0.42599565138E+02  0.51100000000E-03 0.  1.
        -12    1    3    3    0    0  0.97206971519E+00 -0.16024686388E+01 -0.11403217328E+01  0.21938912744E+01  0.00000000000E+00 0.  1.
</event>
<event>
 7    1  0.1457722E-010  0.4778727E+02  0.7816164E-02  0.1312668E+00
        -11   -1    0    0    0    0  0.00000000000E+00  0.00000000000E+00  0.45593999997E+02  0.45594000000E+02  0.51100000000E-03 0. -1.
         11   -1    0    0    0    0 -0.00000000000E+00 -0.00000000000E+00 -0.45593999997E+02  0.45594000000E+02  0.51100000000E-03 0.  1.
    9900012    2    1    2    0    0  0.37506125683E+02 -0.62238592575E+01 -0.20932683876E+02  0.47787272563E+02  0.20000006922E+02 0.  0.
        -12    1    1    2    0    0 -0.37506125683E+02  0.62238592575E+01  0.20932683876E+02  0.43400727437E+02  0.00000000000E+00 0.  1.
         11    1    3    3    0    0  0.46587720608E-01 -0.13246962619E+01  0.13520687162E+01  0.18934309273E+01  0.51100000000E-03 0. -1.
        -11    1    3    3    0    0  0.23204739698E+02  0.35848656951E+01 -0.11906124859E+02  0.26326165994E+02  0.51100000000E-03 0.  1.
         12    1    3    3    0    0  0.14254798264E+02 -0.84840286906E+01 -0.10378627733E+02  0.19567675641E+02  0.00000000000E+00 0. -1.
</event>
<event>
 7    1  0.1457722E-010  0.4778727E+02  0.7816164E-02  0.1312668E+00
        -11   -1    0    0    0    0  0.00000000000E+00  0.00000000000E+00  0.45593999997E+02  0.45594000000E+02  0.51100000000E-03 0. -1.
         11   -1    0    0    0    0 -0.00000000000E+00 -0.00000000000E+00 -0.45593999997E+02  0.45594000000E+02  0.51100000000E-03 0.  1.
    9900012    2    1    2    0    0  0.21685539625E+02  0.37551727592E+02 -0.17967736979E+01  0.47787271092E+02  0.20000000218E+02 0.  0.
        -12    1    1    2    0    0 -0.21685539625E+02 -0.37551727592E+02  0.17967736979E+01  0.43400728908E+02  0.00000000000E+00 0.  1.
         11    1    3    3    0    0  0.58395364111E+01  0.78969251623E+01  0.64887416577E+01  0.11771379744E+02  0.51100000000E-03 0. -1.
        -11    1    3    3    0    0  0.56383174618E+01  0.20488433361E+02 -0.38395659732E+01  0.21594184229E+02  0.51100000000E-03 0.  1.
        -12    1    3    3    0    0  0.10207685752E+02  0.91663690693E+01 -0.44459493823E+01  0.14421707119E+02  0.00000000000E+00 0.  1.
</event>
<event>
 7    1  0.1457722E-010  0.4778726E+02  0.7816164E-02  0.1312668E+00
        -11   -1    0    0    0    0  0.00000000000E+00  0.00000000000E+00  0.45593999997E+02  0.45594000000E+02  0.51100000000E-03 0.  1.
         11   -1    0    0    0    0 -0.00000000000E+00 -0.00000000000E+00 -0.45593999997E+02  0.45594000000E+02  0.51100000000E-03 0. -1.
    9900012    2    1    2    0    0  0.65965731172E+01 -0.31131037723E+02 -0.29512168751E+02  0.47787258175E+02  0.19999941321E+02 0.  0.
        -12    1    1    2    0    0 -0.65965731172E+01  0.31131037723E+02  0.29512168751E+02  0.43400741825E+02  0.00000000000E+00 0.  1.
         11    1    3    3    0    0  0.80800766212E+01 -0.23953471424E+01 -0.88359679462E+01  0.12210637000E+02  0.51100000000E-03 0.  1.
        -11    1    3    3    0    0  0.24387575700E+00 -0.12515990835E+02 -0.73738712774E+01  0.14528712257E+02  0.51100000000E-03 0. -1.
        -12    1    3    3    0    0 -0.17273792610E+01 -0.16219699746E+02 -0.13302329528E+02  0.21047908918E+02  0.00000000000E+00 0.  1.
</event>
<event>
 7    1  0.1457722E-010  0.4778727E+02  0.7816164E-02  0.1312668E+00
        -11   -1    0    0    0    0  0.00000000000E+00  0.00000000000E+00  0.45593999997E+02  0.45594000000E+02  0.51100000000E-03 0.  1.
         11   -1    0    0    0    0 -0.00000000000E+00 -0.00000000000E+00 -0.45593999997E+02  0.45594000000E+02  0.51100000000E-03 0. -1.
    9900012    2    1    2    0    0 -0.44348372795E+01  0.11017258537E+02 -0.41744166511E+02  0.47787271837E+02  0.20000003613E+02 0.  0.
        -12    1    1    2    0    0  0.44348372795E+01 -0.11017258537E+02  0.41744166511E+02  0.43400728163E+02  0.00000000000E+00 0.  1.
         11    1    3    3    0    0 -0.32004150243E+01 -0.10001430337E+01 -0.83970615733E+01  0.90417689499E+01  0.51100000000E-03 0.  1.
        -11    1    3    3    0    0  0.44450857831E+01  0.12363389881E+02 -0.17326395184E+02  0.21744336442E+02  0.51100000000E-03 0. -1.
         12    1    3    3    0    0 -0.56795080383E+01 -0.34598830995E+00 -0.16020709754E+02  0.17001166445E+02  0.00000000000E+00 0. -1.
</event>
<event>
 7    1  0.1457722E-010  0.4778726E+02  0.7816164E-02  0.1312668E+00
        -11   -1    0    0    0    0  0.00000000000E+00  0.00000000000E+00  0.45593999997E+02  0.45594000000E+02  0.51100000000E-03 0. -1.
         11   -1    0    0    0    0 -0.00000000000E+00 -0.00000000000E+00 -0.45593999997E+02  0.45594000000E+02  0.51100000000E-03 0.  1.
    9900012    2    1    2    0    0  0.43048409952E+02 -0.16921318168E+01  0.52531462453E+01  0.47787257438E+02  0.19999937963E+02 0.  0.
        -12    1    1    2    0    0 -0.43048409952E+02  0.16921318168E+01 -0.52531462453E+01  0.43400742562E+02  0.00000000000E+00 0.  1.
         11    1    3    3    0    0  0.31479399681E+02 -0.81617064634E+01  0.45524522666E+01  0.32837339700E+02  0.51100000000E-03 0. -1.
        -11    1    3    3    0    0  0.22533049137E+01  0.52068848082E+00 -0.25364552353E+01  0.34325070939E+01  0.51100000000E-03 0.  1.
        -12    1    3    3    0    0  0.93157053566E+01  0.59488861658E+01  0.32371492140E+01  0.11517410644E+02  0.00000000000E+00 0.  1.
</event>
<event>
 7    1  0.1457722E-010  0.4778726E+02  0.7816164E-02  0.1312668E+00
        -11   -1    0    0    0    0  0.00000000000E+00  0.00000000000E+00  0.45593999997E+02  0.45594000000E+02  0.51100000000E-03 0. -1.
         11   -1    0    0    0    0 -0.00000000000E+00 -0.00000000000E+00 -0.45593999997E+02  0.45594000000E+02  0.51100000000E-03 0.  1.
    9900012    2    1    2    0    0 -0.26032296335E+02 -0.29607509412E+02  0.18147694246E+02  0.47787264148E+02  0.19999968556E+02 0.  0.
        -12    1    1    2    0    0  0.26032296335E+02  0.29607509412E+02 -0.18147694246E+02  0.43400735852E+02  0.00000000000E+00 0.  1.
         11    1    3    3    0    0 -0.15163111807E+02 -0.19911484699E+02  0.15285746144E+02  0.29326459350E+02  0.51100000000E-03 0. -1.
        -11    1    3    3    0    0 -0.24577145468E+01  0.14015494197E+01  0.35248980225E+01  0.45199123774E+01  0.51100000000E-03 0.  1.
        -12    1    3    3    0    0 -0.84114699814E+01 -0.11097574133E+02 -0.66294992004E+00  0.13940892421E+02  0.00000000000E+00 0.  1.
</event>
<event>
 7    1  0.1496507E-010  0.4778729E+02  0.7816164E-02  0.1312668E+00
        -11   -1    0    0    0    0  0.00000000000E+00  0.00000000000E+00  0.45593999997E+02  0.45594000000E+02  0.51100000000E-03 0.  1.
         11   -1    0    0    0    0 -0.00000000000E+00 -0.00000000000E+00 -0.45593999997E+02  0.45594000000E+02  0.51100000000E-03 0. -1.
    9900012    2    1    2    0    0 -0.43386908949E+02 -0.56032054356E+00 -0.94005525771E+00  0.47787291122E+02  0.20000091540E+02 0.  0.
        -12    1    1    2    0    0  0.43386908949E+02  0.56032054356E+00  0.94005525771E+00  0.43400708878E+02  0.00000000000E+00 0.  1.
         11    1    3    3    0    0 -0.10223646505E+02  0.28810498506E+01  0.26556291752E+01  0.10948779050E+02  0.51100000000E-03 0. -1.
        -11    1    3    3    0    0 -0.24599762682E+02 -0.58239486710E+00 -0.91337231903E+01  0.26247140937E+02  0.51100000000E-03 0.  1.
        -12    1    3    3    0    0 -0.85634997618E+01 -0.28589755270E+01  0.55380387575E+01  0.10591371135E+02  0.00000000000E+00 0.  1.
</event>
<event>
 7    1  0.1457722E-010  0.4778727E+02  0.7816164E-02  0.1312668E+00
        -11   -1    0    0    0    0  0.00000000000E+00  0.00000000000E+00  0.45593999997E+02  0.45594000000E+02  0.51100000000E-03 0. -1.
         11   -1    0    0    0    0 -0.00000000000E+00 -0.00000000000E+00 -0.45593999997E+02  0.45594000000E+02  0.51100000000E-03 0.  1.
    9900012    2    1    2    0    0 -0.39447779203E+02  0.10222575600E+02 -0.14933012244E+02  0.47787272003E+02  0.20000004371E+02 0.  0.
        -12    1    1    2    0    0  0.39447779203E+02 -0.10222575600E+02  0.14933012244E+02  0.43400727997E+02  0.00000000000E+00 0.  1.
         11    1    3    3    0    0 -0.16485550229E+02  0.78713497660E+01 -0.13790714635E+02  0.22889196663E+02  0.51100000000E-03 0. -1.
        -11    1    3    3    0    0 -0.22109049845E+02  0.21933917501E+01 -0.34029085780E+01  0.22476673230E+02  0.51100000000E-03 0.  1.
        -12    1    3    3    0    0 -0.85317912948E+00  0.15783408442E+00  0.22606109692E+01  0.24214021102E+01  0.00000000000E+00 0.  1.
</event>
<event>
 7    1  0.1457722E-010  0.4778727E+02  0.7816164E-02  0.1312668E+00
        -11   -1    0    0    0    0  0.00000000000E+00  0.00000000000E+00  0.45593999997E+02  0.45594000000E+02  0.51100000000E-03 0. -1.
         11   -1    0    0    0    0 -0.00000000000E+00 -0.00000000000E+00 -0.45593999997E+02  0.45594000000E+02  0.51100000000E-03 0.  1.
    9900012    2    1    2    0    0 -0.39301012870E+02  0.16967838897E+02  0.71516772819E+01  0.47787266626E+02  0.19999979856E+02 0.  0.
        -12    1    1    2    0    0  0.39301012870E+02 -0.16967838897E+02 -0.71516772819E+01  0.43400733374E+02  0.00000000000E+00 0.  1.
         11    1    3    3    0    0 -0.20406915132E+02  0.12506664254E+02  0.53831119135E+01  0.24532360875E+02  0.51100000000E-03 0. -1.
        -11    1    3    3    0    0 -0.95786688828E+01  0.47237446882E+01 -0.49449908140E+01  0.11769349849E+02  0.51100000000E-03 0.  1.
         12    1    3    3    0    0 -0.93154288545E+01 -0.26257004521E+00  0.67135561824E+01  0.11485555902E+02  0.00000000000E+00 0. -1.
</event>
<event>
 7    1  0.1457722E-010  0.4778726E+02  0.7816164E-02  0.1312668E+00
        -11   -1    0    0    0    0  0.00000000000E+00  0.00000000000E+00  0.45593999997E+02  0.45594000000E+02  0.51100000000E-03 0.  1.
         11   -1    0    0    0    0 -0.00000000000E+00 -0.00000000000E+00 -0.45593999997E+02  0.45594000000E+02  0.51100000000E-03 0. -1.
    9900012    2    1    2    0    0  0.35873550500E+02 -0.24108168207E+02 -0.39381520184E+01  0.47787257597E+02  0.19999938689E+02 0.  0.
        -12    1    1    2    0    0 -0.35873550500E+02  0.24108168207E+02  0.39381520184E+01  0.43400742403E+02  0.00000000000E+00 0.  1.
         11    1    3    3    0    0  0.26665430236E+02 -0.15141505558E+02 -0.73269129395E+00  0.30673232582E+02  0.51100000000E-03 0. -1.
        -11    1    3    3    0    0  0.72438828896E+01 -0.45601799485E+01 -0.69346704022E+01  0.11016294038E+02  0.51100000000E-03 0.  1.
        -12    1    3    3    0    0  0.19642373744E+01 -0.44064827003E+01  0.37292096777E+01  0.60977309773E+01  0.00000000000E+00 0.  1.
</event>
<event>
 7    1  0.1457722E-010  0.4778727E+02  0.7816164E-02  0.1312668E+00
        -11   -1    0    0    0    0  0.00000000000E+00  0.00000000000E+00  0.45593999997E+02  0.45594000000E+02  0.51100000000E-03 0. -1.
         11   -1    0    0    0    0 -0.00000000000E+00 -0.00000000000E+00 -0.45593999997E+02  0.45594000000E+02  0.51100000000E-03 0.  1.
    9900012    2    1    2    0    0 -0.25800852037E+02  0.86661138146E+01  0.33805883387E+02  0.47787271365E+02  0.20000001462E+02 0.  0.
        -12    1    1    2    0    0  0.25800852037E+02 -0.86661138146E+01 -0.33805883387E+02  0.43400728635E+02  0.00000000000E+00 0.  1.
         11    1    3    3    0    0 -0.39226222506E+01 -0.22920681725E+01  0.13449801401E+01  0.47380917748E+01  0.51100000000E-03 0.  1.
        -11    1    3    3    0    0 -0.21919323501E+02  0.88171227745E+01  0.33230763679E+02  0.40773545979E+02  0.51100000000E-03 0. -1.
         12    1    3    3    0    0  0.41093714294E-01  0.21410592125E+01 -0.76986043302E+00  0.22756336109E+01  0.00000000000E+00 0. -1.
</event>
<event>
 7    1  0.1457722E-010  0.4778727E+02  0.7816164E-02  0.1312668E+00
        -11   -1    0    0    0    0  0.00000000000E+00  0.00000000000E+00  0.45593999997E+02  0.45594000000E+02  0.51100000000E-03 0. -1.
         11   -1    0    0    0    0 -0.00000000000E+00 -0.00000000000E+00 -0.45593999997E+02  0.45594000000E+02  0.51100000000E-03 0.  1.
    9900012    2    1    2    0    0  0.29664221018E-01  0.33472118081E+01  0.43271452654E+02  0.47787270494E+02  0.19999997489E+02 0.  0.
        -12    1    1    2    0    0 -0.29664221018E-01 -0.33472118081E+01 -0.43271452654E+02  0.43400729506E+02  0.00000000000E+00 0.  1.
         11    1    3    3    0    0  0.17179750076E+01  0.44388140237E+01  0.22792833989E+02  0.23284496765E+02  0.51100000000E-03 0. -1.
        -11    1    3    3    0    0 -0.66839198687E+01  0.25894494001E+01  0.96307359676E+01  0.12005461613E+02  0.51100000000E-03 0.  1.
        -12    1    3    3    0    0  0.49956090822E+01 -0.36810516157E+01  0.10847882697E+02  0.12497312116E+02  0.00000000000E+00 0.  1.
</event>
<event>
 7    1  0.1457722E-010  0.4778727E+02  0.7816164E-02  0.1312668E+00
        -11   -1    0    0    0    0  0.00000000000E+00  0.00000000000E+00  0.45593999997E+02  0.45594000000E+02  0.51100000000E-03 0.  1.
         11   -1    0    0    0    0 -0.00000000000E+00 -0.00000000000E+00 -0.45593999997E+02  0.45594000000E+02  0.51100000000E-03 0. -1.
    9900012    2    1    2    0    0 -0.35156390385E+02 -0.13937862036E+02 -0.21292908187E+02  0.47787265881E+02  0.19999976457E+02 0.  0.
        -12    1    1    2    0    0  0.35156390385E+02  0.13937862036E+02  0.21292908187E+02  0.43400734119E+02  0.00000000000E+00 0.  1.
         11    1    3    3    0    0 -0.24736522378E+02 -0.96362308600E+01 -0.18747205392E+02  0.32499387606E+02  0.51100000000E-03 0. -1.
        -11    1    3    3    0    0 -0.88144703260E+01 -0.74486219104E+01 -0.18611829736E+01  0.11689348049E+02  0.51100000000E-03 0.  1.
        -12    1    3    3    0    0 -0.16053976814E+01  0.31469907340E+01 -0.68451982105E+00  0.35985302251E+01  0.00000000000E+00 0.  1.
</event>
<event>
 7    1  0.1457722E-010  0.4778727E+02  0.7816164E-02  0.1312668E+00
        -11   -1    0    0    0    0  0.00000000000E+00  0.00000000000E+00  0.45593999997E+02  0.45594000000E+02  0.51100000000E-03 0. -1.
         11   -1    0    0    0    0 -0.00000000000E+00 -0.00000000000E+00 -0.45593999997E+02  0.45594000000E+02  0.51100000000E-03 0.  1.
    9900012    2    1    2    0    0 -0.26426959742E+02  0.12716349044E+02  0.31992705431E+02  0.47787274948E+02  0.20000017798E+02 0.  0.
        -12    1    1    2    0    0  0.26426959742E+02 -0.12716349044E+02 -0.31992705431E+02  0.43400725052E+02  0.00000000000E+00 0.  1.
         11    1    3    3    0    0 -0.44473386157E+01  0.67184166872E+01  0.18859414024E+02  0.20508374902E+02  0.51100000000E-03 0. -1.
        -11    1    3    3    0    0 -0.10024864325E+01  0.25451156586E+00 -0.92017114036E+00  0.13843664158E+01  0.51100000000E-03 0.  1.
         12    1    3    3    0    0 -0.20977134694E+02  0.57434207909E+01  0.14053462548E+02  0.25894533630E+02  0.00000000000E+00 0. -1.
</event>
<event>
 7    1  0.1457722E-010  0.4778727E+02  0.7816164E-02  0.1312668E+00
        -11   -1    0    0    0    0  0.00000000000E+00  0.00000000000E+00  0.45593999997E+02  0.45594000000E+02  0.51100000000E-03 0.  1.
         11   -1    0    0    0    0 -0.00000000000E+00 -0.00000000000E+00 -0.45593999997E+02  0.45594000000E+02  0.51100000000E-03 0. -1.
    9900012    2    1    2    0    0  0.75844132915E+00 -0.31310571247E+02 -0.30044900848E+02  0.47787272218E+02  0.20000005349E+02 0.  0.
        -12    1    1    2    0    0 -0.75844132915E+00  0.31310571247E+02  0.30044900848E+02  0.43400727782E+02  0.00000000000E+00 0.  1.
         11    1    3    3    0    0  0.85197037808E+01 -0.15125332132E+02 -0.10795875383E+02  0.20442894858E+02  0.51100000000E-03 0.  1.
        -11    1    3    3    0    0 -0.52606533776E+01 -0.11217528654E+02 -0.78674778083E+01  0.14676669595E+02  0.51100000000E-03 0. -1.
        -12    1    3    3    0    0 -0.25006090740E+01 -0.49677104610E+01 -0.11381547657E+02  0.12667707766E+02  0.00000000000E+00 0.  1.
</event>
<event>
 7    1  0.1675712E-010  0.4778723E+02  0.7816164E-02  0.1312668E+00
        -11   -1    0    0    0    0  0.00000000000E+00  0.00000000000E+00  0.45593999997E+02  0.45594000000E+02  0.51100000000E-03 0. -1.
         11   -1    0    0    0    0 -0.00000000000E+00 -0.00000000000E+00 -0.45593999997E+02  0.45594000000E+02  0.51100000000E-03 0.  1.
    9900012    2    1    2    0    0 -0.24907350877E+02 -0.35122513119E+02  0.54460607481E+01  0.47787232344E+02  0.19999823548E+02 0.  0.
        -12    1    1    2    0    0  0.24907350877E+02  0.35122513119E+02 -0.54460607481E+01  0.43400767656E+02  0.00000000000E+00 0.  1.
         11    1    3    3    0    0 -0.14202593327E+02 -0.13809323746E+02 -0.12228897891E+01  0.19847078859E+02  0.51100000000E-03 0. -1.
        -11    1    3    3    0    0 -0.69279715985E+00  0.16779295470E+01  0.14570736133E+01  0.23277627123E+01  0.51100000000E-03 0.  1.
        -12    1    3    3    0    0 -0.10011960390E+02 -0.22991118920E+02  0.52118769240E+01  0.25612390773E+02  0.00000000000E+00 0.  1.
</event>
<event>
 7    1  0.1457722E-010  0.4778727E+02  0.7816164E-02  0.1312668E+00
        -11   -1    0    0    0    0  0.00000000000E+00  0.00000000000E+00  0.45593999997E+02  0.45594000000E+02  0.51100000000E-03 0.  1.
         11   -1    0    0    0    0 -0.00000000000E+00 -0.00000000000E+00 -0.45593999997E+02  0.45594000000E+02  0.51100000000E-03 0. -1.
    9900012    2    1    2    0    0 -0.35414468137E+02  0.86768163920E+01 -0.23540423678E+02  0.47787271400E+02  0.20000001620E+02 0.  0.
        -12    1    1    2    0    0  0.35414468137E+02 -0.86768163920E+01  0.23540423678E+02  0.43400728600E+02  0.00000000000E+00 0.  1.
         11    1    3    3    0    0 -0.99227097969E+01 -0.61210264089E+01 -0.89935546182E+01  0.14724508784E+02  0.51100000000E-03 0. -1.
        -11    1    3    3    0    0 -0.69061566091E+01  0.55587232673E+01 -0.54065267889E+01  0.10383878642E+02  0.51100000000E-03 0.  1.
        -12    1    3    3    0    0 -0.18585601731E+02  0.92391195336E+01 -0.91403422706E+01  0.22678883973E+02  0.00000000000E+00 0.  1.
</event>
<event>
 7    1  0.1457722E-010  0.4778727E+02  0.7816164E-02  0.1312668E+00
        -11   -1    0    0    0    0  0.00000000000E+00  0.00000000000E+00  0.45593999997E+02  0.45594000000E+02  0.51100000000E-03 0.  1.
         11   -1    0    0    0    0 -0.00000000000E+00 -0.00000000000E+00 -0.45593999997E+02  0.45594000000E+02  0.51100000000E-03 0. -1.
    9900012    2    1    2    0    0 -0.35058545530E+02  0.22211611421E+02 -0.12695115353E+02  0.47787271315E+02  0.20000001232E+02 0.  0.
        -12    1    1    2    0    0  0.35058545530E+02 -0.22211611421E+02  0.12695115353E+02  0.43400728685E+02  0.00000000000E+00 0.  1.
         11    1    3    3    0    0 -0.24419775210E+02  0.11151683553E+02 -0.12436558590E+02  0.29586372829E+02  0.51100000000E-03 0. -1.
        -11    1    3    3    0    0 -0.95465019027E+00  0.53546087643E+00 -0.33881022168E+01  0.35605213422E+01  0.51100000000E-03 0.  1.
        -12    1    3    3    0    0 -0.96841201297E+01  0.10524466992E+02  0.31295454537E+01  0.14640377143E+02  0.00000000000E+00 0.  1.
</event>
<event>
 7    1  0.1457722E-010  0.4778727E+02  0.7816164E-02  0.1312668E+00
        -11   -1    0    0    0    0  0.00000000000E+00  0.00000000000E+00  0.45593999997E+02  0.45594000000E+02  0.51100000000E-03 0.  1.
         11   -1    0    0    0    0 -0.00000000000E+00 -0.00000000000E+00 -0.45593999997E+02  0.45594000000E+02  0.51100000000E-03 0. -1.
    9900012    2    1    2    0    0  0.11919361499E+02 -0.41040616818E+02 -0.75643860739E+01  0.47787270236E+02  0.19999996316E+02 0.  0.
        -12    1    1    2    0    0 -0.11919361499E+02  0.41040616818E+02  0.75643860739E+01  0.43400729764E+02  0.00000000000E+00 0.  1.
         11    1    3    3    0    0  0.27088896567E+01  0.34086549665E+00  0.10126570899E+01  0.29120005326E+01  0.51100000000E-03 0. -1.
        -11    1    3    3    0    0  0.43172358270E+01 -0.22866912522E+02  0.13401962158E+01  0.23309447433E+02  0.51100000000E-03 0.  1.
         12    1    3    3    0    0  0.48932360150E+01 -0.18514569793E+02 -0.99172393795E+01  0.21565822271E+02  0.00000000000E+00 0. -1.
</event>
<event>
 7    1  0.1457722E-010  0.4778727E+02  0.7816164E-02  0.1312668E+00
        -11   -1    0    0    0    0  0.00000000000E+00  0.00000000000E+00  0.45593999997E+02  0.45594000000E+02  0.51100000000E-03 0.  1.
         11   -1    0    0    0    0 -0.00000000000E+00 -0.00000000000E+00 -0.45593999997E+02  0.45594000000E+02  0.51100000000E-03 0. -1.
    9900012    2    1    2    0    0 -0.17754625427E+02  0.20824188433E+02 -0.33686042420E+02  0.47787274178E+02  0.20000014286E+02 0.  0.
        -12    1    1    2    0    0  0.17754625427E+02 -0.20824188433E+02  0.33686042420E+02  0.43400725822E+02  0.00000000000E+00 0.  1.
         11    1    3    3    0    0  0.37200068231E+01  0.41014505755E+01 -0.65313563245E+01  0.85626493147E+01  0.51100000000E-03 0. -1.
        -11    1    3    3    0    0 -0.98560230703E+01  0.10663898741E+02 -0.99705601568E+01  0.17614539370E+02  0.51100000000E-03 0.  1.
        -12    1    3    3    0    0 -0.11618609180E+02  0.60588391165E+01 -0.17184125939E+02  0.21610085493E+02  0.00000000000E+00 0.  1.
</event>
<event>
 7    1  0.1457722E-010  0.4778727E+02  0.7816164E-02  0.1312668E+00
        -11   -1    0    0    0    0  0.00000000000E+00  0.00000000000E+00  0.45593999997E+02  0.45594000000E+02  0.51100000000E-03 0. -1.
         11   -1    0    0    0    0 -0.00000000000E+00 -0.00000000000E+00 -0.45593999997E+02  0.45594000000E+02  0.51100000000E-03 0.  1.
    9900012    2    1    2    0    0  0.29737634298E+02 -0.13868325582E+02  0.28407153872E+02  0.47787265683E+02  0.19999975556E+02 0.  0.
        -12    1    1    2    0    0 -0.29737634298E+02  0.13868325582E+02 -0.28407153872E+02  0.43400734317E+02  0.00000000000E+00 0.  1.
         11    1    3    3    0    0  0.11717758730E+02 -0.85352162017E+01  0.45731283089E+01  0.15200963392E+02  0.51100000000E-03 0. -1.
        -11    1    3    3    0    0  0.76377500674E+01  0.31651361288E+01  0.57577800685E+01  0.10074986074E+02  0.51100000000E-03 0.  1.
         12    1    3    3    0    0  0.10382125501E+02 -0.84982455096E+01  0.18076245495E+02  0.22511316218E+02  0.00000000000E+00 0. -1.
</event>
<event>
 7    1  0.1457722E-010  0.4778727E+02  0.7816164E-02  0.1312668E+00
        -11   -1    0    0    0    0  0.00000000000E+00  0.00000000000E+00  0.45593999997E+02  0.45594000000E+02  0.51100000000E-03 0. -1.
         11   -1    0    0    0    0 -0.00000000000E+00 -0.00000000000E+00 -0.45593999997E+02  0.45594000000E+02  0.51100000000E-03 0.  1.
    9900012    2    1    2    0    0 -0.18832232057E+00 -0.36737445489E+02  0.23107313254E+02  0.47787270834E+02  0.19999999042E+02 0.  0.
        -12    1    1    2    0    0  0.18832232057E+00  0.36737445489E+02 -0.23107313254E+02  0.43400729166E+02  0.00000000000E+00 0.  1.
         11    1    3    3    0    0 -0.52128301320E+00 -0.85894226947E+01 -0.38939641462E+00  0.86140320430E+01  0.51100000000E-03 0. -1.
        -11    1    3    3    0    0 -0.27916376308E+01 -0.70113195058E+01  0.18191903541E+00  0.75488367760E+01  0.51100000000E-03 0.  1.
        -12    1    3    3    0    0  0.31245983234E+01 -0.21136703288E+02  0.23314790633E+02  0.31624402015E+02  0.00000000000E+00 0.  1.
</event>
<event>
 7    1  0.1457722E-010  0.4778728E+02  0.7816164E-02  0.1312668E+00
        -11   -1    0    0    0    0  0.00000000000E+00  0.00000000000E+00  0.45593999997E+02  0.45594000000E+02  0.51100000000E-03 0.  1.
         11   -1    0    0    0    0 -0.00000000000E+00 -0.00000000000E+00 -0.45593999997E+02  0.45594000000E+02  0.51100000000E-03 0. -1.
    9900012    2    1    2    0    0  0.94561601651E+01  0.14256602185E+02 -0.39886753438E+02  0.47787276841E+02  0.20000026427E+02 0.  0.
        -12    1    1    2    0    0 -0.94561601651E+01 -0.14256602185E+02  0.39886753438E+02  0.43400723159E+02  0.00000000000E+00 0.  1.
         11    1    3    3    0    0  0.13260881928E+02  0.89647332541E+01 -0.24103284309E+02  0.28934162275E+02  0.51100000000E-03 0. -1.
        -11    1    3    3    0    0 -0.11775535533E+01  0.23851321758E+01 -0.14482451626E+02  0.14724703502E+02  0.51100000000E-03 0.  1.
        -12    1    3    3    0    0 -0.26271682096E+01  0.29067367547E+01 -0.13010175030E+01  0.41284110631E+01  0.00000000000E+00 0.  1.
</event>
<event>
 7    1  0.1457722E-010  0.4778726E+02  0.7816164E-02  0.1312668E+00
        -11   -1    0    0    0    0  0.00000000000E+00  0.00000000000E+00  0.45593999997E+02  0.45594000000E+02  0.51100000000E-03 0. -1.
         11   -1    0    0    0    0 -0.00000000000E+00 -0.00000000000E+00 -0.45593999997E+02  0.45594000000E+02  0.51100000000E-03 0.  1.
    9900012    2    1    2    0    0 -0.18715812492E+02  0.39037845892E+02  0.30641460477E+01  0.47787262216E+02  0.19999959750E+02 0.  0.
        -12    1    1    2    0    0  0.18715812492E+02 -0.39037845892E+02 -0.30641460477E+01  0.43400737784E+02  0.00000000000E+00 0.  1.
         11    1    3    3    0    0 -0.29672025137E+01  0.18374271656E+02  0.66596292473E+01  0.19767873220E+02  0.51100000000E-03 0. -1.
        -11    1    3    3    0    0 -0.30857494261E+01 -0.37393347711E+00  0.42716718136E+00  0.31375384983E+01  0.51100000000E-03 0.  1.
         12    1    3    3    0    0 -0.12662860552E+02  0.21037507713E+02 -0.40226503810E+01  0.24881850499E+02  0.00000000000E+00 0. -1.
</event>
<event>
 7    1  0.1457722E-010  0.4778727E+02  0.7816164E-02  0.1312668E+00
        -11   -1    0    0    0    0  0.00000000000E+00  0.00000000000E+00  0.45593999997E+02  0.45594000000E+02  0.51100000000E-03 0.  1.
         11   -1    0    0    0    0 -0.00000000000E+00 -0.00000000000E+00 -0.45593999997E+02  0.45594000000E+02  0.51100000000E-03 0. -1.
    9900012    2    1    2    0    0  0.33317490730E+02  0.27542286889E+02 -0.38717519137E+01  0.47787271682E+02  0.20000002908E+02 0.  0.
        -12    1    1    2    0    0 -0.33317490730E+02 -0.27542286889E+02  0.38717519137E+01  0.43400728318E+02  0.00000000000E+00 0.  1.
         11    1    3    3    0    0  0.19445681545E+02  0.19867903100E+02  0.15648567272E+01  0.27844512587E+02  0.51100000000E-03 0. -1.
        -11    1    3    3    0    0  0.14256770640E+02  0.43650053426E+01 -0.18122803977E+01  0.15019758361E+02  0.51100000000E-03 0.  1.
         12    1    3    3    0    0 -0.38496145461E+00  0.33093784460E+01 -0.36243282432E+01  0.49230007348E+01  0.00000000000E+00 0. -1.
</event>
<event>
 7    1  0.1457722E-010  0.4778727E+02  0.7816164E-02  0.1312668E+00
        -11   -1    0    0    0    0  0.00000000000E+00  0.00000000000E+00  0.45593999997E+02  0.45594000000E+02  0.51100000000E-03 0.  1.
         11   -1    0    0    0    0 -0.00000000000E+00 -0.00000000000E+00 -0.45593999997E+02  0.45594000000E+02  0.51100000000E-03 0. -1.
    9900012    2    1    2    0    0  0.29179742094E-01 -0.43393337487E+02 -0.80042868792E+00  0.47787271022E+02  0.19999999899E+02 0.  0.
        -12    1    1    2    0    0 -0.29179742094E-01  0.43393337487E+02  0.80042868792E+00  0.43400728978E+02  0.00000000000E+00 0.  1.
         11    1    3    3    0    0  0.38783308827E+01 -0.14369170987E+02  0.64316293841E+01  0.16213586342E+02  0.51100000000E-03 0. -1.
        -11    1    3    3    0    0  0.95819811962E+00 -0.39203376018E+01  0.18613631104E+01  0.44443068569E+01  0.51100000000E-03 0.  1.
        -12    1    3    3    0    0 -0.48073492602E+01 -0.25103828898E+02 -0.90934211824E+01  0.27129377823E+02  0.00000000000E+00 0.  1.
</event>
<event>
 7    1  0.1457722E-010  0.4778727E+02  0.7816164E-02  0.1312668E+00
        -11   -1    0    0    0    0  0.00000000000E+00  0.00000000000E+00  0.45593999997E+02  0.45594000000E+02  0.51100000000E-03 0.  1.
         11   -1    0    0    0    0 -0.00000000000E+00 -0.00000000000E+00 -0.45593999997E+02  0.45594000000E+02  0.51100000000E-03 0. -1.
    9900012    2    1    2    0    0 -0.41834589441E+02  0.36800504671E+01 -0.10952065333E+02  0.47787269820E+02  0.19999994418E+02 0.  0.
        -12    1    1    2    0    0  0.41834589441E+02 -0.36800504671E+01  0.10952065333E+02  0.43400730180E+02  0.00000000000E+00 0.  1.
         11    1    3    3    0    0 -0.16892306156E+02  0.51175647987E+01 -0.12959571970E+02  0.21897259706E+02  0.51100000000E-03 0. -1.
        -11    1    3    3    0    0 -0.15749712559E+02 -0.19327881578E+01 -0.17143687739E+01  0.15960206023E+02  0.51100000000E-03 0.  1.
        -12    1    3    3    0    0 -0.91925707258E+01  0.49527382616E+00  0.37218754109E+01  0.99298040910E+01  0.00000000000E+00 0.  1.
</event>
<event>
 7    1  0.1457722E-010  0.4778727E+02  0.7816164E-02  0.1312668E+00
        -11   -1    0    0    0    0  0.00000000000E+00  0.00000000000E+00  0.45593999997E+02  0.45594000000E+02  0.51100000000E-03 0. -1.
         11   -1    0    0    0    0 -0.00000000000E+00 -0.00000000000E+00 -0.45593999997E+02  0.45594000000E+02  0.51100000000E-03 0.  1.
    9900012    2    1    2    0    0  0.86994648738E+01  0.31417547380E+02  0.28651015639E+02  0.47787266485E+02  0.19999979213E+02 0.  0.
        -12    1    1    2    0    0 -0.86994648738E+01 -0.31417547380E+02 -0.28651015639E+02  0.43400733515E+02  0.00000000000E+00 0.  1.
         11    1    3    3    0    0 -0.26591150927E+01  0.56369509154E+01  0.97182114256E+01  0.11545117681E+02  0.51100000000E-03 0. -1.
        -11    1    3    3    0    0  0.53783612827E+01  0.16630584751E+02  0.43401357867E+01  0.18009439140E+02  0.51100000000E-03 0.  1.
         12    1    3    3    0    0  0.59802186839E+01  0.91500117136E+01  0.14592668427E+02  0.18232709664E+02  0.00000000000E+00 0. -1.
</event>
<event>
 7    1  0.1457722E-010  0.4778728E+02  0.7816164E-02  0.1312668E+00
        -11   -1    0    0    0    0  0.00000000000E+00  0.00000000000E+00  0.45593999997E+02  0.45594000000E+02  0.51100000000E-03 0.  1.
         11   -1    0    0    0    0 -0.00000000000E+00 -0.00000000000E+00 -0.45593999997E+02  0.45594000000E+02  0.51100000000E-03 0. -1.
    9900012    2    1    2    0    0  0.35267008278E+02 -0.22224604916E+02 -0.12080042288E+02  0.47787281593E+02  0.20000048096E+02 0.  0.
        -12    1    1    2    0    0 -0.35267008278E+02  0.22224604916E+02  0.12080042288E+02  0.43400718407E+02  0.00000000000E+00 0.  1.
         11    1    3    3    0    0  0.34076774110E+02 -0.19532418447E+02 -0.10489298080E+02  0.40654240597E+02  0.51100000000E-03 0. -1.
        -11    1    3    3    0    0  0.16507658666E+01 -0.12292983845E+01  0.22187632731E+01  0.30264026810E+01  0.51100000000E-03 0.  1.
         12    1    3    3    0    0 -0.46053169800E+00 -0.14628880844E+01 -0.38095074819E+01  0.41066383146E+01  0.00000000000E+00 0. -1.
</event>
<event>
 7    1  0.1457722E-010  0.4778727E+02  0.7816164E-02  0.1312668E+00
        -11   -1    0    0    0    0  0.00000000000E+00  0.00000000000E+00  0.45593999997E+02  0.45594000000E+02  0.51100000000E-03 0.  1.
         11   -1    0    0    0    0 -0.00000000000E+00 -0.00000000000E+00 -0.45593999997E+02  0.45594000000E+02  0.51100000000E-03 0. -1.
    9900012    2    1    2    0    0  0.61540701519E+01 -0.20872691972E+02 -0.37551049999E+02  0.47787271831E+02  0.20000003586E+02 0.  0.
        -12    1    1    2    0    0 -0.61540701519E+01  0.20872691972E+02  0.37551049999E+02  0.43400728169E+02  0.00000000000E+00 0.  1.
         11    1    3    3    0    0  0.59871416247E+01 -0.63972099183E+01 -0.18556280423E+02  0.20520860191E+02  0.51100000000E-03 0. -1.
        -11    1    3    3    0    0  0.77480285821E+00  0.17630308072E+01  0.39695458529E+00  0.19662579434E+01  0.51100000000E-03 0.  1.
        -12    1    3    3    0    0 -0.60787433104E+00 -0.16238512861E+02 -0.19391724161E+02  0.25300153697E+02  0.00000000000E+00 0.  1.
</event>
<event>
 7    1  0.1457722E-010  0.4778724E+02  0.7816164E-02  0.1312668E+00
        -11   -1    0    0    0    0  0.00000000000E+00  0.00000000000E+00  0.45593999997E+02  0.45594000000E+02  0.51100000000E-03 0.  1.
         11   -1    0    0    0    0 -0.00000000000E+00 -0.00000000000E+00 -0.45593999997E+02  0.45594000000E+02  0.51100000000E-03 0. -1.
    9900012    2    1    2    0    0 -0.39756091304E+02  0.77087383004E+01 -0.15609438082E+02  0.47787239647E+02  0.19999856848E+02 0.  0.
        -12    1    1    2    0    0  0.39756091304E+02 -0.77087383004E+01  0.15609438082E+02  0.43400760353E+02  0.00000000000E+00 0.  1.
         11    1    3    3    0    0 -0.24811606366E+01  0.34479951827E+01 -0.57043951071E+01  0.71123099400E+01  0.51100000000E-03 0. -1.
        -11    1    3    3    0    0 -0.59964834204E+00 -0.20748714095E+01 -0.11233055432E+01  0.24344373281E+01  0.51100000000E-03 0.  1.
        -12    1    3    3    0    0 -0.36675282325E+02  0.63356145273E+01 -0.87817374316E+01  0.38240492379E+02  0.00000000000E+00 0.  1.
</event>
<event>
 7    1  0.1457722E-010  0.4778727E+02  0.7816164E-02  0.1312668E+00
        -11   -1    0    0    0    0  0.00000000000E+00  0.00000000000E+00  0.45593999997E+02  0.45594000000E+02  0.51100000000E-03 0.  1.
         11   -1    0    0    0    0 -0.00000000000E+00 -0.00000000000E+00 -0.45593999997E+02  0.45594000000E+02  0.51100000000E-03 0. -1.
    9900012    2    1    2    0    0  0.72601673802E+01  0.20273426593E+02 -0.37681579746E+02  0.47787270648E+02  0.19999998190E+02 0.  0.
        -12    1    1    2    0    0 -0.72601673802E+01 -0.20273426593E+02  0.37681579746E+02  0.43400729352E+02  0.00000000000E+00 0.  1.
         11    1    3    3    0    0 -0.33433376905E+01  0.63360983066E+01 -0.50022684958E+01  0.87376621032E+01  0.51100000000E-03 0. -1.
        -11    1    3    3    0    0  0.66514586674E+01  0.13383976329E+01 -0.51518409678E+01  0.85190771945E+01  0.51100000000E-03 0.  1.
         12    1    3    3    0    0  0.39520464034E+01  0.12598930653E+02 -0.27527470282E+02  0.30530531350E+02  0.00000000000E+00 0. -1.
</event>
<event>
 7    1  0.1457722E-010  0.4778727E+02  0.7816164E-02  0.1312668E+00
        -11   -1    0    0    0    0  0.00000000000E+00  0.00000000000E+00  0.45593999997E+02  0.45594000000E+02  0.51100000000E-03 0.  1.
         11   -1    0    0    0    0 -0.00000000000E+00 -0.00000000000E+00 -0.45593999997E+02  0.45594000000E+02  0.51100000000E-03 0. -1.
    9900012    2    1    2    0    0 -0.34671368841E+02 -0.25823643714E+02  0.38287165510E+01  0.47787268872E+02  0.19999990097E+02 0.  0.
        -12    1    1    2    0    0  0.34671368841E+02  0.25823643714E+02 -0.38287165510E+01  0.43400731128E+02  0.00000000000E+00 0.  1.
         11    1    3    3    0    0 -0.24687699973E+02 -0.16282611504E+02 -0.29942604049E+01  0.29724931673E+02  0.51100000000E-03 0. -1.
        -11    1    3    3    0    0 -0.90702946742E+01 -0.26121338187E+01  0.55766586134E+01  0.10963239034E+02  0.51100000000E-03 0.  1.
        -12    1    3    3    0    0 -0.91337419326E+00 -0.69288983923E+01  0.12463183425E+01  0.70990981652E+01  0.00000000000E+00 0.  1.
</event>
<event>
 7    1  0.1457722E-010  0.4778727E+02  0.7816164E-02  0.1312668E+00
        -11   -1    0    0    0    0  0.00000000000E+00  0.00000000000E+00  0.45593999997E+02  0.45594000000E+02  0.51100000000E-03 0.  1.
         11   -1    0    0    0    0 -0.00000000000E+00 -0.00000000000E+00 -0.45593999997E+02  0.45594000000E+02  0.51100000000E-03 0. -1.
    9900012    2    1    2    0    0  0.15232345094E+02 -0.47638765512E+01 -0.40359689638E+02  0.47787269539E+02  0.19999993134E+02 0.  0.
        -12    1    1    2    0    0 -0.15232345094E+02  0.47638765512E+01  0.40359689638E+02  0.43400730461E+02  0.00000000000E+00 0.  1.
         11    1    3    3    0    0  0.83664105381E+01 -0.44311739538E+00 -0.69409283380E+01  0.10879782386E+02  0.51100000000E-03 0. -1.
        -11    1    3    3    0    0  0.82352280337E+01  0.24940522149E+01 -0.16310038300E+02  0.18440624361E+02  0.51100000000E-03 0.  1.
        -12    1    3    3    0    0 -0.13692934774E+01 -0.68148113707E+01 -0.17108723001E+02  0.18466862791E+02  0.00000000000E+00 0.  1.
</event>
<event>
 7    1  0.1457722E-010  0.4778727E+02  0.7816164E-02  0.1312668E+00
        -11   -1    0    0    0    0  0.00000000000E+00  0.00000000000E+00  0.45593999997E+02  0.45594000000E+02  0.51100000000E-03 0. -1.
         11   -1    0    0    0    0 -0.00000000000E+00 -0.00000000000E+00 -0.45593999997E+02  0.45594000000E+02  0.51100000000E-03 0.  1.
    9900012    2    1    2    0    0 -0.10986451364E+02 -0.25672903048E+02  0.33223831754E+02  0.47787273498E+02  0.20000011188E+02 0.  0.
        -12    1    1    2    0    0  0.10986451364E+02  0.25672903048E+02 -0.33223831754E+02  0.43400726502E+02  0.00000000000E+00 0.  1.
         11    1    3    3    0    0  0.25283776330E+01 -0.25471125400E+01  0.90502004945E+01  0.97358412578E+01  0.51100000000E-03 0. -1.
        -11    1    3    3    0    0 -0.75153562870E+01 -0.27448980310E+01  0.50112374570E+01  0.94407386593E+01  0.51100000000E-03 0.  1.
         12    1    3    3    0    0 -0.59994727104E+01 -0.20380892477E+02  0.19162393802E+02  0.28610693581E+02  0.00000000000E+00 0. -1.
</event>
<event>
 7    1  0.1457722E-010  0.4778727E+02  0.7816164E-02  0.1312668E+00
        -11   -1    0    0    0    0  0.00000000000E+00  0.00000000000E+00  0.45593999997E+02  0.45594000000E+02  0.51100000000E-03 0.  1.
         11   -1    0    0    0    0 -0.00000000000E+00 -0.00000000000E+00 -0.45593999997E+02  0.45594000000E+02  0.51100000000E-03 0. -1.
    9900012    2    1    2    0    0 -0.18979555534E+00  0.17604562835E+02 -0.39669468169E+02  0.47787270055E+02  0.19999995487E+02 0.  0.
        -12    1    1    2    0    0  0.18979555534E+00 -0.17604562835E+02  0.39669468169E+02  0.43400729945E+02  0.00000000000E+00 0.  1.
         11    1    3    3    0    0 -0.20874466942E+01  0.85813955107E+01 -0.18101415886E+02  0.20140979121E+02  0.51100000000E-03 0. -1.
        -11    1    3    3    0    0 -0.96993356662E-01 -0.36456101385E+01 -0.89069458104E+01  0.96246332358E+01  0.51100000000E-03 0.  1.
        -12    1    3    3    0    0  0.19946444955E+01  0.12668777463E+02 -0.12661106473E+02  0.18021657698E+02  0.00000000000E+00 0.  1.
</event>
<event>
 7    1  0.1457722E-010  0.4778727E+02  0.7816164E-02  0.1312668E+00
        -11   -1    0    0    0    0  0.00000000000E+00  0.00000000000E+00  0.45593999997E+02  0.45594000000E+02  0.51100000000E-03 0. -1.
         11   -1    0    0    0    0 -0.00000000000E+00 -0.00000000000E+00 -0.45593999997E+02  0.45594000000E+02  0.51100000000E-03 0.  1.
    9900012    2    1    2    0    0  0.35721634837E+02 -0.23695027618E+02  0.67921728223E+01  0.47787272577E+02  0.20000006987E+02 0.  0.
        -12    1    1    2    0    0 -0.35721634837E+02  0.23695027618E+02 -0.67921728223E+01  0.43400727423E+02  0.00000000000E+00 0.  1.
         11    1    3    3    0    0  0.25136986632E+02 -0.10836885994E+02  0.43741045670E+01  0.27720732061E+02  0.51100000000E-03 0. -1.
        -11    1    3    3    0    0  0.40619555191E+01 -0.97930857408E+00 -0.33330402850E+01  0.53448747155E+01  0.51100000000E-03 0.  1.
        -12    1    3    3    0    0  0.65226926856E+01 -0.11878833050E+02  0.57511085403E+01  0.14721665800E+02  0.00000000000E+00 0.  1.
</event>
<event>
 7    1  0.1457722E-010  0.4778727E+02  0.7816164E-02  0.1312668E+00
        -11   -1    0    0    0    0  0.00000000000E+00  0.00000000000E+00  0.45593999997E+02  0.45594000000E+02  0.51100000000E-03 0.  1.
         11   -1    0    0    0    0 -0.00000000000E+00 -0.00000000000E+00 -0.45593999997E+02  0.45594000000E+02  0.51100000000E-03 0. -1.
    9900012    2    1    2    0    0 -0.83815829591E+01  0.35578758283E+02 -0.23399232262E+02  0.47787273689E+02  0.20000012057E+02 0.  0.
        -12    1    1    2    0    0  0.83815829591E+01 -0.35578758283E+02  0.23399232262E+02  0.43400726311E+02  0.00000000000E+00 0.  1.
         11    1    3    3    0    0 -0.82342305207E+00  0.44420854758E+01 -0.59024923822E+01  0.74330051446E+01  0.51100000000E-03 0. -1.
        -11    1    3    3    0    0  0.40132791116E+00  0.51622404595E+00  0.27273118990E+01  0.28046001165E+01  0.51100000000E-03 0.  1.
        -12    1    3    3    0    0 -0.79594878182E+01  0.30620448762E+02 -0.20224051779E+02  0.37549668428E+02  0.00000000000E+00 0.  1.
</event>
<event>
 7    1  0.1457722E-010  0.4778727E+02  0.7816164E-02  0.1312668E+00
        -11   -1    0    0    0    0  0.00000000000E+00  0.00000000000E+00  0.45593999997E+02  0.45594000000E+02  0.51100000000E-03 0.  1.
         11   -1    0    0    0    0 -0.00000000000E+00 -0.00000000000E+00 -0.45593999997E+02  0.45594000000E+02  0.51100000000E-03 0. -1.
    9900012    2    1    2    0    0 -0.12004294324E+02 -0.39393869415E+02 -0.13698284753E+02  0.47787273798E+02  0.20000012555E+02 0.  0.
        -12    1    1    2    0    0  0.12004294324E+02  0.39393869415E+02  0.13698284753E+02  0.43400726202E+02  0.00000000000E+00 0.  1.
         11    1    3    3    0    0 -0.17146913736E+01 -0.10456951847E+02 -0.99338803354E+01  0.14524805927E+02  0.51100000000E-03 0.  1.
        -11    1    3    3    0    0 -0.11104105542E+02 -0.22079288324E+02 -0.69273063039E+01  0.25666782144E+02  0.51100000000E-03 0. -1.
         12    1    3    3    0    0  0.81450259125E+00 -0.68576292445E+01  0.31629018860E+01  0.75956857272E+01  0.00000000000E+00 0. -1.
</event>
<event>
 7    1  0.1457722E-010  0.4778728E+02  0.7816164E-02  0.1312668E+00
        -11   -1    0    0    0    0  0.00000000000E+00  0.00000000000E+00  0.45593999997E+02  0.45594000000E+02  0.51100000000E-03 0. -1.
         11   -1    0    0    0    0 -0.00000000000E+00 -0.00000000000E+00 -0.45593999997E+02  0.45594000000E+02  0.51100000000E-03 0.  1.
    9900012    2    1    2    0    0 -0.37954832826E+02 -0.48452380327E+01  0.20483565366E+02  0.47787284378E+02  0.20000060791E+02 0.  0.
        -12    1    1    2    0    0  0.37954832826E+02  0.48452380327E+01 -0.20483565366E+02  0.43400715622E+02  0.00000000000E+00 0.  1.
         11    1    3    3    0    0 -0.10494788541E+02 -0.82197318980E+01  0.52824003747E+01  0.14339049235E+02  0.51100000000E-03 0. -1.
        -11    1    3    3    0    0 -0.23934526773E+02 -0.10585643743E+01  0.10821994610E+02  0.26288737094E+02  0.51100000000E-03 0.  1.
        -12    1    3    3    0    0 -0.35255175128E+01  0.44330582395E+01  0.43791703806E+01  0.71594980488E+01  0.00000000000E+00 0.  1.
</event>
<event>
 7    1  0.1457722E-010  0.4778727E+02  0.7816164E-02  0.1312668E+00
        -11   -1    0    0    0    0  0.00000000000E+00  0.00000000000E+00  0.45593999997E+02  0.45594000000E+02  0.51100000000E-03 0.  1.
         11   -1    0    0    0    0 -0.00000000000E+00 -0.00000000000E+00 -0.45593999997E+02  0.45594000000E+02  0.51100000000E-03 0. -1.
    9900012    2    1    2    0    0  0.20507798734E+02  0.18814428472E+02 -0.33302711676E+02  0.47787272672E+02  0.20000007419E+02 0.  0.
        -12    1    1    2    0    0 -0.20507798734E+02 -0.18814428472E+02  0.33302711676E+02  0.43400727328E+02  0.00000000000E+00 0.  1.
         11    1    3    3    0    0  0.62154428951E+01  0.11855428077E+02 -0.22398215127E+02  0.26093350617E+02  0.51100000000E-03 0. -1.
        -11    1    3    3    0    0  0.36558768671E+01 -0.18095750192E+01 -0.55898999302E+01  0.69200418285E+01  0.51100000000E-03 0.  1.
        -12    1    3    3    0    0  0.10636478972E+02  0.87685754140E+01 -0.53145966186E+01  0.14773880226E+02  0.00000000000E+00 0.  1.
</event>
<event>
 7    1  0.1457722E-010  0.4778727E+02  0.7816164E-02  0.1312668E+00
        -11   -1    0    0    0    0  0.00000000000E+00  0.00000000000E+00  0.45593999997E+02  0.45594000000E+02  0.51100000000E-03 0.  1.
         11   -1    0    0    0    0 -0.00000000000E+00 -0.00000000000E+00 -0.45593999997E+02  0.45594000000E+02  0.51100000000E-03 0. -1.
    9900012    2    1    2    0    0 -0.19832036147E+02 -0.20766644805E+01 -0.38548686983E+02  0.47787268886E+02  0.19999990160E+02 0.  0.
        -12    1    1    2    0    0  0.19832036147E+02  0.20766644805E+01  0.38548686983E+02  0.43400731114E+02  0.00000000000E+00 0.  1.
         11    1    3    3    0    0 -0.32081159875E+01 -0.27799903873E+01 -0.75086306974E+01  0.86255370821E+01  0.51100000000E-03 0. -1.
        -11    1    3    3    0    0 -0.70135665772E+01  0.85110785921E+01 -0.10809230832E+02  0.15442410640E+02  0.51100000000E-03 0.  1.
        -12    1    3    3    0    0 -0.96103535826E+01 -0.78077526854E+01 -0.20230825453E+02  0.23719321164E+02  0.00000000000E+00 0.  1.
</event>
<event>
 7    1  0.1457722E-010  0.4778727E+02  0.7816164E-02  0.1312668E+00
        -11   -1    0    0    0    0  0.00000000000E+00  0.00000000000E+00  0.45593999997E+02  0.45594000000E+02  0.51100000000E-03 0. -1.
         11   -1    0    0    0    0 -0.00000000000E+00 -0.00000000000E+00 -0.45593999997E+02  0.45594000000E+02  0.51100000000E-03 0.  1.
    9900012    2    1    2    0    0 -0.86502724928E+01 -0.17876618272E+02  0.38590445629E+02  0.47787272024E+02  0.20000004465E+02 0.  0.
        -12    1    1    2    0    0  0.86502724928E+01  0.17876618272E+02 -0.38590445629E+02  0.43400727976E+02  0.00000000000E+00 0.  1.
         11    1    3    3    0    0 -0.55205635312E+01 -0.17678205492E+02  0.26069681808E+02  0.31978490912E+02  0.51100000000E-03 0. -1.
        -11    1    3    3    0    0  0.30998731783E-02 -0.15414375034E+01 -0.10181833247E+01  0.18473593939E+01  0.51100000000E-03 0.  1.
        -12    1    3    3    0    0 -0.31328088348E+01  0.13430247236E+01  0.13538947145E+02  0.13961421718E+02  0.00000000000E+00 0.  1.
</event>
<event>
 7    1  0.1457722E-010  0.4778727E+02  0.7816164E-02  0.1312668E+00
        -11   -1    0    0    0    0  0.00000000000E+00  0.00000000000E+00  0.45593999997E+02  0.45594000000E+02  0.51100000000E-03 0.  1.
         11   -1    0    0    0    0 -0.00000000000E+00 -0.00000000000E+00 -0.45593999997E+02  0.45594000000E+02  0.51100000000E-03 0. -1.
    9900012    2    1    2    0    0 -0.33764187475E+02  0.22107197876E+02 -0.15964805172E+02  0.47787267772E+02  0.19999985079E+02 0.  0.
        -12    1    1    2    0    0  0.33764187475E+02 -0.22107197876E+02  0.15964805172E+02  0.43400732228E+02  0.00000000000E+00 0.  1.
         11    1    3    3    0    0 -0.52224982549E+01  0.49933434845E+01 -0.13308576943E+01  0.73470504041E+01  0.51100000000E-03 0. -1.
        -11    1    3    3    0    0 -0.15289791588E+02  0.78295517110E+00 -0.92959836402E+00  0.15338021352E+02  0.51100000000E-03 0.  1.
         12    1    3    3    0    0 -0.13251897631E+02  0.16330899221E+02 -0.13704349114E+02  0.25102196016E+02  0.00000000000E+00 0. -1.
</event>
<event>
 7    1  0.1457722E-010  0.4778727E+02  0.7816164E-02  0.1312668E+00
        -11   -1    0    0    0    0  0.00000000000E+00  0.00000000000E+00  0.45593999997E+02  0.45594000000E+02  0.51100000000E-03 0.  1.
         11   -1    0    0    0    0 -0.00000000000E+00 -0.00000000000E+00 -0.45593999997E+02  0.45594000000E+02  0.51100000000E-03 0. -1.
    9900012    2    1    2    0    0  0.17601846915E+02  0.28213846234E+01 -0.39570673207E+02  0.47787269544E+02  0.19999993161E+02 0.  0.
        -12    1    1    2    0    0 -0.17601846915E+02 -0.28213846234E+01  0.39570673207E+02  0.43400730456E+02  0.00000000000E+00 0.  1.
         11    1    3    3    0    0  0.26525041188E+01 -0.24139263948E+01 -0.30786904881E+01  0.47266430077E+01  0.51100000000E-03 0. -1.
        -11    1    3    3    0    0  0.43728452888E+01 -0.55896035139E+01 -0.16700795418E+02  0.18146129373E+02  0.51100000000E-03 0.  1.
         12    1    3    3    0    0  0.10576497507E+02  0.10824914532E+02 -0.19791187301E+02  0.24914497164E+02  0.00000000000E+00 0. -1.
</event>
<event>
 7    1  0.1457722E-010  0.4778727E+02  0.7816164E-02  0.1312668E+00
        -11   -1    0    0    0    0  0.00000000000E+00  0.00000000000E+00  0.45593999997E+02  0.45594000000E+02  0.51100000000E-03 0.  1.
         11   -1    0    0    0    0 -0.00000000000E+00 -0.00000000000E+00 -0.45593999997E+02  0.45594000000E+02  0.51100000000E-03 0. -1.
    9900012    2    1    2    0    0 -0.41227345972E+02 -0.63434031596E+01 -0.11987092834E+02  0.47787271732E+02  0.20000003137E+02 0.  0.
        -12    1    1    2    0    0  0.41227345972E+02  0.63434031596E+01  0.11987092834E+02  0.43400728268E+02  0.00000000000E+00 0.  1.
         11    1    3    3    0    0 -0.28324076667E+02 -0.80438479388E+01 -0.24755548604E+01  0.29548014838E+02  0.51100000000E-03 0. -1.
        -11    1    3    3    0    0 -0.10573537927E+02 -0.20684602435E+01 -0.84255280405E+01  0.13677271479E+02  0.51100000000E-03 0.  1.
        -12    1    3    3    0    0 -0.23297313772E+01  0.37689050227E+01 -0.10860099330E+01  0.45619854159E+01  0.00000000000E+00 0.  1.
</event>
<event>
 7    1  0.1457722E-010  0.4778729E+02  0.7816164E-02  0.1312668E+00
        -11   -1    0    0    0    0  0.00000000000E+00  0.00000000000E+00  0.45593999997E+02  0.45594000000E+02  0.51100000000E-03 0.  1.
         11   -1    0    0    0    0 -0.00000000000E+00 -0.00000000000E+00 -0.45593999997E+02  0.45594000000E+02  0.51100000000E-03 0. -1.
    9900012    2    1    2    0    0 -0.17765823782E+01  0.21796103941E+02 -0.37488605182E+02  0.47787286752E+02  0.20000071618E+02 0.  0.
        -12    1    1    2    0    0  0.17765823782E+01 -0.21796103941E+02  0.37488605182E+02  0.43400713248E+02  0.00000000000E+00 0.  1.
         11    1    3    3    0    0 -0.26447106067E+00  0.10891634261E+02 -0.19252458833E+02  0.22121365536E+02  0.51100000000E-03 0. -1.
        -11    1    3    3    0    0  0.39677529032E+01  0.21034064830E+01 -0.13575296450E+02  0.14298813094E+02  0.51100000000E-03 0.  1.
        -12    1    3    3    0    0 -0.54798642208E+01  0.88010631972E+01 -0.46608498989E+01  0.11367108122E+02  0.00000000000E+00 0.  1.
</event>
<event>
 7    1  0.1457722E-010  0.4778727E+02  0.7816164E-02  0.1312668E+00
        -11   -1    0    0    0    0  0.00000000000E+00  0.00000000000E+00  0.45593999997E+02  0.45594000000E+02  0.51100000000E-03 0.  1.
         11   -1    0    0    0    0 -0.00000000000E+00 -0.00000000000E+00 -0.45593999997E+02  0.45594000000E+02  0.51100000000E-03 0. -1.
    9900012    2    1    2    0    0  0.11852770126E+02 -0.33319819783E+02 -0.25157990901E+02  0.47787273553E+02  0.20000011436E+02 0.  0.
        -12    1    1    2    0    0 -0.11852770126E+02  0.33319819783E+02  0.25157990901E+02  0.43400726447E+02  0.00000000000E+00 0.  1.
         11    1    3    3    0    0 -0.31703648175E+01 -0.58874824194E+01 -0.41092424137E+01  0.78485371753E+01  0.51100000000E-03 0.  1.
        -11    1    3    3    0    0  0.10111475476E+02 -0.11102912282E+02 -0.33987878431E+01  0.15397024274E+02  0.51100000000E-03 0. -1.
         12    1    3    3    0    0  0.49116594672E+01 -0.16329425081E+02 -0.17649960644E+02  0.24541712103E+02  0.00000000000E+00 0. -1.
</event>
<event>
 7    1  0.1457722E-010  0.4778727E+02  0.7816164E-02  0.1312668E+00
        -11   -1    0    0    0    0  0.00000000000E+00  0.00000000000E+00  0.45593999997E+02  0.45594000000E+02  0.51100000000E-03 0.  1.
         11   -1    0    0    0    0 -0.00000000000E+00 -0.00000000000E+00 -0.45593999997E+02  0.45594000000E+02  0.51100000000E-03 0. -1.
    9900012    2    1    2    0    0 -0.17176842292E+02 -0.14748738933E+02 -0.37027748243E+02  0.47787270154E+02  0.19999995939E+02 0.  0.
        -12    1    1    2    0    0  0.17176842292E+02  0.14748738933E+02  0.37027748243E+02  0.43400729846E+02  0.00000000000E+00 0.  1.
         11    1    3    3    0    0 -0.97331758502E+01 -0.20026494676E+01 -0.21221268371E+02  0.23432617194E+02  0.51100000000E-03 0. -1.
        -11    1    3    3    0    0 -0.48630352198E+01  0.61964143072E+00 -0.37798773454E+01  0.61903586374E+01  0.51100000000E-03 0.  1.
         12    1    3    3    0    0 -0.25806312218E+01 -0.13365730897E+02 -0.12026602527E+02  0.18164294323E+02  0.00000000000E+00 0. -1.
</event>
<event>
 7    1  0.1457722E-010  0.4778727E+02  0.7816164E-02  0.1312668E+00
        -11   -1    0    0    0    0  0.00000000000E+00  0.00000000000E+00  0.45593999997E+02  0.45594000000E+02  0.51100000000E-03 0. -1.
         11   -1    0    0    0    0 -0.00000000000E+00 -0.00000000000E+00 -0.45593999997E+02  0.45594000000E+02  0.51100000000E-03 0.  1.
    9900012    2    1    2    0    0  0.12090677646E+02 -0.39769060071E+02  0.12484413104E+02  0.47787271949E+02  0.20000004124E+02 0.  0.
        -12    1    1    2    0    0 -0.12090677646E+02  0.39769060071E+02 -0.12484413104E+02  0.43400728051E+02  0.00000000000E+00 0.  1.
         11    1    3    3    0    0  0.32956909804E+01 -0.48540317020E+01  0.26282043613E+01  0.64288926907E+01  0.51100000000E-03 0. -1.
        -11    1    3    3    0    0  0.54291095875E+01 -0.24327704332E+02 -0.21281887125E+01  0.25016826666E+02  0.51100000000E-03 0.  1.
        -12    1    3    3    0    0  0.33658770776E+01 -0.10587324036E+02  0.11984397455E+02  0.16341552592E+02  0.00000000000E+00 0.  1.
</event>
<event>
 7    1  0.1457722E-010  0.4778728E+02  0.7816164E-02  0.1312668E+00
        -11   -1    0    0    0    0  0.00000000000E+00  0.00000000000E+00  0.45593999997E+02  0.45594000000E+02  0.51100000000E-03 0.  1.
         11   -1    0    0    0    0 -0.00000000000E+00 -0.00000000000E+00 -0.45593999997E+02  0.45594000000E+02  0.51100000000E-03 0. -1.
    9900012    2    1    2    0    0  0.26806337241E+01 -0.15482656821E+02 -0.40456451522E+02  0.47787275016E+02  0.20000018107E+02 0.  0.
        -12    1    1    2    0    0 -0.26806337241E+01  0.15482656821E+02  0.40456451522E+02  0.43400724984E+02  0.00000000000E+00 0.  1.
         11    1    3    3    0    0  0.54918347709E+01 -0.39876487373E+01 -0.35855131394E+01  0.76757733381E+01  0.51100000000E-03 0.  1.
        -11    1    3    3    0    0  0.95527007822E+00  0.26791074628E-01 -0.15598416516E+02  0.15627663189E+02  0.51100000000E-03 0. -1.
         12    1    3    3    0    0 -0.37664711250E+01 -0.11521799158E+02 -0.21272521867E+02  0.24483838489E+02  0.00000000000E+00 0. -1.
</event>
<event>
 7    1  0.1457722E-010  0.4778728E+02  0.7816164E-02  0.1312668E+00
        -11   -1    0    0    0    0  0.00000000000E+00  0.00000000000E+00  0.45593999997E+02  0.45594000000E+02  0.51100000000E-03 0. -1.
         11   -1    0    0    0    0 -0.00000000000E+00 -0.00000000000E+00 -0.45593999997E+02  0.45594000000E+02  0.51100000000E-03 0.  1.
    9900012    2    1    2    0    0 -0.18393970936E+02  0.33263530681E+02 -0.20948082769E+02  0.47787276367E+02  0.20000024268E+02 0.  0.
        -12    1    1    2    0    0  0.18393970936E+02 -0.33263530681E+02  0.20948082769E+02  0.43400723633E+02  0.00000000000E+00 0.  1.
         11    1    3    3    0    0 -0.92014198695E+01  0.19318105513E+02 -0.83570080180E+01  0.22971610991E+02  0.51100000000E-03 0. -1.
        -11    1    3    3    0    0  0.26592898011E+01  0.16581384047E+01  0.66250428920E+00  0.32031480468E+01  0.51100000000E-03 0.  1.
         12    1    3    3    0    0 -0.11851840868E+02  0.12287286763E+02 -0.13253579040E+02  0.21612517330E+02  0.00000000000E+00 0. -1.
</event>
<event>
 7    1  0.1457722E-010  0.4778727E+02  0.7816164E-02  0.1312668E+00
        -11   -1    0    0    0    0  0.00000000000E+00  0.00000000000E+00  0.45593999997E+02  0.45594000000E+02  0.51100000000E-03 0.  1.
         11   -1    0    0    0    0 -0.00000000000E+00 -0.00000000000E+00 -0.45593999997E+02  0.45594000000E+02  0.51100000000E-03 0. -1.
    9900012    2    1    2    0    0 -0.16130905774E+02 -0.35768429808E+02  0.18548231263E+02  0.47787267575E+02  0.19999984182E+02 0.  0.
        -12    1    1    2    0    0  0.16130905774E+02  0.35768429808E+02 -0.18548231263E+02  0.43400732425E+02  0.00000000000E+00 0.  1.
         11    1    3    3    0    0 -0.10893854409E+02 -0.28867965492E+02  0.10817634637E+02  0.32696432755E+02  0.51100000000E-03 0. -1.
        -11    1    3    3    0    0 -0.32686375643E+01 -0.66250122074E+01  0.97663684571E+01  0.12245682152E+02  0.51100000000E-03 0.  1.
         12    1    3    3    0    0 -0.19684138008E+01 -0.27545210852E+00 -0.20357718306E+01  0.28451526676E+01  0.00000000000E+00 0. -1.
</event>
<event>
 7    1  0.1457722E-010  0.4778727E+02  0.7816164E-02  0.1312668E+00
        -11   -1    0    0    0    0  0.00000000000E+00  0.00000000000E+00  0.45593999997E+02  0.45594000000E+02  0.51100000000E-03 0.  1.
         11   -1    0    0    0    0 -0.00000000000E+00 -0.00000000000E+00 -0.45593999997E+02  0.45594000000E+02  0.51100000000E-03 0. -1.
    9900012    2    1    2    0    0  0.46484460007E+01  0.40327695991E+02 -0.15352270537E+02  0.47787270458E+02  0.19999997325E+02 0.  0.
        -12    1    1    2    0    0 -0.46484460007E+01 -0.40327695991E+02  0.15352270537E+02  0.43400729542E+02  0.00000000000E+00 0.  1.
         11    1    3    3    0    0 -0.50417739258E+00  0.16537522393E+02  0.26222036019E+01  0.16751710173E+02  0.51100000000E-03 0. -1.
        -11    1    3    3    0    0 -0.10440467773E+01  0.40953239231E+01 -0.54145139739E+01  0.68686733467E+01  0.51100000000E-03 0.  1.
         12    1    3    3    0    0  0.61966701705E+01  0.19694849675E+02 -0.12559960165E+02  0.24166886938E+02  0.00000000000E+00 0. -1.
</event>
<event>
 7    1  0.1457722E-010  0.4778727E+02  0.7816164E-02  0.1312668E+00
        -11   -1    0    0    0    0  0.00000000000E+00  0.00000000000E+00  0.45593999997E+02  0.45594000000E+02  0.51100000000E-03 0.  1.
         11   -1    0    0    0    0 -0.00000000000E+00 -0.00000000000E+00 -0.45593999997E+02  0.45594000000E+02  0.51100000000E-03 0. -1.
    9900012    2    1    2    0    0 -0.85726511560E+01  0.42228384692E+02  0.51861836434E+01  0.47787270486E+02  0.19999997456E+02 0.  0.
        -12    1    1    2    0    0  0.85726511560E+01 -0.42228384692E+02 -0.51861836434E+01  0.43400729514E+02  0.00000000000E+00 0.  1.
         11    1    3    3    0    0 -0.16780722024E+01  0.13968890184E+02  0.39697116123E+01  0.14618632967E+02  0.51100000000E-03 0.  1.
        -11    1    3    3    0    0  0.18684761969E+01  0.54932745203E+01 -0.53643019713E+01  0.79020885945E+01  0.51100000000E-03 0. -1.
         12    1    3    3    0    0 -0.87630551505E+01  0.22766219988E+02  0.65807740024E+01  0.25266548925E+02  0.00000000000E+00 0. -1.
</event>
<event>
 7    1  0.1457722E-010  0.4778727E+02  0.7816164E-02  0.1312668E+00
        -11   -1    0    0    0    0  0.00000000000E+00  0.00000000000E+00  0.45593999997E+02  0.45594000000E+02  0.51100000000E-03 0.  1.
         11   -1    0    0    0    0 -0.00000000000E+00 -0.00000000000E+00 -0.45593999997E+02  0.45594000000E+02  0.51100000000E-03 0. -1.
    9900012    2    1    2    0    0 -0.15984988676E+02 -0.18653169589E+02 -0.35779356644E+02  0.47787274654E+02  0.20000016456E+02 0.  0.
        -12    1    1    2    0    0  0.15984988676E+02  0.18653169589E+02  0.35779356644E+02  0.43400725346E+02  0.00000000000E+00 0.  1.
         11    1    3    3    0    0 -0.64607545341E+01 -0.85184066103E+01 -0.20711970612E+02  0.23308589130E+02  0.51100000000E-03 0. -1.
        -11    1    3    3    0    0 -0.12037376346E+02 -0.40412089006E+01 -0.97172452759E+01  0.15989204317E+02  0.51100000000E-03 0.  1.
        -12    1    3    3    0    0  0.25131422042E+01 -0.60935540786E+01 -0.53501407566E+01  0.84894812069E+01  0.00000000000E+00 0.  1.
</event>
<event>
 7    1  0.1495375E-010  0.4778727E+02  0.7816164E-02  0.1312668E+00
        -11   -1    0    0    0    0  0.00000000000E+00  0.00000000000E+00  0.45593999997E+02  0.45594000000E+02  0.51100000000E-03 0.  1.
         11   -1    0    0    0    0 -0.00000000000E+00 -0.00000000000E+00 -0.45593999997E+02  0.45594000000E+02  0.51100000000E-03 0. -1.
    9900012    2    1    2    0    0  0.41031388446E+02 -0.23681282285E+01 -0.13944178882E+02  0.47787274271E+02  0.20000014713E+02 0.  0.
        -12    1    1    2    0    0 -0.41031388446E+02  0.23681282285E+01  0.13944178882E+02  0.43400725729E+02  0.00000000000E+00 0.  1.
         11    1    3    3    0    0  0.21486465551E+02  0.26698969713E+01 -0.70590927716E+01  0.22773391112E+02  0.51100000000E-03 0. -1.
        -11    1    3    3    0    0  0.12487889136E+02 -0.49750671660E+01 -0.10525528724E+02  0.17072944197E+02  0.51100000000E-03 0.  1.
        -12    1    3    3    0    0  0.70570337588E+01 -0.62958033696E-01  0.36404426134E+01  0.79409389627E+01  0.00000000000E+00 0.  1.
</event>
<event>
 7    1  0.1457722E-010  0.4778727E+02  0.7816164E-02  0.1312668E+00
        -11   -1    0    0    0    0  0.00000000000E+00  0.00000000000E+00  0.45593999997E+02  0.45594000000E+02  0.51100000000E-03 0.  1.
         11   -1    0    0    0    0 -0.00000000000E+00 -0.00000000000E+00 -0.45593999997E+02  0.45594000000E+02  0.51100000000E-03 0. -1.
    9900012    2    1    2    0    0  0.13159774459E+02 -0.16405090809E+02 -0.37964677739E+02  0.47787269314E+02  0.19999992110E+02 0.  0.
        -12    1    1    2    0    0 -0.13159774459E+02  0.16405090809E+02  0.37964677739E+02  0.43400730686E+02  0.00000000000E+00 0.  1.
         11    1    3    3    0    0  0.84499551078E+01 -0.57119518301E+01 -0.10472420503E+02  0.14618472098E+02  0.51100000000E-03 0. -1.
        -11    1    3    3    0    0 -0.16043920048E+01 -0.76989923990E+01 -0.43348197921E+01  0.89799343291E+01  0.51100000000E-03 0.  1.
         12    1    3    3    0    0  0.63142113561E+01 -0.29941465802E+01 -0.23157437443E+02  0.24188862886E+02  0.00000000000E+00 0. -1.
</event>
<event>
 7    1  0.1457722E-010  0.4778727E+02  0.7816164E-02  0.1312668E+00
        -11   -1    0    0    0    0  0.00000000000E+00  0.00000000000E+00  0.45593999997E+02  0.45594000000E+02  0.51100000000E-03 0. -1.
         11   -1    0    0    0    0 -0.00000000000E+00 -0.00000000000E+00 -0.45593999997E+02  0.45594000000E+02  0.51100000000E-03 0.  1.
    9900012    2    1    2    0    0 -0.10573845125E+02  0.18712766117E+02  0.37704765013E+02  0.47787272804E+02  0.20000008021E+02 0.  0.
        -12    1    1    2    0    0  0.10573845125E+02 -0.18712766117E+02 -0.37704765013E+02  0.43400727196E+02  0.00000000000E+00 0.  1.
         11    1    3    3    0    0 -0.66506911156E+01  0.94634767431E+01  0.85255502636E+01  0.14369206378E+02  0.51100000000E-03 0. -1.
        -11    1    3    3    0    0  0.37120889839E+01  0.26006912302E+01  0.32353013226E+01  0.55686959343E+01  0.51100000000E-03 0.  1.
         12    1    3    3    0    0 -0.76352429934E+01  0.66485981434E+01  0.25943913427E+02  0.27849370491E+02  0.00000000000E+00 0. -1.
</event>
<event>
 7    1  0.1457722E-010  0.4778727E+02  0.7816164E-02  0.1312668E+00
        -11   -1    0    0    0    0  0.00000000000E+00  0.00000000000E+00  0.45593999997E+02  0.45594000000E+02  0.51100000000E-03 0.  1.
         11   -1    0    0    0    0 -0.00000000000E+00 -0.00000000000E+00 -0.45593999997E+02  0.45594000000E+02  0.51100000000E-03 0. -1.
    9900012    2    1    2    0    0 -0.25169000238E+02  0.14784703293E+02 -0.32117861864E+02  0.47787273334E+02  0.20000010437E+02 0.  0.
        -12    1    1    2    0    0  0.25169000238E+02 -0.14784703293E+02  0.32117861864E+02  0.43400726666E+02  0.00000000000E+00 0.  1.
         11    1    3    3    0    0  0.20366937447E+01  0.51358110015E+01 -0.19890748746E+01  0.58720605558E+01  0.51100000000E-03 0.  1.
        -11    1    3    3    0    0 -0.11549283808E+02  0.56603986516E+01 -0.15269872707E+02  0.19964846158E+02  0.51100000000E-03 0. -1.
        -12    1    3    3    0    0 -0.15656410175E+02  0.39884936394E+01 -0.14858914283E+02  0.21950366620E+02  0.00000000000E+00 0.  1.
</event>
<event>
 7    1  0.1457722E-010  0.4778727E+02  0.7816164E-02  0.1312668E+00
        -11   -1    0    0    0    0  0.00000000000E+00  0.00000000000E+00  0.45593999997E+02  0.45594000000E+02  0.51100000000E-03 0.  1.
         11   -1    0    0    0    0 -0.00000000000E+00 -0.00000000000E+00 -0.45593999997E+02  0.45594000000E+02  0.51100000000E-03 0. -1.
    9900012    2    1    2    0    0  0.82633951971E+01  0.42271875983E+02 -0.53317683989E+01  0.47787274734E+02  0.20000016823E+02 0.  0.
        -12    1    1    2    0    0 -0.82633951971E+01 -0.42271875983E+02  0.53317683989E+01  0.43400725266E+02  0.00000000000E+00 0.  1.
         11    1    3    3    0    0  0.13483174967E+01  0.24249965894E+01 -0.42992809009E+01  0.51168725855E+01  0.51100000000E-03 0. -1.
        -11    1    3    3    0    0 -0.28185052642E+01  0.16044690553E+02  0.32203094339E+01  0.16605615315E+02  0.51100000000E-03 0.  1.
         12    1    3    3    0    0  0.97335829646E+01  0.23802188841E+02 -0.42527969319E+01  0.26064786834E+02  0.00000000000E+00 0. -1.
</event>
<event>
 7    1  0.1457722E-010  0.4778727E+02  0.7816164E-02  0.1312668E+00
        -11   -1    0    0    0    0  0.00000000000E+00  0.00000000000E+00  0.45593999997E+02  0.45594000000E+02  0.51100000000E-03 0. -1.
         11   -1    0    0    0    0 -0.00000000000E+00 -0.00000000000E+00 -0.45593999997E+02  0.45594000000E+02  0.51100000000E-03 0.  1.
    9900012    2    1    2    0    0 -0.31196278474E+02  0.16914462775E+02  0.24986328874E+02  0.47787268760E+02  0.19999989582E+02 0.  0.
        -12    1    1    2    0    0  0.31196278474E+02 -0.16914462775E+02 -0.24986328874E+02  0.43400731240E+02  0.00000000000E+00 0.  1.
         11    1    3    3    0    0 -0.53748838054E+01  0.79758007767E+01  0.13013009435E+02  0.16181507617E+02  0.51100000000E-03 0. -1.
        -11    1    3    3    0    0 -0.13672514751E+02  0.85445990838E+01  0.27693599369E+01  0.16359009378E+02  0.51100000000E-03 0.  1.
        -12    1    3    3    0    0 -0.12148879918E+02  0.39406291478E+00  0.92039595018E+01  0.15246751764E+02  0.00000000000E+00 0.  1.
</event>
<event>
 7    1  0.1457722E-010  0.4778727E+02  0.7816164E-02  0.1312668E+00
        -11   -1    0    0    0    0  0.00000000000E+00  0.00000000000E+00  0.45593999997E+02  0.45594000000E+02  0.51100000000E-03 0. -1.
         11   -1    0    0    0    0 -0.00000000000E+00 -0.00000000000E+00 -0.45593999997E+02  0.45594000000E+02  0.51100000000E-03 0.  1.
    9900012    2    1    2    0    0 -0.21391002585E+02  0.54535617521E+01  0.37367190806E+02  0.47787271018E+02  0.19999999881E+02 0.  0.
        -12    1    1    2    0    0  0.21391002585E+02 -0.54535617521E+01 -0.37367190806E+02  0.43400728982E+02  0.00000000000E+00 0.  1.
         11    1    3    3    0    0 -0.80618928097E+01 -0.39808031209E+01  0.15737031166E+02  0.18124432663E+02  0.51100000000E-03 0. -1.
        -11    1    3    3    0    0 -0.53495270498E+00  0.72027508250E+01  0.90824616529E+01  0.11604176135E+02  0.51100000000E-03 0.  1.
         12    1    3    3    0    0 -0.12794157070E+02  0.22316140480E+01  0.12547697987E+02  0.18058662220E+02  0.00000000000E+00 0. -1.
</event>
<event>
 7    1  0.1457722E-010  0.4778728E+02  0.7816164E-02  0.1312668E+00
        -11   -1    0    0    0    0  0.00000000000E+00  0.00000000000E+00  0.45593999997E+02  0.45594000000E+02  0.51100000000E-03 0.  1.
         11   -1    0    0    0    0 -0.00000000000E+00 -0.00000000000E+00 -0.45593999997E+02  0.45594000000E+02  0.51100000000E-03 0. -1.
    9900012    2    1    2    0    0  0.36985130499E+01  0.36536395272E+02 -0.23130828828E+02  0.47787280876E+02  0.20000044826E+02 0.  0.
        -12    1    1    2    0    0 -0.36985130499E+01 -0.36536395272E+02  0.23130828828E+02  0.43400719124E+02  0.00000000000E+00 0.  1.
         11    1    3    3    0    0  0.87349528934E+01  0.33730733483E+02 -0.20503360750E+02  0.40428326526E+02  0.51100000000E-03 0. -1.
        -11    1    3    3    0    0 -0.19956912468E+01  0.85088010267E+00 -0.30247098926E+01  0.37223179200E+01  0.51100000000E-03 0.  1.
         12    1    3    3    0    0 -0.30407485966E+01  0.19547816858E+01  0.39724181519E+00  0.36366364304E+01  0.00000000000E+00 0. -1.
</event>
<event>
 7    1  0.1457722E-010  0.4778727E+02  0.7816164E-02  0.1312668E+00
        -11   -1    0    0    0    0  0.00000000000E+00  0.00000000000E+00  0.45593999997E+02  0.45594000000E+02  0.51100000000E-03 0.  1.
         11   -1    0    0    0    0 -0.00000000000E+00 -0.00000000000E+00 -0.45593999997E+02  0.45594000000E+02  0.51100000000E-03 0. -1.
    9900012    2    1    2    0    0  0.81325711994E+01 -0.42613943661E+02 -0.12395939735E+01  0.47787268418E+02  0.19999988025E+02 0.  0.
        -12    1    1    2    0    0 -0.81325711994E+01  0.42613943661E+02  0.12395939735E+01  0.43400731582E+02  0.00000000000E+00 0.  1.
         11    1    3    3    0    0  0.10586809217E+01 -0.15330479932E+02  0.27986823186E+01  0.15619764506E+02  0.51100000000E-03 0. -1.
        -11    1    3    3    0    0 -0.14448056731E+00 -0.13669186553E+02  0.46968615514E+01  0.14454343442E+02  0.51100000000E-03 0.  1.
         12    1    3    3    0    0  0.72183708450E+01 -0.13614277176E+02 -0.87351378435E+01  0.17713160469E+02  0.00000000000E+00 0. -1.
</event>
<event>
 7    1  0.1457722E-010  0.4778727E+02  0.7816164E-02  0.1312668E+00
        -11   -1    0    0    0    0  0.00000000000E+00  0.00000000000E+00  0.45593999997E+02  0.45594000000E+02  0.51100000000E-03 0.  1.
         11   -1    0    0    0    0 -0.00000000000E+00 -0.00000000000E+00 -0.45593999997E+02  0.45594000000E+02  0.51100000000E-03 0. -1.
    9900012    2    1    2    0    0 -0.51976078590E+01 -0.42924042000E+02 -0.37596257525E+01  0.47787270803E+02  0.19999998897E+02 0.  0.
        -12    1    1    2    0    0  0.51976078590E+01  0.42924042000E+02  0.37596257525E+01  0.43400729197E+02  0.00000000000E+00 0.  1.
         11    1    3    3    0    0 -0.96437060526E+00 -0.45832172523E+01 -0.60783472942E+01  0.76734736030E+01  0.51100000000E-03 0. -1.
        -11    1    3    3    0    0  0.30928969478E+01 -0.15283927024E+02  0.31413267220E+01  0.15906991250E+02  0.51100000000E-03 0.  1.
         12    1    3    3    0    0 -0.73261342015E+01 -0.23056897724E+02 -0.82260518030E+00  0.24206805949E+02  0.00000000000E+00 0. -1.
</event>
<event>
 7    1  0.1457722E-010  0.4778726E+02  0.7816164E-02  0.1312668E+00
        -11   -1    0    0    0    0  0.00000000000E+00  0.00000000000E+00  0.45593999997E+02  0.45594000000E+02  0.51100000000E-03 0. -1.
         11   -1    0    0    0    0 -0.00000000000E+00 -0.00000000000E+00 -0.45593999997E+02  0.45594000000E+02  0.51100000000E-03 0.  1.
    9900012    2    1    2    0    0 -0.70056812013E+01  0.42101237086E+02  0.78759453044E+01  0.47787259825E+02  0.19999948846E+02 0.  0.
        -12    1    1    2    0    0  0.70056812013E+01 -0.42101237086E+02 -0.78759453044E+01  0.43400740175E+02  0.00000000000E+00 0.  1.
         11    1    3    3    0    0 -0.52601399788E+01  0.10678423061E+02 -0.57623012098E+01  0.13225048475E+02  0.51100000000E-03 0. -1.
        -11    1    3    3    0    0  0.80869774027E+00  0.34378408996E+01  0.25331780141E+01  0.43462320691E+01  0.51100000000E-03 0.  1.
         12    1    3    3    0    0 -0.25542389628E+01  0.27984973125E+02  0.11105068500E+02  0.30215979281E+02  0.00000000000E+00 0. -1.
</event>
<event>
 7    1  0.1457722E-010  0.4778727E+02  0.7816164E-02  0.1312668E+00
        -11   -1    0    0    0    0  0.00000000000E+00  0.00000000000E+00  0.45593999997E+02  0.45594000000E+02  0.51100000000E-03 0.  1.
         11   -1    0    0    0    0 -0.00000000000E+00 -0.00000000000E+00 -0.45593999997E+02  0.45594000000E+02  0.51100000000E-03 0. -1.
    9900012    2    1    2    0    0 -0.36230562871E+00  0.40123958980E+02 -0.16539645211E+02  0.47787271743E+02  0.20000003183E+02 0.  0.
        -12    1    1    2    0    0  0.36230562871E+00 -0.40123958980E+02  0.16539645211E+02  0.43400728257E+02  0.00000000000E+00 0.  1.
         11    1    3    3    0    0 -0.45572137980E+01  0.44410612740E+01 -0.25601513151E+01  0.68589793598E+01  0.51100000000E-03 0. -1.
        -11    1    3    3    0    0  0.32982201631E+01  0.17776241718E+02 -0.14213373304E+02  0.22997673943E+02  0.51100000000E-03 0.  1.
        -12    1    3    3    0    0  0.89668800618E+00  0.17906655988E+02  0.23387940830E+00  0.17930618440E+02  0.00000000000E+00 0.  1.
</event>
<event>
 7    1  0.1457722E-010  0.4778730E+02  0.7816164E-02  0.1312668E+00
        -11   -1    0    0    0    0  0.00000000000E+00  0.00000000000E+00  0.45593999997E+02  0.45594000000E+02  0.51100000000E-03 0. -1.
         11   -1    0    0    0    0 -0.00000000000E+00 -0.00000000000E+00 -0.45593999997E+02  0.45594000000E+02  0.51100000000E-03 0.  1.
    9900012    2    1    2    0    0  0.83758843607E+01 -0.39501379663E+02  0.15909303671E+02  0.47787304414E+02  0.20000152144E+02 0.  0.
        -12    1    1    2    0    0 -0.83758843607E+01  0.39501379663E+02 -0.15909303671E+02  0.43400695586E+02  0.00000000000E+00 0.  1.
         11    1    3    3    0    0  0.14953259709E-02 -0.75414943233E+01  0.99960817213E+01  0.12521812525E+02  0.51100000000E-03 0. -1.
        -11    1    3    3    0    0  0.86590303356E+01 -0.18381004717E+02  0.73518842323E+01  0.21607645471E+02  0.51100000000E-03 0.  1.
        -12    1    3    3    0    0 -0.28464130088E+00 -0.13578880622E+02 -0.14386622827E+01  0.13657846418E+02  0.00000000000E+00 0.  1.
</event>
<event>
 7    1  0.1457722E-010  0.4778727E+02  0.7816164E-02  0.1312668E+00
        -11   -1    0    0    0    0  0.00000000000E+00  0.00000000000E+00  0.45593999997E+02  0.45594000000E+02  0.51100000000E-03 0.  1.
         11   -1    0    0    0    0 -0.00000000000E+00 -0.00000000000E+00 -0.45593999997E+02  0.45594000000E+02  0.51100000000E-03 0. -1.
    9900012    2    1    2    0    0  0.29090387381E+00  0.10273638036E+02 -0.42166231992E+02  0.47787269776E+02  0.19999994217E+02 0.  0.
        -12    1    1    2    0    0 -0.29090387381E+00 -0.10273638036E+02  0.42166231992E+02  0.43400730224E+02  0.00000000000E+00 0.  1.
         11    1    3    3    0    0  0.45418286816E+01 -0.20929242386E+01 -0.67625651667E+01  0.84107566566E+01  0.51100000000E-03 0. -1.
        -11    1    3    3    0    0  0.14042023962E+00  0.30133440886E+00  0.85196278930E+00  0.91452781539E+00  0.51100000000E-03 0.  1.
        -12    1    3    3    0    0 -0.43913450474E+01  0.12065227865E+02 -0.36255629615E+02  0.38461985304E+02  0.00000000000E+00 0.  1.
</event>
<event>
 7    1  0.2003807E-010  0.4778726E+02  0.7816164E-02  0.1312668E+00
        -11   -1    0    0    0    0  0.00000000000E+00  0.00000000000E+00  0.45593999997E+02  0.45594000000E+02  0.51100000000E-03 0. -1.
         11   -1    0    0    0    0 -0.00000000000E+00 -0.00000000000E+00 -0.45593999997E+02  0.45594000000E+02  0.51100000000E-03 0.  1.
    9900012    2    1    2    0    0  0.41486474518E+02 -0.12394274860E+02  0.29796610356E+01  0.47787262712E+02  0.19999962010E+02 0.  0.
        -12    1    1    2    0    0 -0.41486474518E+02  0.12394274860E+02 -0.29796610356E+01  0.43400737288E+02  0.00000000000E+00 0.  1.
         11    1    3    3    0    0  0.18883051361E+02 -0.55348266895E+00  0.38592007101E+01  0.19281322625E+02  0.51100000000E-03 0. -1.
        -11    1    3    3    0    0  0.56357129145E+00  0.13927958995E+00 -0.32568150623E+01  0.33081499385E+01  0.51100000000E-03 0.  1.
         12    1    3    3    0    0  0.22039851865E+02 -0.11980071781E+02  0.23772753878E+01  0.25197790149E+02  0.00000000000E+00 0. -1.
</event>
<event>
 7    1  0.1457722E-010  0.4778727E+02  0.7816164E-02  0.1312668E+00
        -11   -1    0    0    0    0  0.00000000000E+00  0.00000000000E+00  0.45593999997E+02  0.45594000000E+02  0.51100000000E-03 0.  1.
         11   -1    0    0    0    0 -0.00000000000E+00 -0.00000000000E+00 -0.45593999997E+02  0.45594000000E+02  0.51100000000E-03 0. -1.
    9900012    2    1    2    0    0 -0.15473940067E+02  0.24727002140E+02 -0.32136521236E+02  0.47787268979E+02  0.19999990583E+02 0.  0.
        -12    1    1    2    0    0  0.15473940067E+02 -0.24727002140E+02  0.32136521236E+02  0.43400731021E+02  0.00000000000E+00 0.  1.
         11    1    3    3    0    0 -0.74905794098E+01  0.12805125439E+02 -0.24766355782E+02  0.28869575618E+02  0.51100000000E-03 0. -1.
        -11    1    3    3    0    0  0.65643634698E+00  0.78267120776E+01 -0.30465658795E+01  0.84243631535E+01  0.51100000000E-03 0.  1.
        -12    1    3    3    0    0 -0.86397970038E+01  0.40951646233E+01 -0.43235995743E+01  0.10493330207E+02  0.00000000000E+00 0.  1.
</event>
<event>
 7    1  0.1457722E-010  0.4778727E+02  0.7816164E-02  0.1312668E+00
        -11   -1    0    0    0    0  0.00000000000E+00  0.00000000000E+00  0.45593999997E+02  0.45594000000E+02  0.51100000000E-03 0. -1.
         11   -1    0    0    0    0 -0.00000000000E+00 -0.00000000000E+00 -0.45593999997E+02  0.45594000000E+02  0.51100000000E-03 0.  1.
    9900012    2    1    2    0    0  0.16783385744E+01 -0.36745951308E+02 -0.23033493641E+02  0.47787267435E+02  0.19999983543E+02 0.  0.
        -12    1    1    2    0    0 -0.16783385744E+01  0.36745951308E+02  0.23033493641E+02  0.43400732565E+02  0.00000000000E+00 0.  1.
         11    1    3    3    0    0 -0.13933512458E+01 -0.50614073695E-03  0.74658737286E+00  0.15807659272E+01  0.51100000000E-03 0. -1.
        -11    1    3    3    0    0  0.32099632957E+01 -0.84154244883E+01 -0.13168299591E+02  0.15953913252E+02  0.51100000000E-03 0.  1.
         12    1    3    3    0    0 -0.13827347550E+00 -0.28330020679E+02 -0.10611781423E+02  0.30252588256E+02  0.00000000000E+00 0. -1.
</event>
<event>
 7    1  0.1457722E-010  0.4778727E+02  0.7816164E-02  0.1312668E+00
        -11   -1    0    0    0    0  0.00000000000E+00  0.00000000000E+00  0.45593999997E+02  0.45594000000E+02  0.51100000000E-03 0.  1.
         11   -1    0    0    0    0 -0.00000000000E+00 -0.00000000000E+00 -0.45593999997E+02  0.45594000000E+02  0.51100000000E-03 0. -1.
    9900012    2    1    2    0    0  0.87479101895E+01  0.23360407002E+02 -0.35516035563E+02  0.47787270397E+02  0.19999997046E+02 0.  0.
        -12    1    1    2    0    0 -0.87479101895E+01 -0.23360407002E+02  0.35516035563E+02  0.43400729603E+02  0.00000000000E+00 0.  1.
         11    1    3    3    0    0 -0.22413503880E+00 -0.12018094805E+00 -0.56848739451E+01  0.56905599029E+01  0.51100000000E-03 0. -1.
        -11    1    3    3    0    0 -0.43095435718E+01  0.84715971806E+01 -0.11666203743E+02  0.15047937886E+02  0.51100000000E-03 0.  1.
         12    1    3    3    0    0  0.13281588800E+02  0.15008990769E+02 -0.18164957876E+02  0.27048772608E+02  0.00000000000E+00 0. -1.
</event>
<event>
 7    1  0.1457722E-010  0.4778727E+02  0.7816164E-02  0.1312668E+00
        -11   -1    0    0    0    0  0.00000000000E+00  0.00000000000E+00  0.45593999997E+02  0.45594000000E+02  0.51100000000E-03 0. -1.
         11   -1    0    0    0    0 -0.00000000000E+00 -0.00000000000E+00 -0.45593999997E+02  0.45594000000E+02  0.51100000000E-03 0.  1.
    9900012    2    1    2    0    0  0.38363740378E+02  0.99728478404E+00  0.20269480893E+02  0.47787274103E+02  0.20000013944E+02 0.  0.
        -12    1    1    2    0    0 -0.38363740378E+02 -0.99728478404E+00 -0.20269480893E+02  0.43400725897E+02  0.00000000000E+00 0.  1.
         11    1    3    3    0    0  0.49595521459E+01  0.10041815301E+01  0.75005821926E+01  0.90478876829E+01  0.51100000000E-03 0. -1.
        -11    1    3    3    0    0  0.29881231518E+02  0.17065818143E+01  0.54274009518E+01  0.30418039054E+02  0.51100000000E-03 0.  1.
        -12    1    3    3    0    0  0.35229567138E+01 -0.17134785603E+01  0.73414977491E+01  0.83213473659E+01  0.00000000000E+00 0.  1.
</event>
<event>
 7    1  0.1457722E-010  0.4778727E+02  0.7816164E-02  0.1312668E+00
        -11   -1    0    0    0    0  0.00000000000E+00  0.00000000000E+00  0.45593999997E+02  0.45594000000E+02  0.51100000000E-03 0.  1.
         11   -1    0    0    0    0 -0.00000000000E+00 -0.00000000000E+00 -0.45593999997E+02  0.45594000000E+02  0.51100000000E-03 0. -1.
    9900012    2    1    2    0    0  0.42153696743E+02  0.94532020462E+01  0.41624455119E+01  0.47787272694E+02  0.20000007523E+02 0.  0.
        -12    1    1    2    0    0 -0.42153696743E+02 -0.94532020462E+01 -0.41624455119E+01  0.43400727306E+02  0.00000000000E+00 0.  1.
         11    1    3    3    0    0  0.23767785211E+02  0.12925969148E+02 -0.28717697489E+01  0.27207266566E+02  0.51100000000E-03 0. -1.
        -11    1    3    3    0    0  0.77823762074E+01 -0.23419264720E+01  0.65400364140E+00  0.81533870298E+01  0.51100000000E-03 0.  1.
         12    1    3    3    0    0  0.10603535324E+02 -0.11308406302E+01  0.63802116194E+01  0.12426619098E+02  0.00000000000E+00 0. -1.
</event>
<event>
 7    1  0.1457722E-010  0.4778727E+02  0.7816164E-02  0.1312668E+00
        -11   -1    0    0    0    0  0.00000000000E+00  0.00000000000E+00  0.45593999997E+02  0.45594000000E+02  0.51100000000E-03 0.  1.
         11   -1    0    0    0    0 -0.00000000000E+00 -0.00000000000E+00 -0.45593999997E+02  0.45594000000E+02  0.51100000000E-03 0. -1.
    9900012    2    1    2    0    0  0.41701065325E+02  0.23725839616E+01 -0.11790475374E+02  0.47787270588E+02  0.19999997920E+02 0.  0.
        -12    1    1    2    0    0 -0.41701065325E+02 -0.23725839616E+01  0.11790475374E+02  0.43400729412E+02  0.00000000000E+00 0.  1.
         11    1    3    3    0    0  0.23019233211E+02 -0.11899362669E+01 -0.51527782081E+01  0.23618894332E+02  0.51100000000E-03 0. -1.
        -11    1    3    3    0    0  0.14954401941E+02  0.82790925886E+01 -0.37525866750E+01  0.17500269098E+02  0.51100000000E-03 0.  1.
        -12    1    3    3    0    0  0.37274301739E+01 -0.47165723601E+01 -0.28851104912E+01  0.66681071583E+01  0.00000000000E+00 0.  1.
</event>
<event>
 7    1  0.1457722E-010  0.4778727E+02  0.7816164E-02  0.1312668E+00
        -11   -1    0    0    0    0  0.00000000000E+00  0.00000000000E+00  0.45593999997E+02  0.45594000000E+02  0.51100000000E-03 0. -1.
         11   -1    0    0    0    0 -0.00000000000E+00 -0.00000000000E+00 -0.45593999997E+02  0.45594000000E+02  0.51100000000E-03 0.  1.
    9900012    2    1    2    0    0  0.25220765465E+01  0.20397779792E+02  0.38225554539E+02  0.47787270624E+02  0.19999998082E+02 0.  0.
        -12    1    1    2    0    0 -0.25220765465E+01 -0.20397779792E+02 -0.38225554539E+02  0.43400729376E+02  0.00000000000E+00 0.  1.
         11    1    3    3    0    0  0.50175745383E+01  0.84958840314E+01  0.31250140549E+02  0.32770831303E+02  0.51100000000E-03 0. -1.
        -11    1    3    3    0    0 -0.30915673579E+01  0.28881729350E+01  0.27304700701E+01  0.50353548729E+01  0.51100000000E-03 0.  1.
         12    1    3    3    0    0  0.59606936620E+00  0.90137228255E+01  0.42449439207E+01  0.99810844478E+01  0.00000000000E+00 0. -1.
</event>
<event>
 7    1  0.1457722E-010  0.4778727E+02  0.7816164E-02  0.1312668E+00
        -11   -1    0    0    0    0  0.00000000000E+00  0.00000000000E+00  0.45593999997E+02  0.45594000000E+02  0.51100000000E-03 0. -1.
         11   -1    0    0    0    0 -0.00000000000E+00 -0.00000000000E+00 -0.45593999997E+02  0.45594000000E+02  0.51100000000E-03 0.  1.
    9900012    2    1    2    0    0 -0.20032023230E+02  0.38445131431E+02 -0.20768546830E+01  0.47787269467E+02  0.19999992808E+02 0.  0.
        -12    1    1    2    0    0  0.20032023230E+02 -0.38445131431E+02  0.20768546830E+01  0.43400730533E+02  0.00000000000E+00 0.  1.
         11    1    3    3    0    0 -0.11570290218E+02  0.41801667283E+01 -0.40493481561E+00  0.12308914739E+02  0.51100000000E-03 0. -1.
        -11    1    3    3    0    0 -0.34346804220E+01  0.18970168569E+02 -0.19434828804E+01  0.19376311597E+02  0.51100000000E-03 0.  1.
        -12    1    3    3    0    0 -0.50270525904E+01  0.15294796133E+02  0.27156301296E+00  0.16102043130E+02  0.00000000000E+00 0.  1.
</event>
<event>
 7    1  0.1457722E-010  0.4778727E+02  0.7816164E-02  0.1312668E+00
        -11   -1    0    0    0    0  0.00000000000E+00  0.00000000000E+00  0.45593999997E+02  0.45594000000E+02  0.51100000000E-03 0.  1.
         11   -1    0    0    0    0 -0.00000000000E+00 -0.00000000000E+00 -0.45593999997E+02  0.45594000000E+02  0.51100000000E-03 0. -1.
    9900012    2    1    2    0    0  0.38155249677E+02  0.16401453219E+02 -0.12601285337E+02  0.47787272613E+02  0.20000007150E+02 0.  0.
        -12    1    1    2    0    0 -0.38155249677E+02 -0.16401453219E+02  0.12601285337E+02  0.43400727387E+02  0.00000000000E+00 0.  1.
         11    1    3    3    0    0  0.24970500652E+02  0.12374528633E+02 -0.12065573742E+02  0.30368288258E+02  0.51100000000E-03 0. -1.
        -11    1    3    3    0    0  0.36133480199E+01  0.45440618809E+00 -0.50693190338E+01  0.62418558638E+01  0.51100000000E-03 0.  1.
        -12    1    3    3    0    0  0.95714010049E+01  0.35725183979E+01  0.45336074388E+01  0.11177128491E+02  0.00000000000E+00 0.  1.
</event>
<event>
 7    1  0.1457722E-010  0.4778727E+02  0.7816164E-02  0.1312668E+00
        -11   -1    0    0    0    0  0.00000000000E+00  0.00000000000E+00  0.45593999997E+02  0.45594000000E+02  0.51100000000E-03 0. -1.
         11   -1    0    0    0    0 -0.00000000000E+00 -0.00000000000E+00 -0.45593999997E+02  0.45594000000E+02  0.51100000000E-03 0.  1.
    9900012    2    1    2    0    0 -0.24758773100E+02  0.27820902260E+02  0.22285061843E+02  0.47787269254E+02  0.19999991835E+02 0.  0.
        -12    1    1    2    0    0  0.24758773100E+02 -0.27820902260E+02 -0.22285061843E+02  0.43400730746E+02  0.00000000000E+00 0.  1.
         11    1    3    3    0    0 -0.98016388411E+00  0.29365234780E+01  0.74932296238E+01  0.81075509146E+01  0.51100000000E-03 0. -1.
        -11    1    3    3    0    0 -0.18307270021E+02  0.10081372724E+02  0.10121219475E+02  0.23221311237E+02  0.51100000000E-03 0.  1.
         12    1    3    3    0    0 -0.54713391948E+01  0.14803006058E+02  0.46706127436E+01  0.16458407102E+02  0.00000000000E+00 0. -1.
</event>
<event>
 7    1  0.1457722E-010  0.4778725E+02  0.7816164E-02  0.1312668E+00
        -11   -1    0    0    0    0  0.00000000000E+00  0.00000000000E+00  0.45593999997E+02  0.45594000000E+02  0.51100000000E-03 0.  1.
         11   -1    0    0    0    0 -0.00000000000E+00 -0.00000000000E+00 -0.45593999997E+02  0.45594000000E+02  0.51100000000E-03 0. -1.
    9900012    2    1    2    0    0 -0.41993828174E+02  0.10425237318E+02  0.33849256929E+01  0.47787252313E+02  0.19999914597E+02 0.  0.
        -12    1    1    2    0    0  0.41993828174E+02 -0.10425237318E+02 -0.33849256929E+01  0.43400747687E+02  0.00000000000E+00 0.  1.
         11    1    3    3    0    0 -0.43303204847E+02  0.89596087013E+01  0.29050333515E+01  0.44315701023E+02  0.51100000000E-03 0. -1.
        -11    1    3    3    0    0 -0.94279757346E-01 -0.69997476502E+00 -0.31190636048E+00  0.77210050067E+00  0.51100000000E-03 0.  1.
        -12    1    3    3    0    0  0.14036564306E+01  0.21656033819E+01  0.79179870182E+00  0.26994507899E+01  0.00000000000E+00 0.  1.
</event>
<event>
 7    1  0.1457722E-010  0.4778730E+02  0.7816164E-02  0.1312668E+00
        -11   -1    0    0    0    0  0.00000000000E+00  0.00000000000E+00  0.45593999997E+02  0.45594000000E+02  0.51100000000E-03 0. -1.
         11   -1    0    0    0    0 -0.00000000000E+00 -0.00000000000E+00 -0.45593999997E+02  0.45594000000E+02  0.51100000000E-03 0.  1.
    9900012    2    1    2    0    0  0.27279565008E+02  0.14851351635E+02  0.30313084830E+02  0.47787303872E+02  0.20000149674E+02 0.  0.
        -12    1    1    2    0    0 -0.27279565008E+02 -0.14851351635E+02 -0.30313084830E+02  0.43400696128E+02  0.00000000000E+00 0.  1.
         11    1    3    3    0    0  0.10587203781E+02  0.76436683491E+01  0.39235156951E+01  0.13634827663E+02  0.51100000000E-03 0. -1.
        -11    1    3    3    0    0  0.14386680629E+02  0.10392046198E+02  0.21548233890E+02  0.27915902058E+02  0.51100000000E-03 0.  1.
         12    1    3    3    0    0  0.23056805976E+01 -0.31843629118E+01  0.48413352458E+01  0.62365741505E+01  0.00000000000E+00 0. -1.
</event>
<event>
 7    1  0.1457722E-010  0.4778727E+02  0.7816164E-02  0.1312668E+00
        -11   -1    0    0    0    0  0.00000000000E+00  0.00000000000E+00  0.45593999997E+02  0.45594000000E+02  0.51100000000E-03 0.  1.
         11   -1    0    0    0    0 -0.00000000000E+00 -0.00000000000E+00 -0.45593999997E+02  0.45594000000E+02  0.51100000000E-03 0. -1.
    9900012    2    1    2    0    0  0.13713744440E+02 -0.17453085353E+02 -0.37295390333E+02  0.47787272875E+02  0.20000008346E+02 0.  0.
        -12    1    1    2    0    0 -0.13713744440E+02  0.17453085353E+02  0.37295390333E+02  0.43400727125E+02  0.00000000000E+00 0.  1.
         11    1    3    3    0    0  0.51592408361E+01 -0.50659547279E+01 -0.11441361499E+02  0.13534637657E+02  0.51100000000E-03 0. -1.
        -11    1    3    3    0    0  0.13288623106E+02 -0.64968173335E+01 -0.18736164226E+02  0.23871321490E+02  0.51100000000E-03 0.  1.
        -12    1    3    3    0    0 -0.47341195022E+01 -0.58903132912E+01 -0.71178646083E+01  0.10381313728E+02  0.00000000000E+00 0.  1.
</event>
<event>
 7    1  0.1457722E-010  0.4778727E+02  0.7816164E-02  0.1312668E+00
        -11   -1    0    0    0    0  0.00000000000E+00  0.00000000000E+00  0.45593999997E+02  0.45594000000E+02  0.51100000000E-03 0.  1.
         11   -1    0    0    0    0 -0.00000000000E+00 -0.00000000000E+00 -0.45593999997E+02  0.45594000000E+02  0.51100000000E-03 0. -1.
    9900012    2    1    2    0    0  0.16500232114E+02 -0.27237984389E+02 -0.29486574263E+02  0.47787268265E+02  0.19999987325E+02 0.  0.
        -12    1    1    2    0    0 -0.16500232114E+02  0.27237984389E+02  0.29486574263E+02  0.43400731735E+02  0.00000000000E+00 0.  1.
         11    1    3    3    0    0  0.60378785320E+01 -0.79596958208E+01 -0.17857366840E+02  0.20462118303E+02  0.51100000000E-03 0. -1.
        -11    1    3    3    0    0 -0.11851473592E+01 -0.91912005730E+01 -0.52271958219E+01  0.10639845800E+02  0.51100000000E-03 0.  1.
        -12    1    3    3    0    0  0.11647500941E+02 -0.10087087995E+02 -0.64020116012E+01  0.16685304161E+02  0.00000000000E+00 0.  1.
</event>
<event>
 7    1  0.1457722E-010  0.4778728E+02  0.7816164E-02  0.1312668E+00
        -11   -1    0    0    0    0  0.00000000000E+00  0.00000000000E+00  0.45593999997E+02  0.45594000000E+02  0.51100000000E-03 0.  1.
         11   -1    0    0    0    0 -0.00000000000E+00 -0.00000000000E+00 -0.45593999997E+02  0.45594000000E+02  0.51100000000E-03 0. -1.
    9900012    2    1    2    0    0 -0.16875741052E+02 -0.38833983982E+02 -0.95264817835E+01  0.47787276468E+02  0.20000024726E+02 0.  0.
        -12    1    1    2    0    0  0.16875741052E+02  0.38833983982E+02  0.95264817835E+01  0.43400723532E+02  0.00000000000E+00 0.  1.
         11    1    3    3    0    0 -0.60056792067E+00 -0.18092218428E+02 -0.51774885381E+01  0.18828049217E+02  0.51100000000E-03 0. -1.
        -11    1    3    3    0    0 -0.10547259360E+02 -0.16607272228E+02  0.15797424862E+01  0.19736812241E+02  0.51100000000E-03 0.  1.
         12    1    3    3    0    0 -0.57279137713E+01 -0.41344933253E+01 -0.59287357317E+01  0.92224150093E+01  0.00000000000E+00 0. -1.
</event>
<event>
 7    1  0.1457722E-010  0.4778727E+02  0.7816164E-02  0.1312668E+00
        -11   -1    0    0    0    0  0.00000000000E+00  0.00000000000E+00  0.45593999997E+02  0.45594000000E+02  0.51100000000E-03 0.  1.
         11   -1    0    0    0    0 -0.00000000000E+00 -0.00000000000E+00 -0.45593999997E+02  0.45594000000E+02  0.51100000000E-03 0. -1.
    9900012    2    1    2    0    0 -0.36554021570E+02 -0.13093332737E+02  0.19390489731E+02  0.47787274809E+02  0.20000017166E+02 0.  0.
        -12    1    1    2    0    0  0.36554021570E+02  0.13093332737E+02 -0.19390489731E+02  0.43400725191E+02  0.00000000000E+00 0.  1.
         11    1    3    3    0    0 -0.48979155302E+01 -0.31970461461E+01  0.26454564689E+01  0.64194330584E+01  0.51100000000E-03 0. -1.
        -11    1    3    3    0    0 -0.13363102347E+01 -0.70054553336E+01  0.14177485781E+01  0.72713231785E+01  0.51100000000E-03 0.  1.
         12    1    3    3    0    0 -0.30319795805E+02 -0.28908312575E+01  0.15327284684E+02  0.34096518573E+02  0.00000000000E+00 0. -1.
</event>
<event>
 7    1  0.1457722E-010  0.4778727E+02  0.7816164E-02  0.1312668E+00
        -11   -1    0    0    0    0  0.00000000000E+00  0.00000000000E+00  0.45593999997E+02  0.45594000000E+02  0.51100000000E-03 0.  1.
         11   -1    0    0    0    0 -0.00000000000E+00 -0.00000000000E+00 -0.45593999997E+02  0.45594000000E+02  0.51100000000E-03 0. -1.
    9900012    2    1    2    0    0 -0.26826138268E+02  0.28212212783E+02 -0.19184697958E+02  0.47787270971E+02  0.19999999667E+02 0.  0.
        -12    1    1    2    0    0  0.26826138268E+02 -0.28212212783E+02  0.19184697958E+02  0.43400729029E+02  0.00000000000E+00 0.  1.
         11    1    3    3    0    0 -0.13914980403E+02  0.16495491443E+02 -0.10608738748E+01  0.21606789933E+02  0.51100000000E-03 0. -1.
        -11    1    3    3    0    0 -0.41752892669E+00 -0.61559241177E+00 -0.27384628506E+01  0.28376862877E+01  0.51100000000E-03 0.  1.
         12    1    3    3    0    0 -0.12493628938E+02  0.12332313751E+02 -0.15385361233E+02  0.23342794750E+02  0.00000000000E+00 0. -1.
</event>
<event>
 7    1  0.1457722E-010  0.4778726E+02  0.7816164E-02  0.1312668E+00
        -11   -1    0    0    0    0  0.00000000000E+00  0.00000000000E+00  0.45593999997E+02  0.45594000000E+02  0.51100000000E-03 0.  1.
         11   -1    0    0    0    0 -0.00000000000E+00 -0.00000000000E+00 -0.45593999997E+02  0.45594000000E+02  0.51100000000E-03 0. -1.
    9900012    2    1    2    0    0  0.26087427394E+02 -0.25645640843E+02 -0.23353189140E+02  0.47787260314E+02  0.19999951078E+02 0.  0.
        -12    1    1    2    0    0 -0.26087427394E+02  0.25645640843E+02  0.23353189140E+02  0.43400739686E+02  0.00000000000E+00 0.  1.
         11    1    3    3    0    0  0.82121418725E+01 -0.10264885063E+02  0.13706551956E+00  0.13146327499E+02  0.51100000000E-03 0. -1.
        -11    1    3    3    0    0  0.14748394527E+01 -0.66803318851E+01 -0.73419344752E+01  0.10035237297E+02  0.51100000000E-03 0.  1.
         12    1    3    3    0    0  0.16400446068E+02 -0.87004238948E+01 -0.16148320184E+02  0.24605695519E+02  0.00000000000E+00 0. -1.
</event>
<event>
 7    1  0.1457722E-010  0.4778727E+02  0.7816164E-02  0.1312668E+00
        -11   -1    0    0    0    0  0.00000000000E+00  0.00000000000E+00  0.45593999997E+02  0.45594000000E+02  0.51100000000E-03 0. -1.
         11   -1    0    0    0    0 -0.00000000000E+00 -0.00000000000E+00 -0.45593999997E+02  0.45594000000E+02  0.51100000000E-03 0.  1.
    9900012    2    1    2    0    0 -0.27353779922E+02 -0.15645645515E+01  0.33659262629E+02  0.47787273059E+02  0.20000009186E+02 0.  0.
        -12    1    1    2    0    0  0.27353779922E+02  0.15645645515E+01 -0.33659262629E+02  0.43400726941E+02  0.00000000000E+00 0.  1.
         11    1    3    3    0    0 -0.14679966246E+02 -0.24409503755E+01  0.10030538315E+02  0.17946346337E+02  0.51100000000E-03 0. -1.
        -11    1    3    3    0    0  0.22667233169E+01  0.20979851297E+01  0.27319902469E+01  0.41235115096E+01  0.51100000000E-03 0.  1.
         12    1    3    3    0    0 -0.14940536993E+02 -0.12215993057E+01  0.20896734067E+02  0.25717415212E+02  0.00000000000E+00 0. -1.
</event>
<event>
 7    1  0.1457722E-010  0.4778727E+02  0.7816164E-02  0.1312668E+00
        -11   -1    0    0    0    0  0.00000000000E+00  0.00000000000E+00  0.45593999997E+02  0.45594000000E+02  0.51100000000E-03 0. -1.
         11   -1    0    0    0    0 -0.00000000000E+00 -0.00000000000E+00 -0.45593999997E+02  0.45594000000E+02  0.51100000000E-03 0.  1.
    9900012    2    1    2    0    0  0.43108677999E+02  0.32601964710E+01 -0.38257914054E+01  0.47787266369E+02  0.19999978684E+02 0.  0.
        -12    1    1    2    0    0 -0.43108677999E+02 -0.32601964710E+01  0.38257914054E+01  0.43400733631E+02  0.00000000000E+00 0.  1.
         11    1    3    3    0    0  0.15392051998E+02  0.10611704909E+00  0.57163006679E+01  0.16419580358E+02  0.51100000000E-03 0. -1.
        -11    1    3    3    0    0  0.14240143799E+02  0.66599767338E+01 -0.30939731860E+01  0.16022161398E+02  0.51100000000E-03 0.  1.
         12    1    3    3    0    0  0.13476482201E+02 -0.35058973120E+01 -0.64481188873E+01  0.15345524613E+02  0.00000000000E+00 0. -1.
</event>
<event>
 7    1  0.1457722E-010  0.4778727E+02  0.7816164E-02  0.1312668E+00
        -11   -1    0    0    0    0  0.00000000000E+00  0.00000000000E+00  0.45593999997E+02  0.45594000000E+02  0.51100000000E-03 0.  1.
         11   -1    0    0    0    0 -0.00000000000E+00 -0.00000000000E+00 -0.45593999997E+02  0.45594000000E+02  0.51100000000E-03 0. -1.
    9900012    2    1    2    0    0 -0.27115002769E+01  0.25447224302E+02 -0.35052956170E+02  0.47787271957E+02  0.20000004161E+02 0.  0.
        -12    1    1    2    0    0  0.27115002769E+01 -0.25447224302E+02  0.35052956170E+02  0.43400728043E+02  0.00000000000E+00 0.  1.
         11    1    3    3    0    0  0.35493241083E+01  0.54279300926E+01 -0.11102978415E+02  0.12858314690E+02  0.51100000000E-03 0. -1.
        -11    1    3    3    0    0 -0.29464747477E+01 -0.58432976947E+00 -0.83507726100E+01  0.88746018594E+01  0.51100000000E-03 0.  1.
         12    1    3    3    0    0 -0.33143496375E+01  0.20603623979E+02 -0.15599205145E+02  0.26054355408E+02  0.00000000000E+00 0. -1.
</event>
<event>
 7    1  0.1457722E-010  0.4778728E+02  0.7816164E-02  0.1312668E+00
        -11   -1    0    0    0    0  0.00000000000E+00  0.00000000000E+00  0.45593999997E+02  0.45594000000E+02  0.51100000000E-03 0.  1.
         11   -1    0    0    0    0 -0.00000000000E+00 -0.00000000000E+00 -0.45593999997E+02  0.45594000000E+02  0.51100000000E-03 0. -1.
    9900012    2    1    2    0    0 -0.28170873930E+02 -0.26885506091E+02 -0.19162295219E+02  0.47787284179E+02  0.20000059884E+02 0.  0.
        -12    1    1    2    0    0  0.28170873930E+02  0.26885506091E+02  0.19162295219E+02  0.43400715821E+02  0.00000000000E+00 0.  1.
         11    1    3    3    0    0 -0.76853241573E+01 -0.14534293807E+02 -0.64298071585E+01  0.17653677357E+02  0.51100000000E-03 0. -1.
        -11    1    3    3    0    0 -0.19778297336E+01  0.94759108408E+00  0.20230140825E+01  0.29836765168E+01  0.51100000000E-03 0.  1.
        -12    1    3    3    0    0 -0.18507720039E+02 -0.13298803368E+02 -0.14755502143E+02  0.27149930305E+02  0.00000000000E+00 0.  1.
</event>
<event>
 7    1  0.1457722E-010  0.4778727E+02  0.7816164E-02  0.1312668E+00
        -11   -1    0    0    0    0  0.00000000000E+00  0.00000000000E+00  0.45593999997E+02  0.45594000000E+02  0.51100000000E-03 0.  1.
         11   -1    0    0    0    0 -0.00000000000E+00 -0.00000000000E+00 -0.45593999997E+02  0.45594000000E+02  0.51100000000E-03 0. -1.
    9900012    2    1    2    0    0 -0.28546234827E+02 -0.10627830754E+02 -0.30915778174E+02  0.47787266717E+02  0.19999980270E+02 0.  0.
        -12    1    1    2    0    0  0.28546234827E+02  0.10627830754E+02  0.30915778174E+02  0.43400733283E+02  0.00000000000E+00 0.  1.
         11    1    3    3    0    0 -0.94447751513E+01 -0.11172666632E+02 -0.75703249363E+01  0.16472464212E+02  0.51100000000E-03 0. -1.
        -11    1    3    3    0    0 -0.13166432392E+02  0.48542251862E+00 -0.94772602918E+01  0.16229881080E+02  0.51100000000E-03 0.  1.
        -12    1    3    3    0    0 -0.59350272840E+01  0.59413359177E-01 -0.13868192946E+02  0.15084921425E+02  0.00000000000E+00 0.  1.
</event>
<event>
 7    1  0.1457722E-010  0.4778727E+02  0.7816164E-02  0.1312668E+00
        -11   -1    0    0    0    0  0.00000000000E+00  0.00000000000E+00  0.45593999997E+02  0.45594000000E+02  0.51100000000E-03 0.  1.
         11   -1    0    0    0    0 -0.00000000000E+00 -0.00000000000E+00 -0.45593999997E+02  0.45594000000E+02  0.51100000000E-03 0. -1.
    9900012    2    1    2    0    0  0.22474373629E+02  0.28915206227E+02 -0.23290270762E+02  0.47787270360E+02  0.19999996878E+02 0.  0.
        -12    1    1    2    0    0 -0.22474373629E+02 -0.28915206227E+02  0.23290270762E+02  0.43400729640E+02  0.00000000000E+00 0.  1.
         11    1    3    3    0    0  0.43697189961E+01  0.97916538218E+01 -0.11448099963E+02  0.15685340981E+02  0.51100000000E-03 0. -1.
        -11    1    3    3    0    0  0.13619326853E+01  0.32940817340E+01  0.30297191642E+01  0.46781442458E+01  0.51100000000E-03 0.  1.
         12    1    3    3    0    0  0.16742721947E+02  0.15829470671E+02 -0.14871889964E+02  0.27423785133E+02  0.00000000000E+00 0. -1.
</event>
<event>
 7    1  0.1457722E-010  0.4778727E+02  0.7816164E-02  0.1312668E+00
        -11   -1    0    0    0    0  0.00000000000E+00  0.00000000000E+00  0.45593999997E+02  0.45594000000E+02  0.51100000000E-03 0.  1.
         11   -1    0    0    0    0 -0.00000000000E+00 -0.00000000000E+00 -0.45593999997E+02  0.45594000000E+02  0.51100000000E-03 0. -1.
    9900012    2    1    2    0    0 -0.41619198065E+02  0.11542632466E+02 -0.42700500227E+01  0.47787270294E+02  0.19999996579E+02 0.  0.
        -12    1    1    2    0    0  0.41619198065E+02 -0.11542632466E+02  0.42700500227E+01  0.43400729706E+02  0.00000000000E+00 0.  1.
         11    1    3    3    0    0 -0.65255894567E+01  0.92801749841E+01 -0.23928232594E+01  0.11594419731E+02  0.51100000000E-03 0. -1.
        -11    1    3    3    0    0 -0.89981625333E+01 -0.61890484301E+00  0.29685034015E+01  0.94953664956E+01  0.51100000000E-03 0.  1.
        -12    1    3    3    0    0 -0.26095446075E+02  0.28813623245E+01 -0.48457301648E+01  0.26697484067E+02  0.00000000000E+00 0.  1.
</event>
<event>
 7    1  0.1457722E-010  0.4778727E+02  0.7816164E-02  0.1312668E+00
        -11   -1    0    0    0    0  0.00000000000E+00  0.00000000000E+00  0.45593999997E+02  0.45594000000E+02  0.51100000000E-03 0. -1.
         11   -1    0    0    0    0 -0.00000000000E+00 -0.00000000000E+00 -0.45593999997E+02  0.45594000000E+02  0.51100000000E-03 0.  1.
    9900012    2    1    2    0    0 -0.20820706294E+01 -0.42364315679E+02  0.91952814549E+01  0.47787268876E+02  0.19999990114E+02 0.  0.
        -12    1    1    2    0    0  0.20820706294E+01  0.42364315679E+02 -0.91952814549E+01  0.43400731124E+02  0.00000000000E+00 0.  1.
         11    1    3    3    0    0 -0.13319641467E+01 -0.96425076874E+01  0.75387989227E+01  0.12312009277E+02  0.51100000000E-03 0. -1.
        -11    1    3    3    0    0 -0.12249746623E+01 -0.10954865409E+02 -0.58073180899E+01  0.12459317105E+02  0.51100000000E-03 0.  1.
        -12    1    3    3    0    0  0.47486817971E+00 -0.21766942582E+02  0.74638006221E+01  0.23015942494E+02  0.00000000000E+00 0.  1.
</event>
<event>
 7    1  0.1457722E-010  0.4778727E+02  0.7816164E-02  0.1312668E+00
        -11   -1    0    0    0    0  0.00000000000E+00  0.00000000000E+00  0.45593999997E+02  0.45594000000E+02  0.51100000000E-03 0.  1.
         11   -1    0    0    0    0 -0.00000000000E+00 -0.00000000000E+00 -0.45593999997E+02  0.45594000000E+02  0.51100000000E-03 0. -1.
    9900012    2    1    2    0    0 -0.30567397718E+02 -0.42974203311E+01 -0.30508848431E+02  0.47787268931E+02  0.19999990364E+02 0.  0.
        -12    1    1    2    0    0  0.30567397718E+02  0.42974203311E+01  0.30508848431E+02  0.43400731069E+02  0.00000000000E+00 0.  1.
         11    1    3    3    0    0 -0.23541743096E+02  0.10486644910E+01 -0.19250251398E+02  0.30428367429E+02  0.51100000000E-03 0. -1.
        -11    1    3    3    0    0 -0.45030468094E+01  0.22460053103E+01 -0.29891808385E+01  0.58529627342E+01  0.51100000000E-03 0.  1.
        -12    1    3    3    0    0 -0.25226078126E+01 -0.75920901323E+01 -0.82694161939E+01  0.11505938768E+02  0.00000000000E+00 0.  1.
</event>
<event>
 7    1  0.1457722E-010  0.4778727E+02  0.7816164E-02  0.1312668E+00
        -11   -1    0    0    0    0  0.00000000000E+00  0.00000000000E+00  0.45593999997E+02  0.45594000000E+02  0.51100000000E-03 0.  1.
         11   -1    0    0    0    0 -0.00000000000E+00 -0.00000000000E+00 -0.45593999997E+02  0.45594000000E+02  0.51100000000E-03 0. -1.
    9900012    2    1    2    0    0  0.39502305258E+02  0.15526706667E+02  0.90616062287E+01  0.47787269037E+02  0.19999990848E+02 0.  0.
        -12    1    1    2    0    0 -0.39502305258E+02 -0.15526706667E+02 -0.90616062287E+01  0.43400730963E+02  0.00000000000E+00 0.  1.
         11    1    3    3    0    0  0.10173498059E+01  0.36843595555E+01 -0.22776473374E+01  0.44494026135E+01  0.51100000000E-03 0. -1.
        -11    1    3    3    0    0  0.14686993401E+02 -0.91697440240E+00  0.55089071093E+01  0.15712946096E+02  0.51100000000E-03 0.  1.
         12    1    3    3    0    0  0.23797962052E+02  0.12759321514E+02  0.58303464569E+01  0.27624920328E+02  0.00000000000E+00 0. -1.
</event>
<event>
 7    1  0.1723866E-010  0.4778727E+02  0.7816164E-02  0.1312668E+00
        -11   -1    0    0    0    0  0.00000000000E+00  0.00000000000E+00  0.45593999997E+02  0.45594000000E+02  0.51100000000E-03 0.  1.
         11   -1    0    0    0    0 -0.00000000000E+00 -0.00000000000E+00 -0.45593999997E+02  0.45594000000E+02  0.51100000000E-03 0. -1.
    9900012    2    1    2    0    0 -0.39372057917E+02 -0.18234191326E+01 -0.18169738624E+02  0.47787271853E+02  0.20000003689E+02 0.  0.
        -12    1    1    2    0    0  0.39372057917E+02  0.18234191326E+01  0.18169738624E+02  0.43400728147E+02  0.00000000000E+00 0.  1.
         11    1    3    3    0    0 -0.25557005659E+02 -0.91770774614E+00 -0.15178837769E+02  0.29738860806E+02  0.51100000000E-03 0. -1.
        -11    1    3    3    0    0 -0.25162455911E+00 -0.86226416414E+00 -0.43270168336E+01  0.44192634394E+01  0.51100000000E-03 0.  1.
        -12    1    3    3    0    0 -0.13563427699E+02 -0.43447222313E-01  0.13361159785E+01  0.13629147608E+02  0.00000000000E+00 0.  1.
</event>
<event>
 7    1  0.1457722E-010  0.4778727E+02  0.7816164E-02  0.1312668E+00
        -11   -1    0    0    0    0  0.00000000000E+00  0.00000000000E+00  0.45593999997E+02  0.45594000000E+02  0.51100000000E-03 0. -1.
         11   -1    0    0    0    0 -0.00000000000E+00 -0.00000000000E+00 -0.45593999997E+02  0.45594000000E+02  0.51100000000E-03 0.  1.
    9900012    2    1    2    0    0  0.23580692382E+02  0.34774043623E+02  0.10878426455E+02  0.47787270453E+02  0.19999997303E+02 0.  0.
        -12    1    1    2    0    0 -0.23580692382E+02 -0.34774043623E+02 -0.10878426455E+02  0.43400729547E+02  0.00000000000E+00 0.  1.
         11    1    3    3    0    0  0.39860262435E+00  0.20690495777E+01  0.48469909488E+01  0.52851841714E+01  0.51100000000E-03 0. -1.
        -11    1    3    3    0    0 -0.54166632343E+00  0.65120149970E+01  0.24609653036E+01  0.69825562807E+01  0.51100000000E-03 0.  1.
         12    1    3    3    0    0  0.23723756081E+02  0.26192979048E+02  0.35704702028E+01  0.35519530001E+02  0.00000000000E+00 0. -1.
</event>
<event>
 7    1  0.1457722E-010  0.4778728E+02  0.7816164E-02  0.1312668E+00
        -11   -1    0    0    0    0  0.00000000000E+00  0.00000000000E+00  0.45593999997E+02  0.45594000000E+02  0.51100000000E-03 0.  1.
         11   -1    0    0    0    0 -0.00000000000E+00 -0.00000000000E+00 -0.45593999997E+02  0.45594000000E+02  0.51100000000E-03 0. -1.
    9900012    2    1    2    0    0  0.36928159004E+02  0.55670034175E+01 -0.22112042664E+02  0.47787275522E+02  0.20000020415E+02 0.  0.
        -12    1    1    2    0    0 -0.36928159004E+02 -0.55670034175E+01  0.22112042664E+02  0.43400724478E+02  0.00000000000E+00 0.  1.
         11    1    3    3    0    0  0.10640299483E+02 -0.53201455836E+01 -0.35855337072E+01  0.12424812849E+02  0.51100000000E-03 0. -1.
        -11    1    3    3    0    0  0.12781345030E+02  0.62259199179E+01 -0.35295109433E+01  0.14648628174E+02  0.51100000000E-03 0.  1.
         12    1    3    3    0    0  0.13506514490E+02  0.46612290831E+01 -0.14996998013E+02  0.20713834499E+02  0.00000000000E+00 0. -1.
</event>
<event>
 7    1  0.1457722E-010  0.4778726E+02  0.7816164E-02  0.1312668E+00
        -11   -1    0    0    0    0  0.00000000000E+00  0.00000000000E+00  0.45593999997E+02  0.45594000000E+02  0.51100000000E-03 0.  1.
         11   -1    0    0    0    0 -0.00000000000E+00 -0.00000000000E+00 -0.45593999997E+02  0.45594000000E+02  0.51100000000E-03 0. -1.
    9900012    2    1    2    0    0 -0.97885157022E+01  0.28164870382E+02 -0.31536469741E+02  0.47787263981E+02  0.19999967795E+02 0.  0.
        -12    1    1    2    0    0  0.97885157022E+01 -0.28164870382E+02  0.31536469741E+02  0.43400736019E+02  0.00000000000E+00 0.  1.
         11    1    3    3    0    0 -0.10023829515E+02  0.27099741318E+02 -0.27888700400E+02  0.40157847899E+02  0.51100000000E-03 0. -1.
        -11    1    3    3    0    0 -0.26029909942E+01  0.12656827492E+00  0.35860739186E+00  0.26306237220E+01  0.51100000000E-03 0.  1.
         12    1    3    3    0    0  0.28383048069E+01  0.93856078935E+00 -0.40063767327E+01  0.49987923598E+01  0.00000000000E+00 0. -1.
</event>
<event>
 7    1  0.1457722E-010  0.4778728E+02  0.7816164E-02  0.1312668E+00
        -11   -1    0    0    0    0  0.00000000000E+00  0.00000000000E+00  0.45593999997E+02  0.45594000000E+02  0.51100000000E-03 0.  1.
         11   -1    0    0    0    0 -0.00000000000E+00 -0.00000000000E+00 -0.45593999997E+02  0.45594000000E+02  0.51100000000E-03 0. -1.
    9900012    2    1    2    0    0 -0.41651368485E+02 -0.10274074584E+02  0.65749297772E+01  0.47787276425E+02  0.20000024533E+02 0.  0.
        -12    1    1    2    0    0  0.41651368485E+02  0.10274074584E+02 -0.65749297772E+01  0.43400723575E+02  0.00000000000E+00 0.  1.
         11    1    3    3    0    0 -0.72896769171E+00 -0.33501573813E+01 -0.21271559783E+00  0.34351414180E+01  0.51100000000E-03 0. -1.
        -11    1    3    3    0    0 -0.24208770933E+02  0.26155644107E+01  0.60676531796E+01  0.25094265932E+02  0.51100000000E-03 0.  1.
         12    1    3    3    0    0 -0.16713629860E+02 -0.95394816138E+01  0.71999219547E+00  0.19257869075E+02  0.00000000000E+00 0. -1.
</event>
<event>
 7    1  0.1457722E-010  0.4778727E+02  0.7816164E-02  0.1312668E+00
        -11   -1    0    0    0    0  0.00000000000E+00  0.00000000000E+00  0.45593999997E+02  0.45594000000E+02  0.51100000000E-03 0.  1.
         11   -1    0    0    0    0 -0.00000000000E+00 -0.00000000000E+00 -0.45593999997E+02  0.45594000000E+02  0.51100000000E-03 0. -1.
    9900012    2    1    2    0    0 -0.81834227268E+01 -0.29735131494E+02 -0.30536480885E+02  0.47787272848E+02  0.20000008223E+02 0.  0.
        -12    1    1    2    0    0  0.81834227268E+01  0.29735131494E+02  0.30536480885E+02  0.43400727152E+02  0.00000000000E+00 0.  1.
         11    1    3    3    0    0 -0.66123859841E+00 -0.11674220789E+02 -0.14334444832E+02  0.18498674991E+02  0.51100000000E-03 0. -1.
        -11    1    3    3    0    0 -0.17007917595E+01 -0.13338402718E+02 -0.25096503718E+01  0.13678597330E+02  0.51100000000E-03 0.  1.
         12    1    3    3    0    0 -0.58213923689E+01 -0.47225079872E+01 -0.13692385681E+02  0.15610000527E+02  0.00000000000E+00 0. -1.
</event>
<event>
 7    1  0.1457722E-010  0.4778725E+02  0.7816164E-02  0.1312668E+00
        -11   -1    0    0    0    0  0.00000000000E+00  0.00000000000E+00  0.45593999997E+02  0.45594000000E+02  0.51100000000E-03 0.  1.
         11   -1    0    0    0    0 -0.00000000000E+00 -0.00000000000E+00 -0.45593999997E+02  0.45594000000E+02  0.51100000000E-03 0. -1.
    9900012    2    1    2    0    0 -0.20000168166E+02  0.55697799677E+01 -0.38112939411E+02  0.47787247402E+02  0.19999892203E+02 0.  0.
        -12    1    1    2    0    0  0.20000168166E+02 -0.55697799677E+01  0.38112939411E+02  0.43400752598E+02  0.00000000000E+00 0.  1.
         11    1    3    3    0    0 -0.13845446397E+02 -0.28282940659E+01 -0.19719724991E+02  0.24260321252E+02  0.51100000000E-03 0. -1.
        -11    1    3    3    0    0 -0.57441304409E+01  0.17419227913E+01 -0.29142135291E+01  0.66724785715E+01  0.51100000000E-03 0.  1.
        -12    1    3    3    0    0 -0.41059132830E+00  0.66561512423E+01 -0.15479000891E+02  0.16854447578E+02  0.00000000000E+00 0.  1.
</event>
<event>
 7    1  0.1457722E-010  0.4778727E+02  0.7816164E-02  0.1312668E+00
        -11   -1    0    0    0    0  0.00000000000E+00  0.00000000000E+00  0.45593999997E+02  0.45594000000E+02  0.51100000000E-03 0.  1.
         11   -1    0    0    0    0 -0.00000000000E+00 -0.00000000000E+00 -0.45593999997E+02  0.45594000000E+02  0.51100000000E-03 0. -1.
    9900012    2    1    2    0    0 -0.42061632246E+02 -0.53892968153E+01 -0.92410993370E+01  0.47787270233E+02  0.19999996301E+02 0.  0.
        -12    1    1    2    0    0  0.42061632246E+02  0.53892968153E+01  0.92410993370E+01  0.43400729767E+02  0.00000000000E+00 0.  1.
         11    1    3    3    0    0 -0.13012121956E+02  0.34590528596E+01 -0.17749640304E+01  0.13580532466E+02  0.51100000000E-03 0. -1.
        -11    1    3    3    0    0 -0.13753522214E+02 -0.79402115662E+01  0.22845334695E+01  0.16044482741E+02  0.51100000000E-03 0.  1.
         12    1    3    3    0    0 -0.15295988075E+02 -0.90813810869E+00 -0.97506687761E+01  0.18162255025E+02  0.00000000000E+00 0. -1.
</event>
<event>
 7    1  0.1457722E-010  0.4778728E+02  0.7816164E-02  0.1312668E+00
        -11   -1    0    0    0    0  0.00000000000E+00  0.00000000000E+00  0.45593999997E+02  0.45594000000E+02  0.51100000000E-03 0. -1.
         11   -1    0    0    0    0 -0.00000000000E+00 -0.00000000000E+00 -0.45593999997E+02  0.45594000000E+02  0.51100000000E-03 0.  1.
    9900012    2    1    2    0    0  0.30881911373E+02  0.29741786256E+02 -0.67347006459E+01  0.47787280046E+02  0.20000041041E+02 0.  0.
        -12    1    1    2    0    0 -0.30881911373E+02 -0.29741786256E+02  0.67347006459E+01  0.43400719954E+02  0.00000000000E+00 0.  1.
         11    1    3    3    0    0  0.11124996586E+01  0.92061359162E-01  0.85516239124E+00  0.14062125589E+01  0.51100000000E-03 0.  1.
        -11    1    3    3    0    0  0.11319742526E+02  0.21084412718E+02  0.17571058135E+01  0.23995342290E+02  0.51100000000E-03 0. -1.
        -12    1    3    3    0    0  0.18449669189E+02  0.85653121786E+01 -0.93469688506E+01  0.22385725197E+02  0.00000000000E+00 0.  1.
</event>
<event>
 7    1  0.1457722E-010  0.4778727E+02  0.7816164E-02  0.1312668E+00
        -11   -1    0    0    0    0  0.00000000000E+00  0.00000000000E+00  0.45593999997E+02  0.45594000000E+02  0.51100000000E-03 0.  1.
         11   -1    0    0    0    0 -0.00000000000E+00 -0.00000000000E+00 -0.45593999997E+02  0.45594000000E+02  0.51100000000E-03 0. -1.
    9900012    2    1    2    0    0 -0.40926161339E+02  0.89368888736E+01 -0.11349212898E+02  0.47787270765E+02  0.19999998727E+02 0.  0.
        -12    1    1    2    0    0  0.40926161339E+02 -0.89368888736E+01  0.11349212898E+02  0.43400729235E+02  0.00000000000E+00 0.  1.
         11    1    3    3    0    0 -0.37164957117E+01  0.66438387245E+01 -0.12118172992E+01  0.77085300025E+01  0.51100000000E-03 0. -1.
        -11    1    3    3    0    0 -0.15922542787E+02  0.16436469805E+01 -0.98201377051E+01  0.18779351667E+02  0.51100000000E-03 0.  1.
        -12    1    3    3    0    0 -0.21287122840E+02  0.64940316858E+00 -0.31725789392E+00  0.21299389096E+02  0.00000000000E+00 0.  1.
</event>
<event>
 7    1  0.1457722E-010  0.4778727E+02  0.7816164E-02  0.1312668E+00
        -11   -1    0    0    0    0  0.00000000000E+00  0.00000000000E+00  0.45593999997E+02  0.45594000000E+02  0.51100000000E-03 0.  1.
         11   -1    0    0    0    0 -0.00000000000E+00 -0.00000000000E+00 -0.45593999997E+02  0.45594000000E+02  0.51100000000E-03 0. -1.
    9900012    2    1    2    0    0 -0.26609102336E+02 -0.19126217856E+02 -0.28456402200E+02  0.47787270021E+02  0.19999995333E+02 0.  0.
        -12    1    1    2    0    0  0.26609102336E+02  0.19126217856E+02  0.28456402200E+02  0.43400729979E+02  0.00000000000E+00 0.  1.
         11    1    3    3    0    0 -0.70550306481E+01 -0.19085278057E+00 -0.24429199090E+01  0.74684496499E+01  0.51100000000E-03 0. -1.
        -11    1    3    3    0    0 -0.18372291889E+02 -0.19644551093E+02 -0.18416442577E+02  0.32597773764E+02  0.51100000000E-03 0.  1.
        -12    1    3    3    0    0 -0.11817797989E+01  0.70918601779E+00 -0.75970397135E+01  0.77210466071E+01  0.00000000000E+00 0.  1.
</event>
<event>
 7    1  0.1457722E-010  0.4778727E+02  0.7816164E-02  0.1312668E+00
        -11   -1    0    0    0    0  0.00000000000E+00  0.00000000000E+00  0.45593999997E+02  0.45594000000E+02  0.51100000000E-03 0.  1.
         11   -1    0    0    0    0 -0.00000000000E+00 -0.00000000000E+00 -0.45593999997E+02  0.45594000000E+02  0.51100000000E-03 0. -1.
    9900012    2    1    2    0    0 -0.24562399414E+02  0.13380414231E+02 -0.33185481523E+02  0.47787272657E+02  0.20000007354E+02 0.  0.
        -12    1    1    2    0    0  0.24562399414E+02 -0.13380414231E+02  0.33185481523E+02  0.43400727343E+02  0.00000000000E+00 0.  1.
         11    1    3    3    0    0 -0.91181693077E+01  0.21178597664E+01 -0.63397423307E+01  0.11305692132E+02  0.51100000000E-03 0. -1.
        -11    1    3    3    0    0 -0.12064705067E+01  0.10354612787E+02 -0.11876912959E+02  0.15802994613E+02  0.51100000000E-03 0.  1.
        -12    1    3    3    0    0 -0.14237759599E+02  0.90794167778E+00 -0.14968826233E+02  0.20678585912E+02  0.00000000000E+00 0.  1.
</event>
<event>
 7    1  0.1457722E-010  0.4778727E+02  0.7816164E-02  0.1312668E+00
        -11   -1    0    0    0    0  0.00000000000E+00  0.00000000000E+00  0.45593999997E+02  0.45594000000E+02  0.51100000000E-03 0.  1.
         11   -1    0    0    0    0 -0.00000000000E+00 -0.00000000000E+00 -0.45593999997E+02  0.45594000000E+02  0.51100000000E-03 0. -1.
    9900012    2    1    2    0    0  0.13616195014E+02  0.13809138277E+02 -0.38826926373E+02  0.47787270995E+02  0.19999999774E+02 0.  0.
        -12    1    1    2    0    0 -0.13616195014E+02 -0.13809138277E+02  0.38826926373E+02  0.43400729005E+02  0.00000000000E+00 0.  1.
         11    1    3    3    0    0  0.46924121623E+01  0.82134919696E+00 -0.20931999037E+02  0.21467229219E+02  0.51100000000E-03 0. -1.
        -11    1    3    3    0    0 -0.15216862779E+01  0.70502703129E+01 -0.78370007749E+01  0.10650841376E+02  0.51100000000E-03 0.  1.
         12    1    3    3    0    0  0.10445469130E+02  0.59375187677E+01 -0.10057926561E+02  0.15669200399E+02  0.00000000000E+00 0. -1.
</event>
<event>
 7    1  0.1457722E-010  0.4778727E+02  0.7816164E-02  0.1312668E+00
        -11   -1    0    0    0    0  0.00000000000E+00  0.00000000000E+00  0.45593999997E+02  0.45594000000E+02  0.51100000000E-03 0.  1.
         11   -1    0    0    0    0 -0.00000000000E+00 -0.00000000000E+00 -0.45593999997E+02  0.45594000000E+02  0.51100000000E-03 0. -1.
    9900012    2    1    2    0    0 -0.30633718477E+02 -0.66344196388E+01 -0.30019712251E+02  0.47787270107E+02  0.19999995725E+02 0.  0.
        -12    1    1    2    0    0  0.30633718477E+02  0.66344196388E+01  0.30019712251E+02  0.43400729893E+02  0.00000000000E+00 0.  1.
         11    1    3    3    0    0 -0.93072217168E+00 -0.40385417142E+00 -0.32397437776E+00  0.10650359671E+01  0.51100000000E-03 0. -1.
        -11    1    3    3    0    0 -0.32606537372E+02 -0.54825683493E+01 -0.27502514228E+02  0.43007361279E+02  0.51100000000E-03 0.  1.
        -12    1    3    3    0    0  0.29035410666E+01 -0.74799711810E+00 -0.21932236448E+01  0.37148728606E+01  0.00000000000E+00 0.  1.
</event>
<event>
 7    1  0.1457722E-010  0.4778727E+02  0.7816164E-02  0.1312668E+00
        -11   -1    0    0    0    0  0.00000000000E+00  0.00000000000E+00  0.45593999997E+02  0.45594000000E+02  0.51100000000E-03 0.  1.
         11   -1    0    0    0    0 -0.00000000000E+00 -0.00000000000E+00 -0.45593999997E+02  0.45594000000E+02  0.51100000000E-03 0. -1.
    9900012    2    1    2    0    0 -0.11282021700E+01  0.27205726719E+02 -0.33796432552E+02  0.47787271208E+02  0.20000000744E+02 0.  0.
        -12    1    1    2    0    0  0.11282021700E+01 -0.27205726719E+02  0.33796432552E+02  0.43400728792E+02  0.00000000000E+00 0.  1.
         11    1    3    3    0    0 -0.10781333533E+01  0.57791283146E+01 -0.36857123308E+01  0.69386721532E+01  0.51100000000E-03 0. -1.
        -11    1    3    3    0    0  0.15946259490E+00  0.97224330697E+01 -0.13755866302E+01  0.98205586375E+01  0.51100000000E-03 0.  1.
         12    1    3    3    0    0 -0.20953141158E+00  0.11704165335E+02 -0.28735133591E+02  0.31028040417E+02  0.00000000000E+00 0. -1.
</event>
<event>
 7    1  0.1457722E-010  0.4778727E+02  0.7816164E-02  0.1312668E+00
        -11   -1    0    0    0    0  0.00000000000E+00  0.00000000000E+00  0.45593999997E+02  0.45594000000E+02  0.51100000000E-03 0.  1.
         11   -1    0    0    0    0 -0.00000000000E+00 -0.00000000000E+00 -0.45593999997E+02  0.45594000000E+02  0.51100000000E-03 0. -1.
    9900012    2    1    2    0    0 -0.19136407173E+02 -0.76433447092E+01 -0.38196869311E+02  0.47787267022E+02  0.19999981662E+02 0.  0.
        -12    1    1    2    0    0  0.19136407173E+02  0.76433447092E+01  0.38196869311E+02  0.43400732978E+02  0.00000000000E+00 0.  1.
         11    1    3    3    0    0 -0.76084552448E+01 -0.10619878137E+02 -0.13738965397E+02  0.18958627938E+02  0.51100000000E-03 0.  1.
        -11    1    3    3    0    0 -0.53474168366E+01 -0.85350643940E+00 -0.18945601038E+02  0.19704292401E+02  0.51100000000E-03 0. -1.
        -12    1    3    3    0    0 -0.61805350914E+01  0.38300398672E+01 -0.55123028763E+01  0.91243466835E+01  0.00000000000E+00 0.  1.
</event>
<event>
 7    1  0.1457722E-010  0.4778727E+02  0.7816164E-02  0.1312668E+00
        -11   -1    0    0    0    0  0.00000000000E+00  0.00000000000E+00  0.45593999997E+02  0.45594000000E+02  0.51100000000E-03 0.  1.
         11   -1    0    0    0    0 -0.00000000000E+00 -0.00000000000E+00 -0.45593999997E+02  0.45594000000E+02  0.51100000000E-03 0. -1.
    9900012    2    1    2    0    0  0.32854906121E+01 -0.24074475623E+02 -0.35961763217E+02  0.47787271449E+02  0.20000001844E+02 0.  0.
        -12    1    1    2    0    0 -0.32854906121E+01  0.24074475623E+02  0.35961763217E+02  0.43400728551E+02  0.00000000000E+00 0.  1.
         11    1    3    3    0    0  0.93086453928E+01 -0.10565742738E+02 -0.22165138551E+02  0.26259839411E+02  0.51100000000E-03 0. -1.
        -11    1    3    3    0    0 -0.16117112751E+01 -0.18289273476E+01  0.56012670796E+00  0.25012658130E+01  0.51100000000E-03 0.  1.
         12    1    3    3    0    0 -0.44114435056E+01 -0.11679805537E+02 -0.14356751374E+02  0.19026166225E+02  0.00000000000E+00 0. -1.
</event>
<event>
 7    1  0.1457722E-010  0.4778727E+02  0.7816164E-02  0.1312668E+00
        -11   -1    0    0    0    0  0.00000000000E+00  0.00000000000E+00  0.45593999997E+02  0.45594000000E+02  0.51100000000E-03 0.  1.
         11   -1    0    0    0    0 -0.00000000000E+00 -0.00000000000E+00 -0.45593999997E+02  0.45594000000E+02  0.51100000000E-03 0. -1.
    9900012    2    1    2    0    0 -0.33733276246E+02 -0.25485802833E+02 -0.98062674272E+01  0.47787274739E+02  0.20000016844E+02 0.  0.
        -12    1    1    2    0    0  0.33733276246E+02  0.25485802833E+02  0.98062674272E+01  0.43400725261E+02  0.00000000000E+00 0.  1.
         11    1    3    3    0    0 -0.11571717065E+02  0.28190936182E+00  0.75541782594E+00  0.11599774354E+02  0.51100000000E-03 0. -1.
        -11    1    3    3    0    0 -0.11493265461E+02 -0.13076875540E+02 -0.88217503519E+01  0.19517251455E+02  0.51100000000E-03 0.  1.
        -12    1    3    3    0    0 -0.10668293720E+02 -0.12690836655E+02 -0.17399349012E+01  0.16670248929E+02  0.00000000000E+00 0.  1.
</event>
<event>
 7    1  0.1457722E-010  0.4778726E+02  0.7816164E-02  0.1312668E+00
        -11   -1    0    0    0    0  0.00000000000E+00  0.00000000000E+00  0.45593999997E+02  0.45594000000E+02  0.51100000000E-03 0.  1.
         11   -1    0    0    0    0 -0.00000000000E+00 -0.00000000000E+00 -0.45593999997E+02  0.45594000000E+02  0.51100000000E-03 0. -1.
    9900012    2    1    2    0    0  0.26675206431E+02  0.20774735339E+02 -0.27211540362E+02  0.47787260428E+02  0.19999951594E+02 0.  0.
        -12    1    1    2    0    0 -0.26675206431E+02 -0.20774735339E+02  0.27211540362E+02  0.43400739572E+02  0.00000000000E+00 0.  1.
         11    1    3    3    0    0  0.93219006368E+01  0.97720521403E+00 -0.13652723758E+02  0.16560483923E+02  0.51100000000E-03 0. -1.
        -11    1    3    3    0    0  0.79414601512E+01  0.51741636783E+01 -0.52258859068E+00  0.94927265946E+01  0.51100000000E-03 0.  1.
        -12    1    3    3    0    0  0.94118456426E+01  0.14623366447E+02 -0.13036228014E+02  0.21734049910E+02  0.00000000000E+00 0.  1.
</event>
<event>
 7    1  0.1457722E-010  0.4778733E+02  0.7816164E-02  0.1312668E+00
        -11   -1    0    0    0    0  0.00000000000E+00  0.00000000000E+00  0.45593999997E+02  0.45594000000E+02  0.51100000000E-03 0. -1.
         11   -1    0    0    0    0 -0.00000000000E+00 -0.00000000000E+00 -0.45593999997E+02  0.45594000000E+02  0.51100000000E-03 0.  1.
    9900012    2    1    2    0    0 -0.38243938239E+02  0.20274067856E+02 -0.31593850066E+01  0.47787327735E+02  0.20000258473E+02 0.  0.
        -12    1    1    2    0    0  0.38243938239E+02 -0.20274067856E+02  0.31593850066E+01  0.43400672265E+02  0.00000000000E+00 0.  1.
         11    1    3    3    0    0 -0.20270624641E+02  0.65295570851E+01  0.60090367859E+01  0.22127852639E+02  0.51100000000E-03 0. -1.
        -11    1    3    3    0    0 -0.15479839773E+02  0.78512339364E+01 -0.51567657885E+01  0.18106892262E+02  0.51100000000E-03 0.  1.
         12    1    3    3    0    0 -0.24934738241E+01  0.58932768346E+01 -0.40116560040E+01  0.75525828334E+01  0.00000000000E+00 0. -1.
</event>
<event>
 7    1  0.1457722E-010  0.4778728E+02  0.7816164E-02  0.1312668E+00
        -11   -1    0    0    0    0  0.00000000000E+00  0.00000000000E+00  0.45593999997E+02  0.45594000000E+02  0.51100000000E-03 0.  1.
         11   -1    0    0    0    0 -0.00000000000E+00 -0.00000000000E+00 -0.45593999997E+02  0.45594000000E+02  0.51100000000E-03 0. -1.
    9900012    2    1    2    0    0  0.27821234366E+02 -0.93114248935E+01 -0.31982792278E+02  0.47787277459E+02  0.20000029248E+02 0.  0.
        -12    1    1    2    0    0 -0.27821234366E+02  0.93114248935E+01  0.31982792278E+02  0.43400722541E+02  0.00000000000E+00 0.  1.
         11    1    3    3    0    0  0.17533697617E+02  0.98266067047E+00 -0.17158679725E+02  0.24552320955E+02  0.51100000000E-03 0. -1.
        -11    1    3    3    0    0  0.10977881504E+02 -0.74335965596E+01 -0.72531855440E+01  0.15112277821E+02  0.51100000000E-03 0.  1.
         12    1    3    3    0    0 -0.69034475555E+00 -0.28604890043E+01 -0.75709270092E+01  0.81226786840E+01  0.00000000000E+00 0. -1.
</event>
<event>
 7    1  0.1457722E-010  0.4778727E+02  0.7816164E-02  0.1312668E+00
        -11   -1    0    0    0    0  0.00000000000E+00  0.00000000000E+00  0.45593999997E+02  0.45594000000E+02  0.51100000000E-03 0.  1.
         11   -1    0    0    0    0 -0.00000000000E+00 -0.00000000000E+00 -0.45593999997E+02  0.45594000000E+02  0.51100000000E-03 0. -1.
    9900012    2    1    2    0    0 -0.17264430528E+02  0.80108026036E+01 -0.39004999087E+02  0.47787268744E+02  0.19999989511E+02 0.  0.
        -12    1    1    2    0    0  0.17264430528E+02 -0.80108026036E+01  0.39004999087E+02  0.43400731256E+02  0.00000000000E+00 0.  1.
         11    1    3    3    0    0 -0.16089140028E+01 -0.23809969236E+01 -0.80047000995E+01  0.85048794561E+01  0.51100000000E-03 0.  1.
        -11    1    3    3    0    0  0.20973689271E+01  0.10877393979E+01  0.51194311338E-02  0.23626594939E+01  0.51100000000E-03 0. -1.
         12    1    3    3    0    0 -0.17752885452E+02  0.93040601293E+01 -0.31005418418E+02  0.36919729794E+02  0.00000000000E+00 0. -1.
</event>
<event>
 7    1  0.1457722E-010  0.4778728E+02  0.7816164E-02  0.1312668E+00
        -11   -1    0    0    0    0  0.00000000000E+00  0.00000000000E+00  0.45593999997E+02  0.45594000000E+02  0.51100000000E-03 0.  1.
         11   -1    0    0    0    0 -0.00000000000E+00 -0.00000000000E+00 -0.45593999997E+02  0.45594000000E+02  0.51100000000E-03 0. -1.
    9900012    2    1    2    0    0 -0.17196573744E+02 -0.27474198767E+02 -0.28862933738E+02  0.47787277767E+02  0.20000030649E+02 0.  0.
        -12    1    1    2    0    0  0.17196573744E+02  0.27474198767E+02  0.28862933738E+02  0.43400722233E+02  0.00000000000E+00 0.  1.
         11    1    3    3    0    0 -0.92540265742E+01 -0.27395074343E+02 -0.22808917655E+02  0.36828980857E+02  0.51100000000E-03 0. -1.
        -11    1    3    3    0    0 -0.45261236457E+00  0.12137426433E+01 -0.18911551097E+01  0.22922689779E+01  0.51100000000E-03 0.  1.
         12    1    3    3    0    0 -0.74899348050E+01 -0.12928670678E+01 -0.41628609732E+01  0.86660279322E+01  0.00000000000E+00 0. -1.
</event>
<event>
 7    1  0.1641952E-010  0.4778727E+02  0.7816164E-02  0.1312668E+00
        -11   -1    0    0    0    0  0.00000000000E+00  0.00000000000E+00  0.45593999997E+02  0.45594000000E+02  0.51100000000E-03 0. -1.
         11   -1    0    0    0    0 -0.00000000000E+00 -0.00000000000E+00 -0.45593999997E+02  0.45594000000E+02  0.51100000000E-03 0.  1.
    9900012    2    1    2    0    0  0.41023807430E+02 -0.20795028006E+01  0.14012359670E+02  0.47787270381E+02  0.19999996973E+02 0.  0.
        -12    1    1    2    0    0 -0.41023807430E+02  0.20795028006E+01 -0.14012359670E+02  0.43400729619E+02  0.00000000000E+00 0.  1.
         11    1    3    3    0    0  0.16229182361E+02 -0.13168057469E+01  0.64875449074E+01  0.17527366507E+02  0.51100000000E-03 0. -1.
        -11    1    3    3    0    0 -0.14001727611E+01 -0.10319350107E+01 -0.17528157400E+01  0.24693596147E+01  0.51100000000E-03 0.  1.
        -12    1    3    3    0    0  0.26194797831E+02  0.26923795693E+00  0.92776305025E+01  0.27790544259E+02  0.00000000000E+00 0.  1.
</event>
<event>
 7    1  0.1457722E-010  0.4778728E+02  0.7816164E-02  0.1312668E+00
        -11   -1    0    0    0    0  0.00000000000E+00  0.00000000000E+00  0.45593999997E+02  0.45594000000E+02  0.51100000000E-03 0.  1.
         11   -1    0    0    0    0 -0.00000000000E+00 -0.00000000000E+00 -0.45593999997E+02  0.45594000000E+02  0.51100000000E-03 0. -1.
    9900012    2    1    2    0    0 -0.35462823332E+02 -0.15061025941E+02 -0.19979402485E+02  0.47787275758E+02  0.20000021493E+02 0.  0.
        -12    1    1    2    0    0  0.35462823332E+02  0.15061025941E+02  0.19979402485E+02  0.43400724242E+02  0.00000000000E+00 0.  1.
         11    1    3    3    0    0 -0.11898051750E+02 -0.46957504396E+01 -0.15109691780E+01  0.12880090674E+02  0.51100000000E-03 0. -1.
        -11    1    3    3    0    0 -0.17319623174E+02 -0.10713479981E+02 -0.64565387555E+01  0.21364336946E+02  0.51100000000E-03 0.  1.
         12    1    3    3    0    0 -0.62451484075E+01  0.34820447983E+00 -0.12011894551E+02  0.13542848138E+02  0.00000000000E+00 0. -1.
</event>
<event>
 7    1  0.1457722E-010  0.4778727E+02  0.7816164E-02  0.1312668E+00
        -11   -1    0    0    0    0  0.00000000000E+00  0.00000000000E+00  0.45593999997E+02  0.45594000000E+02  0.51100000000E-03 0.  1.
         11   -1    0    0    0    0 -0.00000000000E+00 -0.00000000000E+00 -0.45593999997E+02  0.45594000000E+02  0.51100000000E-03 0. -1.
    9900012    2    1    2    0    0  0.59265628301E+00  0.14742193518E+02 -0.40815926058E+02  0.47787270385E+02  0.19999996991E+02 0.  0.
        -12    1    1    2    0    0 -0.59265628301E+00 -0.14742193518E+02  0.40815926058E+02  0.43400729615E+02  0.00000000000E+00 0.  1.
         11    1    3    3    0    0 -0.12998964846E+01  0.72316325327E+01 -0.15300966409E+02  0.16973680015E+02  0.51100000000E-03 0. -1.
        -11    1    3    3    0    0  0.72601076124E+01 -0.42360787718E+00 -0.14459592925E+02  0.16185438949E+02  0.51100000000E-03 0.  1.
        -12    1    3    3    0    0 -0.53675548448E+01  0.79341688624E+01 -0.11055366725E+02  0.14628151420E+02  0.00000000000E+00 0.  1.
</event>
<event>
 7    1  0.1457722E-010  0.4778727E+02  0.7816164E-02  0.1312668E+00
        -11   -1    0    0    0    0  0.00000000000E+00  0.00000000000E+00  0.45593999997E+02  0.45594000000E+02  0.51100000000E-03 0.  1.
         11   -1    0    0    0    0 -0.00000000000E+00 -0.00000000000E+00 -0.45593999997E+02  0.45594000000E+02  0.51100000000E-03 0. -1.
    9900012    2    1    2    0    0 -0.25869974406E+01 -0.26062740860E+02 -0.34607281403E+02  0.47787274856E+02  0.20000017380E+02 0.  0.
        -12    1    1    2    0    0  0.25869974406E+01  0.26062740860E+02  0.34607281403E+02  0.43400725144E+02  0.00000000000E+00 0.  1.
         11    1    3    3    0    0 -0.63475834250E+00 -0.60078105312E+01 -0.19738721954E+01  0.63555390989E+01  0.51100000000E-03 0. -1.
        -11    1    3    3    0    0 -0.56316685025E+01 -0.54215155588E+01 -0.20911057482E+02  0.22324445041E+02  0.51100000000E-03 0.  1.
        -12    1    3    3    0    0  0.36794294045E+01 -0.14633414770E+02 -0.11722351725E+02  0.19107290717E+02  0.00000000000E+00 0.  1.
</event>
<event>
 7    1  0.1457722E-010  0.4778727E+02  0.7816164E-02  0.1312668E+00
        -11   -1    0    0    0    0  0.00000000000E+00  0.00000000000E+00  0.45593999997E+02  0.45594000000E+02  0.51100000000E-03 0.  1.
         11   -1    0    0    0    0 -0.00000000000E+00 -0.00000000000E+00 -0.45593999997E+02  0.45594000000E+02  0.51100000000E-03 0. -1.
    9900012    2    1    2    0    0  0.12228826136E+02  0.21821323946E+02 -0.35467011015E+02  0.47787271460E+02  0.20000001897E+02 0.  0.
        -12    1    1    2    0    0 -0.12228826136E+02 -0.21821323946E+02  0.35467011015E+02  0.43400728540E+02  0.00000000000E+00 0.  1.
         11    1    3    3    0    0  0.10448785968E+02  0.44472546848E+01 -0.24011260825E+02  0.26561171832E+02  0.51100000000E-03 0. -1.
        -11    1    3    3    0    0  0.17181034837E+01  0.61722562904E+01 -0.24741325287E+01  0.68680389724E+01  0.51100000000E-03 0.  1.
        -12    1    3    3    0    0  0.61936684339E-01  0.11201812971E+02 -0.89816176618E+01  0.14358060656E+02  0.00000000000E+00 0.  1.
</event>
<event>
 7    1  0.1457722E-010  0.4778727E+02  0.7816164E-02  0.1312668E+00
        -11   -1    0    0    0    0  0.00000000000E+00  0.00000000000E+00  0.45593999997E+02  0.45594000000E+02  0.51100000000E-03 0. -1.
         11   -1    0    0    0    0 -0.00000000000E+00 -0.00000000000E+00 -0.45593999997E+02  0.45594000000E+02  0.51100000000E-03 0.  1.
    9900012    2    1    2    0    0 -0.29440099322E+02 -0.10098535067E+02  0.30247698069E+02  0.47787273081E+02  0.20000009287E+02 0.  0.
        -12    1    1    2    0    0  0.29440099322E+02  0.10098535067E+02 -0.30247698069E+02  0.43400726919E+02  0.00000000000E+00 0.  1.
         11    1    3    3    0    0 -0.12235629595E+02  0.26896198362E+01  0.15747326692E+02  0.20122698245E+02  0.51100000000E-03 0. -1.
        -11    1    3    3    0    0 -0.47183482700E+00 -0.50134495369E+01  0.40329617223E+01  0.64515180290E+01  0.51100000000E-03 0.  1.
        -12    1    3    3    0    0 -0.16732634901E+02 -0.77747053658E+01  0.10467409655E+02  0.21213056808E+02  0.00000000000E+00 0.  1.
</event>
<event>
 7    1  0.1457722E-010  0.4778728E+02  0.7816164E-02  0.1312668E+00
        -11   -1    0    0    0    0  0.00000000000E+00  0.00000000000E+00  0.45593999997E+02  0.45594000000E+02  0.51100000000E-03 0.  1.
         11   -1    0    0    0    0 -0.00000000000E+00 -0.00000000000E+00 -0.45593999997E+02  0.45594000000E+02  0.51100000000E-03 0. -1.
    9900012    2    1    2    0    0 -0.28459474334E+02  0.31484859794E+02 -0.90765961576E+01  0.47787277962E+02  0.20000031541E+02 0.  0.
        -12    1    1    2    0    0  0.28459474334E+02 -0.31484859794E+02  0.90765961576E+01  0.43400722038E+02  0.00000000000E+00 0.  1.
         11    1    3    3    0    0 -0.28075990407E+02  0.24390799634E+02 -0.47144405760E+01  0.37488642204E+02  0.51100000000E-03 0. -1.
        -11    1    3    3    0    0 -0.16998585878E+01  0.49994246211E+01  0.37637061187E-02  0.52805094629E+01  0.51100000000E-03 0.  1.
        -12    1    3    3    0    0  0.13163746608E+01  0.20946355384E+01 -0.43659192876E+01  0.50181262950E+01  0.00000000000E+00 0.  1.
</event>
<event>
 7    1  0.1457722E-010  0.4778727E+02  0.7816164E-02  0.1312668E+00
        -11   -1    0    0    0    0  0.00000000000E+00  0.00000000000E+00  0.45593999997E+02  0.45594000000E+02  0.51100000000E-03 0. -1.
         11   -1    0    0    0    0 -0.00000000000E+00 -0.00000000000E+00 -0.45593999997E+02  0.45594000000E+02  0.51100000000E-03 0.  1.
    9900012    2    1    2    0    0 -0.29544977313E+02 -0.16979808960E+02  0.26877575961E+02  0.47787266293E+02  0.19999978338E+02 0.  0.
        -12    1    1    2    0    0  0.29544977313E+02  0.16979808960E+02 -0.26877575961E+02  0.43400733707E+02  0.00000000000E+00 0.  1.
         11    1    3    3    0    0 -0.13773420042E+02 -0.42816701950E+01  0.17184226870E+02  0.22435183366E+02  0.51100000000E-03 0. -1.
        -11    1    3    3    0    0 -0.59171733255E+01 -0.40774522772E+00  0.73196608332E+01  0.94210737875E+01  0.51100000000E-03 0.  1.
        -12    1    3    3    0    0 -0.98543839461E+01 -0.12290393537E+02  0.23736882576E+01  0.15931009140E+02  0.00000000000E+00 0.  1.
</event>
<event>
 7    1  0.1457722E-010  0.4778726E+02  0.7816164E-02  0.1312668E+00
        -11   -1    0    0    0    0  0.00000000000E+00  0.00000000000E+00  0.45593999997E+02  0.45594000000E+02  0.51100000000E-03 0.  1.
         11   -1    0    0    0    0 -0.00000000000E+00 -0.00000000000E+00 -0.45593999997E+02  0.45594000000E+02  0.51100000000E-03 0. -1.
    9900012    2    1    2    0    0 -0.23814745237E+02  0.11064628303E+02 -0.34555111263E+02  0.47787264930E+02  0.19999972123E+02 0.  0.
        -12    1    1    2    0    0  0.23814745237E+02 -0.11064628303E+02  0.34555111263E+02  0.43400735070E+02  0.00000000000E+00 0.  1.
         11    1    3    3    0    0 -0.16950397543E+02  0.34936115982E+00 -0.17286442697E+02  0.24212788594E+02  0.51100000000E-03 0. -1.
        -11    1    3    3    0    0 -0.92907584201E+01  0.92172606560E+01 -0.15162514352E+02  0.20029426546E+02  0.51100000000E-03 0.  1.
        -12    1    3    3    0    0  0.24264107260E+01  0.14980064873E+01 -0.21061542135E+01  0.35450497907E+01  0.00000000000E+00 0.  1.
</event>
<event>
 7    1  0.1457722E-010  0.4778727E+02  0.7816164E-02  0.1312668E+00
        -11   -1    0    0    0    0  0.00000000000E+00  0.00000000000E+00  0.45593999997E+02  0.45594000000E+02  0.51100000000E-03 0.  1.
         11   -1    0    0    0    0 -0.00000000000E+00 -0.00000000000E+00 -0.45593999997E+02  0.45594000000E+02  0.51100000000E-03 0. -1.
    9900012    2    1    2    0    0 -0.21171036422E+02 -0.30696254941E+02 -0.22206993455E+02  0.47787269489E+02  0.19999992908E+02 0.  0.
        -12    1    1    2    0    0  0.21171036422E+02  0.30696254941E+02  0.22206993455E+02  0.43400730511E+02  0.00000000000E+00 0.  1.
         11    1    3    3    0    0 -0.88009076916E+01 -0.86974799961E+01 -0.79206767830E+01  0.14691468798E+02  0.51100000000E-03 0. -1.
        -11    1    3    3    0    0 -0.31380385693E+01 -0.19796393549E+02 -0.73848798530E+01  0.21360733468E+02  0.51100000000E-03 0.  1.
        -12    1    3    3    0    0 -0.92320901610E+01 -0.22023813962E+01 -0.69014368192E+01  0.11735067223E+02  0.00000000000E+00 0.  1.
</event>
<event>
 7    1  0.1457722E-010  0.4778727E+02  0.7816164E-02  0.1312668E+00
        -11   -1    0    0    0    0  0.00000000000E+00  0.00000000000E+00  0.45593999997E+02  0.45594000000E+02  0.51100000000E-03 0. -1.
         11   -1    0    0    0    0 -0.00000000000E+00 -0.00000000000E+00 -0.45593999997E+02  0.45594000000E+02  0.51100000000E-03 0.  1.
    9900012    2    1    2    0    0  0.26727499731E+02 -0.34151971886E+02 -0.17049613970E+01  0.47787270525E+02  0.19999997633E+02 0.  0.
        -12    1    1    2    0    0 -0.26727499731E+02  0.34151971886E+02  0.17049613970E+01  0.43400729475E+02  0.00000000000E+00 0.  1.
         11    1    3    3    0    0  0.49201205096E+01 -0.11704905742E+02  0.21950509647E+01  0.12885288249E+02  0.51100000000E-03 0. -1.
        -11    1    3    3    0    0  0.23180484108E+02 -0.20172684205E+02 -0.62463931356E+01  0.31357446627E+02  0.51100000000E-03 0.  1.
         12    1    3    3    0    0 -0.13731048864E+01 -0.22743819394E+01  0.23463807738E+01  0.35445356496E+01  0.00000000000E+00 0. -1.
</event>
<event>
 7    1  0.1457722E-010  0.4778727E+02  0.7816164E-02  0.1312668E+00
        -11   -1    0    0    0    0  0.00000000000E+00  0.00000000000E+00  0.45593999997E+02  0.45594000000E+02  0.51100000000E-03 0.  1.
         11   -1    0    0    0    0 -0.00000000000E+00 -0.00000000000E+00 -0.45593999997E+02  0.45594000000E+02  0.51100000000E-03 0. -1.
    9900012    2    1    2    0    0  0.35020799674E+02 -0.99766139947E+01 -0.23614280287E+02  0.47787268783E+02  0.19999989691E+02 0.  0.
        -12    1    1    2    0    0 -0.35020799674E+02  0.99766139947E+01  0.23614280287E+02  0.43400731217E+02  0.00000000000E+00 0.  1.
         11    1    3    3    0    0  0.16007699441E+02 -0.62093400224E+01 -0.18556610477E+02  0.25281418821E+02  0.51100000000E-03 0. -1.
        -11    1    3    3    0    0  0.42073279558E+01 -0.53251575417E+01 -0.12442825886E-01  0.67866830232E+01  0.51100000000E-03 0.  1.
        -12    1    3    3    0    0  0.14805772278E+02  0.15578835695E+01 -0.50452269841E+01  0.15719166940E+02  0.00000000000E+00 0.  1.
</event>
<event>
 7    1  0.1457722E-010  0.4778727E+02  0.7816164E-02  0.1312668E+00
        -11   -1    0    0    0    0  0.00000000000E+00  0.00000000000E+00  0.45593999997E+02  0.45594000000E+02  0.51100000000E-03 0.  1.
         11   -1    0    0    0    0 -0.00000000000E+00 -0.00000000000E+00 -0.45593999997E+02  0.45594000000E+02  0.51100000000E-03 0. -1.
    9900012    2    1    2    0    0 -0.23582677108E+02 -0.77305860917E+01 -0.35605032606E+02  0.47787274571E+02  0.20000016079E+02 0.  0.
        -12    1    1    2    0    0  0.23582677108E+02  0.77305860917E+01  0.35605032606E+02  0.43400725429E+02  0.00000000000E+00 0.  1.
         11    1    3    3    0    0 -0.18202725964E+02 -0.62064764206E+01 -0.20083591067E+02  0.27806657701E+02  0.51100000000E-03 0. -1.
        -11    1    3    3    0    0 -0.66535093887E+00 -0.59757898627E+01 -0.86317415959E+01  0.10519492364E+02  0.51100000000E-03 0.  1.
         12    1    3    3    0    0 -0.47146002043E+01  0.44516801916E+01 -0.68896999429E+01  0.94611245059E+01  0.00000000000E+00 0. -1.
</event>
<event>
 7    1  0.1457722E-010  0.4778727E+02  0.7816164E-02  0.1312668E+00
        -11   -1    0    0    0    0  0.00000000000E+00  0.00000000000E+00  0.45593999997E+02  0.45594000000E+02  0.51100000000E-03 0.  1.
         11   -1    0    0    0    0 -0.00000000000E+00 -0.00000000000E+00 -0.45593999997E+02  0.45594000000E+02  0.51100000000E-03 0. -1.
    9900012    2    1    2    0    0  0.20476135913E+01 -0.35655166835E+02 -0.24660492722E+02  0.47787267924E+02  0.19999985772E+02 0.  0.
        -12    1    1    2    0    0 -0.20476135913E+01  0.35655166835E+02  0.24660492722E+02  0.43400732076E+02  0.00000000000E+00 0.  1.
         11    1    3    3    0    0  0.51036546031E+01 -0.25305884220E+02 -0.20182494449E+02  0.32768401684E+02  0.51100000000E-03 0. -1.
        -11    1    3    3    0    0 -0.35488264235E+01 -0.11747269547E+02 -0.24612960548E+01  0.12516009321E+02  0.51100000000E-03 0.  1.
         12    1    3    3    0    0  0.49278541174E+00  0.13979869314E+01 -0.20167022175E+01  0.25028569189E+01  0.00000000000E+00 0. -1.
</event>
<event>
 7    1  0.1457722E-010  0.4778728E+02  0.7816164E-02  0.1312668E+00
        -11   -1    0    0    0    0  0.00000000000E+00  0.00000000000E+00  0.45593999997E+02  0.45594000000E+02  0.51100000000E-03 0.  1.
         11   -1    0    0    0    0 -0.00000000000E+00 -0.00000000000E+00 -0.45593999997E+02  0.45594000000E+02  0.51100000000E-03 0. -1.
    9900012    2    1    2    0    0 -0.27868817544E+02  0.11808560092E+02 -0.31104817152E+02  0.47787277278E+02  0.20000028422E+02 0.  0.
        -12    1    1    2    0    0  0.27868817544E+02 -0.11808560092E+02  0.31104817152E+02  0.43400722722E+02  0.00000000000E+00 0.  1.
         11    1    3    3    0    0 -0.99412495960E+00 -0.24772082205E+01 -0.73015076520E+01  0.77741146927E+01  0.51100000000E-03 0. -1.
        -11    1    3    3    0    0 -0.75885603292E+01 -0.36651381568E+00 -0.83174409830E+01  0.11265007990E+02  0.51100000000E-03 0.  1.
        -12    1    3    3    0    0 -0.19286132255E+02  0.14652282128E+02 -0.15485868517E+02  0.28748154595E+02  0.00000000000E+00 0.  1.
</event>
<event>
 7    1  0.1457722E-010  0.4778728E+02  0.7816164E-02  0.1312668E+00
        -11   -1    0    0    0    0  0.00000000000E+00  0.00000000000E+00  0.45593999997E+02  0.45594000000E+02  0.51100000000E-03 0.  1.
         11   -1    0    0    0    0 -0.00000000000E+00 -0.00000000000E+00 -0.45593999997E+02  0.45594000000E+02  0.51100000000E-03 0. -1.
    9900012    2    1    2    0    0 -0.14095859427E+01 -0.27439044527E+02 -0.33596637041E+02  0.47787284366E+02  0.20000060739E+02 0.  0.
        -12    1    1    2    0    0  0.14095859427E+01  0.27439044527E+02  0.33596637041E+02  0.43400715634E+02  0.00000000000E+00 0.  1.
         11    1    3    3    0    0 -0.21216778828E+01 -0.21363379941E+02 -0.24912208798E+02  0.32886375096E+02  0.51100000000E-03 0. -1.
        -11    1    3    3    0    0 -0.19266051460E+01 -0.65649390644E+01 -0.98352290845E+01  0.11980899954E+02  0.51100000000E-03 0.  1.
        -12    1    3    3    0    0  0.26386970860E+01  0.48927447827E+00  0.11508008413E+01  0.29200093156E+01  0.00000000000E+00 0.  1.
</event>
<event>
 7    1  0.1457722E-010  0.4778727E+02  0.7816164E-02  0.1312668E+00
        -11   -1    0    0    0    0  0.00000000000E+00  0.00000000000E+00  0.45593999997E+02  0.45594000000E+02  0.51100000000E-03 0.  1.
         11   -1    0    0    0    0 -0.00000000000E+00 -0.00000000000E+00 -0.45593999997E+02  0.45594000000E+02  0.51100000000E-03 0. -1.
    9900012    2    1    2    0    0 -0.31497881466E+00  0.12236993660E+02 -0.41638682465E+02  0.47787273014E+02  0.20000008981E+02 0.  0.
        -12    1    1    2    0    0  0.31497881466E+00 -0.12236993660E+02  0.41638682465E+02  0.43400726986E+02  0.00000000000E+00 0.  1.
         11    1    3    3    0    0  0.48882172061E+01  0.71298480476E+01 -0.25323444223E+02  0.26758292700E+02  0.51100000000E-03 0. -1.
        -11    1    3    3    0    0 -0.11032289083E+01 -0.31220189743E+01 -0.78974048899E+01  0.85634759740E+01  0.51100000000E-03 0.  1.
        -12    1    3    3    0    0 -0.40999671125E+01  0.82291645868E+01 -0.84178333517E+01  0.12465504340E+02  0.00000000000E+00 0.  1.
</event>
<event>
 7    1  0.1457722E-010  0.4778727E+02  0.7816164E-02  0.1312668E+00
        -11   -1    0    0    0    0  0.00000000000E+00  0.00000000000E+00  0.45593999997E+02  0.45594000000E+02  0.51100000000E-03 0.  1.
         11   -1    0    0    0    0 -0.00000000000E+00 -0.00000000000E+00 -0.45593999997E+02  0.45594000000E+02  0.51100000000E-03 0. -1.
    9900012    2    1    2    0    0  0.14077725474E+02 -0.36296548037E+02 -0.19183365144E+02  0.47787271294E+02  0.20000001139E+02 0.  0.
        -12    1    1    2    0    0 -0.14077725474E+02  0.36296548037E+02  0.19183365144E+02  0.43400728706E+02  0.00000000000E+00 0.  1.
         11    1    3    3    0    0 -0.63541792262E+00 -0.59014128331E+01 -0.99240741953E+01  0.11563636031E+02  0.51100000000E-03 0.  1.
        -11    1    3    3    0    0  0.70924332570E+01 -0.20341535956E+02 -0.96430916631E+01  0.23602328522E+02  0.51100000000E-03 0. -1.
        -12    1    3    3    0    0  0.76207101398E+01 -0.10053599248E+02  0.38380071479E+00  0.12621306742E+02  0.00000000000E+00 0.  1.
</event>
<event>
 7    1  0.1457722E-010  0.4778728E+02  0.7816164E-02  0.1312668E+00
        -11   -1    0    0    0    0  0.00000000000E+00  0.00000000000E+00  0.45593999997E+02  0.45594000000E+02  0.51100000000E-03 0.  1.
         11   -1    0    0    0    0 -0.00000000000E+00 -0.00000000000E+00 -0.45593999997E+02  0.45594000000E+02  0.51100000000E-03 0. -1.
    9900012    2    1    2    0    0 -0.27931264982E+02 -0.32733570026E+02  0.56551302496E+01  0.47787278021E+02  0.20000031811E+02 0.  0.
        -12    1    1    2    0    0  0.27931264982E+02  0.32733570026E+02 -0.56551302496E+01  0.43400721979E+02  0.00000000000E+00 0.  1.
         11    1    3    3    0    0 -0.59867342678E+01 -0.11422390308E+02  0.37034443102E+01  0.13417432227E+02  0.51100000000E-03 0. -1.
        -11    1    3    3    0    0 -0.21675067654E+01 -0.11944716835E+02 -0.14428489699E+01  0.12225226348E+02  0.51100000000E-03 0.  1.
         12    1    3    3    0    0 -0.19777023948E+02 -0.93664628830E+01  0.33945349093E+01  0.22144619447E+02  0.00000000000E+00 0. -1.
</event>
<event>
 7    1  0.1457722E-010  0.4778727E+02  0.7816164E-02  0.1312668E+00
        -11   -1    0    0    0    0  0.00000000000E+00  0.00000000000E+00  0.45593999997E+02  0.45594000000E+02  0.51100000000E-03 0.  1.
         11   -1    0    0    0    0 -0.00000000000E+00 -0.00000000000E+00 -0.45593999997E+02  0.45594000000E+02  0.51100000000E-03 0. -1.
    9900012    2    1    2    0    0 -0.16656249725E+01 -0.15485786872E+02 -0.40509742383E+02  0.47787272708E+02  0.20000007584E+02 0.  0.
        -12    1    1    2    0    0  0.16656249725E+01  0.15485786872E+02  0.40509742383E+02  0.43400727292E+02  0.00000000000E+00 0.  1.
         11    1    3    3    0    0  0.33813847165E+01 -0.37688725096E+00 -0.58013467879E+01  0.67254316899E+01  0.51100000000E-03 0.  1.
        -11    1    3    3    0    0 -0.10430688213E+02 -0.88028963679E+01 -0.21454900044E+02  0.25428389198E+02  0.51100000000E-03 0. -1.
         12    1    3    3    0    0  0.53836785242E+01 -0.63060032529E+01 -0.13253495551E+02  0.15633451819E+02  0.00000000000E+00 0. -1.
</event>
<event>
 7    1  0.1457722E-010  0.4778727E+02  0.7816164E-02  0.1312668E+00
        -11   -1    0    0    0    0  0.00000000000E+00  0.00000000000E+00  0.45593999997E+02  0.45594000000E+02  0.51100000000E-03 0.  1.
         11   -1    0    0    0    0 -0.00000000000E+00 -0.00000000000E+00 -0.45593999997E+02  0.45594000000E+02  0.51100000000E-03 0. -1.
    9900012    2    1    2    0    0  0.80925398633E+01 -0.22208723449E+02 -0.36399265861E+02  0.47787272427E+02  0.20000006304E+02 0.  0.
        -12    1    1    2    0    0 -0.80925398633E+01  0.22208723449E+02  0.36399265861E+02  0.43400727573E+02  0.00000000000E+00 0.  1.
         11    1    3    3    0    0  0.89201204510E+01 -0.19156729346E+02 -0.37143400461E+02  0.42733839357E+02  0.51100000000E-03 0. -1.
        -11    1    3    3    0    0  0.14816122601E+01 -0.19232213461E+01  0.33441383127E+00  0.24506709504E+01  0.51100000000E-03 0.  1.
         12    1    3    3    0    0 -0.23091928478E+01 -0.11287727563E+01  0.40972076893E+00  0.26027621198E+01  0.00000000000E+00 0. -1.
</event>
<event>
 7    1  0.1457722E-010  0.4778727E+02  0.7816164E-02  0.1312668E+00
        -11   -1    0    0    0    0  0.00000000000E+00  0.00000000000E+00  0.45593999997E+02  0.45594000000E+02  0.51100000000E-03 0. -1.
         11   -1    0    0    0    0 -0.00000000000E+00 -0.00000000000E+00 -0.45593999997E+02  0.45594000000E+02  0.51100000000E-03 0.  1.
    9900012    2    1    2    0    0  0.27473197172E+02 -0.20991564520E+01  0.33532674501E+02  0.47787270976E+02  0.19999999687E+02 0.  0.
        -12    1    1    2    0    0 -0.27473197172E+02  0.20991564520E+01 -0.33532674501E+02  0.43400729024E+02  0.00000000000E+00 0.  1.
         11    1    3    3    0    0  0.64091421916E+01 -0.48374697631E+01  0.21067843771E+01  0.83016117720E+01  0.51100000000E-03 0. -1.
        -11    1    3    3    0    0  0.20454351948E+01  0.30499947323E+01  0.10897273156E+02  0.11499427617E+02  0.51100000000E-03 0.  1.
         12    1    3    3    0    0  0.19018619786E+02 -0.31168142129E+00  0.20528616967E+02  0.27986231587E+02  0.00000000000E+00 0. -1.
</event>
<event>
 7    1  0.1457722E-010  0.4778727E+02  0.7816164E-02  0.1312668E+00
        -11   -1    0    0    0    0  0.00000000000E+00  0.00000000000E+00  0.45593999997E+02  0.45594000000E+02  0.51100000000E-03 0.  1.
         11   -1    0    0    0    0 -0.00000000000E+00 -0.00000000000E+00 -0.45593999997E+02  0.45594000000E+02  0.51100000000E-03 0. -1.
    9900012    2    1    2    0    0 -0.20993408092E+02 -0.22530327745E+02 -0.30582425950E+02  0.47787266958E+02  0.19999981369E+02 0.  0.
        -12    1    1    2    0    0  0.20993408092E+02  0.22530327745E+02  0.30582425950E+02  0.43400733042E+02  0.00000000000E+00 0.  1.
         11    1    3    3    0    0 -0.79168040980E+01 -0.15452250750E+02 -0.22030597630E+02  0.28049867603E+02  0.51100000000E-03 0. -1.
        -11    1    3    3    0    0  0.11439143686E+00 -0.22715945860E+01  0.12684999236E+01  0.26042887093E+01  0.51100000000E-03 0.  1.
        -12    1    3    3    0    0 -0.13190995431E+02 -0.48064824095E+01 -0.98203282431E+01  0.17133110646E+02  0.00000000000E+00 0.  1.
</event>
<event>
 7    1  0.1457722E-010  0.4778727E+02  0.7816164E-02  0.1312668E+00
        -11   -1    0    0    0    0  0.00000000000E+00  0.00000000000E+00  0.45593999997E+02  0.45594000000E+02  0.51100000000E-03 0.  1.
         11   -1    0    0    0    0 -0.00000000000E+00 -0.00000000000E+00 -0.45593999997E+02  0.45594000000E+02  0.51100000000E-03 0. -1.
    9900012    2    1    2    0    0 -0.13140318739E+02 -0.18132203080E+02 -0.37177662250E+02  0.47787270335E+02  0.19999996765E+02 0.  0.
        -12    1    1    2    0    0  0.13140318739E+02  0.18132203080E+02  0.37177662250E+02  0.43400729665E+02  0.00000000000E+00 0.  1.
         11    1    3    3    0    0 -0.50890160132E+01 -0.88946397610E+01 -0.59041123875E+01  0.11826717372E+02  0.51100000000E-03 0.  1.
        -11    1    3    3    0    0 -0.11274458063E+02 -0.48668865170E+01 -0.20527718378E+02  0.23920435010E+02  0.51100000000E-03 0. -1.
        -12    1    3    3    0    0  0.32231553367E+01 -0.43706768022E+01 -0.10745831484E+02  0.12040117953E+02  0.00000000000E+00 0.  1.
</event>
<event>
 7    1  0.1457722E-010  0.4778728E+02  0.7816164E-02  0.1312668E+00
        -11   -1    0    0    0    0  0.00000000000E+00  0.00000000000E+00  0.45593999997E+02  0.45594000000E+02  0.51100000000E-03 0. -1.
         11   -1    0    0    0    0 -0.00000000000E+00 -0.00000000000E+00 -0.45593999997E+02  0.45594000000E+02  0.51100000000E-03 0.  1.
    9900012    2    1    2    0    0 -0.16741948488E+02 -0.23573383108E+02  0.32367042343E+02  0.47787278112E+02  0.20000032226E+02 0.  0.
        -12    1    1    2    0    0  0.16741948488E+02  0.23573383108E+02 -0.32367042343E+02  0.43400721888E+02  0.00000000000E+00 0.  1.
         11    1    3    3    0    0 -0.15609356654E+02 -0.25918614750E+02  0.29039393770E+02  0.41937012250E+02  0.51100000000E-03 0. -1.
        -11    1    3    3    0    0 -0.25727961272E+01  0.83369872246E+00  0.16160685783E+01  0.31505573130E+01  0.51100000000E-03 0.  1.
         12    1    3    3    0    0  0.14402042934E+01  0.15115329190E+01  0.17115799951E+01  0.26997085494E+01  0.00000000000E+00 0. -1.
</event>
<event>
 7    1  0.1457722E-010  0.4778727E+02  0.7816164E-02  0.1312668E+00
        -11   -1    0    0    0    0  0.00000000000E+00  0.00000000000E+00  0.45593999997E+02  0.45594000000E+02  0.51100000000E-03 0.  1.
         11   -1    0    0    0    0 -0.00000000000E+00 -0.00000000000E+00 -0.45593999997E+02  0.45594000000E+02  0.51100000000E-03 0. -1.
    9900012    2    1    2    0    0 -0.20343147929E+02 -0.21431282378E+02 -0.31788047189E+02  0.47787268715E+02  0.19999989378E+02 0.  0.
        -12    1    1    2    0    0  0.20343147929E+02  0.21431282378E+02  0.31788047189E+02  0.43400731285E+02  0.00000000000E+00 0.  1.
         11    1    3    3    0    0  0.13994869940E+00 -0.45137326600E+00  0.22468564952E+00  0.52326605656E+00  0.51100000000E-03 0. -1.
        -11    1    3    3    0    0 -0.86230455286E+01 -0.12317363277E+02 -0.38799425332E+01  0.15528306624E+02  0.51100000000E-03 0.  1.
         12    1    3    3    0    0 -0.11860051099E+02 -0.86625458350E+01 -0.28132790305E+02  0.31735696034E+02  0.00000000000E+00 0. -1.
</event>
<event>
 7    1  0.1457722E-010  0.4778727E+02  0.7816164E-02  0.1312668E+00
        -11   -1    0    0    0    0  0.00000000000E+00  0.00000000000E+00  0.45593999997E+02  0.45594000000E+02  0.51100000000E-03 0. -1.
         11   -1    0    0    0    0 -0.00000000000E+00 -0.00000000000E+00 -0.45593999997E+02  0.45594000000E+02  0.51100000000E-03 0.  1.
    9900012    2    1    2    0    0  0.28475876412E+02 -0.30586095248E+02 -0.11714871883E+02  0.47787274393E+02  0.20000015268E+02 0.  0.
        -12    1    1    2    0    0 -0.28475876412E+02  0.30586095248E+02  0.11714871883E+02  0.43400725607E+02  0.00000000000E+00 0.  1.
         11    1    3    3    0    0  0.25437964657E+02 -0.27650060530E+02 -0.11793318911E+02  0.39378906339E+02  0.51100000000E-03 0. -1.
        -11    1    3    3    0    0 -0.68070752396E+00 -0.37635550247E+01 -0.17224242618E+01  0.41945744428E+01  0.51100000000E-03 0.  1.
         12    1    3    3    0    0  0.37186192786E+01  0.82752030689E+00  0.18008712901E+01  0.42137936116E+01  0.00000000000E+00 0. -1.
</event>
<event>
 7    1  0.1925612E-010  0.4778727E+02  0.7816164E-02  0.1312668E+00
        -11   -1    0    0    0    0  0.00000000000E+00  0.00000000000E+00  0.45593999997E+02  0.45594000000E+02  0.51100000000E-03 0. -1.
         11   -1    0    0    0    0 -0.00000000000E+00 -0.00000000000E+00 -0.45593999997E+02  0.45594000000E+02  0.51100000000E-03 0.  1.
    9900012    2    1    2    0    0 -0.38838718342E+02 -0.16789860094E+01  0.19296580949E+02  0.47787273361E+02  0.20000010563E+02 0.  0.
        -12    1    1    2    0    0  0.38838718342E+02  0.16789860094E+01 -0.19296580949E+02  0.43400726639E+02  0.00000000000E+00 0.  1.
         11    1    3    3    0    0 -0.12363043564E+02 -0.29943208555E+01  0.75505312442E+01  0.14792610516E+02  0.51100000000E-03 0. -1.
        -11    1    3    3    0    0 -0.15899587015E+02  0.27690759922E+01 -0.12368609696E+01  0.16186243370E+02  0.51100000000E-03 0.  1.
        -12    1    3    3    0    0 -0.10576087763E+02 -0.14537411461E+01  0.12982910674E+02  0.16808419475E+02  0.00000000000E+00 0.  1.
</event>
<event>
 7    1  0.1457722E-010  0.4778727E+02  0.7816164E-02  0.1312668E+00
        -11   -1    0    0    0    0  0.00000000000E+00  0.00000000000E+00  0.45593999997E+02  0.45594000000E+02  0.51100000000E-03 0.  1.
         11   -1    0    0    0    0 -0.00000000000E+00 -0.00000000000E+00 -0.45593999997E+02  0.45594000000E+02  0.51100000000E-03 0. -1.
    9900012    2    1    2    0    0 -0.33249869893E+01  0.39983526834E+01 -0.43088062942E+02  0.47787268085E+02  0.19999986509E+02 0.  0.
        -12    1    1    2    0    0  0.33249869893E+01 -0.39983526834E+01  0.43088062942E+02  0.43400731915E+02  0.00000000000E+00 0.  1.
         11    1    3    3    0    0 -0.14926156315E+01  0.99998423692E-01 -0.24126765882E+02  0.24173099373E+02  0.51100000000E-03 0. -1.
        -11    1    3    3    0    0 -0.13666239789E+01 -0.49159208450E+01 -0.86327789864E+01  0.10027901682E+02  0.51100000000E-03 0.  1.
        -12    1    3    3    0    0 -0.46574737894E+00  0.88142751047E+01 -0.10328518074E+02  0.13586267031E+02  0.00000000000E+00 0.  1.
</event>
<event>
 7    1  0.1457722E-010  0.4778727E+02  0.7816164E-02  0.1312668E+00
        -11   -1    0    0    0    0  0.00000000000E+00  0.00000000000E+00  0.45593999997E+02  0.45594000000E+02  0.51100000000E-03 0. -1.
         11   -1    0    0    0    0 -0.00000000000E+00 -0.00000000000E+00 -0.45593999997E+02  0.45594000000E+02  0.51100000000E-03 0.  1.
    9900012    2    1    2    0    0  0.35465921743E+02  0.23016018981E+02  0.98007281595E+01  0.47787274116E+02  0.20000014005E+02 0.  0.
        -12    1    1    2    0    0 -0.35465921743E+02 -0.23016018981E+02 -0.98007281595E+01  0.43400725884E+02  0.00000000000E+00 0.  1.
         11    1    3    3    0    0  0.30165145550E+02  0.22735000727E+02  0.57661376363E+01  0.38210791769E+02  0.51100000000E-03 0. -1.
        -11    1    3    3    0    0  0.60580976388E+01 -0.98313224674E+00  0.49123911088E+01  0.78612138174E+01  0.51100000000E-03 0.  1.
        -12    1    3    3    0    0 -0.75732144591E+00  0.12641505008E+01 -0.87780058556E+00  0.17152685297E+01  0.00000000000E+00 0.  1.
</event>
<event>
 7    1  0.1457722E-010  0.4778728E+02  0.7816164E-02  0.1312668E+00
        -11   -1    0    0    0    0  0.00000000000E+00  0.00000000000E+00  0.45593999997E+02  0.45594000000E+02  0.51100000000E-03 0.  1.
         11   -1    0    0    0    0 -0.00000000000E+00 -0.00000000000E+00 -0.45593999997E+02  0.45594000000E+02  0.51100000000E-03 0. -1.
    9900012    2    1    2    0    0  0.43166549862E+02 -0.23770575331E+01 -0.38237464487E+01  0.47787280347E+02  0.20000042412E+02 0.  0.
        -12    1    1    2    0    0 -0.43166549862E+02  0.23770575331E+01  0.38237464487E+01  0.43400719653E+02  0.00000000000E+00 0.  1.
         11    1    3    3    0    0  0.11474389150E+02 -0.69795569455E+00  0.40981893820E+01  0.12204257658E+02  0.51100000000E-03 0. -1.
        -11    1    3    3    0    0  0.10563633844E+02 -0.66249945720E+01  0.38566979763E-01  0.12469258227E+02  0.51100000000E-03 0.  1.
        -12    1    3    3    0    0  0.21128526868E+02  0.49458927334E+01 -0.79605028105E+01  0.23113764461E+02  0.00000000000E+00 0.  1.
</event>
<event>
 7    1  0.1457722E-010  0.4778727E+02  0.7816164E-02  0.1312668E+00
        -11   -1    0    0    0    0  0.00000000000E+00  0.00000000000E+00  0.45593999997E+02  0.45594000000E+02  0.51100000000E-03 0.  1.
         11   -1    0    0    0    0 -0.00000000000E+00 -0.00000000000E+00 -0.45593999997E+02  0.45594000000E+02  0.51100000000E-03 0. -1.
    9900012    2    1    2    0    0 -0.38892889784E+02 -0.12365580445E+02  0.14766811227E+02  0.47787272249E+02  0.20000005493E+02 0.  0.
        -12    1    1    2    0    0  0.38892889784E+02  0.12365580445E+02 -0.14766811227E+02  0.43400727751E+02  0.00000000000E+00 0.  1.
         11    1    3    3    0    0 -0.27579909996E+02 -0.89581106800E+00  0.41959991865E+01  0.27911652088E+02  0.51100000000E-03 0. -1.
        -11    1    3    3    0    0 -0.36394304599E+01 -0.89447876380E+00  0.27421867006E+01  0.46438275693E+01  0.51100000000E-03 0.  1.
        -12    1    3    3    0    0 -0.76735493281E+01 -0.10575290613E+02  0.78286253403E+01  0.15231792592E+02  0.00000000000E+00 0.  1.
</event>
<event>
 7    1  0.1457722E-010  0.4778727E+02  0.7816164E-02  0.1312668E+00
        -11   -1    0    0    0    0  0.00000000000E+00  0.00000000000E+00  0.45593999997E+02  0.45594000000E+02  0.51100000000E-03 0.  1.
         11   -1    0    0    0    0 -0.00000000000E+00 -0.00000000000E+00 -0.45593999997E+02  0.45594000000E+02  0.51100000000E-03 0. -1.
    9900012    2    1    2    0    0 -0.26320243742E+01  0.60024157366E+01 -0.42902992485E+02  0.47787270615E+02  0.19999998044E+02 0.  0.
        -12    1    1    2    0    0  0.26320243742E+01 -0.60024157366E+01  0.42902992485E+02  0.43400729385E+02  0.00000000000E+00 0.  1.
         11    1    3    3    0    0 -0.31660532754E+01  0.53092906482E+01 -0.31980144921E+01  0.69598676340E+01  0.51100000000E-03 0. -1.
        -11    1    3    3    0    0  0.19474507602E+01  0.39934645950E+01 -0.10482692602E+02  0.11385392764E+02  0.51100000000E-03 0.  1.
        -12    1    3    3    0    0 -0.14134218591E+01 -0.33003395066E+01 -0.29222285391E+02  0.29442010218E+02  0.00000000000E+00 0.  1.
</event>
<event>
 7    1  0.1457722E-010  0.4778727E+02  0.7816164E-02  0.1312668E+00
        -11   -1    0    0    0    0  0.00000000000E+00  0.00000000000E+00  0.45593999997E+02  0.45594000000E+02  0.51100000000E-03 0.  1.
         11   -1    0    0    0    0 -0.00000000000E+00 -0.00000000000E+00 -0.45593999997E+02  0.45594000000E+02  0.51100000000E-03 0. -1.
    9900012    2    1    2    0    0  0.42711012637E+02  0.73619692404E+01 -0.22790577902E+01  0.47787270789E+02  0.19999998837E+02 0.  0.
        -12    1    1    2    0    0 -0.42711012637E+02 -0.73619692404E+01  0.22790577902E+01  0.43400729211E+02  0.00000000000E+00 0.  1.
         11    1    3    3    0    0  0.77925286378E+01 -0.32764818114E+01  0.44529569202E+01  0.95544576626E+01  0.51100000000E-03 0. -1.
        -11    1    3    3    0    0  0.44561107816E+01  0.40898740278E+01 -0.32889472891E+01  0.68848505715E+01  0.51100000000E-03 0.  1.
         12    1    3    3    0    0  0.30462373218E+02  0.65485770240E+01 -0.34430674213E+01  0.31347962555E+02  0.00000000000E+00 0. -1.
</event>
<event>
 7    1  0.1457722E-010  0.4778727E+02  0.7816164E-02  0.1312668E+00
        -11   -1    0    0    0    0  0.00000000000E+00  0.00000000000E+00  0.45593999997E+02  0.45594000000E+02  0.51100000000E-03 0.  1.
         11   -1    0    0    0    0 -0.00000000000E+00 -0.00000000000E+00 -0.45593999997E+02  0.45594000000E+02  0.51100000000E-03 0. -1.
    9900012    2    1    2    0    0  0.21201962408E+02 -0.11834127706E+02 -0.35972957324E+02  0.47787269048E+02  0.19999990899E+02 0.  0.
        -12    1    1    2    0    0 -0.21201962408E+02  0.11834127706E+02  0.35972957324E+02  0.43400730952E+02  0.00000000000E+00 0.  1.
         11    1    3    3    0    0  0.23533755466E+02 -0.95118212909E+01 -0.31824507331E+02  0.40707636357E+02  0.51100000000E-03 0. -1.
        -11    1    3    3    0    0 -0.56224322627E-01 -0.31709839760E+01 -0.30980731062E+01  0.44335491181E+01  0.51100000000E-03 0.  1.
        -12    1    3    3    0    0 -0.22755687358E+01  0.84867756102E+00 -0.10503768863E+01  0.26460835734E+01  0.00000000000E+00 0.  1.
</event>
<event>
 7    1  0.1457722E-010  0.4778727E+02  0.7816164E-02  0.1312668E+00
        -11   -1    0    0    0    0  0.00000000000E+00  0.00000000000E+00  0.45593999997E+02  0.45594000000E+02  0.51100000000E-03 0.  1.
         11   -1    0    0    0    0 -0.00000000000E+00 -0.00000000000E+00 -0.45593999997E+02  0.45594000000E+02  0.51100000000E-03 0. -1.
    9900012    2    1    2    0    0  0.27928137932E+01  0.23818173820E+02  0.36173444429E+02  0.47787270803E+02  0.19999998900E+02 0.  0.
        -12    1    1    2    0    0 -0.27928137932E+01 -0.23818173820E+02 -0.36173444429E+02  0.43400729197E+02  0.00000000000E+00 0.  1.
         11    1    3    3    0    0  0.79538308719E+01  0.97755713728E+01  0.11256864779E+02  0.16897994737E+02  0.51100000000E-03 0. -1.
        -11    1    3    3    0    0 -0.43457514839E+00  0.76746805448E+01  0.43176838160E+01  0.88165736440E+01  0.51100000000E-03 0.  1.
        -12    1    3    3    0    0 -0.47264419303E+01  0.63679219020E+01  0.20598895833E+02  0.22072702422E+02  0.00000000000E+00 0.  1.
</event>
<event>
 7    1  0.1457722E-010  0.4778727E+02  0.7816164E-02  0.1312668E+00
        -11   -1    0    0    0    0  0.00000000000E+00  0.00000000000E+00  0.45593999997E+02  0.45594000000E+02  0.51100000000E-03 0.  1.
         11   -1    0    0    0    0 -0.00000000000E+00 -0.00000000000E+00 -0.45593999997E+02  0.45594000000E+02  0.51100000000E-03 0. -1.
    9900012    2    1    2    0    0 -0.23604101148E+02 -0.17265066487E+02 -0.32068479049E+02  0.47787268896E+02  0.19999990206E+02 0.  0.
        -12    1    1    2    0    0  0.23604101148E+02  0.17265066487E+02  0.32068479049E+02  0.43400731104E+02  0.00000000000E+00 0.  1.
         11    1    3    3    0    0 -0.14381634876E+02 -0.11651434611E+02 -0.17474364138E+02  0.25454680365E+02  0.51100000000E-03 0. -1.
        -11    1    3    3    0    0 -0.12212307040E+02 -0.33282971361E+01 -0.87722234411E+01  0.15400321731E+02  0.51100000000E-03 0.  1.
        -12    1    3    3    0    0  0.29898407684E+01 -0.22853347398E+01 -0.58218914702E+01  0.69322667999E+01  0.00000000000E+00 0.  1.
</event>
<event>
 7    1  0.1457722E-010  0.4778727E+02  0.7816164E-02  0.1312668E+00
        -11   -1    0    0    0    0  0.00000000000E+00  0.00000000000E+00  0.45593999997E+02  0.45594000000E+02  0.51100000000E-03 0.  1.
         11   -1    0    0    0    0 -0.00000000000E+00 -0.00000000000E+00 -0.45593999997E+02  0.45594000000E+02  0.51100000000E-03 0. -1.
    9900012    2    1    2    0    0  0.18849649683E+02  0.61377155786E+00 -0.39088838010E+02  0.47787271139E+02  0.20000000431E+02 0.  0.
        -12    1    1    2    0    0 -0.18849649683E+02 -0.61377155786E+00  0.39088838010E+02  0.43400728861E+02  0.00000000000E+00 0.  1.
         11    1    3    3    0    0  0.51201371602E+01  0.31005721786E+01 -0.29882906372E+00  0.59932171197E+01  0.51100000000E-03 0. -1.
        -11    1    3    3    0    0  0.56805067382E+01 -0.40005792255E+01 -0.13076140543E+02  0.14807371229E+02  0.51100000000E-03 0.  1.
         12    1    3    3    0    0  0.80490057843E+01  0.15137786048E+01 -0.25713868403E+02  0.26986682790E+02  0.00000000000E+00 0. -1.
</event>
<event>
 7    1  0.1457722E-010  0.4778727E+02  0.7816164E-02  0.1312668E+00
        -11   -1    0    0    0    0  0.00000000000E+00  0.00000000000E+00  0.45593999997E+02  0.45594000000E+02  0.51100000000E-03 0. -1.
         11   -1    0    0    0    0 -0.00000000000E+00 -0.00000000000E+00 -0.45593999997E+02  0.45594000000E+02  0.51100000000E-03 0.  1.
    9900012    2    1    2    0    0 -0.22415708975E+01  0.36038625171E+02 -0.24079376125E+02  0.47787268452E+02  0.19999988182E+02 0.  0.
        -12    1    1    2    0    0  0.22415708975E+01 -0.36038625171E+02  0.24079376125E+02  0.43400731548E+02  0.00000000000E+00 0.  1.
         11    1    3    3    0    0  0.34728126439E+01  0.11367372504E+02 -0.13835521472E+02  0.18240044955E+02  0.51100000000E-03 0. -1.
        -11    1    3    3    0    0 -0.87080885442E+00 -0.10002261588E+01 -0.14911025700E+01  0.19955319003E+01  0.51100000000E-03 0.  1.
        -12    1    3    3    0    0 -0.48435746870E+01  0.25671478825E+02 -0.87527520834E+01  0.27551691597E+02  0.00000000000E+00 0.  1.
</event>
<event>
 7    1  0.1457722E-010  0.4778727E+02  0.7816164E-02  0.1312668E+00
        -11   -1    0    0    0    0  0.00000000000E+00  0.00000000000E+00  0.45593999997E+02  0.45594000000E+02  0.51100000000E-03 0. -1.
         11   -1    0    0    0    0 -0.00000000000E+00 -0.00000000000E+00 -0.45593999997E+02  0.45594000000E+02  0.51100000000E-03 0.  1.
    9900012    2    1    2    0    0  0.35692770177E+02  0.24666983527E+02  0.10905806905E+01  0.47787270911E+02  0.19999999391E+02 0.  0.
        -12    1    1    2    0    0 -0.35692770177E+02 -0.24666983527E+02 -0.10905806905E+01  0.43400729089E+02  0.00000000000E+00 0.  1.
         11    1    3    3    0    0  0.29044017561E+02  0.21026391145E+02  0.26952856848E+01  0.35957317000E+02  0.51100000000E-03 0. -1.
        -11    1    3    3    0    0  0.41997031980E+01  0.19361354058E+01  0.35797789057E+01  0.58481573625E+01  0.51100000000E-03 0.  1.
        -12    1    3    3    0    0  0.24490494179E+01  0.17044569756E+01 -0.51844838999E+01  0.59817965480E+01  0.00000000000E+00 0.  1.
</event>
<event>
 7    1  0.1457722E-010  0.4778727E+02  0.7816164E-02  0.1312668E+00
        -11   -1    0    0    0    0  0.00000000000E+00  0.00000000000E+00  0.45593999997E+02  0.45594000000E+02  0.51100000000E-03 0. -1.
         11   -1    0    0    0    0 -0.00000000000E+00 -0.00000000000E+00 -0.45593999997E+02  0.45594000000E+02  0.51100000000E-03 0.  1.
    9900012    2    1    2    0    0 -0.19835534384E+02 -0.38118784307E+02 -0.60936761191E+01  0.47787273854E+02  0.20000012812E+02 0.  0.
        -12    1    1    2    0    0  0.19835534384E+02  0.38118784307E+02  0.60936761191E+01  0.43400726146E+02  0.00000000000E+00 0.  1.
         11    1    3    3    0    0 -0.24900547359E+01 -0.53160461458E+01  0.60026362967E+01  0.83959729623E+01  0.51100000000E-03 0. -1.
        -11    1    3    3    0    0 -0.41941767993E+01 -0.91533297761E+01 -0.57583273446E+01  0.11598831798E+02  0.51100000000E-03 0.  1.
        -12    1    3    3    0    0 -0.13151302849E+02 -0.23649408385E+02 -0.63379850712E+01  0.27792469094E+02  0.00000000000E+00 0.  1.
</event>
<event>
 7    1  0.1457722E-010  0.4778728E+02  0.7816164E-02  0.1312668E+00
        -11   -1    0    0    0    0  0.00000000000E+00  0.00000000000E+00  0.45593999997E+02  0.45594000000E+02  0.51100000000E-03 0. -1.
         11   -1    0    0    0    0 -0.00000000000E+00 -0.00000000000E+00 -0.45593999997E+02  0.45594000000E+02  0.51100000000E-03 0.  1.
    9900012    2    1    2    0    0 -0.41584509679E+02 -0.19310484020E-01 -0.12423782004E+02  0.47787283676E+02  0.20000057595E+02 0.  0.
        -12    1    1    2    0    0  0.41584509679E+02  0.19310484020E-01  0.12423782004E+02  0.43400716324E+02  0.00000000000E+00 0.  1.
         11    1    3    3    0    0 -0.25040230575E+02 -0.79435082514E+01 -0.73638499601E+01  0.27282572406E+02  0.51100000000E-03 0. -1.
        -11    1    3    3    0    0 -0.75065919166E+01  0.36099359152E+01 -0.62583858476E+01  0.10418634901E+02  0.51100000000E-03 0.  1.
        -12    1    3    3    0    0 -0.90376871870E+01  0.43142618522E+01  0.11984538037E+01  0.10086076370E+02  0.00000000000E+00 0.  1.
</event>
<event>
 7    1  0.1457722E-010  0.4778727E+02  0.7816164E-02  0.1312668E+00
        -11   -1    0    0    0    0  0.00000000000E+00  0.00000000000E+00  0.45593999997E+02  0.45594000000E+02  0.51100000000E-03 0.  1.
         11   -1    0    0    0    0 -0.00000000000E+00 -0.00000000000E+00 -0.45593999997E+02  0.45594000000E+02  0.51100000000E-03 0. -1.
    9900012    2    1    2    0    0 -0.31410421996E+02 -0.28231989198E+02 -0.99981686872E+01  0.47787271882E+02  0.20000003821E+02 0.  0.
        -12    1    1    2    0    0  0.31410421996E+02  0.28231989198E+02  0.99981686872E+01  0.43400728118E+02  0.00000000000E+00 0.  1.
         11    1    3    3    0    0 -0.37537245207E+01 -0.24455341094E+01 -0.54739238057E+01  0.70735370890E+01  0.51100000000E-03 0. -1.
        -11    1    3    3    0    0  0.15687199460E+01 -0.21319673104E+00 -0.55207828870E+00  0.16766412297E+01  0.51100000000E-03 0.  1.
        -12    1    3    3    0    0 -0.29225417422E+02 -0.25573258357E+02 -0.39721665928E+01  0.39037093564E+02  0.00000000000E+00 0.  1.
</event>
<event>
 7    1  0.1457722E-010  0.4778727E+02  0.7816164E-02  0.1312668E+00
        -11   -1    0    0    0    0  0.00000000000E+00  0.00000000000E+00  0.45593999997E+02  0.45594000000E+02  0.51100000000E-03 0.  1.
         11   -1    0    0    0    0 -0.00000000000E+00 -0.00000000000E+00 -0.45593999997E+02  0.45594000000E+02  0.51100000000E-03 0. -1.
    9900012    2    1    2    0    0 -0.28966465398E+02  0.21154421169E+02 -0.24434770238E+02  0.47787266720E+02  0.19999980283E+02 0.  0.
        -12    1    1    2    0    0  0.28966465398E+02 -0.21154421169E+02  0.24434770238E+02  0.43400733280E+02  0.00000000000E+00 0.  1.
         11    1    3    3    0    0 -0.18758193787E+01  0.63269617588E+01 -0.10426359422E+02  0.12339291491E+02  0.51100000000E-03 0. -1.
        -11    1    3    3    0    0 -0.59109199142E+01  0.19261778281E+01  0.12346728072E+01  0.63382609965E+01  0.51100000000E-03 0.  1.
         12    1    3    3    0    0 -0.21179726105E+02  0.12901281582E+02 -0.15243083623E+02  0.29109714232E+02  0.00000000000E+00 0. -1.
</event>
<event>
 7    1  0.1457722E-010  0.4778727E+02  0.7816164E-02  0.1312668E+00
        -11   -1    0    0    0    0  0.00000000000E+00  0.00000000000E+00  0.45593999997E+02  0.45594000000E+02  0.51100000000E-03 0.  1.
         11   -1    0    0    0    0 -0.00000000000E+00 -0.00000000000E+00 -0.45593999997E+02  0.45594000000E+02  0.51100000000E-03 0. -1.
    9900012    2    1    2    0    0  0.15150143340E+01  0.15195528064E+02 -0.40625409651E+02  0.47787271309E+02  0.20000001207E+02 0.  0.
        -12    1    1    2    0    0 -0.15150143340E+01 -0.15195528064E+02  0.40625409651E+02  0.43400728691E+02  0.00000000000E+00 0.  1.
         11    1    3    3    0    0  0.19629421813E+01  0.60332616377E+01 -0.10951330261E+01  0.64383774821E+01  0.51100000000E-03 0.  1.
        -11    1    3    3    0    0  0.33962465381E+01  0.18534967053E+01 -0.12836892796E+02  0.13407302395E+02  0.51100000000E-03 0. -1.
         12    1    3    3    0    0 -0.38441743854E+01  0.73087697205E+01 -0.26693383829E+02  0.27941591432E+02  0.00000000000E+00 0. -1.
</event>
<event>
 7    1  0.1457722E-010  0.4778727E+02  0.7816164E-02  0.1312668E+00
        -11   -1    0    0    0    0  0.00000000000E+00  0.00000000000E+00  0.45593999997E+02  0.45594000000E+02  0.51100000000E-03 0. -1.
         11   -1    0    0    0    0 -0.00000000000E+00 -0.00000000000E+00 -0.45593999997E+02  0.45594000000E+02  0.51100000000E-03 0.  1.
    9900012    2    1    2    0    0 -0.21403065259E+02  0.34353706951E+02  0.15663820705E+02  0.47787266563E+02  0.19999979569E+02 0.  0.
        -12    1    1    2    0    0  0.21403065259E+02 -0.34353706951E+02 -0.15663820705E+02  0.43400733437E+02  0.00000000000E+00 0.  1.
         11    1    3    3    0    0  0.64816749788E+00  0.10140341848E+02 -0.49661383903E+00  0.10173164673E+02  0.51100000000E-03 0. -1.
        -11    1    3    3    0    0 -0.50657506251E+01  0.33869620513E+01  0.68600247167E+01  0.91756896584E+01  0.51100000000E-03 0.  1.
        -12    1    3    3    0    0 -0.16985482132E+02  0.20826403052E+02  0.93004098276E+01  0.28438412232E+02  0.00000000000E+00 0.  1.
</event>
<event>
 7    1  0.1457722E-010  0.4778725E+02  0.7816164E-02  0.1312668E+00
        -11   -1    0    0    0    0  0.00000000000E+00  0.00000000000E+00  0.45593999997E+02  0.45594000000E+02  0.51100000000E-03 0.  1.
         11   -1    0    0    0    0 -0.00000000000E+00 -0.00000000000E+00 -0.45593999997E+02  0.45594000000E+02  0.51100000000E-03 0. -1.
    9900012    2    1    2    0    0  0.54338307813E+01  0.19771275956E+02 -0.38251732851E+02  0.47787251896E+02  0.19999912694E+02 0.  0.
        -12    1    1    2    0    0 -0.54338307813E+01 -0.19771275956E+02  0.38251732851E+02  0.43400748104E+02  0.00000000000E+00 0.  1.
         11    1    3    3    0    0  0.37091318767E+01  0.88063329490E+01 -0.65880435473E+01  0.11606527359E+02  0.51100000000E-03 0. -1.
        -11    1    3    3    0    0 -0.43137653283E+01 -0.84990731535E-01 -0.44676720281E+01  0.62109490695E+01  0.51100000000E-03 0.  1.
         12    1    3    3    0    0  0.60384642329E+01  0.11049933738E+02 -0.27196017276E+02  0.29969775468E+02  0.00000000000E+00 0. -1.
</event>
<event>
 7    1  0.1457722E-010  0.4778727E+02  0.7816164E-02  0.1312668E+00
        -11   -1    0    0    0    0  0.00000000000E+00  0.00000000000E+00  0.45593999997E+02  0.45594000000E+02  0.51100000000E-03 0.  1.
         11   -1    0    0    0    0 -0.00000000000E+00 -0.00000000000E+00 -0.45593999997E+02  0.45594000000E+02  0.51100000000E-03 0. -1.
    9900012    2    1    2    0    0 -0.35903622991E+02 -0.16538210310E+02 -0.17917615826E+02  0.47787268427E+02  0.19999988068E+02 0.  0.
        -12    1    1    2    0    0  0.35903622991E+02  0.16538210310E+02  0.17917615826E+02  0.43400731573E+02  0.00000000000E+00 0.  1.
         11    1    3    3    0    0 -0.48926374208E+01 -0.18874156725E+01 -0.86282234405E+01  0.10096854899E+02  0.51100000000E-03 0. -1.
        -11    1    3    3    0    0 -0.60389458983E+01  0.17720830772E+01 -0.36477006316E+01  0.72742605228E+01  0.51100000000E-03 0.  1.
         12    1    3    3    0    0 -0.24972039672E+02 -0.16422877715E+02 -0.56416917535E+01  0.30416153006E+02  0.00000000000E+00 0. -1.
</event>
<event>
 7    1  0.1457722E-010  0.4778727E+02  0.7816164E-02  0.1312668E+00
        -11   -1    0    0    0    0  0.00000000000E+00  0.00000000000E+00  0.45593999997E+02  0.45594000000E+02  0.51100000000E-03 0.  1.
         11   -1    0    0    0    0 -0.00000000000E+00 -0.00000000000E+00 -0.45593999997E+02  0.45594000000E+02  0.51100000000E-03 0. -1.
    9900012    2    1    2    0    0 -0.36980530437E+02  0.82216152601E+01 -0.21177080718E+02  0.47787270321E+02  0.19999996704E+02 0.  0.
        -12    1    1    2    0    0  0.36980530437E+02 -0.82216152601E+01  0.21177080718E+02  0.43400729679E+02  0.00000000000E+00 0.  1.
         11    1    3    3    0    0 -0.70979469092E+01 -0.26923773981E+01 -0.61354550793E+01  0.97608173669E+01  0.51100000000E-03 0. -1.
        -11    1    3    3    0    0 -0.19978077266E+02  0.67460309072E+01 -0.20783772477E+01  0.21188491133E+02  0.51100000000E-03 0.  1.
        -12    1    3    3    0    0 -0.99045062616E+01  0.41679617510E+01 -0.12963248391E+02  0.16837961822E+02  0.00000000000E+00 0.  1.
</event>
<event>
 7    1  0.1457722E-010  0.4778727E+02  0.7816164E-02  0.1312668E+00
        -11   -1    0    0    0    0  0.00000000000E+00  0.00000000000E+00  0.45593999997E+02  0.45594000000E+02  0.51100000000E-03 0.  1.
         11   -1    0    0    0    0 -0.00000000000E+00 -0.00000000000E+00 -0.45593999997E+02  0.45594000000E+02  0.51100000000E-03 0. -1.
    9900012    2    1    2    0    0 -0.24470501501E+02 -0.21338997371E+02  0.28800434171E+02  0.47787271193E+02  0.20000000677E+02 0.  0.
        -12    1    1    2    0    0  0.24470501501E+02  0.21338997371E+02 -0.28800434171E+02  0.43400728807E+02  0.00000000000E+00 0.  1.
         11    1    3    3    0    0 -0.18464601600E+02 -0.14527744278E+02  0.97385316376E+01  0.25432968069E+02  0.51100000000E-03 0. -1.
        -11    1    3    3    0    0 -0.50318331106E+01 -0.25862532993E+00  0.76925780003E+01  0.91957592436E+01  0.51100000000E-03 0.  1.
         12    1    3    3    0    0 -0.97406679033E+00 -0.65526277635E+01  0.11369324533E+02  0.13158543881E+02  0.00000000000E+00 0. -1.
</event>
<event>
 7    1  0.1457722E-010  0.4778727E+02  0.7816164E-02  0.1312668E+00
        -11   -1    0    0    0    0  0.00000000000E+00  0.00000000000E+00  0.45593999997E+02  0.45594000000E+02  0.51100000000E-03 0. -1.
         11   -1    0    0    0    0 -0.00000000000E+00 -0.00000000000E+00 -0.45593999997E+02  0.45594000000E+02  0.51100000000E-03 0.  1.
    9900012    2    1    2    0    0 -0.16763002914E+02  0.39814122009E+02  0.41786245745E+01  0.47787268654E+02  0.19999989100E+02 0.  0.
        -12    1    1    2    0    0  0.16763002914E+02 -0.39814122009E+02 -0.41786245745E+01  0.43400731346E+02  0.00000000000E+00 0.  1.
         11    1    3    3    0    0 -0.95321434011E+01  0.10431000935E+02  0.90391299461E+00  0.14159258359E+02  0.51100000000E-03 0. -1.
        -11    1    3    3    0    0 -0.66395688229E+01  0.66589548634E+01 -0.32979122784E+01  0.99650278315E+01  0.51100000000E-03 0.  1.
         12    1    3    3    0    0 -0.59129068981E+00  0.22724166211E+02  0.65726238583E+01  0.23662982463E+02  0.00000000000E+00 0. -1.
</event>
<event>
 7    1  0.1457722E-010  0.4778728E+02  0.7816164E-02  0.1312668E+00
        -11   -1    0    0    0    0  0.00000000000E+00  0.00000000000E+00  0.45593999997E+02  0.45594000000E+02  0.51100000000E-03 0. -1.
         11   -1    0    0    0    0 -0.00000000000E+00 -0.00000000000E+00 -0.45593999997E+02  0.45594000000E+02  0.51100000000E-03 0.  1.
    9900012    2    1    2    0    0 -0.62321608170E+01  0.42029488520E+02  0.88489830022E+01  0.47787283026E+02  0.20000054630E+02 0.  0.
        -12    1    1    2    0    0  0.62321608170E+01 -0.42029488520E+02 -0.88489830022E+01  0.43400716974E+02  0.00000000000E+00 0.  1.
         11    1    3    3    0    0 -0.47503550706E+01  0.40088357413E+02  0.40627233346E+01  0.40572749408E+02  0.51100000000E-03 0. -1.
        -11    1    3    3    0    0 -0.29432313772E+01  0.12099535864E+01  0.14447350789E+01  0.34948330905E+01  0.51100000000E-03 0.  1.
         12    1    3    3    0    0  0.14614256309E+01  0.73117752039E+00  0.33415245887E+01  0.37197005279E+01  0.00000000000E+00 0. -1.
</event>
<event>
 7    1  0.1457722E-010  0.4778727E+02  0.7816164E-02  0.1312668E+00
        -11   -1    0    0    0    0  0.00000000000E+00  0.00000000000E+00  0.45593999997E+02  0.45594000000E+02  0.51100000000E-03 0.  1.
         11   -1    0    0    0    0 -0.00000000000E+00 -0.00000000000E+00 -0.45593999997E+02  0.45594000000E+02  0.51100000000E-03 0. -1.
    9900012    2    1    2    0    0  0.20893782129E+02 -0.25068049337E+02  0.28612339526E+02  0.47787271868E+02  0.20000003756E+02 0.  0.
        -12    1    1    2    0    0 -0.20893782129E+02  0.25068049337E+02 -0.28612339526E+02  0.43400728132E+02  0.00000000000E+00 0.  1.
         11    1    3    3    0    0 -0.30397098442E+01 -0.14458081865E+01  0.35482451389E+01  0.48908323500E+01  0.51100000000E-03 0. -1.
        -11    1    3    3    0    0  0.10854195627E+02 -0.95751793671E+01  0.54841633015E+01  0.15478167527E+02  0.51100000000E-03 0.  1.
        -12    1    3    3    0    0  0.13079296347E+02 -0.14047061783E+02  0.19579931086E+02  0.27418271991E+02  0.00000000000E+00 0.  1.
</event>
<event>
 7    1  0.1457722E-010  0.4778728E+02  0.7816164E-02  0.1312668E+00
        -11   -1    0    0    0    0  0.00000000000E+00  0.00000000000E+00  0.45593999997E+02  0.45594000000E+02  0.51100000000E-03 0.  1.
         11   -1    0    0    0    0 -0.00000000000E+00 -0.00000000000E+00 -0.45593999997E+02  0.45594000000E+02  0.51100000000E-03 0. -1.
    9900012    2    1    2    0    0 -0.26517220044E+02  0.11294499699E+01 -0.34339249277E+02  0.47787278151E+02  0.20000032400E+02 0.  0.
        -12    1    1    2    0    0  0.26517220044E+02 -0.11294499699E+01  0.34339249277E+02  0.43400721849E+02  0.00000000000E+00 0.  1.
         11    1    3    3    0    0 -0.19090312440E+02 -0.52868510046E+01 -0.23357511127E+02  0.30626200367E+02  0.51100000000E-03 0. -1.
        -11    1    3    3    0    0 -0.25343732092E+01  0.16720118314E+01  0.11495660045E+01  0.32465633196E+01  0.51100000000E-03 0.  1.
        -12    1    3    3    0    0 -0.48925343949E+01  0.47442891432E+01 -0.12131304155E+02  0.13914514464E+02  0.00000000000E+00 0.  1.
</event>
<event>
 7    1  0.1457722E-010  0.4778727E+02  0.7816164E-02  0.1312668E+00
        -11   -1    0    0    0    0  0.00000000000E+00  0.00000000000E+00  0.45593999997E+02  0.45594000000E+02  0.51100000000E-03 0. -1.
         11   -1    0    0    0    0 -0.00000000000E+00 -0.00000000000E+00 -0.45593999997E+02  0.45594000000E+02  0.51100000000E-03 0.  1.
    9900012    2    1    2    0    0 -0.31135434931E+02  0.28992611493E+02 -0.85811732852E+01  0.47787270001E+02  0.19999995241E+02 0.  0.
        -12    1    1    2    0    0  0.31135434931E+02 -0.28992611493E+02  0.85811732852E+01  0.43400729999E+02  0.00000000000E+00 0.  1.
         11    1    3    3    0    0 -0.23628406845E+02  0.25544510910E+02 -0.72981635553E+01  0.35553998920E+02  0.51100000000E-03 0. -1.
        -11    1    3    3    0    0  0.14916420817E+01  0.24361803249E+01  0.74807877461E+00  0.29528956618E+01  0.51100000000E-03 0.  1.
        -12    1    3    3    0    0 -0.89986701684E+01  0.10119202583E+01 -0.20310885044E+01  0.92803754192E+01  0.00000000000E+00 0.  1.
</event>
<event>
 7    1  0.1457722E-010  0.4778727E+02  0.7816164E-02  0.1312668E+00
        -11   -1    0    0    0    0  0.00000000000E+00  0.00000000000E+00  0.45593999997E+02  0.45594000000E+02  0.51100000000E-03 0. -1.
         11   -1    0    0    0    0 -0.00000000000E+00 -0.00000000000E+00 -0.45593999997E+02  0.45594000000E+02  0.51100000000E-03 0.  1.
    9900012    2    1    2    0    0 -0.19456798811E+02 -0.13035705059E+02  0.36539384485E+02  0.47787271378E+02  0.20000001521E+02 0.  0.
        -12    1    1    2    0    0  0.19456798811E+02  0.13035705059E+02 -0.36539384485E+02  0.43400728622E+02  0.00000000000E+00 0.  1.
         11    1    3    3    0    0 -0.12061829840E+02 -0.10625197348E+02  0.25328593884E+02  0.29998670406E+02  0.51100000000E-03 0. -1.
        -11    1    3    3    0    0  0.26060487478E+01 -0.25067389213E+01  0.43669547605E+01  0.56697023059E+01  0.51100000000E-03 0.  1.
        -12    1    3    3    0    0 -0.10001017718E+02  0.96231210154E-01  0.68438358412E+01  0.12118898666E+02  0.00000000000E+00 0.  1.
</event>
<event>
 7    1  0.1457722E-010  0.4778728E+02  0.7816164E-02  0.1312668E+00
        -11   -1    0    0    0    0  0.00000000000E+00  0.00000000000E+00  0.45593999997E+02  0.45594000000E+02  0.51100000000E-03 0.  1.
         11   -1    0    0    0    0 -0.00000000000E+00 -0.00000000000E+00 -0.45593999997E+02  0.45594000000E+02  0.51100000000E-03 0. -1.
    9900012    2    1    2    0    0 -0.37402792930E+02  0.16308735372E+02  0.14787776503E+02  0.47787284541E+02  0.20000061537E+02 0.  0.
        -12    1    1    2    0    0  0.37402792930E+02 -0.16308735372E+02 -0.14787776503E+02  0.43400715459E+02  0.00000000000E+00 0.  1.
         11    1    3    3    0    0 -0.17665549565E+02  0.48917114979E+01  0.27052167983E+01  0.18528860759E+02  0.51100000000E-03 0. -1.
        -11    1    3    3    0    0 -0.16553578844E+02  0.14612818105E+02  0.10725546102E+02  0.24547764968E+02  0.51100000000E-03 0.  1.
        -12    1    3    3    0    0 -0.31836645211E+01 -0.31957942303E+01  0.13570136026E+01  0.47106588141E+01  0.00000000000E+00 0.  1.
</event>
<event>
 7    1  0.1457722E-010  0.4778727E+02  0.7816164E-02  0.1312668E+00
        -11   -1    0    0    0    0  0.00000000000E+00  0.00000000000E+00  0.45593999997E+02  0.45594000000E+02  0.51100000000E-03 0.  1.
         11   -1    0    0    0    0 -0.00000000000E+00 -0.00000000000E+00 -0.45593999997E+02  0.45594000000E+02  0.51100000000E-03 0. -1.
    9900012    2    1    2    0    0  0.18452163779E+02  0.12350416253E+02 -0.37290859690E+02  0.47787270212E+02  0.19999996205E+02 0.  0.
        -12    1    1    2    0    0 -0.18452163779E+02 -0.12350416253E+02  0.37290859690E+02  0.43400729788E+02  0.00000000000E+00 0.  1.
         11    1    3    3    0    0  0.82676060660E+01  0.56986524325E+00 -0.15405444255E+02  0.17493020592E+02  0.51100000000E-03 0. -1.
        -11    1    3    3    0    0 -0.64711992407E+00  0.30937773976E+01  0.11786323785E+01  0.33733362309E+01  0.51100000000E-03 0.  1.
        -12    1    3    3    0    0  0.10831677637E+02  0.86867736122E+01 -0.23064047813E+02  0.26920913389E+02  0.00000000000E+00 0.  1.
</event>
<event>
 7    1  0.1457722E-010  0.4778727E+02  0.7816164E-02  0.1312668E+00
        -11   -1    0    0    0    0  0.00000000000E+00  0.00000000000E+00  0.45593999997E+02  0.45594000000E+02  0.51100000000E-03 0.  1.
         11   -1    0    0    0    0 -0.00000000000E+00 -0.00000000000E+00 -0.45593999997E+02  0.45594000000E+02  0.51100000000E-03 0. -1.
    9900012    2    1    2    0    0  0.33817520402E+02  0.79426655903E+01 -0.26017541068E+02  0.47787273439E+02  0.20000010918E+02 0.  0.
        -12    1    1    2    0    0 -0.33817520402E+02 -0.79426655903E+01  0.26017541068E+02  0.43400726561E+02  0.00000000000E+00 0.  1.
         11    1    3    3    0    0  0.11310909784E+02 -0.47881023686E+01 -0.10076929847E+02  0.15887325761E+02  0.51100000000E-03 0. -1.
        -11    1    3    3    0    0  0.18445445426E+02  0.58038728296E+01 -0.13211152811E+02  0.23419093826E+02  0.51100000000E-03 0.  1.
        -12    1    3    3    0    0  0.40611651920E+01  0.69268951293E+01 -0.27294584105E+01  0.84808538523E+01  0.00000000000E+00 0.  1.
</event>
<event>
 7    1  0.1457722E-010  0.4778727E+02  0.7816164E-02  0.1312668E+00
        -11   -1    0    0    0    0  0.00000000000E+00  0.00000000000E+00  0.45593999997E+02  0.45594000000E+02  0.51100000000E-03 0.  1.
         11   -1    0    0    0    0 -0.00000000000E+00 -0.00000000000E+00 -0.45593999997E+02  0.45594000000E+02  0.51100000000E-03 0. -1.
    9900012    2    1    2    0    0  0.53797170927E+00 -0.43369241934E+02  0.15629219782E+01  0.47787270921E+02  0.19999999439E+02 0.  0.
        -12    1    1    2    0    0 -0.53797170927E+00  0.43369241934E+02 -0.15629219782E+01  0.43400729079E+02  0.00000000000E+00 0.  1.
         11    1    3    3    0    0  0.29376163942E+01 -0.25677158997E+02  0.86034699406E+01  0.27239048800E+02  0.51100000000E-03 0. -1.
        -11    1    3    3    0    0  0.21482075365E+01 -0.28425089720E+01 -0.25506618694E+01  0.43818408356E+01  0.51100000000E-03 0.  1.
         12    1    3    3    0    0 -0.45478522214E+01 -0.14849573965E+02 -0.44898860930E+01  0.16166381286E+02  0.00000000000E+00 0. -1.
</event>
<event>
 7    1  0.1457722E-010  0.4778727E+02  0.7816164E-02  0.1312668E+00
        -11   -1    0    0    0    0  0.00000000000E+00  0.00000000000E+00  0.45593999997E+02  0.45594000000E+02  0.51100000000E-03 0.  1.
         11   -1    0    0    0    0 -0.00000000000E+00 -0.00000000000E+00 -0.45593999997E+02  0.45594000000E+02  0.51100000000E-03 0. -1.
    9900012    2    1    2    0    0  0.48674590639E+01 -0.15707567800E+02 -0.40164704172E+02  0.47787270684E+02  0.19999998356E+02 0.  0.
        -12    1    1    2    0    0 -0.48674590639E+01  0.15707567800E+02  0.40164704172E+02  0.43400729316E+02  0.00000000000E+00 0.  1.
         11    1    3    3    0    0 -0.13800104384E+01  0.86349454634E+00 -0.12169436023E+02  0.12277834704E+02  0.51100000000E-03 0.  1.
        -11    1    3    3    0    0  0.65895303767E+01 -0.18028653381E+02 -0.21404583170E+02  0.28750833628E+02  0.51100000000E-03 0. -1.
         12    1    3    3    0    0 -0.34206087441E+00  0.14575910346E+01 -0.65906849790E+01  0.67586023524E+01  0.00000000000E+00 0. -1.
</event>
<event>
 7    1  0.1457722E-010  0.4778727E+02  0.7816164E-02  0.1312668E+00
        -11   -1    0    0    0    0  0.00000000000E+00  0.00000000000E+00  0.45593999997E+02  0.45594000000E+02  0.51100000000E-03 0.  1.
         11   -1    0    0    0    0 -0.00000000000E+00 -0.00000000000E+00 -0.45593999997E+02  0.45594000000E+02  0.51100000000E-03 0. -1.
    9900012    2    1    2    0    0  0.32583391796E+02 -0.27124939791E+02 -0.92835115722E+01  0.47787269975E+02  0.19999995126E+02 0.  0.
        -12    1    1    2    0    0 -0.32583391796E+02  0.27124939791E+02  0.92835115722E+01  0.43400730025E+02  0.00000000000E+00 0.  1.
         11    1    3    3    0    0  0.12494743734E+02 -0.10249515919E+02 -0.91203548120E+01  0.18556725727E+02  0.51100000000E-03 0. -1.
        -11    1    3    3    0    0  0.74429929550E+01 -0.94762517392E+01  0.58481898892E+01  0.13393984336E+02  0.51100000000E-03 0.  1.
        -12    1    3    3    0    0  0.12645655107E+02 -0.73991721323E+01 -0.60113466494E+01  0.15836559912E+02  0.00000000000E+00 0.  1.
</event>
<event>
 7    1  0.1457722E-010  0.4778727E+02  0.7816164E-02  0.1312668E+00
        -11   -1    0    0    0    0  0.00000000000E+00  0.00000000000E+00  0.45593999997E+02  0.45594000000E+02  0.51100000000E-03 0.  1.
         11   -1    0    0    0    0 -0.00000000000E+00 -0.00000000000E+00 -0.45593999997E+02  0.45594000000E+02  0.51100000000E-03 0. -1.
    9900012    2    1    2    0    0  0.37814592089E+01  0.42631115019E+02 -0.72050016392E+01  0.47787269014E+02  0.19999990742E+02 0.  0.
        -12    1    1    2    0    0 -0.37814592089E+01 -0.42631115019E+02  0.72050016392E+01  0.43400730986E+02  0.00000000000E+00 0.  1.
         11    1    3    3    0    0  0.23408105281E+01  0.44617838992E+00 -0.45457202562E+01  0.51324499016E+01  0.51100000000E-03 0. -1.
        -11    1    3    3    0    0  0.19326439076E+01  0.46983655663E+01 -0.19336398249E+00  0.50840083948E+01  0.51100000000E-03 0.  1.
         12    1    3    3    0    0 -0.49199522686E+00  0.37486571063E+02 -0.24659174005E+01  0.37570810717E+02  0.00000000000E+00 0. -1.
</event>
<event>
 7    1  0.1457722E-010  0.4778727E+02  0.7816164E-02  0.1312668E+00
        -11   -1    0    0    0    0  0.00000000000E+00  0.00000000000E+00  0.45593999997E+02  0.45594000000E+02  0.51100000000E-03 0.  1.
         11   -1    0    0    0    0 -0.00000000000E+00 -0.00000000000E+00 -0.45593999997E+02  0.45594000000E+02  0.51100000000E-03 0. -1.
    9900012    2    1    2    0    0  0.27234388500E+02  0.69208064133E+01 -0.33075886098E+02  0.47787265910E+02  0.19999976590E+02 0.  0.
        -12    1    1    2    0    0 -0.27234388500E+02 -0.69208064133E+01  0.33075886098E+02  0.43400734090E+02  0.00000000000E+00 0.  1.
         11    1    3    3    0    0  0.21477132889E+01  0.35559021950E+01 -0.17277122552E+01  0.44991224355E+01  0.51100000000E-03 0. -1.
        -11    1    3    3    0    0  0.12568088571E+02  0.80022233912E+01 -0.94564170759E+01  0.17646989934E+02  0.51100000000E-03 0.  1.
         12    1    3    3    0    0  0.12518586640E+02 -0.46373191730E+01 -0.21891756767E+02  0.25641153541E+02  0.00000000000E+00 0. -1.
</event>
<event>
 7    1  0.1457722E-010  0.4778727E+02  0.7816164E-02  0.1312668E+00
        -11   -1    0    0    0    0  0.00000000000E+00  0.00000000000E+00  0.45593999997E+02  0.45594000000E+02  0.51100000000E-03 0. -1.
         11   -1    0    0    0    0 -0.00000000000E+00 -0.00000000000E+00 -0.45593999997E+02  0.45594000000E+02  0.51100000000E-03 0.  1.
    9900012    2    1    2    0    0 -0.34321002150E+02  0.25072247034E+02  0.87792252820E+01  0.47787267789E+02  0.19999985157E+02 0.  0.
        -12    1    1    2    0    0  0.34321002150E+02 -0.25072247034E+02 -0.87792252820E+01  0.43400732211E+02  0.00000000000E+00 0.  1.
         11    1    3    3    0    0 -0.16149755010E+02  0.12030527495E+02  0.14136859611E+02  0.24604856809E+02  0.51100000000E-03 0. -1.
        -11    1    3    3    0    0 -0.34475449426E+01  0.29720023186E+01 -0.22443225092E+01  0.50749726797E+01  0.51100000000E-03 0.  1.
         12    1    3    3    0    0 -0.14723702197E+02  0.10069717221E+02 -0.31133118197E+01  0.18107438300E+02  0.00000000000E+00 0. -1.
</event>
<event>
 7    1  0.1457722E-010  0.4778727E+02  0.7816164E-02  0.1312668E+00
        -11   -1    0    0    0    0  0.00000000000E+00  0.00000000000E+00  0.45593999997E+02  0.45594000000E+02  0.51100000000E-03 0.  1.
         11   -1    0    0    0    0 -0.00000000000E+00 -0.00000000000E+00 -0.45593999997E+02  0.45594000000E+02  0.51100000000E-03 0. -1.
    9900012    2    1    2    0    0 -0.41275929661E+02  0.95330328922E+01  0.94362396272E+01  0.47787266091E+02  0.19999977417E+02 0.  0.
        -12    1    1    2    0    0  0.41275929661E+02 -0.95330328922E+01 -0.94362396272E+01  0.43400733909E+02  0.00000000000E+00 0.  1.
         11    1    3    3    0    0 -0.18812891501E+02  0.62244297753E+01  0.71275155983E+01  0.21058724831E+02  0.51100000000E-03 0. -1.
        -11    1    3    3    0    0 -0.13891636651E+02  0.25361855970E+01 -0.54547370528E+01  0.15138162465E+02  0.51100000000E-03 0.  1.
         12    1    3    3    0    0 -0.85714015087E+01  0.77241751987E+00  0.77634610817E+01  0.11590378795E+02  0.00000000000E+00 0. -1.
</event>
<event>
 7    1  0.1457722E-010  0.4778727E+02  0.7816164E-02  0.1312668E+00
        -11   -1    0    0    0    0  0.00000000000E+00  0.00000000000E+00  0.45593999997E+02  0.45594000000E+02  0.51100000000E-03 0. -1.
         11   -1    0    0    0    0 -0.00000000000E+00 -0.00000000000E+00 -0.45593999997E+02  0.45594000000E+02  0.51100000000E-03 0.  1.
    9900012    2    1    2    0    0  0.62820286407E+01  0.37878182465E+02  0.20233701719E+02  0.47787271021E+02  0.19999999892E+02 0.  0.
        -12    1    1    2    0    0 -0.62820286407E+01 -0.37878182465E+02 -0.20233701719E+02  0.43400728979E+02  0.00000000000E+00 0.  1.
         11    1    3    3    0    0  0.31194510225E+00  0.89552785885E+00 -0.22822815698E+01  0.24714548990E+01  0.51100000000E-03 0. -1.
        -11    1    3    3    0    0  0.12123728118E+01  0.29919752397E+02  0.13292018809E+02  0.32761855803E+02  0.51100000000E-03 0.  1.
         12    1    3    3    0    0  0.47577107266E+01  0.70629022086E+01  0.92239644797E+01  0.12553960319E+02  0.00000000000E+00 0. -1.
</event>
<event>
 7    1  0.1457722E-010  0.4778727E+02  0.7816164E-02  0.1312668E+00
        -11   -1    0    0    0    0  0.00000000000E+00  0.00000000000E+00  0.45593999997E+02  0.45594000000E+02  0.51100000000E-03 0. -1.
         11   -1    0    0    0    0 -0.00000000000E+00 -0.00000000000E+00 -0.45593999997E+02  0.45594000000E+02  0.51100000000E-03 0.  1.
    9900012    2    1    2    0    0  0.26450732010E+02 -0.30798659701E+02  0.15343553765E+02  0.47787270681E+02  0.19999998344E+02 0.  0.
        -12    1    1    2    0    0 -0.26450732010E+02  0.30798659701E+02 -0.15343553765E+02  0.43400729319E+02  0.00000000000E+00 0.  1.
         11    1    3    3    0    0  0.20476320528E+02 -0.26965826751E+02  0.11780854186E+02  0.35850021483E+02  0.51100000000E-03 0. -1.
        -11    1    3    3    0    0 -0.12290159932E+01 -0.35815075554E+01  0.27583983388E+01  0.46847025879E+01  0.51100000000E-03 0.  1.
        -12    1    3    3    0    0  0.72034274757E+01 -0.25132539515E+00  0.80430123967E+00  0.72525466104E+01  0.00000000000E+00 0.  1.
</event>
<event>
 7    1  0.1457722E-010  0.4778727E+02  0.7816164E-02  0.1312668E+00
        -11   -1    0    0    0    0  0.00000000000E+00  0.00000000000E+00  0.45593999997E+02  0.45594000000E+02  0.51100000000E-03 0. -1.
         11   -1    0    0    0    0 -0.00000000000E+00 -0.00000000000E+00 -0.45593999997E+02  0.45594000000E+02  0.51100000000E-03 0.  1.
    9900012    2    1    2    0    0 -0.14594901528E+02 -0.34027420044E+02  0.22643908798E+02  0.47787273380E+02  0.20000010650E+02 0.  0.
        -12    1    1    2    0    0  0.14594901528E+02  0.34027420044E+02 -0.22643908798E+02  0.43400726620E+02  0.00000000000E+00 0.  1.
         11    1    3    3    0    0 -0.16526277599E+01 -0.12145938342E+01 -0.12433925687E+01  0.23984249072E+01  0.51100000000E-03 0. -1.
        -11    1    3    3    0    0 -0.79188482259E+01 -0.93513169383E+01  0.15956569882E+02  0.20118832182E+02  0.51100000000E-03 0.  1.
         12    1    3    3    0    0 -0.50234255418E+01 -0.23461509271E+02  0.79307314850E+01  0.25270016291E+02  0.00000000000E+00 0. -1.
</event>
<event>
 7    1  0.1457722E-010  0.4778727E+02  0.7816164E-02  0.1312668E+00
        -11   -1    0    0    0    0  0.00000000000E+00  0.00000000000E+00  0.45593999997E+02  0.45594000000E+02  0.51100000000E-03 0. -1.
         11   -1    0    0    0    0 -0.00000000000E+00 -0.00000000000E+00 -0.45593999997E+02  0.45594000000E+02  0.51100000000E-03 0.  1.
    9900012    2    1    2    0    0  0.38051093289E+02  0.19777629577E+02 -0.66770397703E+01  0.47787271985E+02  0.20000004289E+02 0.  0.
        -12    1    1    2    0    0 -0.38051093289E+02 -0.19777629577E+02  0.66770397703E+01  0.43400728015E+02  0.00000000000E+00 0.  1.
         11    1    3    3    0    0  0.20281431172E+02  0.38400642709E+01  0.34566841283E+01  0.20929195145E+02  0.51100000000E-03 0.  1.
        -11    1    3    3    0    0  0.12648029896E+02  0.67235526323E+01 -0.61544761500E+01  0.15590266104E+02  0.51100000000E-03 0. -1.
        -12    1    3    3    0    0  0.51216322210E+01  0.92140126735E+01 -0.39792477486E+01  0.11267810737E+02  0.00000000000E+00 0.  1.
</event>
<event>
 7    1  0.1457722E-010  0.4778727E+02  0.7816164E-02  0.1312668E+00
        -11   -1    0    0    0    0  0.00000000000E+00  0.00000000000E+00  0.45593999997E+02  0.45594000000E+02  0.51100000000E-03 0. -1.
         11   -1    0    0    0    0 -0.00000000000E+00 -0.00000000000E+00 -0.45593999997E+02  0.45594000000E+02  0.51100000000E-03 0.  1.
    9900012    2    1    2    0    0  0.61176382848E+01 -0.36336160862E+02  0.22932102143E+02  0.47787269671E+02  0.19999993739E+02 0.  0.
        -12    1    1    2    0    0 -0.61176382848E+01  0.36336160862E+02 -0.22932102143E+02  0.43400730329E+02  0.00000000000E+00 0.  1.
         11    1    3    3    0    0  0.30967881313E+00 -0.14779078824E+02  0.16700022326E+02  0.22302641498E+02  0.51100000000E-03 0. -1.
        -11    1    3    3    0    0 -0.20759426707E+01 -0.98601179739E+01  0.32025516585E-01  0.10076333179E+02  0.51100000000E-03 0.  1.
         12    1    3    3    0    0  0.78839021424E+01 -0.11696964064E+02  0.62000543009E+01  0.15408294995E+02  0.00000000000E+00 0. -1.
</event>
<event>
 7    1  0.1457722E-010  0.4778727E+02  0.7816164E-02  0.1312668E+00
        -11   -1    0    0    0    0  0.00000000000E+00  0.00000000000E+00  0.45593999997E+02  0.45594000000E+02  0.51100000000E-03 0.  1.
         11   -1    0    0    0    0 -0.00000000000E+00 -0.00000000000E+00 -0.45593999997E+02  0.45594000000E+02  0.51100000000E-03 0. -1.
    9900012    2    1    2    0    0  0.39132124794E-01 -0.89389980999E+01 -0.42470180028E+02  0.47787269476E+02  0.19999992850E+02 0.  0.
        -12    1    1    2    0    0 -0.39132124794E-01  0.89389980999E+01  0.42470180028E+02  0.43400730524E+02  0.00000000000E+00 0.  1.
         11    1    3    3    0    0 -0.82704049802E+01 -0.69583384956E+01 -0.29340028907E+02  0.31267481026E+02  0.51100000000E-03 0. -1.
        -11    1    3    3    0    0  0.24422809745E+01 -0.10013389487E+01 -0.68639834309E+00  0.27273721776E+01  0.51100000000E-03 0.  1.
        -12    1    3    3    0    0  0.58672561305E+01 -0.97932065563E+00 -0.12443752778E+02  0.13792416273E+02  0.00000000000E+00 0.  1.
</event>
<event>
 7    1  0.1457722E-010  0.4778727E+02  0.7816164E-02  0.1312668E+00
        -11   -1    0    0    0    0  0.00000000000E+00  0.00000000000E+00  0.45593999997E+02  0.45594000000E+02  0.51100000000E-03 0.  1.
         11   -1    0    0    0    0 -0.00000000000E+00 -0.00000000000E+00 -0.45593999997E+02  0.45594000000E+02  0.51100000000E-03 0. -1.
    9900012    2    1    2    0    0 -0.85516538437E+01  0.14247803960E+02 -0.40093549370E+02  0.47787269566E+02  0.19999993258E+02 0.  0.
        -12    1    1    2    0    0  0.85516538437E+01 -0.14247803960E+02  0.40093549370E+02  0.43400730434E+02  0.00000000000E+00 0.  1.
         11    1    3    3    0    0  0.92434635102E+00  0.50754068795E+00 -0.23718329593E+01  0.25956898071E+01  0.51100000000E-03 0.  1.
        -11    1    3    3    0    0 -0.11336848874E+02  0.33576922590E+00 -0.16504983584E+02  0.20026266920E+02  0.51100000000E-03 0. -1.
         12    1    3    3    0    0  0.18608486796E+01  0.13404494046E+02 -0.21216732827E+02  0.25165312839E+02  0.00000000000E+00 0. -1.
</event>
<event>
 7    1  0.1457722E-010  0.4778727E+02  0.7816164E-02  0.1312668E+00
        -11   -1    0    0    0    0  0.00000000000E+00  0.00000000000E+00  0.45593999997E+02  0.45594000000E+02  0.51100000000E-03 0.  1.
         11   -1    0    0    0    0 -0.00000000000E+00 -0.00000000000E+00 -0.45593999997E+02  0.45594000000E+02  0.51100000000E-03 0. -1.
    9900012    2    1    2    0    0  0.53799576335E+01  0.82327708653E+01 -0.42271749473E+02  0.47787271161E+02  0.20000000533E+02 0.  0.
        -12    1    1    2    0    0 -0.53799576335E+01 -0.82327708653E+01  0.42271749473E+02  0.43400728839E+02  0.00000000000E+00 0.  1.
         11    1    3    3    0    0 -0.76615633097E+00  0.58587423714E+01 -0.68701886667E+01  0.90615313427E+01  0.51100000000E-03 0. -1.
        -11    1    3    3    0    0  0.17919408934E+00 -0.47944824753E+01 -0.50168915837E+01  0.69417846517E+01  0.51100000000E-03 0.  1.
         12    1    3    3    0    0  0.59669198751E+01  0.71685109692E+01 -0.30384669222E+02  0.31783955167E+02  0.00000000000E+00 0. -1.
</event>
<event>
 7    1  0.1457722E-010  0.4778727E+02  0.7816164E-02  0.1312668E+00
        -11   -1    0    0    0    0  0.00000000000E+00  0.00000000000E+00  0.45593999997E+02  0.45594000000E+02  0.51100000000E-03 0.  1.
         11   -1    0    0    0    0 -0.00000000000E+00 -0.00000000000E+00 -0.45593999997E+02  0.45594000000E+02  0.51100000000E-03 0. -1.
    9900012    2    1    2    0    0  0.20087575669E+02 -0.88668163717E+01 -0.37436511244E+02  0.47787268405E+02  0.19999987966E+02 0.  0.
        -12    1    1    2    0    0 -0.20087575669E+02  0.88668163717E+01  0.37436511244E+02  0.43400731595E+02  0.00000000000E+00 0.  1.
         11    1    3    3    0    0  0.57106201556E+01 -0.19059680553E+01 -0.11946806825E+02  0.13377970338E+02  0.51100000000E-03 0. -1.
        -11    1    3    3    0    0  0.59159941593E+01 -0.30645797112E+01  0.61643507717E+00  0.66910857239E+01  0.51100000000E-03 0.  1.
        -12    1    3    3    0    0  0.84609613544E+01 -0.38962686052E+01 -0.26106139497E+02  0.27718212343E+02  0.00000000000E+00 0.  1.
</event>
<event>
 7    1  0.1457722E-010  0.4778727E+02  0.7816164E-02  0.1312668E+00
        -11   -1    0    0    0    0  0.00000000000E+00  0.00000000000E+00  0.45593999997E+02  0.45594000000E+02  0.51100000000E-03 0.  1.
         11   -1    0    0    0    0 -0.00000000000E+00 -0.00000000000E+00 -0.45593999997E+02  0.45594000000E+02  0.51100000000E-03 0. -1.
    9900012    2    1    2    0    0 -0.36708100512E+01  0.19988286709E+02 -0.38348623303E+02  0.47787270038E+02  0.19999995413E+02 0.  0.
        -12    1    1    2    0    0  0.36708100512E+01 -0.19988286709E+02  0.38348623303E+02  0.43400729962E+02  0.00000000000E+00 0.  1.
         11    1    3    3    0    0  0.47920384500E+00  0.55647084338E+01 -0.16555818261E+02  0.17472570928E+02  0.51100000000E-03 0. -1.
        -11    1    3    3    0    0 -0.37946469705E+00 -0.15044322391E+01  0.12897759143E+01  0.20176302904E+01  0.51100000000E-03 0.  1.
         12    1    3    3    0    0 -0.37705491991E+01  0.15928010514E+02 -0.23082580956E+02  0.28297068820E+02  0.00000000000E+00 0. -1.
</event>
<event>
 7    1  0.1457722E-010  0.4778727E+02  0.7816164E-02  0.1312668E+00
        -11   -1    0    0    0    0  0.00000000000E+00  0.00000000000E+00  0.45593999997E+02  0.45594000000E+02  0.51100000000E-03 0.  1.
         11   -1    0    0    0    0 -0.00000000000E+00 -0.00000000000E+00 -0.45593999997E+02  0.45594000000E+02  0.51100000000E-03 0. -1.
    9900012    2    1    2    0    0 -0.11854841787E+01 -0.50109807972E+01 -0.43094179214E+02  0.47787267478E+02  0.19999983740E+02 0.  0.
        -12    1    1    2    0    0  0.11854841787E+01  0.50109807972E+01  0.43094179214E+02  0.43400732522E+02  0.00000000000E+00 0.  1.
         11    1    3    3    0    0  0.80349635592E+00  0.27837873137E+01 -0.18965597296E+02  0.19185644614E+02  0.51100000000E-03 0. -1.
        -11    1    3    3    0    0 -0.70688195320E+01 -0.34725248660E+01 -0.83861561217E+01  0.11504531858E+02  0.51100000000E-03 0.  1.
         12    1    3    3    0    0  0.50798389974E+01 -0.43222432449E+01 -0.15742425796E+02  0.17097091006E+02  0.00000000000E+00 0. -1.
</event>
<event>
 7    1  0.2063249E-010  0.4778727E+02  0.7816164E-02  0.1312668E+00
        -11   -1    0    0    0    0  0.00000000000E+00  0.00000000000E+00  0.45593999997E+02  0.45594000000E+02  0.51100000000E-03 0.  1.
         11   -1    0    0    0    0 -0.00000000000E+00 -0.00000000000E+00 -0.45593999997E+02  0.45594000000E+02  0.51100000000E-03 0. -1.
    9900012    2    1    2    0    0  0.38161488247E+02 -0.74336564359E+00 -0.20658455638E+02  0.47787267666E+02  0.19999984598E+02 0.  0.
        -12    1    1    2    0    0 -0.38161488247E+02  0.74336564359E+00  0.20658455638E+02  0.43400732334E+02  0.00000000000E+00 0.  1.
         11    1    3    3    0    0  0.15751417790E+02 -0.30544857839E+01 -0.24427207287E+01  0.16229723677E+02  0.51100000000E-03 0. -1.
        -11    1    3    3    0    0 -0.12832470029E+01 -0.80583263056E+00 -0.26033382178E+01  0.30122183248E+01  0.51100000000E-03 0.  1.
         12    1    3    3    0    0  0.23693317460E+02  0.31169527709E+01 -0.15612396692E+02  0.28545325664E+02  0.00000000000E+00 0. -1.
</event>
<event>
 7    1  0.1457722E-010  0.4778727E+02  0.7816164E-02  0.1312668E+00
        -11   -1    0    0    0    0  0.00000000000E+00  0.00000000000E+00  0.45593999997E+02  0.45594000000E+02  0.51100000000E-03 0.  1.
         11   -1    0    0    0    0 -0.00000000000E+00 -0.00000000000E+00 -0.45593999997E+02  0.45594000000E+02  0.51100000000E-03 0. -1.
    9900012    2    1    2    0    0 -0.37042797631E+02 -0.22605087840E+02 -0.68153269257E+00  0.47787270290E+02  0.19999996559E+02 0.  0.
        -12    1    1    2    0    0  0.37042797631E+02  0.22605087840E+02  0.68153269257E+00  0.43400729710E+02  0.00000000000E+00 0.  1.
         11    1    3    3    0    0 -0.20932649408E+02 -0.16422668659E+02  0.32894609906E+01  0.26808588381E+02  0.51100000000E-03 0. -1.
        -11    1    3    3    0    0  0.16422264645E+01 -0.44141227078E+00  0.53870486044E+00  0.17838037284E+01  0.51100000000E-03 0.  1.
         12    1    3    3    0    0 -0.17752374688E+02 -0.57410069097E+01 -0.45096985436E+01  0.19194878180E+02  0.00000000000E+00 0. -1.
</event>
<event>
 7    1  0.1457722E-010  0.4778727E+02  0.7816164E-02  0.1312668E+00
        -11   -1    0    0    0    0  0.00000000000E+00  0.00000000000E+00  0.45593999997E+02  0.45594000000E+02  0.51100000000E-03 0. -1.
         11   -1    0    0    0    0 -0.00000000000E+00 -0.00000000000E+00 -0.45593999997E+02  0.45594000000E+02  0.51100000000E-03 0.  1.
    9900012    2    1    2    0    0 -0.41069829841E+02  0.95471699547E+00  0.13999319810E+02  0.47787270019E+02  0.19999995324E+02 0.  0.
        -12    1    1    2    0    0  0.41069829841E+02 -0.95471699547E+00 -0.13999319810E+02  0.43400729981E+02  0.00000000000E+00 0.  1.
         11    1    3    3    0    0 -0.14985008482E+02  0.31320217807E+01  0.56431626252E+01  0.16315799837E+02  0.51100000000E-03 0. -1.
        -11    1    3    3    0    0 -0.94553014581E+01 -0.83014661644E+01  0.26944825907E+01  0.12867684440E+02  0.51100000000E-03 0.  1.
        -12    1    3    3    0    0 -0.16629519901E+02  0.61241613792E+01  0.56616745942E+01  0.18603785743E+02  0.00000000000E+00 0.  1.
</event>
<event>
 7    1  0.1457722E-010  0.4778727E+02  0.7816164E-02  0.1312668E+00
        -11   -1    0    0    0    0  0.00000000000E+00  0.00000000000E+00  0.45593999997E+02  0.45594000000E+02  0.51100000000E-03 0.  1.
         11   -1    0    0    0    0 -0.00000000000E+00 -0.00000000000E+00 -0.45593999997E+02  0.45594000000E+02  0.51100000000E-03 0. -1.
    9900012    2    1    2    0    0 -0.17579220455E+02 -0.35403290741E+02 -0.17922083897E+02  0.47787273298E+02  0.20000010274E+02 0.  0.
        -12    1    1    2    0    0  0.17579220455E+02  0.35403290741E+02  0.17922083897E+02  0.43400726702E+02  0.00000000000E+00 0.  1.
         11    1    3    3    0    0 -0.18443065646E+02 -0.18792903104E+02 -0.14897438644E+02  0.30253157785E+02  0.51100000000E-03 0. -1.
        -11    1    3    3    0    0  0.98776279015E+00 -0.12048029757E+01  0.66247979705E+00  0.16929575549E+01  0.51100000000E-03 0.  1.
         12    1    3    3    0    0 -0.12391759820E+00 -0.15405584661E+02 -0.36871250495E+01  0.15841157958E+02  0.00000000000E+00 0. -1.
</event>
<event>
 7    1  0.1457722E-010  0.4778727E+02  0.7816164E-02  0.1312668E+00
        -11   -1    0    0    0    0  0.00000000000E+00  0.00000000000E+00  0.45593999997E+02  0.45594000000E+02  0.51100000000E-03 0.  1.
         11   -1    0    0    0    0 -0.00000000000E+00 -0.00000000000E+00 -0.45593999997E+02  0.45594000000E+02  0.51100000000E-03 0. -1.
    9900012    2    1    2    0    0 -0.43248617268E+02  0.21579741054E+01 -0.29195563209E+01  0.47787267783E+02  0.19999985131E+02 0.  0.
        -12    1    1    2    0    0  0.43248617268E+02 -0.21579741054E+01  0.29195563209E+01  0.43400732217E+02  0.00000000000E+00 0.  1.
         11    1    3    3    0    0 -0.17934775114E+02 -0.41946605027E+01  0.40584506458E+01  0.18860603305E+02  0.51100000000E-03 0. -1.
        -11    1    3    3    0    0 -0.50638921105E+01 -0.11442170238E+01 -0.50583231345E+01  0.72483700995E+01  0.51100000000E-03 0.  1.
         12    1    3    3    0    0 -0.20249950043E+02  0.74968516319E+01 -0.19196838321E+01  0.21678294379E+02  0.00000000000E+00 0. -1.
</event>
<event>
 7    1  0.1457722E-010  0.4778730E+02  0.7816164E-02  0.1312668E+00
        -11   -1    0    0    0    0  0.00000000000E+00  0.00000000000E+00  0.45593999997E+02  0.45594000000E+02  0.51100000000E-03 0.  1.
         11   -1    0    0    0    0 -0.00000000000E+00 -0.00000000000E+00 -0.45593999997E+02  0.45594000000E+02  0.51100000000E-03 0. -1.
    9900012    2    1    2    0    0 -0.23311247921E+02 -0.95916005355E+01 -0.35329978198E+02  0.47787303692E+02  0.20000148855E+02 0.  0.
        -12    1    1    2    0    0  0.23311247921E+02  0.95916005355E+01  0.35329978198E+02  0.43400696308E+02  0.00000000000E+00 0.  1.
         11    1    3    3    0    0 -0.16541204382E+02 -0.54968516984E+00 -0.23376160294E+02  0.28641900540E+02  0.51100000000E-03 0. -1.
        -11    1    3    3    0    0 -0.28703456435E+01 -0.86183297351E-02  0.85390417432E+00  0.29946804485E+01  0.51100000000E-03 0.  1.
         12    1    3    3    0    0 -0.38996978960E+01 -0.90332970359E+01 -0.12807722079E+02  0.16150722704E+02  0.00000000000E+00 0. -1.
</event>
<event>
 7    1  0.1457722E-010  0.4778727E+02  0.7816164E-02  0.1312668E+00
        -11   -1    0    0    0    0  0.00000000000E+00  0.00000000000E+00  0.45593999997E+02  0.45594000000E+02  0.51100000000E-03 0.  1.
         11   -1    0    0    0    0 -0.00000000000E+00 -0.00000000000E+00 -0.45593999997E+02  0.45594000000E+02  0.51100000000E-03 0. -1.
    9900012    2    1    2    0    0  0.41233488309E+02  0.12097179220E+02 -0.60894308670E+01  0.47787268768E+02  0.19999989619E+02 0.  0.
        -12    1    1    2    0    0 -0.41233488309E+02 -0.12097179220E+02  0.60894308670E+01  0.43400731232E+02  0.00000000000E+00 0.  1.
         11    1    3    3    0    0  0.30027189423E+02  0.22274425014E+01 -0.75965728737E+01  0.31053204737E+02  0.51100000000E-03 0. -1.
        -11    1    3    3    0    0  0.22196711475E+01  0.37338281902E+01 -0.26467153324E+01  0.50866015441E+01  0.51100000000E-03 0.  1.
        -12    1    3    3    0    0  0.89866277388E+01  0.61359085289E+01  0.41538573391E+01  0.11647462487E+02  0.00000000000E+00 0.  1.
</event>
<event>
 7    1  0.1457722E-010  0.4778728E+02  0.7816164E-02  0.1312668E+00
        -11   -1    0    0    0    0  0.00000000000E+00  0.00000000000E+00  0.45593999997E+02  0.45594000000E+02  0.51100000000E-03 0. -1.
         11   -1    0    0    0    0 -0.00000000000E+00 -0.00000000000E+00 -0.45593999997E+02  0.45594000000E+02  0.51100000000E-03 0.  1.
    9900012    2    1    2    0    0 -0.30132282684E+02 -0.18167655524E+02  0.25408749879E+02  0.47787277225E+02  0.20000028180E+02 0.  0.
        -12    1    1    2    0    0  0.30132282684E+02  0.18167655524E+02 -0.25408749879E+02  0.43400722775E+02  0.00000000000E+00 0.  1.
         11    1    3    3    0    0 -0.49067570144E+01  0.65608350014E+00  0.23718162047E+01  0.54892824966E+01  0.51100000000E-03 0. -1.
        -11    1    3    3    0    0 -0.21472061328E+02 -0.21780553152E+02  0.18724582475E+02  0.35861565811E+02  0.51100000000E-03 0.  1.
        -12    1    3    3    0    0 -0.37534643410E+01  0.29568141277E+01  0.43123511990E+01  0.64364289174E+01  0.00000000000E+00 0.  1.
</event>
<event>
 7    1  0.1457722E-010  0.4778727E+02  0.7816164E-02  0.1312668E+00
        -11   -1    0    0    0    0  0.00000000000E+00  0.00000000000E+00  0.45593999997E+02  0.45594000000E+02  0.51100000000E-03 0. -1.
         11   -1    0    0    0    0 -0.00000000000E+00 -0.00000000000E+00 -0.45593999997E+02  0.45594000000E+02  0.51100000000E-03 0.  1.
    9900012    2    1    2    0    0  0.27999669686E+02 -0.19209653834E+02  0.27030188923E+02  0.47787269405E+02  0.19999992526E+02 0.  0.
        -12    1    1    2    0    0 -0.27999669686E+02  0.19209653834E+02 -0.27030188923E+02  0.43400730595E+02  0.00000000000E+00 0.  1.
         11    1    3    3    0    0  0.21862908345E+02 -0.11357447518E+02  0.15175897934E+02  0.28935899049E+02  0.51100000000E-03 0. -1.
        -11    1    3    3    0    0  0.33296224482E+00 -0.34591591123E+01 -0.13866554387E+01  0.37415851169E+01  0.51100000000E-03 0.  1.
        -12    1    3    3    0    0  0.58037990965E+01 -0.43930472036E+01  0.13240946427E+02  0.15109785239E+02  0.00000000000E+00 0.  1.
</event>
<event>
 7    1  0.1457722E-010  0.4778727E+02  0.7816164E-02  0.1312668E+00
        -11   -1    0    0    0    0  0.00000000000E+00  0.00000000000E+00  0.45593999997E+02  0.45594000000E+02  0.51100000000E-03 0.  1.
         11   -1    0    0    0    0 -0.00000000000E+00 -0.00000000000E+00 -0.45593999997E+02  0.45594000000E+02  0.51100000000E-03 0. -1.
    9900012    2    1    2    0    0  0.20969647870E+02 -0.11239669059E+02 -0.36298305887E+02  0.47787270713E+02  0.19999998489E+02 0.  0.
        -12    1    1    2    0    0 -0.20969647870E+02  0.11239669059E+02  0.36298305887E+02  0.43400729287E+02  0.00000000000E+00 0.  1.
         11    1    3    3    0    0  0.10080532881E+02 -0.85202409469E+01 -0.17722948892E+02  0.22097840769E+02  0.51100000000E-03 0. -1.
        -11    1    3    3    0    0 -0.20484742099E+00  0.41828166129E+01 -0.73700401284E+01  0.84767569883E+01  0.51100000000E-03 0.  1.
        -12    1    3    3    0    0  0.11093962410E+02 -0.69022447252E+01 -0.11205316866E+02  0.17212672955E+02  0.00000000000E+00 0.  1.
</event>
<event>
 7    1  0.1457722E-010  0.4778727E+02  0.7816164E-02  0.1312668E+00
        -11   -1    0    0    0    0  0.00000000000E+00  0.00000000000E+00  0.45593999997E+02  0.45594000000E+02  0.51100000000E-03 0.  1.
         11   -1    0    0    0    0 -0.00000000000E+00 -0.00000000000E+00 -0.45593999997E+02  0.45594000000E+02  0.51100000000E-03 0. -1.
    9900012    2    1    2    0    0  0.24333378511E+02 -0.22499630089E+02 -0.28022786563E+02  0.47787271542E+02  0.20000002269E+02 0.  0.
        -12    1    1    2    0    0 -0.24333378511E+02  0.22499630089E+02  0.28022786563E+02  0.43400728458E+02  0.00000000000E+00 0.  1.
         11    1    3    3    0    0  0.52555387747E+01 -0.50884890360E+01 -0.15125371669E+02  0.16801496269E+02  0.51100000000E-03 0. -1.
        -11    1    3    3    0    0  0.13713146172E+00 -0.44977958898E+01  0.34291930811E+00  0.45129332830E+01  0.51100000000E-03 0.  1.
        -12    1    3    3    0    0  0.18940708275E+02 -0.12913345163E+02 -0.13240334202E+02  0.26472841990E+02  0.00000000000E+00 0.  1.
</event>
<event>
 7    1  0.1457722E-010  0.4778728E+02  0.7816164E-02  0.1312668E+00
        -11   -1    0    0    0    0  0.00000000000E+00  0.00000000000E+00  0.45593999997E+02  0.45594000000E+02  0.51100000000E-03 0.  1.
         11   -1    0    0    0    0 -0.00000000000E+00 -0.00000000000E+00 -0.45593999997E+02  0.45594000000E+02  0.51100000000E-03 0. -1.
    9900012    2    1    2    0    0 -0.71738277415E+01  0.24540102948E+02 -0.35070531466E+02  0.47787278411E+02  0.20000033588E+02 0.  0.
        -12    1    1    2    0    0  0.71738277415E+01 -0.24540102948E+02  0.35070531466E+02  0.43400721589E+02  0.00000000000E+00 0.  1.
         11    1    3    3    0    0 -0.58388446521E+01  0.13085664540E+02 -0.23234219541E+02  0.27297539839E+02  0.51100000000E-03 0. -1.
        -11    1    3    3    0    0 -0.63104727501E+01  0.51781847491E+01 -0.33584628579E+01  0.88269437890E+01  0.51100000000E-03 0.  1.
        -12    1    3    3    0    0  0.49754896607E+01  0.62762536584E+01 -0.84778490667E+01  0.11662794783E+02  0.00000000000E+00 0.  1.
</event>
<event>
 7    1  0.1457722E-010  0.4778727E+02  0.7816164E-02  0.1312668E+00
        -11   -1    0    0    0    0  0.00000000000E+00  0.00000000000E+00  0.45593999997E+02  0.45594000000E+02  0.51100000000E-03 0.  1.
         11   -1    0    0    0    0 -0.00000000000E+00 -0.00000000000E+00 -0.45593999997E+02  0.45594000000E+02  0.51100000000E-03 0. -1.
    9900012    2    1    2    0    0 -0.12479564280E+02 -0.13516017565E+02 -0.39309041179E+02  0.47787274500E+02  0.20000015757E+02 0.  0.
        -12    1    1    2    0    0  0.12479564280E+02  0.13516017565E+02  0.39309041179E+02  0.43400725500E+02  0.00000000000E+00 0.  1.
         11    1    3    3    0    0 -0.11074129191E+01 -0.12284640017E+02 -0.24695739212E+02  0.27604678575E+02  0.51100000000E-03 0. -1.
        -11    1    3    3    0    0 -0.32496159546E+01 -0.21798837754E+01 -0.60153687070E+00  0.39590079559E+01  0.51100000000E-03 0.  1.
         12    1    3    3    0    0 -0.81225354065E+01  0.94850622718E+00 -0.14011765096E+02  0.16223587970E+02  0.00000000000E+00 0. -1.
</event>
<event>
 7    1  0.1457722E-010  0.4778728E+02  0.7816164E-02  0.1312668E+00
        -11   -1    0    0    0    0  0.00000000000E+00  0.00000000000E+00  0.45593999997E+02  0.45594000000E+02  0.51100000000E-03 0.  1.
         11   -1    0    0    0    0 -0.00000000000E+00 -0.00000000000E+00 -0.45593999997E+02  0.45594000000E+02  0.51100000000E-03 0. -1.
    9900012    2    1    2    0    0  0.40908184454E+02 -0.64354855019E-01 -0.14496176268E+02  0.47787276236E+02  0.20000023670E+02 0.  0.
        -12    1    1    2    0    0 -0.40908184454E+02  0.64354855019E-01  0.14496176268E+02  0.43400723764E+02  0.00000000000E+00 0.  1.
         11    1    3    3    0    0  0.30739701864E+02 -0.19680212782E+01 -0.16925232477E+02  0.35146349357E+02  0.51100000000E-03 0. -1.
        -11    1    3    3    0    0  0.78099100652E+01  0.14975351846E+01 -0.14496848942E+01  0.80832477019E+01  0.51100000000E-03 0.  1.
        -12    1    3    3    0    0  0.23585725246E+01  0.40613123861E+00  0.38787411033E+01  0.45576791773E+01  0.00000000000E+00 0.  1.
</event>
<event>
 7    1  0.1457722E-010  0.4778727E+02  0.7816164E-02  0.1312668E+00
        -11   -1    0    0    0    0  0.00000000000E+00  0.00000000000E+00  0.45593999997E+02  0.45594000000E+02  0.51100000000E-03 0.  1.
         11   -1    0    0    0    0 -0.00000000000E+00 -0.00000000000E+00 -0.45593999997E+02  0.45594000000E+02  0.51100000000E-03 0. -1.
    9900012    2    1    2    0    0 -0.40507923130E+01  0.13028539355E+02 -0.41200379337E+02  0.47787274043E+02  0.20000013670E+02 0.  0.
        -12    1    1    2    0    0  0.40507923130E+01 -0.13028539355E+02  0.41200379337E+02  0.43400725957E+02  0.00000000000E+00 0.  1.
         11    1    3    3    0    0 -0.11502146887E+02  0.95234238695E+01 -0.20360108323E+02  0.25249336554E+02  0.51100000000E-03 0. -1.
        -11    1    3    3    0    0  0.25184085681E+01  0.52878989807E+00 -0.91519107837E+01  0.95068118591E+01  0.51100000000E-03 0.  1.
         12    1    3    3    0    0  0.49329460060E+01  0.29763255875E+01 -0.11688360230E+02  0.13031125630E+02  0.00000000000E+00 0. -1.
</event>
<event>
 7    1  0.1673123E-010  0.4778727E+02  0.7816164E-02  0.1312668E+00
        -11   -1    0    0    0    0  0.00000000000E+00  0.00000000000E+00  0.45593999997E+02  0.45594000000E+02  0.51100000000E-03 0. -1.
         11   -1    0    0    0    0 -0.00000000000E+00 -0.00000000000E+00 -0.45593999997E+02  0.45594000000E+02  0.51100000000E-03 0.  1.
    9900012    2    1    2    0    0 -0.12277541511E+02  0.18105080806E+02  0.37484548509E+02  0.47787270127E+02  0.19999995819E+02 0.  0.
        -12    1    1    2    0    0  0.12277541511E+02 -0.18105080806E+02 -0.37484548509E+02  0.43400729873E+02  0.00000000000E+00 0.  1.
         11    1    3    3    0    0 -0.90580680936E+01  0.11220907987E+01  0.79244062359E+01  0.12087344613E+02  0.51100000000E-03 0. -1.
        -11    1    3    3    0    0  0.71551119575E+00  0.69930536181E+01  0.42696724961E+01  0.82246494553E+01  0.51100000000E-03 0.  1.
         12    1    3    3    0    0 -0.39349846128E+01  0.99899363895E+01  0.25290469777E+02  0.27475276059E+02  0.00000000000E+00 0. -1.
</event>
<event>
 7    1  0.1457722E-010  0.4778727E+02  0.7816164E-02  0.1312668E+00
        -11   -1    0    0    0    0  0.00000000000E+00  0.00000000000E+00  0.45593999997E+02  0.45594000000E+02  0.51100000000E-03 0.  1.
         11   -1    0    0    0    0 -0.00000000000E+00 -0.00000000000E+00 -0.45593999997E+02  0.45594000000E+02  0.51100000000E-03 0. -1.
    9900012    2    1    2    0    0  0.37086060973E+02  0.14972617754E+02 -0.16854315830E+02  0.47787272322E+02  0.20000005823E+02 0.  0.
        -12    1    1    2    0    0 -0.37086060973E+02 -0.14972617754E+02  0.16854315830E+02  0.43400727678E+02  0.00000000000E+00 0.  1.
         11    1    3    3    0    0  0.18892943749E+02  0.10786419729E+02 -0.11867904424E+02  0.24781794320E+02  0.51100000000E-03 0. -1.
        -11    1    3    3    0    0  0.12448424259E+02 -0.32494320694E+01 -0.13739182699E+01  0.12938691085E+02  0.51100000000E-03 0.  1.
        -12    1    3    3    0    0  0.57446929652E+01  0.74356300946E+01 -0.36124931361E+01  0.10066786917E+02  0.00000000000E+00 0.  1.
</event>
<event>
 7    1  0.1457722E-010  0.4778727E+02  0.7816164E-02  0.1312668E+00
        -11   -1    0    0    0    0  0.00000000000E+00  0.00000000000E+00  0.45593999997E+02  0.45594000000E+02  0.51100000000E-03 0.  1.
         11   -1    0    0    0    0 -0.00000000000E+00 -0.00000000000E+00 -0.45593999997E+02  0.45594000000E+02  0.51100000000E-03 0. -1.
    9900012    2    1    2    0    0  0.36829067520E+02  0.12296859197E+01 -0.22928821185E+02  0.47787272094E+02  0.20000004787E+02 0.  0.
        -12    1    1    2    0    0 -0.36829067520E+02 -0.12296859197E+01  0.22928821185E+02  0.43400727906E+02  0.00000000000E+00 0.  1.
         11    1    3    3    0    0  0.70596791738E+01  0.10837350348E+01 -0.10671660971E+02  0.12841257719E+02  0.51100000000E-03 0. -1.
        -11    1    3    3    0    0  0.28970862236E+02  0.28631890509E+01 -0.13194851690E+02  0.31962678575E+02  0.51100000000E-03 0.  1.
        -12    1    3    3    0    0  0.79852610934E+00 -0.27172381660E+01  0.93769147651E+00  0.29833358013E+01  0.00000000000E+00 0.  1.
</event>
<event>
 7    1  0.1457722E-010  0.4778727E+02  0.7816164E-02  0.1312668E+00
        -11   -1    0    0    0    0  0.00000000000E+00  0.00000000000E+00  0.45593999997E+02  0.45594000000E+02  0.51100000000E-03 0.  1.
         11   -1    0    0    0    0 -0.00000000000E+00 -0.00000000000E+00 -0.45593999997E+02  0.45594000000E+02  0.51100000000E-03 0. -1.
    9900012    2    1    2    0    0  0.29214637196E+02  0.30790707198E+02 -0.90587316836E+01  0.47787270790E+02  0.19999998839E+02 0.  0.
        -12    1    1    2    0    0 -0.29214637196E+02 -0.30790707198E+02  0.90587316836E+01  0.43400729210E+02  0.00000000000E+00 0.  1.
         11    1    3    3    0    0  0.11470046770E+01  0.94853574647E+01 -0.87621419909E-01  0.95548575990E+01  0.51100000000E-03 0. -1.
        -11    1    3    3    0    0  0.11340772827E+00  0.13899772431E+01 -0.31157967247E+01  0.34136618959E+01  0.51100000000E-03 0.  1.
         12    1    3    3    0    0  0.27954224791E+02  0.19915372490E+02 -0.58553135390E+01  0.34818751295E+02  0.00000000000E+00 0. -1.
</event>
<event>
 7    1  0.1457722E-010  0.4778726E+02  0.7816164E-02  0.1312668E+00
        -11   -1    0    0    0    0  0.00000000000E+00  0.00000000000E+00  0.45593999997E+02  0.45594000000E+02  0.51100000000E-03 0.  1.
         11   -1    0    0    0    0 -0.00000000000E+00 -0.00000000000E+00 -0.45593999997E+02  0.45594000000E+02  0.51100000000E-03 0. -1.
    9900012    2    1    2    0    0 -0.21212333758E+02  0.29973405012E+02 -0.23135598702E+02  0.47787262232E+02  0.19999959822E+02 0.  0.
        -12    1    1    2    0    0  0.21212333758E+02 -0.29973405012E+02  0.23135598702E+02  0.43400737768E+02  0.00000000000E+00 0.  1.
         11    1    3    3    0    0 -0.94646068415E+01  0.59911534897E+01 -0.37712968490E+01  0.11819280138E+02  0.51100000000E-03 0. -1.
        -11    1    3    3    0    0 -0.30757875448E+01  0.77472154687E+01 -0.14829574547E+02  0.17011645954E+02  0.51100000000E-03 0.  1.
        -12    1    3    3    0    0 -0.86719393717E+01  0.16235036054E+02 -0.45347273059E+01  0.18956336140E+02  0.00000000000E+00 0.  1.
</event>
<event>
 7    1  0.1457722E-010  0.4778727E+02  0.7816164E-02  0.1312668E+00
        -11   -1    0    0    0    0  0.00000000000E+00  0.00000000000E+00  0.45593999997E+02  0.45594000000E+02  0.51100000000E-03 0.  1.
         11   -1    0    0    0    0 -0.00000000000E+00 -0.00000000000E+00 -0.45593999997E+02  0.45594000000E+02  0.51100000000E-03 0. -1.
    9900012    2    1    2    0    0  0.20628378037E+02 -0.28639324873E+02 -0.25256339409E+02  0.47787267403E+02  0.19999983398E+02 0.  0.
        -12    1    1    2    0    0 -0.20628378037E+02  0.28639324873E+02  0.25256339409E+02  0.43400732597E+02  0.00000000000E+00 0.  1.
         11    1    3    3    0    0  0.41219826404E+01 -0.12839770243E+02 -0.19033982944E+02  0.23326871795E+02  0.51100000000E-03 0.  1.
        -11    1    3    3    0    0  0.10863475448E+02 -0.13211026255E+02 -0.63664395765E+01  0.18250421000E+02  0.51100000000E-03 0. -1.
        -12    1    3    3    0    0  0.56429199480E+01 -0.25885283751E+01  0.14408311199E+00  0.62099746080E+01  0.00000000000E+00 0.  1.
</event>
<event>
 7    1  0.1457722E-010  0.4778727E+02  0.7816164E-02  0.1312668E+00
        -11   -1    0    0    0    0  0.00000000000E+00  0.00000000000E+00  0.45593999997E+02  0.45594000000E+02  0.51100000000E-03 0. -1.
         11   -1    0    0    0    0 -0.00000000000E+00 -0.00000000000E+00 -0.45593999997E+02  0.45594000000E+02  0.51100000000E-03 0.  1.
    9900012    2    1    2    0    0  0.22962571724E+02  0.98311823644E+01  0.35492132956E+02  0.47787270183E+02  0.19999996071E+02 0.  0.
        -12    1    1    2    0    0 -0.22962571724E+02 -0.98311823644E+01 -0.35492132956E+02  0.43400729817E+02  0.00000000000E+00 0.  1.
         11    1    3    3    0    0  0.28502013489E+01 -0.15845884110E+01 -0.34264083561E+00  0.32790198482E+01  0.51100000000E-03 0.  1.
        -11    1    3    3    0    0  0.35405442896E+01  0.89616233018E+01  0.12506271054E+02  0.15787747211E+02  0.51100000000E-03 0. -1.
         12    1    3    3    0    0  0.16571826086E+02  0.24541474736E+01  0.23328502738E+02  0.28720503123E+02  0.00000000000E+00 0. -1.
</event>
<event>
 7    1  0.1457722E-010  0.4778727E+02  0.7816164E-02  0.1312668E+00
        -11   -1    0    0    0    0  0.00000000000E+00  0.00000000000E+00  0.45593999997E+02  0.45594000000E+02  0.51100000000E-03 0.  1.
         11   -1    0    0    0    0 -0.00000000000E+00 -0.00000000000E+00 -0.45593999997E+02  0.45594000000E+02  0.51100000000E-03 0. -1.
    9900012    2    1    2    0    0  0.19556009972E+02  0.29572576115E+02 -0.25032950894E+02  0.47787269424E+02  0.19999992610E+02 0.  0.
        -12    1    1    2    0    0 -0.19556009972E+02 -0.29572576115E+02  0.25032950894E+02  0.43400730576E+02  0.00000000000E+00 0.  1.
         11    1    3    3    0    0  0.12354094792E+02  0.97045676840E+01 -0.15157426702E+02  0.21830022367E+02  0.51100000000E-03 0. -1.
        -11    1    3    3    0    0  0.59655500043E+01  0.14530076169E+02 -0.12315266111E+02  0.19959375742E+02  0.51100000000E-03 0.  1.
        -12    1    3    3    0    0  0.12363651749E+01  0.53379322619E+01  0.24397419190E+01  0.59978713148E+01  0.00000000000E+00 0.  1.
</event>
<event>
 7    1  0.1457722E-010  0.4778731E+02  0.7816164E-02  0.1312668E+00
        -11   -1    0    0    0    0  0.00000000000E+00  0.00000000000E+00  0.45593999997E+02  0.45594000000E+02  0.51100000000E-03 0.  1.
         11   -1    0    0    0    0 -0.00000000000E+00 -0.00000000000E+00 -0.45593999997E+02  0.45594000000E+02  0.51100000000E-03 0. -1.
    9900012    2    1    2    0    0 -0.10737649441E+02  0.26855621537E+02 -0.32358902540E+02  0.47787307641E+02  0.20000166859E+02 0.  0.
        -12    1    1    2    0    0  0.10737649441E+02 -0.26855621537E+02  0.32358902540E+02  0.43400692359E+02  0.00000000000E+00 0.  1.
         11    1    3    3    0    0 -0.71532446981E+01  0.12216900166E+02 -0.16575642183E+02  0.21798474108E+02  0.51100000000E-03 0. -1.
        -11    1    3    3    0    0 -0.44572292108E+01  0.51398319937E+00  0.38353995813E+00  0.45031293705E+01  0.51100000000E-03 0.  1.
         12    1    3    3    0    0  0.87282446823E+00  0.14124738172E+02 -0.16166800314E+02  0.21485704163E+02  0.00000000000E+00 0. -1.
</event>
<event>
 7    1  0.1457722E-010  0.4778729E+02  0.7816164E-02  0.1312668E+00
        -11   -1    0    0    0    0  0.00000000000E+00  0.00000000000E+00  0.45593999997E+02  0.45594000000E+02  0.51100000000E-03 0.  1.
         11   -1    0    0    0    0 -0.00000000000E+00 -0.00000000000E+00 -0.45593999997E+02  0.45594000000E+02  0.51100000000E-03 0. -1.
    9900012    2    1    2    0    0 -0.34249833429E+01 -0.42784290568E+02 -0.64339646077E+01  0.47787286517E+02  0.20000070543E+02 0.  0.
        -12    1    1    2    0    0  0.34249833429E+01  0.42784290568E+02  0.64339646077E+01  0.43400713483E+02  0.00000000000E+00 0.  1.
         11    1    3    3    0    0 -0.27525175082E+01 -0.34568553057E+02  0.42027671943E-01  0.34677989845E+02  0.51100000000E-03 0. -1.
        -11    1    3    3    0    0  0.17315060977E+01 -0.81819544976E+01 -0.30043272708E+01  0.88864208418E+01  0.51100000000E-03 0.  1.
        -12    1    3    3    0    0 -0.24039719324E+01 -0.33783013548E-01 -0.34716650088E+01  0.42228758302E+01  0.00000000000E+00 0.  1.
</event>
<event>
 7    1  0.1457722E-010  0.4778728E+02  0.7816164E-02  0.1312668E+00
        -11   -1    0    0    0    0  0.00000000000E+00  0.00000000000E+00  0.45593999997E+02  0.45594000000E+02  0.51100000000E-03 0. -1.
         11   -1    0    0    0    0 -0.00000000000E+00 -0.00000000000E+00 -0.45593999997E+02  0.45594000000E+02  0.51100000000E-03 0.  1.
    9900012    2    1    2    0    0  0.19234891878E+02 -0.15775383619E+02  0.35563730580E+02  0.47787277349E+02  0.20000028745E+02 0.  0.
        -12    1    1    2    0    0 -0.19234891878E+02  0.15775383619E+02 -0.35563730580E+02  0.43400722651E+02  0.00000000000E+00 0.  1.
         11    1    3    3    0    0  0.17780179284E+01 -0.10316058937E+02  0.22511139564E+02  0.24826071467E+02  0.51100000000E-03 0. -1.
        -11    1    3    3    0    0  0.81788413444E+01 -0.50135541634E+01  0.69751735608E+01  0.11860953484E+02  0.51100000000E-03 0.  1.
         12    1    3    3    0    0  0.92780326051E+01 -0.44577051848E+00  0.60774174548E+01  0.11100252398E+02  0.00000000000E+00 0. -1.
</event>
<event>
 7    1  0.1457722E-010  0.4778728E+02  0.7816164E-02  0.1312668E+00
        -11   -1    0    0    0    0  0.00000000000E+00  0.00000000000E+00  0.45593999997E+02  0.45594000000E+02  0.51100000000E-03 0. -1.
         11   -1    0    0    0    0 -0.00000000000E+00 -0.00000000000E+00 -0.45593999997E+02  0.45594000000E+02  0.51100000000E-03 0.  1.
    9900012    2    1    2    0    0  0.26982381369E+02  0.33258373908E+02 -0.70323805366E+01  0.47787277479E+02  0.20000029338E+02 0.  0.
        -12    1    1    2    0    0 -0.26982381369E+02 -0.33258373908E+02  0.70323805366E+01  0.43400722521E+02  0.00000000000E+00 0.  1.
         11    1    3    3    0    0  0.57131743222E+01  0.23326711011E+01 -0.11808977309E+01  0.62830116197E+01  0.51100000000E-03 0. -1.
        -11    1    3    3    0    0  0.83710798789E+01  0.25696416372E+02 -0.21976235277E+01  0.27114762439E+02  0.51100000000E-03 0.  1.
        -12    1    3    3    0    0  0.12898127168E+02  0.52292864347E+01 -0.36538592780E+01  0.14389503420E+02  0.00000000000E+00 0.  1.
</event>
<event>
 7    1  0.1457722E-010  0.4778731E+02  0.7816164E-02  0.1312668E+00
        -11   -1    0    0    0    0  0.00000000000E+00  0.00000000000E+00  0.45593999997E+02  0.45594000000E+02  0.51100000000E-03 0.  1.
         11   -1    0    0    0    0 -0.00000000000E+00 -0.00000000000E+00 -0.45593999997E+02  0.45594000000E+02  0.51100000000E-03 0. -1.
    9900012    2    1    2    0    0 -0.15796460055E+02  0.34866042574E+02 -0.20456080241E+02  0.47787305376E+02  0.20000156531E+02 0.  0.
        -12    1    1    2    0    0  0.15796460055E+02 -0.34866042574E+02  0.20456080241E+02  0.43400694624E+02  0.00000000000E+00 0.  1.
         11    1    3    3    0    0 -0.14145129579E+02  0.14379165686E+02 -0.91848605053E+01  0.22163184775E+02  0.51100000000E-03 0. -1.
        -11    1    3    3    0    0  0.12333073448E+01  0.23091812283E+01  0.16874654538E+01  0.31146275654E+01  0.51100000000E-03 0.  1.
         12    1    3    3    0    0 -0.28846378203E+01  0.18177695660E+02 -0.12958685190E+02  0.22509493035E+02  0.00000000000E+00 0. -1.
</event>
<event>
 7    1  0.1457722E-010  0.4778727E+02  0.7816164E-02  0.1312668E+00
        -11   -1    0    0    0    0  0.00000000000E+00  0.00000000000E+00  0.45593999997E+02  0.45594000000E+02  0.51100000000E-03 0.  1.
         11   -1    0    0    0    0 -0.00000000000E+00 -0.00000000000E+00 -0.45593999997E+02  0.45594000000E+02  0.51100000000E-03 0. -1.
    9900012    2    1    2    0    0  0.31999382924E+02 -0.26486620226E+02 -0.12574639664E+02  0.47787272804E+02  0.20000008021E+02 0.  0.
        -12    1    1    2    0    0 -0.31999382924E+02  0.26486620226E+02  0.12574639664E+02  0.43400727196E+02  0.00000000000E+00 0.  1.
         11    1    3    3    0    0  0.18938842024E+02 -0.77489917021E+01 -0.33024535399E+01  0.20727585707E+02  0.51100000000E-03 0. -1.
        -11    1    3    3    0    0  0.21170259781E+01 -0.19970335483E+01 -0.61678579509E+01  0.68200010226E+01  0.51100000000E-03 0.  1.
        -12    1    3    3    0    0  0.10943514922E+02 -0.16740594975E+02 -0.31043281736E+01  0.20239686074E+02  0.00000000000E+00 0.  1.
</event>
<event>
 7    1  0.1457722E-010  0.4778727E+02  0.7816164E-02  0.1312668E+00
        -11   -1    0    0    0    0  0.00000000000E+00  0.00000000000E+00  0.45593999997E+02  0.45594000000E+02  0.51100000000E-03 0. -1.
         11   -1    0    0    0    0 -0.00000000000E+00 -0.00000000000E+00 -0.45593999997E+02  0.45594000000E+02  0.51100000000E-03 0.  1.
    9900012    2    1    2    0    0 -0.17448979860E+02  0.50996491763E+01  0.39410020301E+02  0.47787273969E+02  0.20000013333E+02 0.  0.
        -12    1    1    2    0    0  0.17448979860E+02 -0.50996491763E+01 -0.39410020301E+02  0.43400726031E+02  0.00000000000E+00 0.  1.
         11    1    3    3    0    0 -0.11469778770E+01 -0.14272466075E+01  0.53630768150E+00  0.19079353551E+01  0.51100000000E-03 0.  1.
        -11    1    3    3    0    0 -0.13074166633E+01 -0.40488844308E+01  0.20189212550E+01  0.47094422982E+01  0.51100000000E-03 0. -1.
         12    1    3    3    0    0 -0.14994585320E+02  0.10575780215E+02  0.36854791365E+02  0.41169896315E+02  0.00000000000E+00 0. -1.
</event>
<event>
 7    1  0.1457722E-010  0.4778727E+02  0.7816164E-02  0.1312668E+00
        -11   -1    0    0    0    0  0.00000000000E+00  0.00000000000E+00  0.45593999997E+02  0.45594000000E+02  0.51100000000E-03 0.  1.
         11   -1    0    0    0    0 -0.00000000000E+00 -0.00000000000E+00 -0.45593999997E+02  0.45594000000E+02  0.51100000000E-03 0. -1.
    9900012    2    1    2    0    0 -0.36750100881E+02  0.76143991996E+01 -0.21796196604E+02  0.47787272168E+02  0.20000005122E+02 0.  0.
        -12    1    1    2    0    0  0.36750100881E+02 -0.76143991996E+01  0.21796196604E+02  0.43400727832E+02  0.00000000000E+00 0.  1.
         11    1    3    3    0    0 -0.24511393818E+02  0.13148096460E+02 -0.99727283064E+01  0.29548877771E+02  0.51100000000E-03 0. -1.
        -11    1    3    3    0    0 -0.65395449412E+01 -0.10239697223E+01 -0.56208221557E+01  0.86837666941E+01  0.51100000000E-03 0.  1.
         12    1    3    3    0    0 -0.56991621222E+01 -0.45097275383E+01 -0.62026461421E+01  0.95546277023E+01  0.00000000000E+00 0. -1.
</event>
<event>
 7    1  0.1457722E-010  0.4778727E+02  0.7816164E-02  0.1312668E+00
        -11   -1    0    0    0    0  0.00000000000E+00  0.00000000000E+00  0.45593999997E+02  0.45594000000E+02  0.51100000000E-03 0.  1.
         11   -1    0    0    0    0 -0.00000000000E+00 -0.00000000000E+00 -0.45593999997E+02  0.45594000000E+02  0.51100000000E-03 0. -1.
    9900012    2    1    2    0    0 -0.27612197286E+02 -0.29424790697E+02 -0.15980349110E+02  0.47787270695E+02  0.19999998406E+02 0.  0.
        -12    1    1    2    0    0  0.27612197286E+02  0.29424790697E+02  0.15980349110E+02  0.43400729305E+02  0.00000000000E+00 0.  1.
         11    1    3    3    0    0 -0.52156929026E+01 -0.14292636392E+02 -0.32001967810E+01  0.15547481056E+02  0.51100000000E-03 0. -1.
        -11    1    3    3    0    0 -0.11301835875E+02 -0.45601032387E+01  0.15089293511E+00  0.12188059921E+02  0.51100000000E-03 0.  1.
        -12    1    3    3    0    0 -0.11094668509E+02 -0.10572051066E+02 -0.12931045264E+02  0.20051729718E+02  0.00000000000E+00 0.  1.
</event>
<event>
 7    1  0.1457722E-010  0.4778727E+02  0.7816164E-02  0.1312668E+00
        -11   -1    0    0    0    0  0.00000000000E+00  0.00000000000E+00  0.45593999997E+02  0.45594000000E+02  0.51100000000E-03 0.  1.
         11   -1    0    0    0    0 -0.00000000000E+00 -0.00000000000E+00 -0.45593999997E+02  0.45594000000E+02  0.51100000000E-03 0. -1.
    9900012    2    1    2    0    0 -0.23056714428E+02  0.22390404534E+02 -0.29166431682E+02  0.47787273826E+02  0.20000012680E+02 0.  0.
        -12    1    1    2    0    0  0.23056714428E+02 -0.22390404534E+02  0.29166431682E+02  0.43400726174E+02  0.00000000000E+00 0.  1.
         11    1    3    3    0    0 -0.15882001507E+02  0.17604308391E+02 -0.20238817808E+02  0.31173055550E+02  0.51100000000E-03 0. -1.
        -11    1    3    3    0    0 -0.20118289884E+01  0.12492207840E+01 -0.99896977241E+01  0.10266550995E+02  0.51100000000E-03 0.  1.
        -12    1    3    3    0    0 -0.51628839323E+01  0.35368753592E+01  0.10620838500E+01  0.63476672810E+01  0.00000000000E+00 0.  1.
</event>
<event>
 7    1  0.1457722E-010  0.4778729E+02  0.7816164E-02  0.1312668E+00
        -11   -1    0    0    0    0  0.00000000000E+00  0.00000000000E+00  0.45593999997E+02  0.45594000000E+02  0.51100000000E-03 0.  1.
         11   -1    0    0    0    0 -0.00000000000E+00 -0.00000000000E+00 -0.45593999997E+02  0.45594000000E+02  0.51100000000E-03 0. -1.
    9900012    2    1    2    0    0  0.26387611162E+02 -0.19405402457E+02 -0.28473598893E+02  0.47787291466E+02  0.20000093108E+02 0.  0.
        -12    1    1    2    0    0 -0.26387611162E+02  0.19405402457E+02  0.28473598893E+02  0.43400708534E+02  0.00000000000E+00 0.  1.
         11    1    3    3    0    0  0.84177486648E+01 -0.13763410270E+02 -0.64973790870E+01  0.17392696458E+02  0.51100000000E-03 0. -1.
        -11    1    3    3    0    0  0.14675702556E+02 -0.78065521007E+01 -0.15041672621E+02  0.22418082360E+02  0.51100000000E-03 0.  1.
        -12    1    3    3    0    0  0.32941599415E+01  0.21645599137E+01 -0.69345471856E+01  0.79765126471E+01  0.00000000000E+00 0.  1.
</event>
<event>
 7    1  0.1457722E-010  0.4778727E+02  0.7816164E-02  0.1312668E+00
        -11   -1    0    0    0    0  0.00000000000E+00  0.00000000000E+00  0.45593999997E+02  0.45594000000E+02  0.51100000000E-03 0. -1.
         11   -1    0    0    0    0 -0.00000000000E+00 -0.00000000000E+00 -0.45593999997E+02  0.45594000000E+02  0.51100000000E-03 0.  1.
    9900012    2    1    2    0    0 -0.81508750298E+01 -0.25853669162E+02  0.33893572013E+02  0.47787271934E+02  0.20000004055E+02 0.  0.
        -12    1    1    2    0    0  0.81508750298E+01  0.25853669162E+02 -0.33893572013E+02  0.43400728066E+02  0.00000000000E+00 0.  1.
         11    1    3    3    0    0 -0.12533609424E+02 -0.12798794648E+02  0.23858975515E+02  0.29835402168E+02  0.51100000000E-03 0. -1.
        -11    1    3    3    0    0  0.14006014276E+01 -0.28521453881E+01 -0.21610008687E+00  0.31848260835E+01  0.51100000000E-03 0.  1.
        -12    1    3    3    0    0  0.29821329666E+01 -0.10202729126E+02  0.10250696585E+02  0.14767043683E+02  0.00000000000E+00 0.  1.
</event>
<event>
 7    1  0.1457722E-010  0.4778727E+02  0.7816164E-02  0.1312668E+00
        -11   -1    0    0    0    0  0.00000000000E+00  0.00000000000E+00  0.45593999997E+02  0.45594000000E+02  0.51100000000E-03 0.  1.
         11   -1    0    0    0    0 -0.00000000000E+00 -0.00000000000E+00 -0.45593999997E+02  0.45594000000E+02  0.51100000000E-03 0. -1.
    9900012    2    1    2    0    0  0.30814058267E+02  0.28255203012E+01 -0.30432444055E+02  0.47787269557E+02  0.19999993217E+02 0.  0.
        -12    1    1    2    0    0 -0.30814058267E+02 -0.28255203012E+01  0.30432444055E+02  0.43400730443E+02  0.00000000000E+00 0.  1.
         11    1    3    3    0    0  0.24199274474E+02  0.89401447737E-02 -0.15614307894E+02  0.28799506528E+02  0.51100000000E-03 0. -1.
        -11    1    3    3    0    0  0.18497799532E+01  0.43445525403E+01 -0.18215273890E+01  0.50611051106E+01  0.51100000000E-03 0.  1.
        -12    1    3    3    0    0  0.47650038403E+01 -0.15279723839E+01 -0.12996608772E+02  0.13926657918E+02  0.00000000000E+00 0.  1.
</event>
<event>
 7    1  0.1457722E-010  0.4778728E+02  0.7816164E-02  0.1312668E+00
        -11   -1    0    0    0    0  0.00000000000E+00  0.00000000000E+00  0.45593999997E+02  0.45594000000E+02  0.51100000000E-03 0.  1.
         11   -1    0    0    0    0 -0.00000000000E+00 -0.00000000000E+00 -0.45593999997E+02  0.45594000000E+02  0.51100000000E-03 0. -1.
    9900012    2    1    2    0    0 -0.20364751555E+02 -0.20012026351E+02 -0.32686673357E+02  0.47787275125E+02  0.20000018603E+02 0.  0.
        -12    1    1    2    0    0  0.20364751555E+02  0.20012026351E+02  0.32686673357E+02  0.43400724875E+02  0.00000000000E+00 0.  1.
         11    1    3    3    0    0 -0.12565307472E+02 -0.12973954605E+02 -0.21250974053E+02  0.27889323197E+02  0.51100000000E-03 0. -1.
        -11    1    3    3    0    0 -0.40084839000E+01 -0.68432130923E+01 -0.13439887449E+02  0.15605386362E+02  0.51100000000E-03 0.  1.
        -12    1    3    3    0    0 -0.37909601838E+01 -0.19485865315E+00  0.20041881450E+01  0.42925655651E+01  0.00000000000E+00 0.  1.
</event>
<event>
 7    1  0.1457722E-010  0.4778727E+02  0.7816164E-02  0.1312668E+00
        -11   -1    0    0    0    0  0.00000000000E+00  0.00000000000E+00  0.45593999997E+02  0.45594000000E+02  0.51100000000E-03 0.  1.
         11   -1    0    0    0    0 -0.00000000000E+00 -0.00000000000E+00 -0.45593999997E+02  0.45594000000E+02  0.51100000000E-03 0. -1.
    9900012    2    1    2    0    0 -0.33890633442E+02 -0.12434001669E+02 -0.24092401558E+02  0.47787271372E+02  0.20000001492E+02 0.  0.
        -12    1    1    2    0    0  0.33890633442E+02  0.12434001669E+02  0.24092401558E+02  0.43400728628E+02  0.00000000000E+00 0.  1.
         11    1    3    3    0    0 -0.79096551863E+01 -0.71829842156E+01 -0.17917834060E+01  0.10833669528E+02  0.51100000000E-03 0. -1.
        -11    1    3    3    0    0 -0.73100408092E+01 -0.55470502836E+01 -0.13467204580E+02  0.16296381897E+02  0.51100000000E-03 0.  1.
        -12    1    3    3    0    0 -0.18670937447E+02  0.29603283002E+00 -0.88334135728E+01  0.20657219947E+02  0.00000000000E+00 0.  1.
</event>
<event>
 7    1  0.1457722E-010  0.4778727E+02  0.7816164E-02  0.1312668E+00
        -11   -1    0    0    0    0  0.00000000000E+00  0.00000000000E+00  0.45593999997E+02  0.45594000000E+02  0.51100000000E-03 0.  1.
         11   -1    0    0    0    0 -0.00000000000E+00 -0.00000000000E+00 -0.45593999997E+02  0.45594000000E+02  0.51100000000E-03 0. -1.
    9900012    2    1    2    0    0 -0.27470517712E-01 -0.30372564545E+02 -0.31002093116E+02  0.47787271789E+02  0.20000003397E+02 0.  0.
        -12    1    1    2    0    0  0.27470517712E-01  0.30372564545E+02  0.31002093116E+02  0.43400728211E+02  0.00000000000E+00 0.  1.
         11    1    3    3    0    0 -0.37585419014E+01 -0.84737955513E+01 -0.13116543849E+02  0.16061617947E+02  0.51100000000E-03 0. -1.
        -11    1    3    3    0    0  0.43681053540E+01 -0.23770812803E+02 -0.17056953638E+02  0.29581608363E+02  0.51100000000E-03 0.  1.
         12    1    3    3    0    0 -0.63703397039E+00  0.18720438091E+01 -0.82859562874E+00  0.21440454796E+01  0.00000000000E+00 0. -1.
</event>
<event>
 7    1  0.1457722E-010  0.4778726E+02  0.7816164E-02  0.1312668E+00
        -11   -1    0    0    0    0  0.00000000000E+00  0.00000000000E+00  0.45593999997E+02  0.45594000000E+02  0.51100000000E-03 0.  1.
         11   -1    0    0    0    0 -0.00000000000E+00 -0.00000000000E+00 -0.45593999997E+02  0.45594000000E+02  0.51100000000E-03 0. -1.
    9900012    2    1    2    0    0  0.39636084647E+02  0.93797718282E+01 -0.14987479704E+02  0.47787264135E+02  0.19999968498E+02 0.  0.
        -12    1    1    2    0    0 -0.39636084647E+02 -0.93797718282E+01  0.14987479704E+02  0.43400735865E+02  0.00000000000E+00 0.  1.
         11    1    3    3    0    0  0.27969050628E+02  0.29137094807E+01 -0.10877309498E+02  0.30150843407E+02  0.51100000000E-03 0. -1.
        -11    1    3    3    0    0  0.11377402052E+02  0.89708840858E+01 -0.26701187825E+01  0.14732670271E+02  0.51100000000E-03 0.  1.
         12    1    3    3    0    0  0.28963196735E+00 -0.25048217382E+01 -0.14400514236E+01  0.29037504575E+01  0.00000000000E+00 0. -1.
</event>
<event>
 7    1  0.1457722E-010  0.4778727E+02  0.7816164E-02  0.1312668E+00
        -11   -1    0    0    0    0  0.00000000000E+00  0.00000000000E+00  0.45593999997E+02  0.45594000000E+02  0.51100000000E-03 0.  1.
         11   -1    0    0    0    0 -0.00000000000E+00 -0.00000000000E+00 -0.45593999997E+02  0.45594000000E+02  0.51100000000E-03 0. -1.
    9900012    2    1    2    0    0 -0.32037690261E+02  0.29102184194E+02 -0.32051277075E+01  0.47787267682E+02  0.19999984669E+02 0.  0.
        -12    1    1    2    0    0  0.32037690261E+02 -0.29102184194E+02  0.32051277075E+01  0.43400732318E+02  0.00000000000E+00 0.  1.
         11    1    3    3    0    0 -0.19439975266E+02  0.15186301956E+02 -0.75537300201E+01  0.25799132600E+02  0.51100000000E-03 0. -1.
        -11    1    3    3    0    0 -0.21626109187E-01 -0.14626620067E+01 -0.48760452265E+00  0.15419488532E+01  0.51100000000E-03 0.  1.
        -12    1    3    3    0    0 -0.12576088886E+02  0.15378544244E+02  0.48362068353E+01  0.20446186229E+02  0.00000000000E+00 0.  1.
</event>
<event>
 7    1  0.1457722E-010  0.4778727E+02  0.7816164E-02  0.1312668E+00
        -11   -1    0    0    0    0  0.00000000000E+00  0.00000000000E+00  0.45593999997E+02  0.45594000000E+02  0.51100000000E-03 0.  1.
         11   -1    0    0    0    0 -0.00000000000E+00 -0.00000000000E+00 -0.45593999997E+02  0.45594000000E+02  0.51100000000E-03 0. -1.
    9900012    2    1    2    0    0 -0.21503640834E+02  0.18076500428E+02 -0.33082575700E+02  0.47787271299E+02  0.20000001162E+02 0.  0.
        -12    1    1    2    0    0  0.21503640834E+02 -0.18076500428E+02  0.33082575700E+02  0.43400728701E+02  0.00000000000E+00 0.  1.
         11    1    3    3    0    0 -0.92413221649E+01  0.46486157082E+01 -0.10691394428E+02  0.14876746232E+02  0.51100000000E-03 0.  1.
        -11    1    3    3    0    0 -0.16458907913E+01  0.66247937399E+01  0.42775205545E+00  0.68395775216E+01  0.51100000000E-03 0. -1.
         12    1    3    3    0    0 -0.10616427878E+02  0.68030909794E+01 -0.22818933327E+02  0.26070947546E+02  0.00000000000E+00 0. -1.
</event>
<event>
 7    1  0.1457722E-010  0.4778727E+02  0.7816164E-02  0.1312668E+00
        -11   -1    0    0    0    0  0.00000000000E+00  0.00000000000E+00  0.45593999997E+02  0.45594000000E+02  0.51100000000E-03 0.  1.
         11   -1    0    0    0    0 -0.00000000000E+00 -0.00000000000E+00 -0.45593999997E+02  0.45594000000E+02  0.51100000000E-03 0. -1.
    9900012    2    1    2    0    0 -0.28767322837E+02  0.15499449089E+02 -0.28562767881E+02  0.47787268506E+02  0.19999988424E+02 0.  0.
        -12    1    1    2    0    0  0.28767322837E+02 -0.15499449089E+02  0.28562767881E+02  0.43400731494E+02  0.00000000000E+00 0.  1.
         11    1    3    3    0    0 -0.15315743313E+02 -0.16609650246E+01 -0.14005733115E+02  0.20820455288E+02  0.51100000000E-03 0. -1.
        -11    1    3    3    0    0 -0.10370649327E+02  0.83804456122E+01 -0.95461647143E+01  0.16398521187E+02  0.51100000000E-03 0.  1.
         12    1    3    3    0    0 -0.30809301967E+01  0.87799685017E+01 -0.50108700508E+01  0.10568292030E+02  0.00000000000E+00 0. -1.
</event>
<event>
 7    1  0.1457722E-010  0.4778727E+02  0.7816164E-02  0.1312668E+00
        -11   -1    0    0    0    0  0.00000000000E+00  0.00000000000E+00  0.45593999997E+02  0.45594000000E+02  0.51100000000E-03 0.  1.
         11   -1    0    0    0    0 -0.00000000000E+00 -0.00000000000E+00 -0.45593999997E+02  0.45594000000E+02  0.51100000000E-03 0. -1.
    9900012    2    1    2    0    0 -0.37966274635E+02 -0.21024490544E+02 -0.39509468224E+00  0.47787270604E+02  0.19999997993E+02 0.  0.
        -12    1    1    2    0    0  0.37966274635E+02  0.21024490544E+02  0.39509468224E+00  0.43400729396E+02  0.00000000000E+00 0.  1.
         11    1    3    3    0    0 -0.18462058770E+02 -0.10211873625E+02  0.53694401857E+01  0.21770642276E+02  0.51100000000E-03 0. -1.
        -11    1    3    3    0    0 -0.60281899543E+01 -0.24636726814E+01  0.37629369333E+01  0.75212001590E+01  0.51100000000E-03 0.  1.
         12    1    3    3    0    0 -0.13476025910E+02 -0.83489442375E+01 -0.95274718013E+01  0.18495428169E+02  0.00000000000E+00 0. -1.
</event>
<event>
 7    1  0.1457722E-010  0.4778727E+02  0.7816164E-02  0.1312668E+00
        -11   -1    0    0    0    0  0.00000000000E+00  0.00000000000E+00  0.45593999997E+02  0.45594000000E+02  0.51100000000E-03 0. -1.
         11   -1    0    0    0    0 -0.00000000000E+00 -0.00000000000E+00 -0.45593999997E+02  0.45594000000E+02  0.51100000000E-03 0.  1.
    9900012    2    1    2    0    0 -0.18076587693E+02  0.92222343213E+01  0.38364181081E+02  0.47787273986E+02  0.20000013414E+02 0.  0.
        -12    1    1    2    0    0  0.18076587693E+02 -0.92222343213E+01 -0.38364181081E+02  0.43400726014E+02  0.00000000000E+00 0.  1.
         11    1    3    3    0    0 -0.57744166435E+00  0.23978471767E+01  0.21699502044E+01  0.32850866213E+01  0.51100000000E-03 0. -1.
        -11    1    3    3    0    0 -0.82335384047E+01  0.11222618279E+02  0.12599393149E+02  0.18774531251E+02  0.51100000000E-03 0.  1.
         12    1    3    3    0    0 -0.92656076238E+01 -0.43982311347E+01  0.23594837728E+02  0.25727656115E+02  0.00000000000E+00 0. -1.
</event>
<event>
 7    1  0.1457722E-010  0.4778727E+02  0.7816164E-02  0.1312668E+00
        -11   -1    0    0    0    0  0.00000000000E+00  0.00000000000E+00  0.45593999997E+02  0.45594000000E+02  0.51100000000E-03 0.  1.
         11   -1    0    0    0    0 -0.00000000000E+00 -0.00000000000E+00 -0.45593999997E+02  0.45594000000E+02  0.51100000000E-03 0. -1.
    9900012    2    1    2    0    0 -0.10261449830E+02 -0.25822304744E+02 -0.33339680725E+02  0.47787273211E+02  0.20000009879E+02 0.  0.
        -12    1    1    2    0    0  0.10261449830E+02  0.25822304744E+02  0.33339680725E+02  0.43400726789E+02  0.00000000000E+00 0.  1.
         11    1    3    3    0    0  0.11265670490E+01  0.80451807367E+00 -0.32543359564E+01  0.35365386220E+01  0.51100000000E-03 0.  1.
        -11    1    3    3    0    0 -0.12355851731E+02 -0.14084612999E+02 -0.23490350867E+02  0.30047295709E+02  0.51100000000E-03 0. -1.
         12    1    3    3    0    0  0.96783485201E+00 -0.12542209819E+02 -0.65949939022E+01  0.14203438880E+02  0.00000000000E+00 0. -1.
</event>
<event>
 7    1  0.1457722E-010  0.4778727E+02  0.7816164E-02  0.1312668E+00
        -11   -1    0    0    0    0  0.00000000000E+00  0.00000000000E+00  0.45593999997E+02  0.45594000000E+02  0.51100000000E-03 0. -1.
         11   -1    0    0    0    0 -0.00000000000E+00 -0.00000000000E+00 -0.45593999997E+02  0.45594000000E+02  0.51100000000E-03 0.  1.
    9900012    2    1    2    0    0 -0.20792659756E+02 -0.38031844617E+02 -0.22062337433E+01  0.47787269914E+02  0.19999994845E+02 0.  0.
        -12    1    1    2    0    0  0.20792659756E+02  0.38031844617E+02  0.22062337433E+01  0.43400730086E+02  0.00000000000E+00 0.  1.
         11    1    3    3    0    0 -0.86542563403E+01 -0.78032794767E+01 -0.18426069686E+01  0.11797564329E+02  0.51100000000E-03 0. -1.
        -11    1    3    3    0    0 -0.96506488877E+01 -0.29978326959E+02  0.31791673212E+01  0.31653470842E+02  0.51100000000E-03 0.  1.
        -12    1    3    3    0    0 -0.24877545280E+01 -0.25023818106E+00 -0.35427940959E+01  0.43362347428E+01  0.00000000000E+00 0.  1.
</event>
<event>
 7    1  0.1457722E-010  0.4778727E+02  0.7816164E-02  0.1312668E+00
        -11   -1    0    0    0    0  0.00000000000E+00  0.00000000000E+00  0.45593999997E+02  0.45594000000E+02  0.51100000000E-03 0. -1.
         11   -1    0    0    0    0 -0.00000000000E+00 -0.00000000000E+00 -0.45593999997E+02  0.45594000000E+02  0.51100000000E-03 0.  1.
    9900012    2    1    2    0    0  0.15680012386E+02  0.38482963839E+02  0.12522860467E+02  0.47787270414E+02  0.19999997127E+02 0.  0.
        -12    1    1    2    0    0 -0.15680012386E+02 -0.38482963839E+02 -0.12522860467E+02  0.43400729586E+02  0.00000000000E+00 0.  1.
         11    1    3    3    0    0  0.18341433615E+01  0.95636688326E+01  0.10856768380E+01  0.97982925996E+01  0.51100000000E-03 0. -1.
        -11    1    3    3    0    0  0.61202684377E+01  0.54564782854E+01 -0.37238501822E+01  0.90054373281E+01  0.51100000000E-03 0.  1.
         12    1    3    3    0    0  0.77256005870E+01  0.23462816721E+02  0.15161033811E+02  0.28983540487E+02  0.00000000000E+00 0. -1.
</event>
<event>
 7    1  0.1457722E-010  0.4778727E+02  0.7816164E-02  0.1312668E+00
        -11   -1    0    0    0    0  0.00000000000E+00  0.00000000000E+00  0.45593999997E+02  0.45594000000E+02  0.51100000000E-03 0.  1.
         11   -1    0    0    0    0 -0.00000000000E+00 -0.00000000000E+00 -0.45593999997E+02  0.45594000000E+02  0.51100000000E-03 0. -1.
    9900012    2    1    2    0    0 -0.19528442725E+02  0.24960993180E+02 -0.29651512591E+02  0.47787268961E+02  0.19999990499E+02 0.  0.
        -12    1    1    2    0    0  0.19528442725E+02 -0.24960993180E+02  0.29651512591E+02  0.43400731039E+02  0.00000000000E+00 0.  1.
         11    1    3    3    0    0 -0.63502853920E+01  0.13625402201E+02 -0.19697091338E+02  0.24778077350E+02  0.51100000000E-03 0. -1.
        -11    1    3    3    0    0 -0.14967525837E+02  0.10811152833E+02 -0.10255069586E+02  0.21120471295E+02  0.51100000000E-03 0.  1.
        -12    1    3    3    0    0  0.17893685039E+01  0.52443814574E+00  0.30064833237E+00  0.18887203158E+01  0.00000000000E+00 0.  1.
</event>
<event>
 7    1  0.1457722E-010  0.4778727E+02  0.7816164E-02  0.1312668E+00
        -11   -1    0    0    0    0  0.00000000000E+00  0.00000000000E+00  0.45593999997E+02  0.45594000000E+02  0.51100000000E-03 0.  1.
         11   -1    0    0    0    0 -0.00000000000E+00 -0.00000000000E+00 -0.45593999997E+02  0.45594000000E+02  0.51100000000E-03 0. -1.
    9900012    2    1    2    0    0  0.29212874062E+02 -0.92359239620E+01 -0.30739699568E+02  0.47787269224E+02  0.19999991698E+02 0.  0.
        -12    1    1    2    0    0 -0.29212874062E+02  0.92359239620E+01  0.30739699568E+02  0.43400730776E+02  0.00000000000E+00 0.  1.
         11    1    3    3    0    0  0.10957949391E+02  0.73491729831E+00 -0.21605705312E+02  0.24236816222E+02  0.51100000000E-03 0. -1.
        -11    1    3    3    0    0  0.66284077259E+01 -0.64098260154E+01 -0.59743331232E+01  0.10987006647E+02  0.51100000000E-03 0.  1.
         12    1    3    3    0    0  0.11626516944E+02 -0.35610152450E+01 -0.31596611336E+01  0.12563446355E+02  0.00000000000E+00 0. -1.
</event>
<event>
 7    1  0.1457722E-010  0.4778727E+02  0.7816164E-02  0.1312668E+00
        -11   -1    0    0    0    0  0.00000000000E+00  0.00000000000E+00  0.45593999997E+02  0.45594000000E+02  0.51100000000E-03 0.  1.
         11   -1    0    0    0    0 -0.00000000000E+00 -0.00000000000E+00 -0.45593999997E+02  0.45594000000E+02  0.51100000000E-03 0. -1.
    9900012    2    1    2    0    0 -0.32817536873E+02 -0.14965171535E+02 -0.24138696984E+02  0.47787265241E+02  0.19999973540E+02 0.  0.
        -12    1    1    2    0    0  0.32817536873E+02  0.14965171535E+02  0.24138696984E+02  0.43400734759E+02  0.00000000000E+00 0.  1.
         11    1    3    3    0    0 -0.20130070087E+02 -0.47146442189E+01 -0.17749474337E+02  0.27248695957E+02  0.51100000000E-03 0. -1.
        -11    1    3    3    0    0 -0.95644404085E+01 -0.44261519148E+01 -0.85653658351E+01  0.13580678674E+02  0.51100000000E-03 0.  1.
        -12    1    3    3    0    0 -0.31230263774E+01 -0.58243754015E+01  0.21761431878E+01  0.69578906103E+01  0.00000000000E+00 0.  1.
</event>
<event>
 7    1  0.1457722E-010  0.4778727E+02  0.7816164E-02  0.1312668E+00
        -11   -1    0    0    0    0  0.00000000000E+00  0.00000000000E+00  0.45593999997E+02  0.45594000000E+02  0.51100000000E-03 0. -1.
         11   -1    0    0    0    0 -0.00000000000E+00 -0.00000000000E+00 -0.45593999997E+02  0.45594000000E+02  0.51100000000E-03 0.  1.
    9900012    2    1    2    0    0 -0.18702134897E+02 -0.15659119607E+02  0.35897709476E+02  0.47787269336E+02  0.19999992209E+02 0.  0.
        -12    1    1    2    0    0  0.18702134897E+02  0.15659119607E+02 -0.35897709476E+02  0.43400730664E+02  0.00000000000E+00 0.  1.
         11    1    3    3    0    0 -0.83822610515E+01 -0.23164747245E+01  0.18357944085E+02  0.20313602998E+02  0.51100000000E-03 0. -1.
        -11    1    3    3    0    0  0.32435951141E+00 -0.95259594936E+01  0.57205033316E+01  0.11116351559E+02  0.51100000000E-03 0.  1.
         12    1    3    3    0    0 -0.10644233357E+02 -0.38166853888E+01  0.11819262060E+02  0.16357314778E+02  0.00000000000E+00 0. -1.
</event>
<event>
 7    1  0.1457722E-010  0.4778727E+02  0.7816164E-02  0.1312668E+00
        -11   -1    0    0    0    0  0.00000000000E+00  0.00000000000E+00  0.45593999997E+02  0.45594000000E+02  0.51100000000E-03 0.  1.
         11   -1    0    0    0    0 -0.00000000000E+00 -0.00000000000E+00 -0.45593999997E+02  0.45594000000E+02  0.51100000000E-03 0. -1.
    9900012    2    1    2    0    0 -0.29689708657E+02  0.31394211805E+02 -0.40678822958E+01  0.47787274184E+02  0.20000014315E+02 0.  0.
        -12    1    1    2    0    0  0.29689708657E+02 -0.31394211805E+02  0.40678822958E+01  0.43400725816E+02  0.00000000000E+00 0.  1.
         11    1    3    3    0    0 -0.17561874158E+02  0.23963648897E+02  0.13122532004E+01  0.29738828173E+02  0.51100000000E-03 0. -1.
        -11    1    3    3    0    0  0.14583098767E+01 -0.24898775385E+00 -0.11644600110E+01  0.18827187725E+01  0.51100000000E-03 0.  1.
         12    1    3    3    0    0 -0.13586144375E+02  0.76795506620E+01 -0.42156754852E+01  0.16165727239E+02  0.00000000000E+00 0. -1.
</event>
<event>
 7    1  0.1457722E-010  0.4778727E+02  0.7816164E-02  0.1312668E+00
        -11   -1    0    0    0    0  0.00000000000E+00  0.00000000000E+00  0.45593999997E+02  0.45594000000E+02  0.51100000000E-03 0. -1.
         11   -1    0    0    0    0 -0.00000000000E+00 -0.00000000000E+00 -0.45593999997E+02  0.45594000000E+02  0.51100000000E-03 0.  1.
    9900012    2    1    2    0    0  0.15923363725E+02  0.35984000878E+02  0.18309054442E+02  0.47787270674E+02  0.19999998310E+02 0.  0.
        -12    1    1    2    0    0 -0.15923363725E+02 -0.35984000878E+02 -0.18309054442E+02  0.43400729326E+02  0.00000000000E+00 0.  1.
         11    1    3    3    0    0 -0.26684859264E+01  0.24408616887E+01  0.22337107932E+01  0.42506572541E+01  0.51100000000E-03 0. -1.
        -11    1    3    3    0    0  0.11279228432E+02  0.16174816640E+02  0.16191816840E+01  0.19785536054E+02  0.51100000000E-03 0.  1.
         12    1    3    3    0    0  0.73126212199E+01  0.17368322549E+02  0.14456161965E+02  0.23751077366E+02  0.00000000000E+00 0. -1.
</event>
<event>
 7    1  0.1457722E-010  0.4778727E+02  0.7816164E-02  0.1312668E+00
        -11   -1    0    0    0    0  0.00000000000E+00  0.00000000000E+00  0.45593999997E+02  0.45594000000E+02  0.51100000000E-03 0.  1.
         11   -1    0    0    0    0 -0.00000000000E+00 -0.00000000000E+00 -0.45593999997E+02  0.45594000000E+02  0.51100000000E-03 0. -1.
    9900012    2    1    2    0    0  0.56583661784E+00 -0.34675712984E+02 -0.26094022168E+02  0.47787271493E+02  0.20000002043E+02 0.  0.
        -12    1    1    2    0    0 -0.56583661784E+00  0.34675712984E+02  0.26094022168E+02  0.43400728507E+02  0.00000000000E+00 0.  1.
         11    1    3    3    0    0 -0.16270554655E+01 -0.10671173885E+02 -0.44270943178E+01  0.11667065866E+02  0.51100000000E-03 0. -1.
        -11    1    3    3    0    0 -0.52633876580E+01 -0.15583740068E+02 -0.76276363510E+01  0.18131106990E+02  0.51100000000E-03 0.  1.
         12    1    3    3    0    0  0.74562797413E+01 -0.84207990319E+01 -0.14039291500E+02  0.17989098636E+02  0.00000000000E+00 0. -1.
</event>
<event>
 7    1  0.1457722E-010  0.4778727E+02  0.7816164E-02  0.1312668E+00
        -11   -1    0    0    0    0  0.00000000000E+00  0.00000000000E+00  0.45593999997E+02  0.45594000000E+02  0.51100000000E-03 0. -1.
         11   -1    0    0    0    0 -0.00000000000E+00 -0.00000000000E+00 -0.45593999997E+02  0.45594000000E+02  0.51100000000E-03 0.  1.
    9900012    2    1    2    0    0 -0.16843548641E+02  0.77053557727E+01  0.39249787623E+02  0.47787268821E+02  0.19999989864E+02 0.  0.
        -12    1    1    2    0    0  0.16843548641E+02 -0.77053557727E+01 -0.39249787623E+02  0.43400731179E+02  0.00000000000E+00 0.  1.
         11    1    3    3    0    0 -0.63052807406E+01  0.56647671506E+01  0.28534111120E+02  0.29766451750E+02  0.51100000000E-03 0. -1.
        -11    1    3    3    0    0 -0.10824033518E+02  0.65837293047E+00  0.11956434501E+02  0.16141545240E+02  0.51100000000E-03 0.  1.
         12    1    3    3    0    0  0.28576561727E+00  0.13822156917E+01 -0.12407579981E+01  0.18792718314E+01  0.00000000000E+00 0. -1.
</event>
<event>
 7    1  0.1457722E-010  0.4778727E+02  0.7816164E-02  0.1312668E+00
        -11   -1    0    0    0    0  0.00000000000E+00  0.00000000000E+00  0.45593999997E+02  0.45594000000E+02  0.51100000000E-03 0. -1.
         11   -1    0    0    0    0 -0.00000000000E+00 -0.00000000000E+00 -0.45593999997E+02  0.45594000000E+02  0.51100000000E-03 0.  1.
    9900012    2    1    2    0    0  0.37878761158E+02  0.56809882491E+01  0.20409540838E+02  0.47787268076E+02  0.19999986467E+02 0.  0.
        -12    1    1    2    0    0 -0.37878761158E+02 -0.56809882491E+01 -0.20409540838E+02  0.43400731924E+02  0.00000000000E+00 0.  1.
         11    1    3    3    0    0  0.28496557133E+01 -0.10286934868E+01  0.31930690531E+01  0.44016404003E+01  0.51100000000E-03 0.  1.
        -11    1    3    3    0    0  0.42421283954E+01 -0.53839483343E+00 -0.35425770193E+01  0.55529608786E+01  0.51100000000E-03 0. -1.
         12    1    3    3    0    0  0.30786977049E+02  0.72480765694E+01  0.20759048804E+02  0.37832666797E+02  0.00000000000E+00 0. -1.
</event>
<event>
 7    1  0.1457722E-010  0.4778727E+02  0.7816164E-02  0.1312668E+00
        -11   -1    0    0    0    0  0.00000000000E+00  0.00000000000E+00  0.45593999997E+02  0.45594000000E+02  0.51100000000E-03 0. -1.
         11   -1    0    0    0    0 -0.00000000000E+00 -0.00000000000E+00 -0.45593999997E+02  0.45594000000E+02  0.51100000000E-03 0.  1.
    9900012    2    1    2    0    0  0.29710312842E+02 -0.10374181998E+02  0.29888070675E+02  0.47787272933E+02  0.20000008609E+02 0.  0.
        -12    1    1    2    0    0 -0.29710312842E+02  0.10374181998E+02 -0.29888070675E+02  0.43400727067E+02  0.00000000000E+00 0.  1.
         11    1    3    3    0    0  0.41441751988E+01 -0.14105018771E+01  0.82605221580E+00  0.44548923834E+01  0.51100000000E-03 0.  1.
        -11    1    3    3    0    0  0.79589389963E+00 -0.21326381140E+01 -0.19930212838E+01  0.30255126051E+01  0.51100000000E-03 0. -1.
         12    1    3    3    0    0  0.24770243744E+02 -0.68310420067E+01  0.31055039743E+02  0.40306867944E+02  0.00000000000E+00 0. -1.
</event>
<event>
 7    1  0.1457722E-010  0.4778727E+02  0.7816164E-02  0.1312668E+00
        -11   -1    0    0    0    0  0.00000000000E+00  0.00000000000E+00  0.45593999997E+02  0.45594000000E+02  0.51100000000E-03 0. -1.
         11   -1    0    0    0    0 -0.00000000000E+00 -0.00000000000E+00 -0.45593999997E+02  0.45594000000E+02  0.51100000000E-03 0.  1.
    9900012    2    1    2    0    0  0.31752949826E+02 -0.29478693551E+02 -0.25258678811E+01  0.47787271842E+02  0.20000003635E+02 0.  0.
        -12    1    1    2    0    0 -0.31752949826E+02  0.29478693551E+02  0.25258678811E+01  0.43400728158E+02  0.00000000000E+00 0.  1.
         11    1    3    3    0    0  0.86245583613E+01 -0.11443670775E+02 -0.12478306148E+01  0.14383938586E+02  0.51100000000E-03 0. -1.
        -11    1    3    3    0    0  0.20664957286E+02 -0.72863523878E+01  0.17094183367E+01  0.21978478156E+02  0.51100000000E-03 0.  1.
        -12    1    3    3    0    0  0.24634341785E+01 -0.10748670388E+02 -0.29874556030E+01  0.11424855099E+02  0.00000000000E+00 0.  1.
</event>
<event>
 7    1  0.1457722E-010  0.4778727E+02  0.7816164E-02  0.1312668E+00
        -11   -1    0    0    0    0  0.00000000000E+00  0.00000000000E+00  0.45593999997E+02  0.45594000000E+02  0.51100000000E-03 0. -1.
         11   -1    0    0    0    0 -0.00000000000E+00 -0.00000000000E+00 -0.45593999997E+02  0.45594000000E+02  0.51100000000E-03 0.  1.
    9900012    2    1    2    0    0 -0.16439672326E+02  0.34911906957E+02  0.19862509207E+02  0.47787270219E+02  0.19999996234E+02 0.  0.
        -12    1    1    2    0    0  0.16439672326E+02 -0.34911906957E+02 -0.19862509207E+02  0.43400729781E+02  0.00000000000E+00 0.  1.
         11    1    3    3    0    0 -0.49930507127E+00  0.18670145571E+02  0.12518436927E+02  0.22484103374E+02  0.51100000000E-03 0. -1.
        -11    1    3    3    0    0 -0.77731882741E+01  0.12554463659E+02  0.20839445759E+01  0.14912405540E+02  0.51100000000E-03 0.  1.
        -12    1    3    3    0    0 -0.81671789807E+01  0.36872977271E+01  0.52601277035E+01  0.10390761305E+02  0.00000000000E+00 0.  1.
</event>
<event>
 7    1  0.1457722E-010  0.4778727E+02  0.7816164E-02  0.1312668E+00
        -11   -1    0    0    0    0  0.00000000000E+00  0.00000000000E+00  0.45593999997E+02  0.45594000000E+02  0.51100000000E-03 0.  1.
         11   -1    0    0    0    0 -0.00000000000E+00 -0.00000000000E+00 -0.45593999997E+02  0.45594000000E+02  0.51100000000E-03 0. -1.
    9900012    2    1    2    0    0 -0.24436587064E+02  0.38672309874E+01 -0.35658394946E+02  0.47787269672E+02  0.19999993744E+02 0.  0.
        -12    1    1    2    0    0  0.24436587064E+02 -0.38672309874E+01  0.35658394946E+02  0.43400730328E+02  0.00000000000E+00 0.  1.
         11    1    3    3    0    0 -0.19965676586E+02 -0.83585482229E-01 -0.16041673040E+02  0.25611921096E+02  0.51100000000E-03 0.  1.
        -11    1    3    3    0    0  0.30320245286E+00 -0.23023181789E+01 -0.62205053605E+01  0.66398258957E+01  0.51100000000E-03 0. -1.
        -12    1    3    3    0    0 -0.47741129311E+01  0.62531346485E+01 -0.13396216546E+02  0.15535522680E+02  0.00000000000E+00 0.  1.
</event>
<event>
 7    1  0.1457722E-010  0.4778727E+02  0.7816164E-02  0.1312668E+00
        -11   -1    0    0    0    0  0.00000000000E+00  0.00000000000E+00  0.45593999997E+02  0.45594000000E+02  0.51100000000E-03 0. -1.
         11   -1    0    0    0    0 -0.00000000000E+00 -0.00000000000E+00 -0.45593999997E+02  0.45594000000E+02  0.51100000000E-03 0.  1.
    9900012    2    1    2    0    0  0.62492418929E+00  0.39164560141E+02  0.18691432390E+02  0.47787274821E+02  0.20000017218E+02 0.  0.
        -12    1    1    2    0    0 -0.62492418929E+00 -0.39164560141E+02 -0.18691432390E+02  0.43400725179E+02  0.00000000000E+00 0.  1.
         11    1    3    3    0    0  0.12116183223E+00  0.12004367329E+02 -0.14814198008E+01  0.12096037370E+02  0.51100000000E-03 0. -1.
        -11    1    3    3    0    0 -0.52182819248E+01  0.14814493538E+02  0.12470448183E+02  0.20055217854E+02  0.51100000000E-03 0.  1.
         12    1    3    3    0    0  0.57220442818E+01  0.12345699274E+02  0.77024040082E+01  0.15636019597E+02  0.00000000000E+00 0. -1.
</event>
<event>
 7    1  0.1457722E-010  0.4778727E+02  0.7816164E-02  0.1312668E+00
        -11   -1    0    0    0    0  0.00000000000E+00  0.00000000000E+00  0.45593999997E+02  0.45594000000E+02  0.51100000000E-03 0.  1.
         11   -1    0    0    0    0 -0.00000000000E+00 -0.00000000000E+00 -0.45593999997E+02  0.45594000000E+02  0.51100000000E-03 0. -1.
    9900012    2    1    2    0    0  0.22414199550E+02 -0.16964581782E+02 -0.33067056972E+02  0.47787266903E+02  0.19999981120E+02 0.  0.
        -12    1    1    2    0    0 -0.22414199550E+02  0.16964581782E+02  0.33067056972E+02  0.43400733097E+02  0.00000000000E+00 0.  1.
         11    1    3    3    0    0  0.13557079908E+01 -0.58240035919E+01 -0.61581844228E+01  0.85837170061E+01  0.51100000000E-03 0. -1.
        -11    1    3    3    0    0  0.15246461261E+02 -0.14403303613E+02 -0.24159330984E+02  0.31993483865E+02  0.51100000000E-03 0.  1.
        -12    1    3    3    0    0  0.58120302984E+01  0.32627254226E+01 -0.27495415649E+01  0.72100660323E+01  0.00000000000E+00 0.  1.
</event>
<event>
 7    1  0.1457722E-010  0.4778727E+02  0.7816164E-02  0.1312668E+00
        -11   -1    0    0    0    0  0.00000000000E+00  0.00000000000E+00  0.45593999997E+02  0.45594000000E+02  0.51100000000E-03 0.  1.
         11   -1    0    0    0    0 -0.00000000000E+00 -0.00000000000E+00 -0.45593999997E+02  0.45594000000E+02  0.51100000000E-03 0. -1.
    9900012    2    1    2    0    0  0.12088616465E+02 -0.24166233599E+02 -0.33962947863E+02  0.47787270491E+02  0.19999997476E+02 0.  0.
        -12    1    1    2    0    0 -0.12088616465E+02  0.24166233599E+02  0.33962947863E+02  0.43400729509E+02  0.00000000000E+00 0.  1.
         11    1    3    3    0    0  0.93382731970E+01 -0.56609968142E+01 -0.11876201924E+02  0.16133641983E+02  0.51100000000E-03 0. -1.
        -11    1    3    3    0    0 -0.15720014064E+01 -0.19850145432E+01  0.11794750647E+01  0.27933193244E+01  0.51100000000E-03 0.  1.
         12    1    3    3    0    0  0.43223446749E+01 -0.16520222241E+02 -0.23266221003E+02  0.28860309183E+02  0.00000000000E+00 0. -1.
</event>
<event>
 7    1  0.1457722E-010  0.4778727E+02  0.7816164E-02  0.1312668E+00
        -11   -1    0    0    0    0  0.00000000000E+00  0.00000000000E+00  0.45593999997E+02  0.45594000000E+02  0.51100000000E-03 0.  1.
         11   -1    0    0    0    0 -0.00000000000E+00 -0.00000000000E+00 -0.45593999997E+02  0.45594000000E+02  0.51100000000E-03 0. -1.
    9900012    2    1    2    0    0  0.26255232550E+02 -0.63440548136E+01 -0.33971150324E+02  0.47787270490E+02  0.19999997470E+02 0.  0.
        -12    1    1    2    0    0 -0.26255232550E+02  0.63440548136E+01  0.33971150324E+02  0.43400729510E+02  0.00000000000E+00 0.  1.
         11    1    3    3    0    0  0.14283757392E+02 -0.51037203985E+01 -0.20159388917E+02  0.25228449197E+02  0.51100000000E-03 0. -1.
        -11    1    3    3    0    0  0.84576793714E+01 -0.10462962880E+01 -0.22650500486E+00  0.85251616436E+01  0.51100000000E-03 0.  1.
         12    1    3    3    0    0  0.35137957864E+01 -0.19403812699E+00 -0.13585256402E+02  0.14033659649E+02  0.00000000000E+00 0. -1.
</event>
<event>
 7    1  0.1457722E-010  0.4778727E+02  0.7816164E-02  0.1312668E+00
        -11   -1    0    0    0    0  0.00000000000E+00  0.00000000000E+00  0.45593999997E+02  0.45594000000E+02  0.51100000000E-03 0.  1.
         11   -1    0    0    0    0 -0.00000000000E+00 -0.00000000000E+00 -0.45593999997E+02  0.45594000000E+02  0.51100000000E-03 0. -1.
    9900012    2    1    2    0    0  0.41984844957E+02  0.74283438045E+01 -0.81065269643E+01  0.47787271007E+02  0.19999999827E+02 0.  0.
        -12    1    1    2    0    0 -0.41984844957E+02 -0.74283438045E+01  0.81065269643E+01  0.43400728993E+02  0.00000000000E+00 0.  1.
         11    1    3    3    0    0  0.35727377681E+02  0.81066711452E+01 -0.13278816682E+02  0.38967814999E+02  0.51100000000E-03 0. -1.
        -11    1    3    3    0    0  0.50408889563E+01 -0.11895917261E+00  0.20888743825E+01  0.54578484040E+01  0.51100000000E-03 0.  1.
         12    1    3    3    0    0  0.12165783194E+01 -0.55936816802E+00  0.30834153350E+01  0.33616076040E+01  0.00000000000E+00 0. -1.
</event>
<event>
 7    1  0.1457722E-010  0.4778725E+02  0.7816164E-02  0.1312668E+00
        -11   -1    0    0    0    0  0.00000000000E+00  0.00000000000E+00  0.45593999997E+02  0.45594000000E+02  0.51100000000E-03 0. -1.
         11   -1    0    0    0    0 -0.00000000000E+00 -0.00000000000E+00 -0.45593999997E+02  0.45594000000E+02  0.51100000000E-03 0.  1.
    9900012    2    1    2    0    0 -0.59295914570E+00  0.15758384218E+02  0.40434479521E+02  0.47787246460E+02  0.19999887911E+02 0.  0.
        -12    1    1    2    0    0  0.59295914570E+00 -0.15758384218E+02 -0.40434479521E+02  0.43400753540E+02  0.00000000000E+00 0.  1.
         11    1    3    3    0    0  0.27301693936E+01  0.56393021691E+00  0.16880458556E+01  0.32590399321E+01  0.51100000000E-03 0. -1.
        -11    1    3    3    0    0 -0.41558249297E+01  0.34630531070E+01  0.28253882415E+02  0.28767090389E+02  0.51100000000E-03 0.  1.
        -12    1    3    3    0    0  0.83269639042E+00  0.11731400894E+02  0.10492551251E+02  0.15761116140E+02  0.00000000000E+00 0.  1.
</event>
<event>
 7    1  0.1457722E-010  0.4778727E+02  0.7816164E-02  0.1312668E+00
        -11   -1    0    0    0    0  0.00000000000E+00  0.00000000000E+00  0.45593999997E+02  0.45594000000E+02  0.51100000000E-03 0. -1.
         11   -1    0    0    0    0 -0.00000000000E+00 -0.00000000000E+00 -0.45593999997E+02  0.45594000000E+02  0.51100000000E-03 0.  1.
    9900012    2    1    2    0    0 -0.14829675934E+02  0.24206792096E+02  0.32828877415E+02  0.47787271155E+02  0.20000000506E+02 0.  0.
        -12    1    1    2    0    0  0.14829675934E+02 -0.24206792096E+02 -0.32828877415E+02  0.43400728845E+02  0.00000000000E+00 0.  1.
         11    1    3    3    0    0  0.37942254220E+01  0.28201944725E+01  0.62756845526E+00  0.47690130890E+01  0.51100000000E-03 0.  1.
        -11    1    3    3    0    0 -0.71308139571E+01  0.65352161998E+01  0.95175079843E+01  0.13569838502E+02  0.51100000000E-03 0. -1.
        -12    1    3    3    0    0 -0.11493087399E+02  0.14851381424E+02  0.22683800976E+02  0.29448419565E+02  0.00000000000E+00 0.  1.
</event>
<event>
 7    1  0.1457722E-010  0.4778726E+02  0.7816164E-02  0.1312668E+00
        -11   -1    0    0    0    0  0.00000000000E+00  0.00000000000E+00  0.45593999997E+02  0.45594000000E+02  0.51100000000E-03 0.  1.
         11   -1    0    0    0    0 -0.00000000000E+00 -0.00000000000E+00 -0.45593999997E+02  0.45594000000E+02  0.51100000000E-03 0. -1.
    9900012    2    1    2    0    0 -0.40572219614E+02  0.13001129031E+01 -0.15356719494E+02  0.47787261163E+02  0.19999954949E+02 0.  0.
        -12    1    1    2    0    0  0.40572219614E+02 -0.13001129031E+01  0.15356719494E+02  0.43400738837E+02  0.00000000000E+00 0.  1.
         11    1    3    3    0    0 -0.91617619974E+00 -0.31867865939E+00  0.26210399842E+01  0.27947783054E+01  0.51100000000E-03 0. -1.
        -11    1    3    3    0    0 -0.16840096139E+02  0.58378041479E+01 -0.10116356421E+02  0.20494132398E+02  0.51100000000E-03 0.  1.
         12    1    3    3    0    0 -0.22815947275E+02 -0.42190125855E+01 -0.78614030572E+01  0.24498350460E+02  0.00000000000E+00 0. -1.
</event>
<event>
 7    1  0.1457722E-010  0.4778727E+02  0.7816164E-02  0.1312668E+00
        -11   -1    0    0    0    0  0.00000000000E+00  0.00000000000E+00  0.45593999997E+02  0.45594000000E+02  0.51100000000E-03 0.  1.
         11   -1    0    0    0    0 -0.00000000000E+00 -0.00000000000E+00 -0.45593999997E+02  0.45594000000E+02  0.51100000000E-03 0. -1.
    9900012    2    1    2    0    0  0.19527253718E+02  0.13479475220E+02 -0.36340244308E+02  0.47787271361E+02  0.20000001445E+02 0.  0.
        -12    1    1    2    0    0 -0.19527253718E+02 -0.13479475220E+02  0.36340244308E+02  0.43400728639E+02  0.00000000000E+00 0.  1.
         11    1    3    3    0    0  0.14734686962E+02  0.74640905743E+01 -0.26113976692E+02  0.30899246381E+02  0.51100000000E-03 0. -1.
        -11    1    3    3    0    0  0.56210354022E+01  0.14631402107E+00 -0.69729778110E+00  0.56660101697E+01  0.51100000000E-03 0.  1.
         12    1    3    3    0    0 -0.82846864660E+00  0.58690706244E+01 -0.95289698357E+01  0.11222014811E+02  0.00000000000E+00 0. -1.
</event>
<event>
 7    1  0.1457722E-010  0.4778727E+02  0.7816164E-02  0.1312668E+00
        -11   -1    0    0    0    0  0.00000000000E+00  0.00000000000E+00  0.45593999997E+02  0.45594000000E+02  0.51100000000E-03 0.  1.
         11   -1    0    0    0    0 -0.00000000000E+00 -0.00000000000E+00 -0.45593999997E+02  0.45594000000E+02  0.51100000000E-03 0. -1.
    9900012    2    1    2    0    0 -0.91328388676E+01 -0.10849418134E+02 -0.41018349221E+02  0.47787267375E+02  0.19999983268E+02 0.  0.
        -12    1    1    2    0    0  0.91328388676E+01  0.10849418134E+02  0.41018349221E+02  0.43400732625E+02  0.00000000000E+00 0.  1.
         11    1    3    3    0    0 -0.39680038994E+01  0.17917534104E+01 -0.10193054723E+02  0.11083943345E+02  0.51100000000E-03 0. -1.
        -11    1    3    3    0    0 -0.57746493349E+01  0.73906558353E+00 -0.14245539800E+02  0.15389223415E+02  0.51100000000E-03 0.  1.
        -12    1    3    3    0    0  0.60981436666E+00 -0.13380237128E+02 -0.16579754699E+02  0.21314100615E+02  0.00000000000E+00 0.  1.
</event>
<event>
 7    1  0.1457722E-010  0.4778727E+02  0.7816164E-02  0.1312668E+00
        -11   -1    0    0    0    0  0.00000000000E+00  0.00000000000E+00  0.45593999997E+02  0.45594000000E+02  0.51100000000E-03 0. -1.
         11   -1    0    0    0    0 -0.00000000000E+00 -0.00000000000E+00 -0.45593999997E+02  0.45594000000E+02  0.51100000000E-03 0.  1.
    9900012    2    1    2    0    0 -0.17388204969E+02  0.12719692455E+02  0.37676025204E+02  0.47787272778E+02  0.20000007906E+02 0.  0.
        -12    1    1    2    0    0  0.17388204969E+02 -0.12719692455E+02 -0.37676025204E+02  0.43400727222E+02  0.00000000000E+00 0.  1.
         11    1    3    3    0    0 -0.10151693415E+02  0.68272757385E+01  0.20175734701E+02  0.23595102123E+02  0.51100000000E-03 0. -1.
        -11    1    3    3    0    0 -0.47488899370E+01  0.83361264950E+01  0.42542902187E+01  0.10494853315E+02  0.51100000000E-03 0.  1.
        -12    1    3    3    0    0 -0.24876216167E+01 -0.24437097788E+01  0.13246000284E+02  0.13697317340E+02  0.00000000000E+00 0.  1.
</event>
<event>
 7    1  0.1457722E-010  0.4778727E+02  0.7816164E-02  0.1312668E+00
        -11   -1    0    0    0    0  0.00000000000E+00  0.00000000000E+00  0.45593999997E+02  0.45594000000E+02  0.51100000000E-03 0. -1.
         11   -1    0    0    0    0 -0.00000000000E+00 -0.00000000000E+00 -0.45593999997E+02  0.45594000000E+02  0.51100000000E-03 0.  1.
    9900012    2    1    2    0    0 -0.10377611916E+02 -0.33852358312E+02  0.25098729387E+02  0.47787271790E+02  0.20000003398E+02 0.  0.
        -12    1    1    2    0    0  0.10377611916E+02  0.33852358312E+02 -0.25098729387E+02  0.43400728210E+02  0.00000000000E+00 0.  1.
         11    1    3    3    0    0  0.13632175463E+01  0.50283214714E+00 -0.16108033076E+01  0.21693062955E+01  0.51100000000E-03 0. -1.
        -11    1    3    3    0    0 -0.28663505735E+01 -0.73443632294E+01  0.96506522126E+01  0.12461569935E+02  0.51100000000E-03 0.  1.
         12    1    3    3    0    0 -0.88744788891E+01 -0.27010827229E+02  0.17058880482E+02  0.33156395559E+02  0.00000000000E+00 0. -1.
</event>
<event>
 7    1  0.1457722E-010  0.4778727E+02  0.7816164E-02  0.1312668E+00
        -11   -1    0    0    0    0  0.00000000000E+00  0.00000000000E+00  0.45593999997E+02  0.45594000000E+02  0.51100000000E-03 0. -1.
         11   -1    0    0    0    0 -0.00000000000E+00 -0.00000000000E+00 -0.45593999997E+02  0.45594000000E+02  0.51100000000E-03 0.  1.
    9900012    2    1    2    0    0 -0.33258116818E+02  0.91581766294E+01  0.26337214332E+02  0.47787269681E+02  0.19999993783E+02 0.  0.
        -12    1    1    2    0    0  0.33258116818E+02 -0.91581766294E+01 -0.26337214332E+02  0.43400730319E+02  0.00000000000E+00 0.  1.
         11    1    3    3    0    0 -0.54171495160E+01  0.43874634932E+01  0.74089050242E+01  0.10172866789E+02  0.51100000000E-03 0. -1.
        -11    1    3    3    0    0 -0.19327216095E+02 -0.44376825003E+01  0.99177094839E+01  0.22171947809E+02  0.51100000000E-03 0.  1.
        -12    1    3    3    0    0 -0.85137512068E+01  0.92083956365E+01  0.90105998239E+01  0.15442455083E+02  0.00000000000E+00 0.  1.
</event>
<event>
 7    1  0.1457722E-010  0.4778727E+02  0.7816164E-02  0.1312668E+00
        -11   -1    0    0    0    0  0.00000000000E+00  0.00000000000E+00  0.45593999997E+02  0.45594000000E+02  0.51100000000E-03 0.  1.
         11   -1    0    0    0    0 -0.00000000000E+00 -0.00000000000E+00 -0.45593999997E+02  0.45594000000E+02  0.51100000000E-03 0. -1.
    9900012    2    1    2    0    0  0.14590772415E+02  0.36665721712E+02 -0.18065367080E+02  0.47787271019E+02  0.19999999884E+02 0.  0.
        -12    1    1    2    0    0 -0.14590772415E+02 -0.36665721712E+02  0.18065367080E+02  0.43400728981E+02  0.00000000000E+00 0.  1.
         11    1    3    3    0    0 -0.36911465754E+01  0.73138951818E+01 -0.85097524177E+01  0.11812430412E+02  0.51100000000E-03 0. -1.
        -11    1    3    3    0    0  0.27410573224E+01  0.31557096027E+01 -0.57416655579E+00  0.42191901872E+01  0.51100000000E-03 0.  1.
         12    1    3    3    0    0  0.15540861668E+02  0.26196116928E+02 -0.89814481062E+01  0.31755650420E+02  0.00000000000E+00 0. -1.
</event>
<event>
 7    1  0.1457722E-010  0.4778727E+02  0.7816164E-02  0.1312668E+00
        -11   -1    0    0    0    0  0.00000000000E+00  0.00000000000E+00  0.45593999997E+02  0.45594000000E+02  0.51100000000E-03 0.  1.
         11   -1    0    0    0    0 -0.00000000000E+00 -0.00000000000E+00 -0.45593999997E+02  0.45594000000E+02  0.51100000000E-03 0. -1.
    9900012    2    1    2    0    0 -0.50385343344E+01 -0.20092102998E+02 -0.38138481366E+02  0.47787271988E+02  0.20000004300E+02 0.  0.
        -12    1    1    2    0    0  0.50385343344E+01  0.20092102998E+02  0.38138481366E+02  0.43400728012E+02  0.00000000000E+00 0.  1.
         11    1    3    3    0    0 -0.21547961344E+01 -0.11902354040E+02 -0.10834562960E+02  0.16238747885E+02  0.51100000000E-03 0. -1.
        -11    1    3    3    0    0 -0.64274326255E+01 -0.34331293920E+01 -0.60150231195E+01  0.94487444122E+01  0.51100000000E-03 0.  1.
        -12    1    3    3    0    0  0.35436944254E+01 -0.47566195667E+01 -0.21288895286E+02  0.22099779691E+02  0.00000000000E+00 0.  1.
</event>
<event>
 7    1  0.1457722E-010  0.4778726E+02  0.7816164E-02  0.1312668E+00
        -11   -1    0    0    0    0  0.00000000000E+00  0.00000000000E+00  0.45593999997E+02  0.45594000000E+02  0.51100000000E-03 0.  1.
         11   -1    0    0    0    0 -0.00000000000E+00 -0.00000000000E+00 -0.45593999997E+02  0.45594000000E+02  0.51100000000E-03 0. -1.
    9900012    2    1    2    0    0  0.21177903569E+02  0.27093211966E+02 -0.26477886142E+02  0.47787260504E+02  0.19999951943E+02 0.  0.
        -12    1    1    2    0    0 -0.21177903569E+02 -0.27093211966E+02  0.26477886142E+02  0.43400739496E+02  0.00000000000E+00 0.  1.
         11    1    3    3    0    0  0.13048910093E+02  0.96899574769E+01 -0.12706112070E+02  0.20630429340E+02  0.51100000000E-03 0. -1.
        -11    1    3    3    0    0  0.77651719031E+01  0.28990695347E+01 -0.21384431399E+01  0.85601073694E+01  0.51100000000E-03 0.  1.
        -12    1    3    3    0    0  0.36382157200E+00  0.14504184955E+02 -0.11633330932E+02  0.18596723795E+02  0.00000000000E+00 0.  1.
</event>
<event>
 7    1  0.1457722E-010  0.4778727E+02  0.7816164E-02  0.1312668E+00
        -11   -1    0    0    0    0  0.00000000000E+00  0.00000000000E+00  0.45593999997E+02  0.45594000000E+02  0.51100000000E-03 0. -1.
         11   -1    0    0    0    0 -0.00000000000E+00 -0.00000000000E+00 -0.45593999997E+02  0.45594000000E+02  0.51100000000E-03 0.  1.
    9900012    2    1    2    0    0 -0.37674934497E+02  0.17838160089E+01 -0.21471852119E+02  0.47787272791E+02  0.20000007962E+02 0.  0.
        -12    1    1    2    0    0  0.37674934497E+02 -0.17838160089E+01  0.21471852119E+02  0.43400727209E+02  0.00000000000E+00 0.  1.
         11    1    3    3    0    0 -0.22585868124E+02 -0.44641498023E+01 -0.51099027660E+01  0.23583069752E+02  0.51100000000E-03 0. -1.
        -11    1    3    3    0    0 -0.14346903490E+01  0.12710024052E+01 -0.61506145076E+01  0.64423475996E+01  0.51100000000E-03 0.  1.
        -12    1    3    3    0    0 -0.13654376024E+02  0.49769634060E+01 -0.10211334845E+02  0.17761855440E+02  0.00000000000E+00 0.  1.
</event>
<event>
 7    1  0.1457722E-010  0.4778728E+02  0.7816164E-02  0.1312668E+00
        -11   -1    0    0    0    0  0.00000000000E+00  0.00000000000E+00  0.45593999997E+02  0.45594000000E+02  0.51100000000E-03 0.  1.
         11   -1    0    0    0    0 -0.00000000000E+00 -0.00000000000E+00 -0.45593999997E+02  0.45594000000E+02  0.51100000000E-03 0. -1.
    9900012    2    1    2    0    0  0.33778734939E+01 -0.53579474814E+01 -0.42936059012E+02  0.47787276573E+02  0.20000025205E+02 0.  0.
        -12    1    1    2    0    0 -0.33778734939E+01  0.53579474814E+01  0.42936059012E+02  0.43400723427E+02  0.00000000000E+00 0.  1.
         11    1    3    3    0    0  0.92617754653E+01 -0.66451963909E+00 -0.13375563406E+02  0.16282744480E+02  0.51100000000E-03 0. -1.
        -11    1    3    3    0    0 -0.38180699445E+01 -0.50057997607E+01 -0.98928136774E+01  0.11726186595E+02  0.51100000000E-03 0.  1.
        -12    1    3    3    0    0 -0.20658320269E+01  0.31237191840E+00 -0.19667681928E+02  0.19778345497E+02  0.00000000000E+00 0.  1.
</event>
<event>
 7    1  0.1457722E-010  0.4778727E+02  0.7816164E-02  0.1312668E+00
        -11   -1    0    0    0    0  0.00000000000E+00  0.00000000000E+00  0.45593999997E+02  0.45594000000E+02  0.51100000000E-03 0.  1.
         11   -1    0    0    0    0 -0.00000000000E+00 -0.00000000000E+00 -0.45593999997E+02  0.45594000000E+02  0.51100000000E-03 0. -1.
    9900012    2    1    2    0    0 -0.95519365604E+01 -0.15348043618E+02 -0.39456572026E+02  0.47787274073E+02  0.20000013810E+02 0.  0.
        -12    1    1    2    0    0  0.95519365604E+01  0.15348043618E+02  0.39456572026E+02  0.43400725927E+02  0.00000000000E+00 0.  1.
         11    1    3    3    0    0  0.31441801591E+01 -0.12676511412E+01 -0.38182417591E+01  0.51060531412E+01  0.51100000000E-03 0. -1.
        -11    1    3    3    0    0 -0.14369507278E+02 -0.14654862249E+02 -0.35367424206E+02  0.40891348989E+02  0.51100000000E-03 0.  1.
         12    1    3    3    0    0  0.16733905582E+01  0.57446977180E+00 -0.27090606097E+00  0.17898719432E+01  0.00000000000E+00 0. -1.
</event>
<event>
 7    1  0.1457722E-010  0.4778727E+02  0.7816164E-02  0.1312668E+00
        -11   -1    0    0    0    0  0.00000000000E+00  0.00000000000E+00  0.45593999997E+02  0.45594000000E+02  0.51100000000E-03 0.  1.
         11   -1    0    0    0    0 -0.00000000000E+00 -0.00000000000E+00 -0.45593999997E+02  0.45594000000E+02  0.51100000000E-03 0. -1.
    9900012    2    1    2    0    0 -0.25476684830E+02  0.93652999566E+01 -0.33865214417E+02  0.47787273500E+02  0.20000011198E+02 0.  0.
        -12    1    1    2    0    0  0.25476684830E+02 -0.93652999566E+01  0.33865214417E+02  0.43400726500E+02  0.00000000000E+00 0.  1.
         11    1    3    3    0    0 -0.89992207387E+01  0.56212823286E+01 -0.20462543590E+01  0.10806106888E+02  0.51100000000E-03 0. -1.
        -11    1    3    3    0    0 -0.30447232920E+01  0.32846182470E+01 -0.13752900485E+02  0.14463793727E+02  0.51100000000E-03 0.  1.
        -12    1    3    3    0    0 -0.13432740799E+02  0.45939938093E+00 -0.18066059572E+02  0.22517372885E+02  0.00000000000E+00 0.  1.
</event>
<event>
 7    1  0.1457722E-010  0.4778727E+02  0.7816164E-02  0.1312668E+00
        -11   -1    0    0    0    0  0.00000000000E+00  0.00000000000E+00  0.45593999997E+02  0.45594000000E+02  0.51100000000E-03 0. -1.
         11   -1    0    0    0    0 -0.00000000000E+00 -0.00000000000E+00 -0.45593999997E+02  0.45594000000E+02  0.51100000000E-03 0.  1.
    9900012    2    1    2    0    0 -0.25102834061E+02 -0.23802149869E+02  0.26209324522E+02  0.47787270649E+02  0.19999998199E+02 0.  0.
        -12    1    1    2    0    0  0.25102834061E+02  0.23802149869E+02 -0.26209324522E+02  0.43400729351E+02  0.00000000000E+00 0.  1.
         11    1    3    3    0    0  0.12142206135E+01  0.12583567316E+01  0.71309370485E+00  0.18884639936E+01  0.51100000000E-03 0.  1.
        -11    1    3    3    0    0 -0.10471257687E+02 -0.17955510549E+02  0.13260982550E+02  0.24655653613E+02  0.51100000000E-03 0. -1.
         12    1    3    3    0    0 -0.15845796987E+02 -0.71049960515E+01  0.12235248267E+02  0.21243153043E+02  0.00000000000E+00 0. -1.
</event>
<event>
 7    1  0.1457722E-010  0.4778731E+02  0.7816164E-02  0.1312668E+00
        -11   -1    0    0    0    0  0.00000000000E+00  0.00000000000E+00  0.45593999997E+02  0.45594000000E+02  0.51100000000E-03 0. -1.
         11   -1    0    0    0    0 -0.00000000000E+00 -0.00000000000E+00 -0.45593999997E+02  0.45594000000E+02  0.51100000000E-03 0.  1.
    9900012    2    1    2    0    0  0.18553851890E+02  0.21285432504E+02  0.32959134721E+02  0.47787313158E+02  0.20000192011E+02 0.  0.
        -12    1    1    2    0    0 -0.18553851890E+02 -0.21285432504E+02 -0.32959134721E+02  0.43400686842E+02  0.00000000000E+00 0.  1.
         11    1    3    3    0    0  0.61027127474E+01  0.12903094761E+02  0.26535313238E+02  0.30130645632E+02  0.51100000000E-03 0. -1.
        -11    1    3    3    0    0  0.37677937897E+01  0.65667210818E+01  0.31673629924E+01  0.82067219031E+01  0.51100000000E-03 0.  1.
         12    1    3    3    0    0  0.86833453529E+01  0.18156166605E+01  0.32564584905E+01  0.94499456229E+01  0.00000000000E+00 0. -1.
</event>
<event>
 7    1  0.1457722E-010  0.4778727E+02  0.7816164E-02  0.1312668E+00
        -11   -1    0    0    0    0  0.00000000000E+00  0.00000000000E+00  0.45593999997E+02  0.45594000000E+02  0.51100000000E-03 0.  1.
         11   -1    0    0    0    0 -0.00000000000E+00 -0.00000000000E+00 -0.45593999997E+02  0.45594000000E+02  0.51100000000E-03 0. -1.
    9900012    2    1    2    0    0 -0.25137548916E+02  0.33607622514E+02  0.11056875096E+02  0.47787272548E+02  0.20000006853E+02 0.  0.
        -12    1    1    2    0    0  0.25137548916E+02 -0.33607622514E+02 -0.11056875096E+02  0.43400727452E+02  0.00000000000E+00 0.  1.
         11    1    3    3    0    0 -0.86906860259E+01  0.83850493300E+01 -0.29237100620E+01  0.12425182359E+02  0.51100000000E-03 0. -1.
        -11    1    3    3    0    0 -0.14908903805E+02  0.12476151662E+02  0.10328953146E+02  0.22014019313E+02  0.51100000000E-03 0.  1.
         12    1    3    3    0    0 -0.15379590852E+01  0.12746421521E+02  0.36516320123E+01  0.13348070876E+02  0.00000000000E+00 0. -1.
</event>
<event>
 7    1  0.1457722E-010  0.4778727E+02  0.7816164E-02  0.1312668E+00
        -11   -1    0    0    0    0  0.00000000000E+00  0.00000000000E+00  0.45593999997E+02  0.45594000000E+02  0.51100000000E-03 0.  1.
         11   -1    0    0    0    0 -0.00000000000E+00 -0.00000000000E+00 -0.45593999997E+02  0.45594000000E+02  0.51100000000E-03 0. -1.
    9900012    2    1    2    0    0  0.27214937500E+02 -0.17171132919E+02 -0.29122549191E+02  0.47787268437E+02  0.19999988111E+02 0.  0.
        -12    1    1    2    0    0 -0.27214937500E+02  0.17171132919E+02  0.29122549191E+02  0.43400731563E+02  0.00000000000E+00 0.  1.
         11    1    3    3    0    0  0.74258670622E+01 -0.39489240370E+01 -0.12607848121E+02  0.15155703123E+02  0.51100000000E-03 0. -1.
        -11    1    3    3    0    0  0.21458187387E+02 -0.99086273774E+01 -0.11212548020E+02  0.26160197549E+02  0.51100000000E-03 0.  1.
        -12    1    3    3    0    0 -0.16691169492E+01 -0.33135815043E+01 -0.53021530503E+01  0.64713677646E+01  0.00000000000E+00 0.  1.
</event>
<event>
 7    1  0.1457722E-010  0.4778727E+02  0.7816164E-02  0.1312668E+00
        -11   -1    0    0    0    0  0.00000000000E+00  0.00000000000E+00  0.45593999997E+02  0.45594000000E+02  0.51100000000E-03 0.  1.
         11   -1    0    0    0    0 -0.00000000000E+00 -0.00000000000E+00 -0.45593999997E+02  0.45594000000E+02  0.51100000000E-03 0. -1.
    9900012    2    1    2    0    0 -0.11111209210E+02 -0.75149163703E+01 -0.41275787714E+02  0.47787267407E+02  0.19999983417E+02 0.  0.
        -12    1    1    2    0    0  0.11111209210E+02  0.75149163703E+01  0.41275787714E+02  0.43400732593E+02  0.00000000000E+00 0.  1.
         11    1    3    3    0    0 -0.11991054339E+02  0.23302398419E+01 -0.19112791696E+02  0.22682905646E+02  0.51100000000E-03 0.  1.
        -11    1    3    3    0    0  0.24745793334E+01 -0.10382151461E+01 -0.35390599540E+01  0.44414388644E+01  0.51100000000E-03 0. -1.
         12    1    3    3    0    0 -0.15947342047E+01 -0.88069410661E+01 -0.18623936064E+02  0.20662922897E+02  0.00000000000E+00 0. -1.
</event>
<event>
 7    1  0.1457722E-010  0.4778727E+02  0.7816164E-02  0.1312668E+00
        -11   -1    0    0    0    0  0.00000000000E+00  0.00000000000E+00  0.45593999997E+02  0.45594000000E+02  0.51100000000E-03 0.  1.
         11   -1    0    0    0    0 -0.00000000000E+00 -0.00000000000E+00 -0.45593999997E+02  0.45594000000E+02  0.51100000000E-03 0. -1.
    9900012    2    1    2    0    0  0.20721115316E+01 -0.13926264210E+02 -0.41053485337E+02  0.47787272595E+02  0.20000007068E+02 0.  0.
        -12    1    1    2    0    0 -0.20721115316E+01  0.13926264210E+02  0.41053485337E+02  0.43400727405E+02  0.00000000000E+00 0.  1.
         11    1    3    3    0    0  0.40689536932E+01 -0.15537321254E+02 -0.35689722045E+02  0.39137207307E+02  0.51100000000E-03 0. -1.
        -11    1    3    3    0    0 -0.25981358763E+01  0.19728362611E+01 -0.65239693603E+01  0.72941462434E+01  0.51100000000E-03 0.  1.
        -12    1    3    3    0    0  0.60129371466E+00 -0.36177921740E+00  0.11602060685E+01  0.13559190443E+01  0.00000000000E+00 0.  1.
</event>
<event>
 7    1  0.1457722E-010  0.4778727E+02  0.7816164E-02  0.1312668E+00
        -11   -1    0    0    0    0  0.00000000000E+00  0.00000000000E+00  0.45593999997E+02  0.45594000000E+02  0.51100000000E-03 0.  1.
         11   -1    0    0    0    0 -0.00000000000E+00 -0.00000000000E+00 -0.45593999997E+02  0.45594000000E+02  0.51100000000E-03 0. -1.
    9900012    2    1    2    0    0  0.33388019524E+02  0.20390220972E+02 -0.18791018882E+02  0.47787270171E+02  0.19999996019E+02 0.  0.
        -12    1    1    2    0    0 -0.33388019524E+02 -0.20390220972E+02  0.18791018882E+02  0.43400729829E+02  0.00000000000E+00 0.  1.
         11    1    3    3    0    0  0.98484802700E+01  0.14039038502E+02 -0.11099405998E+02  0.20427529940E+02  0.51100000000E-03 0. -1.
        -11    1    3    3    0    0  0.20575770701E+02  0.88045331057E+01 -0.61062043503E+01  0.23198445529E+02  0.51100000000E-03 0.  1.
        -12    1    3    3    0    0  0.29637685532E+01 -0.24533506354E+01 -0.15854085340E+01  0.41612947020E+01  0.00000000000E+00 0.  1.
</event>
<event>
 7    1  0.1457722E-010  0.4778727E+02  0.7816164E-02  0.1312668E+00
        -11   -1    0    0    0    0  0.00000000000E+00  0.00000000000E+00  0.45593999997E+02  0.45594000000E+02  0.51100000000E-03 0.  1.
         11   -1    0    0    0    0 -0.00000000000E+00 -0.00000000000E+00 -0.45593999997E+02  0.45594000000E+02  0.51100000000E-03 0. -1.
    9900012    2    1    2    0    0  0.26084588453E+02 -0.34108286679E+02 -0.63120627241E+01  0.47787272924E+02  0.20000008568E+02 0.  0.
        -12    1    1    2    0    0 -0.26084588453E+02  0.34108286679E+02  0.63120627241E+01  0.43400727076E+02  0.00000000000E+00 0.  1.
         11    1    3    3    0    0  0.20723027562E+00 -0.10246864828E+02 -0.19223624086E+01  0.10427687216E+02  0.51100000000E-03 0. -1.
        -11    1    3    3    0    0 -0.46177225664E+00  0.38425158085E+00 -0.12938358193E+01  0.14264972075E+01  0.51100000000E-03 0.  1.
         12    1    3    3    0    0  0.26339130434E+02 -0.24245673432E+02 -0.30958644962E+01  0.35933088500E+02  0.00000000000E+00 0. -1.
</event>
<event>
 7    1  0.1457722E-010  0.4778727E+02  0.7816164E-02  0.1312668E+00
        -11   -1    0    0    0    0  0.00000000000E+00  0.00000000000E+00  0.45593999997E+02  0.45594000000E+02  0.51100000000E-03 0.  1.
         11   -1    0    0    0    0 -0.00000000000E+00 -0.00000000000E+00 -0.45593999997E+02  0.45594000000E+02  0.51100000000E-03 0. -1.
    9900012    2    1    2    0    0 -0.20373722179E+02 -0.81130690117E+00 -0.38312877089E+02  0.47787270454E+02  0.19999997306E+02 0.  0.
        -12    1    1    2    0    0  0.20373722179E+02  0.81130690117E+00  0.38312877089E+02  0.43400729546E+02  0.00000000000E+00 0.  1.
         11    1    3    3    0    0 -0.95882230806E+01 -0.36697530039E+01 -0.24182709628E+02  0.26271744406E+02  0.51100000000E-03 0. -1.
        -11    1    3    3    0    0 -0.75612305222E+01  0.30882169542E+01 -0.15867192809E+02  0.17845926675E+02  0.51100000000E-03 0.  1.
        -12    1    3    3    0    0 -0.32242685766E+01 -0.22977085149E+00  0.17370253478E+01  0.36695993728E+01  0.00000000000E+00 0.  1.
</event>
<event>
 7    1  0.1457722E-010  0.4778728E+02  0.7816164E-02  0.1312668E+00
        -11   -1    0    0    0    0  0.00000000000E+00  0.00000000000E+00  0.45593999997E+02  0.45594000000E+02  0.51100000000E-03 0.  1.
         11   -1    0    0    0    0 -0.00000000000E+00 -0.00000000000E+00 -0.45593999997E+02  0.45594000000E+02  0.51100000000E-03 0. -1.
    9900012    2    1    2    0    0 -0.26280228829E+02 -0.25961856298E+02 -0.22780571956E+02  0.47787275716E+02  0.20000021300E+02 0.  0.
        -12    1    1    2    0    0  0.26280228829E+02  0.25961856298E+02  0.22780571956E+02  0.43400724284E+02  0.00000000000E+00 0.  1.
         11    1    3    3    0    0 -0.53480820674E+01 -0.20763758517E+01  0.24717242974E+01  0.62468183694E+01  0.51100000000E-03 0.  1.
        -11    1    3    3    0    0 -0.70970480821E+01 -0.42038035654E+01 -0.10373995135E+02  0.13253672367E+02  0.51100000000E-03 0. -1.
        -12    1    3    3    0    0 -0.13835098679E+02 -0.19681676881E+02 -0.14878301118E+02  0.28286784980E+02  0.00000000000E+00 0.  1.
</event>
<event>
 7    1  0.1457722E-010  0.4778727E+02  0.7816164E-02  0.1312668E+00
        -11   -1    0    0    0    0  0.00000000000E+00  0.00000000000E+00  0.45593999997E+02  0.45594000000E+02  0.51100000000E-03 0.  1.
         11   -1    0    0    0    0 -0.00000000000E+00 -0.00000000000E+00 -0.45593999997E+02  0.45594000000E+02  0.51100000000E-03 0. -1.
    9900012    2    1    2    0    0  0.14892119518E+02 -0.17191397881E+02 -0.36963550559E+02  0.47787268960E+02  0.19999990497E+02 0.  0.
        -12    1    1    2    0    0 -0.14892119518E+02  0.17191397881E+02  0.36963550559E+02  0.43400731040E+02  0.00000000000E+00 0.  1.
         11    1    3    3    0    0  0.33717808301E+01 -0.11763546775E+02 -0.20850582625E+02  0.24176367278E+02  0.51100000000E-03 0. -1.
        -11    1    3    3    0    0  0.27394943486E+01  0.24570682382E+01 -0.92589863602E+01  0.99634754124E+01  0.51100000000E-03 0.  1.
        -12    1    3    3    0    0  0.87808443393E+01 -0.78849193442E+01 -0.68539815740E+01  0.13647426270E+02  0.00000000000E+00 0.  1.
</event>
<event>
 7    1  0.1457722E-010  0.4778727E+02  0.7816164E-02  0.1312668E+00
        -11   -1    0    0    0    0  0.00000000000E+00  0.00000000000E+00  0.45593999997E+02  0.45594000000E+02  0.51100000000E-03 0. -1.
         11   -1    0    0    0    0 -0.00000000000E+00 -0.00000000000E+00 -0.45593999997E+02  0.45594000000E+02  0.51100000000E-03 0.  1.
    9900012    2    1    2    0    0 -0.35503859226E+02  0.38510785443E+01  0.24663104093E+02  0.47787268101E+02  0.19999986579E+02 0.  0.
        -12    1    1    2    0    0  0.35503859226E+02 -0.38510785443E+01 -0.24663104093E+02  0.43400731899E+02  0.00000000000E+00 0.  1.
         11    1    3    3    0    0 -0.11580593462E+01 -0.22149066814E+01  0.10823497426E+01  0.27236729398E+01  0.51100000000E-03 0. -1.
        -11    1    3    3    0    0 -0.24045493401E+02  0.11410488427E+02  0.14362409677E+02  0.30243409382E+02  0.51100000000E-03 0.  1.
        -12    1    3    3    0    0 -0.10300306478E+02 -0.53445032009E+01  0.92183446736E+01  0.14820185779E+02  0.00000000000E+00 0.  1.
</event>
<event>
 7    1  0.1457722E-010  0.4778728E+02  0.7816164E-02  0.1312668E+00
        -11   -1    0    0    0    0  0.00000000000E+00  0.00000000000E+00  0.45593999997E+02  0.45594000000E+02  0.51100000000E-03 0.  1.
         11   -1    0    0    0    0 -0.00000000000E+00 -0.00000000000E+00 -0.45593999997E+02  0.45594000000E+02  0.51100000000E-03 0. -1.
    9900012    2    1    2    0    0 -0.20563549634E+02 -0.36608957059E+02  0.10979412971E+02  0.47787276278E+02  0.20000023860E+02 0.  0.
        -12    1    1    2    0    0  0.20563549634E+02  0.36608957059E+02 -0.10979412971E+02  0.43400723722E+02  0.00000000000E+00 0.  1.
         11    1    3    3    0    0 -0.14838280949E+02 -0.13015763087E+02  0.11361682373E+02  0.22774382469E+02  0.51100000000E-03 0. -1.
        -11    1    3    3    0    0 -0.53770665160E+01 -0.97521425129E+01 -0.76115891598E+00  0.11162279833E+02  0.51100000000E-03 0.  1.
        -12    1    3    3    0    0 -0.34820216856E+00 -0.13841051459E+02  0.37888951396E+00  0.13850613975E+02  0.00000000000E+00 0.  1.
</event>
<event>
 7    1  0.1457722E-010  0.4778727E+02  0.7816164E-02  0.1312668E+00
        -11   -1    0    0    0    0  0.00000000000E+00  0.00000000000E+00  0.45593999997E+02  0.45594000000E+02  0.51100000000E-03 0. -1.
         11   -1    0    0    0    0 -0.00000000000E+00 -0.00000000000E+00 -0.45593999997E+02  0.45594000000E+02  0.51100000000E-03 0.  1.
    9900012    2    1    2    0    0  0.85788004004E+01 -0.20062982720E+02  0.37516718419E+02  0.47787271287E+02  0.20000001104E+02 0.  0.
        -12    1    1    2    0    0 -0.85788004004E+01  0.20062982720E+02 -0.37516718419E+02  0.43400728713E+02  0.00000000000E+00 0.  1.
         11    1    3    3    0    0  0.35027717881E+01 -0.47903604868E+01  0.39744431942E+01  0.71423499465E+01  0.51100000000E-03 0. -1.
        -11    1    3    3    0    0  0.51129547029E+01 -0.21594382560E+01  0.11075947587E+01  0.56597036836E+01  0.51100000000E-03 0.  1.
         12    1    3    3    0    0 -0.36926090627E-01 -0.13113183978E+02  0.32434680466E+02  0.34985217657E+02  0.00000000000E+00 0. -1.
</event>
<event>
 7    1  0.1457722E-010  0.4778727E+02  0.7816164E-02  0.1312668E+00
        -11   -1    0    0    0    0  0.00000000000E+00  0.00000000000E+00  0.45593999997E+02  0.45594000000E+02  0.51100000000E-03 0.  1.
         11   -1    0    0    0    0 -0.00000000000E+00 -0.00000000000E+00 -0.45593999997E+02  0.45594000000E+02  0.51100000000E-03 0. -1.
    9900012    2    1    2    0    0 -0.31746068615E+02 -0.26210659183E+02 -0.13740877827E+02  0.47787271310E+02  0.20000001213E+02 0.  0.
        -12    1    1    2    0    0  0.31746068615E+02  0.26210659183E+02  0.13740877827E+02  0.43400728690E+02  0.00000000000E+00 0.  1.
         11    1    3    3    0    0  0.27861591197E+00  0.91545148469E+00  0.15351250580E+01  0.18089465034E+01  0.51100000000E-03 0. -1.
        -11    1    3    3    0    0  0.82306135405E+00 -0.13594381667E+01 -0.25094666967E+00  0.16088743313E+01  0.51100000000E-03 0.  1.
         12    1    3    3    0    0 -0.32847745881E+02 -0.25766672501E+02 -0.15025056215E+02  0.44369450476E+02  0.00000000000E+00 0. -1.
</event>
<event>
 7    1  0.1457722E-010  0.4778731E+02  0.7816164E-02  0.1312668E+00
        -11   -1    0    0    0    0  0.00000000000E+00  0.00000000000E+00  0.45593999997E+02  0.45594000000E+02  0.51100000000E-03 0.  1.
         11   -1    0    0    0    0 -0.00000000000E+00 -0.00000000000E+00 -0.45593999997E+02  0.45594000000E+02  0.51100000000E-03 0. -1.
    9900012    2    1    2    0    0 -0.20029910362E+02  0.14531663361E+02 -0.35654639913E+02  0.47787309954E+02  0.20000177404E+02 0.  0.
        -12    1    1    2    0    0  0.20029910362E+02 -0.14531663361E+02  0.35654639913E+02  0.43400690046E+02  0.00000000000E+00 0.  1.
         11    1    3    3    0    0 -0.22420768015E+01  0.29481424347E+01 -0.11720536804E+02  0.12291844265E+02  0.51100000000E-03 0. -1.
        -11    1    3    3    0    0 -0.43489473054E+01  0.17485405427E+01  0.16496401212E+01  0.49691095264E+01  0.51100000000E-03 0.  1.
         12    1    3    3    0    0 -0.13438886255E+02  0.98349803837E+01 -0.25583743229E+02  0.30526356162E+02  0.00000000000E+00 0. -1.
</event>
<event>
 7    1  0.1457722E-010  0.4778727E+02  0.7816164E-02  0.1312668E+00
        -11   -1    0    0    0    0  0.00000000000E+00  0.00000000000E+00  0.45593999997E+02  0.45594000000E+02  0.51100000000E-03 0.  1.
         11   -1    0    0    0    0 -0.00000000000E+00 -0.00000000000E+00 -0.45593999997E+02  0.45594000000E+02  0.51100000000E-03 0. -1.
    9900012    2    1    2    0    0 -0.50613855134E+01  0.42877095017E+02  0.44227670789E+01  0.47787265340E+02  0.19999973991E+02 0.  0.
        -12    1    1    2    0    0  0.50613855134E+01 -0.42877095017E+02 -0.44227670789E+01  0.43400734660E+02  0.00000000000E+00 0.  1.
         11    1    3    3    0    0  0.26036036213E+01  0.16897691585E+02  0.25500118153E+01  0.17286216857E+02  0.51100000000E-03 0. -1.
        -11    1    3    3    0    0 -0.80966143890E+01  0.24275364758E+02 -0.25743048455E+01  0.25719166868E+02  0.51100000000E-03 0.  1.
        -12    1    3    3    0    0  0.43162525425E+00  0.17040386740E+01  0.44470601091E+01  0.47818816147E+01  0.00000000000E+00 0.  1.
</event>
<event>
 7    1  0.1457722E-010  0.4778727E+02  0.7816164E-02  0.1312668E+00
        -11   -1    0    0    0    0  0.00000000000E+00  0.00000000000E+00  0.45593999997E+02  0.45594000000E+02  0.51100000000E-03 0.  1.
         11   -1    0    0    0    0 -0.00000000000E+00 -0.00000000000E+00 -0.45593999997E+02  0.45594000000E+02  0.51100000000E-03 0. -1.
    9900012    2    1    2    0    0  0.40943375542E+02  0.10627625418E+02 -0.97116825409E+01  0.47787271889E+02  0.20000003851E+02 0.  0.
        -12    1    1    2    0    0 -0.40943375542E+02 -0.10627625418E+02  0.97116825409E+01  0.43400728111E+02  0.00000000000E+00 0.  1.
         11    1    3    3    0    0  0.11134053093E+02  0.18868126256E+01 -0.11725484123E+01  0.11353504754E+02  0.51100000000E-03 0. -1.
        -11    1    3    3    0    0  0.21455899703E+02  0.57945654926E+01  0.24048422868E+01  0.22354325935E+02  0.51100000000E-03 0.  1.
         12    1    3    3    0    0  0.83534227456E+01  0.29462473002E+01 -0.10943976415E+02  0.14079441200E+02  0.00000000000E+00 0. -1.
</event>
<event>
 7    1  0.1457722E-010  0.4778727E+02  0.7816164E-02  0.1312668E+00
        -11   -1    0    0    0    0  0.00000000000E+00  0.00000000000E+00  0.45593999997E+02  0.45594000000E+02  0.51100000000E-03 0.  1.
         11   -1    0    0    0    0 -0.00000000000E+00 -0.00000000000E+00 -0.45593999997E+02  0.45594000000E+02  0.51100000000E-03 0. -1.
    9900012    2    1    2    0    0 -0.12204160486E+02 -0.34404485784E+02 -0.23473674936E+02  0.47787267400E+02  0.19999983385E+02 0.  0.
        -12    1    1    2    0    0  0.12204160486E+02  0.34404485784E+02  0.23473674936E+02  0.43400732600E+02  0.00000000000E+00 0.  1.
         11    1    3    3    0    0 -0.20845854421E+01 -0.26281994959E+02 -0.12058458198E+02  0.28991294725E+02  0.51100000000E-03 0.  1.
        -11    1    3    3    0    0 -0.13491314158E+01 -0.50657094800E+01 -0.62889468829E+01  0.81873329766E+01  0.51100000000E-03 0. -1.
        -12    1    3    3    0    0 -0.87704436278E+01 -0.30567813449E+01 -0.51262698549E+01  0.10608639698E+02  0.00000000000E+00 0.  1.
</event>
<event>
 7    1  0.1457722E-010  0.4778727E+02  0.7816164E-02  0.1312668E+00
        -11   -1    0    0    0    0  0.00000000000E+00  0.00000000000E+00  0.45593999997E+02  0.45594000000E+02  0.51100000000E-03 0.  1.
         11   -1    0    0    0    0 -0.00000000000E+00 -0.00000000000E+00 -0.45593999997E+02  0.45594000000E+02  0.51100000000E-03 0. -1.
    9900012    2    1    2    0    0  0.29462753264E+01  0.11967244845E+01 -0.43284070522E+02  0.47787269030E+02  0.19999990815E+02 0.  0.
        -12    1    1    2    0    0 -0.29462753264E+01 -0.11967244845E+01  0.43284070522E+02  0.43400730970E+02  0.00000000000E+00 0.  1.
         11    1    3    3    0    0 -0.15727466053E+01  0.47124449558E+01 -0.19181660979E+02  0.19814559988E+02  0.51100000000E-03 0.  1.
        -11    1    3    3    0    0  0.83910282640E+01 -0.36074743281E+00 -0.19280090563E+02  0.21030011565E+02  0.51100000000E-03 0. -1.
        -12    1    3    3    0    0 -0.38720063323E+01 -0.31549730385E+01 -0.48223189792E+01  0.69426974763E+01  0.00000000000E+00 0.  1.
</event>
<event>
 7    1  0.1457722E-010  0.4778727E+02  0.7816164E-02  0.1312668E+00
        -11   -1    0    0    0    0  0.00000000000E+00  0.00000000000E+00  0.45593999997E+02  0.45594000000E+02  0.51100000000E-03 0. -1.
         11   -1    0    0    0    0 -0.00000000000E+00 -0.00000000000E+00 -0.45593999997E+02  0.45594000000E+02  0.51100000000E-03 0.  1.
    9900012    2    1    2    0    0 -0.37923152724E+02 -0.10116825673E+02  0.18523167005E+02  0.47787269706E+02  0.19999993896E+02 0.  0.
        -12    1    1    2    0    0  0.37923152724E+02  0.10116825673E+02 -0.18523167005E+02  0.43400730294E+02  0.00000000000E+00 0.  1.
         11    1    3    3    0    0 -0.12224173047E+02 -0.42183158231E+01  0.10448132906E+02  0.16624923355E+02  0.51100000000E-03 0. -1.
        -11    1    3    3    0    0 -0.23562772362E+02 -0.90763070724E+01  0.96370148956E+01  0.27026942998E+02  0.51100000000E-03 0.  1.
        -12    1    3    3    0    0 -0.21362073147E+01  0.31777972227E+01 -0.15619807971E+01  0.41354033528E+01  0.00000000000E+00 0.  1.
</event>
<event>
 7    1  0.1457722E-010  0.4778727E+02  0.7816164E-02  0.1312668E+00
        -11   -1    0    0    0    0  0.00000000000E+00  0.00000000000E+00  0.45593999997E+02  0.45594000000E+02  0.51100000000E-03 0.  1.
         11   -1    0    0    0    0 -0.00000000000E+00 -0.00000000000E+00 -0.45593999997E+02  0.45594000000E+02  0.51100000000E-03 0. -1.
    9900012    2    1    2    0    0  0.35267049622E+02  0.55565327920E+01 -0.24677589757E+02  0.47787270952E+02  0.19999999577E+02 0.  0.
        -12    1    1    2    0    0 -0.35267049622E+02 -0.55565327920E+01  0.24677589757E+02  0.43400729048E+02  0.00000000000E+00 0.  1.
         11    1    3    3    0    0 -0.67961718685E+00  0.13349225163E+01  0.40218231554E+00  0.15510153195E+01  0.51100000000E-03 0. -1.
        -11    1    3    3    0    0  0.24864571257E+00 -0.15940403752E+01  0.76217810427E+00  0.17842940150E+01  0.51100000000E-03 0.  1.
         12    1    3    3    0    0  0.35698021096E+02  0.58156506510E+01 -0.25841950177E+02  0.44451961617E+02  0.00000000000E+00 0. -1.
</event>
<event>
 7    1  0.1457722E-010  0.4778727E+02  0.7816164E-02  0.1312668E+00
        -11   -1    0    0    0    0  0.00000000000E+00  0.00000000000E+00  0.45593999997E+02  0.45594000000E+02  0.51100000000E-03 0.  1.
         11   -1    0    0    0    0 -0.00000000000E+00 -0.00000000000E+00 -0.45593999997E+02  0.45594000000E+02  0.51100000000E-03 0. -1.
    9900012    2    1    2    0    0 -0.25650430129E+02  0.23740216901E+01 -0.34929110703E+02  0.47787270521E+02  0.19999997613E+02 0.  0.
        -12    1    1    2    0    0  0.25650430129E+02 -0.23740216901E+01  0.34929110703E+02  0.43400729479E+02  0.00000000000E+00 0.  1.
         11    1    3    3    0    0  0.33603912802E+00  0.25690388743E+01  0.54501230187E+00  0.26476256728E+01  0.51100000000E-03 0.  1.
        -11    1    3    3    0    0 -0.10909037486E+02 -0.47120385074E+01 -0.18531361801E+02  0.22014126742E+02  0.51100000000E-03 0. -1.
        -12    1    3    3    0    0 -0.15077431771E+02  0.45170213232E+01 -0.16942761204E+02  0.23125518106E+02  0.00000000000E+00 0.  1.
</event>
<event>
 7    1  0.1457722E-010  0.4778727E+02  0.7816164E-02  0.1312668E+00
        -11   -1    0    0    0    0  0.00000000000E+00  0.00000000000E+00  0.45593999997E+02  0.45594000000E+02  0.51100000000E-03 0. -1.
         11   -1    0    0    0    0 -0.00000000000E+00 -0.00000000000E+00 -0.45593999997E+02  0.45594000000E+02  0.51100000000E-03 0.  1.
    9900012    2    1    2    0    0 -0.28844612440E+02 -0.24579602839E+02  0.21153119908E+02  0.47787273919E+02  0.20000013107E+02 0.  0.
        -12    1    1    2    0    0  0.28844612440E+02  0.24579602839E+02 -0.21153119908E+02  0.43400726081E+02  0.00000000000E+00 0.  1.
         11    1    3    3    0    0 -0.49129045802E+01 -0.26363420806E+01  0.96013016482E+01  0.11102789045E+02  0.51100000000E-03 0. -1.
        -11    1    3    3    0    0 -0.22306290939E+02 -0.13706078549E+02  0.10559791006E+02  0.28230061832E+02  0.51100000000E-03 0.  1.
        -12    1    3    3    0    0 -0.16254169207E+01 -0.82371822089E+01  0.99202725292E+00  0.84544230423E+01  0.00000000000E+00 0.  1.
</event>
<event>
 7    1  0.1457722E-010  0.4778727E+02  0.7816164E-02  0.1312668E+00
        -11   -1    0    0    0    0  0.00000000000E+00  0.00000000000E+00  0.45593999997E+02  0.45594000000E+02  0.51100000000E-03 0.  1.
         11   -1    0    0    0    0 -0.00000000000E+00 -0.00000000000E+00 -0.45593999997E+02  0.45594000000E+02  0.51100000000E-03 0. -1.
    9900012    2    1    2    0    0 -0.17413249396E+02 -0.72171958695E+00 -0.39747717218E+02  0.47787272382E+02  0.20000006098E+02 0.  0.
        -12    1    1    2    0    0  0.17413249396E+02  0.72171958695E+00  0.39747717218E+02  0.43400727618E+02  0.00000000000E+00 0.  1.
         11    1    3    3    0    0 -0.15586407715E+01 -0.20016252561E+01 -0.11529406780E+02  0.11805214343E+02  0.51100000000E-03 0. -1.
        -11    1    3    3    0    0 -0.63603490788E+01 -0.65339234658E+01 -0.17217942477E+02  0.19483422176E+02  0.51100000000E-03 0.  1.
         12    1    3    3    0    0 -0.94942595459E+01  0.78138291349E+01 -0.11000367961E+02  0.16498635863E+02  0.00000000000E+00 0. -1.
</event>
<event>
 7    1  0.1457722E-010  0.4778727E+02  0.7816164E-02  0.1312668E+00
        -11   -1    0    0    0    0  0.00000000000E+00  0.00000000000E+00  0.45593999997E+02  0.45594000000E+02  0.51100000000E-03 0. -1.
         11   -1    0    0    0    0 -0.00000000000E+00 -0.00000000000E+00 -0.45593999997E+02  0.45594000000E+02  0.51100000000E-03 0.  1.
    9900012    2    1    2    0    0 -0.16168832491E+02 -0.84398103433E+01  0.39382250758E+02  0.47787271694E+02  0.20000002961E+02 0.  0.
        -12    1    1    2    0    0  0.16168832491E+02  0.84398103433E+01 -0.39382250758E+02  0.43400728306E+02  0.00000000000E+00 0.  1.
         11    1    3    3    0    0 -0.72121366969E+01 -0.24526870663E+01  0.15502159878E+02  0.17272740104E+02  0.51100000000E-03 0. -1.
        -11    1    3    3    0    0 -0.65570753520E+01 -0.43919816582E+01  0.16047105595E+01  0.80535604734E+01  0.51100000000E-03 0.  1.
         12    1    3    3    0    0 -0.23996204424E+01 -0.15951416188E+01  0.22275380321E+02  0.22460971116E+02  0.00000000000E+00 0. -1.
</event>
<event>
 7    1  0.1457722E-010  0.4778728E+02  0.7816164E-02  0.1312668E+00
        -11   -1    0    0    0    0  0.00000000000E+00  0.00000000000E+00  0.45593999997E+02  0.45594000000E+02  0.51100000000E-03 0.  1.
         11   -1    0    0    0    0 -0.00000000000E+00 -0.00000000000E+00 -0.45593999997E+02  0.45594000000E+02  0.51100000000E-03 0. -1.
    9900012    2    1    2    0    0  0.91458536800E+01 -0.37641752543E+02 -0.19572294613E+02  0.47787275461E+02  0.20000020138E+02 0.  0.
        -12    1    1    2    0    0 -0.91458536800E+01  0.37641752543E+02  0.19572294613E+02  0.43400724539E+02  0.00000000000E+00 0.  1.
         11    1    3    3    0    0  0.43644495519E+01 -0.18506336624E+02 -0.18257492983E+02  0.26360367323E+02  0.51100000000E-03 0. -1.
        -11    1    3    3    0    0  0.36120273875E+01 -0.17297391549E+02 -0.38492323818E+01  0.18084885580E+02  0.51100000000E-03 0.  1.
        -12    1    3    3    0    0  0.11693767406E+01 -0.18380243705E+01  0.25344307513E+01  0.33420225585E+01  0.00000000000E+00 0.  1.
</event>
<event>
 7    1  0.1457722E-010  0.4778727E+02  0.7816164E-02  0.1312668E+00
        -11   -1    0    0    0    0  0.00000000000E+00  0.00000000000E+00  0.45593999997E+02  0.45594000000E+02  0.51100000000E-03 0. -1.
         11   -1    0    0    0    0 -0.00000000000E+00 -0.00000000000E+00 -0.45593999997E+02  0.45594000000E+02  0.51100000000E-03 0.  1.
    9900012    2    1    2    0    0  0.10531712451E+02 -0.22463494240E+02  0.35610365622E+02  0.47787266361E+02  0.19999978648E+02 0.  0.
        -12    1    1    2    0    0 -0.10531712451E+02  0.22463494240E+02 -0.35610365622E+02  0.43400733639E+02  0.00000000000E+00 0.  1.
         11    1    3    3    0    0 -0.16572006224E+01 -0.10300918985E+02  0.91724336566E+01  0.13892040357E+02  0.51100000000E-03 0. -1.
        -11    1    3    3    0    0 -0.13416328201E+01 -0.17123655826E+01 -0.26173986726E+00  0.21910459903E+01  0.51100000000E-03 0.  1.
         12    1    3    3    0    0  0.13530545894E+02 -0.10450209673E+02  0.26699671833E+02  0.31704180014E+02  0.00000000000E+00 0. -1.
</event>
<event>
 7    1  0.1457722E-010  0.4778727E+02  0.7816164E-02  0.1312668E+00
        -11   -1    0    0    0    0  0.00000000000E+00  0.00000000000E+00  0.45593999997E+02  0.45594000000E+02  0.51100000000E-03 0.  1.
         11   -1    0    0    0    0 -0.00000000000E+00 -0.00000000000E+00 -0.45593999997E+02  0.45594000000E+02  0.51100000000E-03 0. -1.
    9900012    2    1    2    0    0 -0.35623301903E+02 -0.10996904886E+02 -0.22218725267E+02  0.47787270651E+02  0.19999998206E+02 0.  0.
        -12    1    1    2    0    0  0.35623301903E+02  0.10996904886E+02  0.22218725267E+02  0.43400729349E+02  0.00000000000E+00 0.  1.
         11    1    3    3    0    0 -0.72904525314E+01  0.10326361336E+01 -0.16299435202E+01  0.75414687984E+01  0.51100000000E-03 0.  1.
        -11    1    3    3    0    0 -0.55288653137E+01  0.38771883324E+01 -0.46290226110E+01  0.81871113108E+01  0.51100000000E-03 0. -1.
        -12    1    3    3    0    0 -0.22803984058E+02 -0.15906729352E+02 -0.15959759135E+02  0.32058690542E+02  0.00000000000E+00 0.  1.
</event>
<event>
 7    1  0.1457722E-010  0.4778727E+02  0.7816164E-02  0.1312668E+00
        -11   -1    0    0    0    0  0.00000000000E+00  0.00000000000E+00  0.45593999997E+02  0.45594000000E+02  0.51100000000E-03 0.  1.
         11   -1    0    0    0    0 -0.00000000000E+00 -0.00000000000E+00 -0.45593999997E+02  0.45594000000E+02  0.51100000000E-03 0. -1.
    9900012    2    1    2    0    0  0.36654463513E+01 -0.19903090819E+02 -0.38393419818E+02  0.47787271821E+02  0.20000003541E+02 0.  0.
        -12    1    1    2    0    0 -0.36654463513E+01  0.19903090819E+02  0.38393419818E+02  0.43400728179E+02  0.00000000000E+00 0.  1.
         11    1    3    3    0    0  0.59453525757E+01  0.62269911407E+00 -0.92957553244E+01  0.11051969904E+02  0.51100000000E-03 0. -1.
        -11    1    3    3    0    0  0.25023299659E+01 -0.10913635911E+02 -0.11021374960E+02  0.15711136506E+02  0.51100000000E-03 0.  1.
         12    1    3    3    0    0 -0.47822361903E+01 -0.96121540226E+01 -0.18076289534E+02  0.21024165411E+02  0.00000000000E+00 0. -1.
</event>
<event>
 7    1  0.1457722E-010  0.4778727E+02  0.7816164E-02  0.1312668E+00
        -11   -1    0    0    0    0  0.00000000000E+00  0.00000000000E+00  0.45593999997E+02  0.45594000000E+02  0.51100000000E-03 0. -1.
         11   -1    0    0    0    0 -0.00000000000E+00 -0.00000000000E+00 -0.45593999997E+02  0.45594000000E+02  0.51100000000E-03 0.  1.
    9900012    2    1    2    0    0  0.37163060908E+02  0.19965089209E+01  0.22328104981E+02  0.47787269408E+02  0.19999992537E+02 0.  0.
        -12    1    1    2    0    0 -0.37163060908E+02 -0.19965089209E+01 -0.22328104981E+02  0.43400730592E+02  0.00000000000E+00 0.  1.
         11    1    3    3    0    0  0.70669590667E+01  0.58192086269E+01  0.19814466274E+01  0.93664951018E+01  0.51100000000E-03 0. -1.
        -11    1    3    3    0    0  0.21126177206E+01 -0.40598214197E+01  0.23012696091E+01  0.51226112158E+01  0.51100000000E-03 0.  1.
         12    1    3    3    0    0  0.27983484121E+02  0.23712171374E+00  0.18045388744E+02  0.33298163090E+02  0.00000000000E+00 0. -1.
</event>
<event>
 7    1  0.1457722E-010  0.4778728E+02  0.7816164E-02  0.1312668E+00
        -11   -1    0    0    0    0  0.00000000000E+00  0.00000000000E+00  0.45593999997E+02  0.45594000000E+02  0.51100000000E-03 0.  1.
         11   -1    0    0    0    0 -0.00000000000E+00 -0.00000000000E+00 -0.45593999997E+02  0.45594000000E+02  0.51100000000E-03 0. -1.
    9900012    2    1    2    0    0  0.18577701198E+02  0.16599091203E+02 -0.35538176218E+02  0.47787276740E+02  0.20000025969E+02 0.  0.
        -12    1    1    2    0    0 -0.18577701198E+02 -0.16599091203E+02  0.35538176218E+02  0.43400723260E+02  0.00000000000E+00 0.  1.
         11    1    3    3    0    0  0.33006805332E+01  0.79074431742E+00 -0.13346949768E+01  0.36470782141E+01  0.51100000000E-03 0. -1.
        -11    1    3    3    0    0  0.13660236479E+02  0.41043722053E+01 -0.10688797779E+02  0.17824094089E+02  0.51100000000E-03 0.  1.
        -12    1    3    3    0    0  0.16167841856E+01  0.11703974680E+02 -0.23514683462E+02  0.26316104437E+02  0.00000000000E+00 0.  1.
</event>
<event>
 7    1  0.1457722E-010  0.4778727E+02  0.7816164E-02  0.1312668E+00
        -11   -1    0    0    0    0  0.00000000000E+00  0.00000000000E+00  0.45593999997E+02  0.45594000000E+02  0.51100000000E-03 0.  1.
         11   -1    0    0    0    0 -0.00000000000E+00 -0.00000000000E+00 -0.45593999997E+02  0.45594000000E+02  0.51100000000E-03 0. -1.
    9900012    2    1    2    0    0  0.30847086543E+02 -0.14556103599E+02 -0.26836557480E+02  0.47787265933E+02  0.19999976696E+02 0.  0.
        -12    1    1    2    0    0 -0.30847086543E+02  0.14556103599E+02  0.26836557480E+02  0.43400734067E+02  0.00000000000E+00 0.  1.
         11    1    3    3    0    0  0.70999741726E+00  0.30765171422E+01 -0.21805903964E+01  0.38371902216E+01  0.51100000000E-03 0. -1.
        -11    1    3    3    0    0  0.14844965640E+02 -0.97780322663E+01 -0.64495808756E+01  0.18909786185E+02  0.51100000000E-03 0.  1.
         12    1    3    3    0    0  0.15292123486E+02 -0.78545884746E+01 -0.18206386208E+02  0.25040289526E+02  0.00000000000E+00 0. -1.
</event>
<event>
 7    1  0.1457722E-010  0.4778727E+02  0.7816164E-02  0.1312668E+00
        -11   -1    0    0    0    0  0.00000000000E+00  0.00000000000E+00  0.45593999997E+02  0.45594000000E+02  0.51100000000E-03 0.  1.
         11   -1    0    0    0    0 -0.00000000000E+00 -0.00000000000E+00 -0.45593999997E+02  0.45594000000E+02  0.51100000000E-03 0. -1.
    9900012    2    1    2    0    0 -0.17706522456E+01 -0.39576736015E+02  0.17724840855E+02  0.47787271592E+02  0.20000002498E+02 0.  0.
        -12    1    1    2    0    0  0.17706522456E+01  0.39576736015E+02 -0.17724840855E+02  0.43400728408E+02  0.00000000000E+00 0.  1.
         11    1    3    3    0    0 -0.10473779914E+01 -0.20348400365E+02  0.98461888306E+00  0.20399114507E+02  0.51100000000E-03 0. -1.
        -11    1    3    3    0    0 -0.51165818543E+01 -0.13593152873E+02  0.10890776956E+02  0.18153849120E+02  0.51100000000E-03 0.  1.
         12    1    3    3    0    0  0.43933076002E+01 -0.56351827764E+01  0.58494450165E+01  0.92343079651E+01  0.00000000000E+00 0. -1.
</event>
<event>
 7    1  0.1457722E-010  0.4778727E+02  0.7816164E-02  0.1312668E+00
        -11   -1    0    0    0    0  0.00000000000E+00  0.00000000000E+00  0.45593999997E+02  0.45594000000E+02  0.51100000000E-03 0. -1.
         11   -1    0    0    0    0 -0.00000000000E+00 -0.00000000000E+00 -0.45593999997E+02  0.45594000000E+02  0.51100000000E-03 0.  1.
    9900012    2    1    2    0    0  0.10864619913E+02 -0.72485389961E+01  0.41388910376E+02  0.47787272062E+02  0.20000004641E+02 0.  0.
        -12    1    1    2    0    0 -0.10864619913E+02  0.72485389961E+01 -0.41388910376E+02  0.43400727938E+02  0.00000000000E+00 0.  1.
         11    1    3    3    0    0  0.66078825573E+01 -0.39398581324E+01  0.18010497701E+02  0.19584805889E+02  0.51100000000E-03 0. -1.
        -11    1    3    3    0    0 -0.29583147408E+01 -0.38465307750E+01  0.13802318654E+01  0.50450436442E+01  0.51100000000E-03 0.  1.
        -12    1    3    3    0    0  0.72150520970E+01  0.53784991134E+00  0.21998180809E+02  0.23157422529E+02  0.00000000000E+00 0.  1.
</event>
<event>
 7    1  0.1457722E-010  0.4778727E+02  0.7816164E-02  0.1312668E+00
        -11   -1    0    0    0    0  0.00000000000E+00  0.00000000000E+00  0.45593999997E+02  0.45594000000E+02  0.51100000000E-03 0.  1.
         11   -1    0    0    0    0 -0.00000000000E+00 -0.00000000000E+00 -0.45593999997E+02  0.45594000000E+02  0.51100000000E-03 0. -1.
    9900012    2    1    2    0    0  0.35415549319E+02 -0.18932544552E+02 -0.16459665571E+02  0.47787274574E+02  0.20000016091E+02 0.  0.
        -12    1    1    2    0    0 -0.35415549319E+02  0.18932544552E+02  0.16459665571E+02  0.43400725426E+02  0.00000000000E+00 0.  1.
         11    1    3    3    0    0  0.13309066382E+02 -0.36452811581E+01  0.32161804934E+01  0.14169091005E+02  0.51100000000E-03 0. -1.
        -11    1    3    3    0    0  0.32381820581E+01 -0.37764898743E+01 -0.21897862888E+01  0.54353346782E+01  0.51100000000E-03 0.  1.
        -12    1    3    3    0    0  0.18868300880E+02 -0.11510773520E+02 -0.17486059776E+02  0.28182848891E+02  0.00000000000E+00 0.  1.
</event>
<event>
 7    1  0.1457722E-010  0.4778728E+02  0.7816164E-02  0.1312668E+00
        -11   -1    0    0    0    0  0.00000000000E+00  0.00000000000E+00  0.45593999997E+02  0.45594000000E+02  0.51100000000E-03 0.  1.
         11   -1    0    0    0    0 -0.00000000000E+00 -0.00000000000E+00 -0.45593999997E+02  0.45594000000E+02  0.51100000000E-03 0. -1.
    9900012    2    1    2    0    0 -0.38434279011E+02 -0.13309985019E+02 -0.15141751528E+02  0.47787284065E+02  0.20000059368E+02 0.  0.
        -12    1    1    2    0    0  0.38434279011E+02  0.13309985019E+02  0.15141751528E+02  0.43400715935E+02  0.00000000000E+00 0.  1.
         11    1    3    3    0    0 -0.29079281678E+02 -0.10278841877E+02 -0.64136297250E+01  0.31502283406E+02  0.51100000000E-03 0. -1.
        -11    1    3    3    0    0 -0.87661987132E+01 -0.43947270053E+01 -0.10231318089E+02  0.14171793656E+02  0.51100000000E-03 0.  1.
        -12    1    3    3    0    0 -0.58879861971E+00  0.13635838641E+01  0.15031962856E+01  0.21132070041E+01  0.00000000000E+00 0.  1.
</event>
<event>
 7    1  0.1457722E-010  0.4778729E+02  0.7816164E-02  0.1312668E+00
        -11   -1    0    0    0    0  0.00000000000E+00  0.00000000000E+00  0.45593999997E+02  0.45594000000E+02  0.51100000000E-03 0.  1.
         11   -1    0    0    0    0 -0.00000000000E+00 -0.00000000000E+00 -0.45593999997E+02  0.45594000000E+02  0.51100000000E-03 0. -1.
    9900012    2    1    2    0    0  0.67488334703E+01 -0.41702910736E+02  0.99469858299E+01  0.47787285211E+02  0.20000064593E+02 0.  0.
        -12    1    1    2    0    0 -0.67488334703E+01  0.41702910736E+02 -0.99469858299E+01  0.43400714789E+02  0.00000000000E+00 0.  1.
         11    1    3    3    0    0 -0.22835412048E+01 -0.65417568959E+01  0.34257898776E+01  0.77295006479E+01  0.51100000000E-03 0. -1.
        -11    1    3    3    0    0  0.61685556494E+01 -0.13175427273E+02  0.99466854587E+01  0.17623266283E+02  0.51100000000E-03 0.  1.
         12    1    3    3    0    0  0.28638190258E+01 -0.21985726567E+02 -0.34254895065E+01  0.22434518280E+02  0.00000000000E+00 0. -1.
</event>
<event>
 7    1  0.1457722E-010  0.4778727E+02  0.7816164E-02  0.1312668E+00
        -11   -1    0    0    0    0  0.00000000000E+00  0.00000000000E+00  0.45593999997E+02  0.45594000000E+02  0.51100000000E-03 0.  1.
         11   -1    0    0    0    0 -0.00000000000E+00 -0.00000000000E+00 -0.45593999997E+02  0.45594000000E+02  0.51100000000E-03 0. -1.
    9900012    2    1    2    0    0  0.13801300033E+02  0.32413922695E+00 -0.41146595788E+02  0.47787270815E+02  0.19999998956E+02 0.  0.
        -12    1    1    2    0    0 -0.13801300033E+02 -0.32413922695E+00  0.41146595788E+02  0.43400729185E+02  0.00000000000E+00 0.  1.
         11    1    3    3    0    0 -0.44648527812E+01 -0.33244717393E+00 -0.13996572751E+02  0.14695219649E+02  0.51100000000E-03 0.  1.
        -11    1    3    3    0    0  0.65399333909E+01  0.25856360843E+01 -0.97877202040E+01  0.12052207672E+02  0.51100000000E-03 0. -1.
        -12    1    3    3    0    0  0.11726219423E+02 -0.19290496835E+01 -0.17362302833E+02  0.21039843495E+02  0.00000000000E+00 0.  1.
</event>
<event>
 7    1  0.1457722E-010  0.4778727E+02  0.7816164E-02  0.1312668E+00
        -11   -1    0    0    0    0  0.00000000000E+00  0.00000000000E+00  0.45593999997E+02  0.45594000000E+02  0.51100000000E-03 0.  1.
         11   -1    0    0    0    0 -0.00000000000E+00 -0.00000000000E+00 -0.45593999997E+02  0.45594000000E+02  0.51100000000E-03 0. -1.
    9900012    2    1    2    0    0 -0.10087336439E+02  0.16787629850E+02 -0.38730406699E+02  0.47787271026E+02  0.19999999916E+02 0.  0.
        -12    1    1    2    0    0  0.10087336439E+02 -0.16787629850E+02  0.38730406699E+02  0.43400728974E+02  0.00000000000E+00 0.  1.
         11    1    3    3    0    0  0.34770093938E+01  0.32618366371E+01 -0.69541378524E+01  0.84314415198E+01  0.51100000000E-03 0. -1.
        -11    1    3    3    0    0  0.40620045102E+00 -0.20345978507E+01 -0.15020391579E+01  0.25613881223E+01  0.51100000000E-03 0.  1.
        -12    1    3    3    0    0 -0.13970546284E+02  0.15560391063E+02 -0.30274229689E+02  0.36794441384E+02  0.00000000000E+00 0.  1.
</event>
<event>
 7    1  0.1457722E-010  0.4778727E+02  0.7816164E-02  0.1312668E+00
        -11   -1    0    0    0    0  0.00000000000E+00  0.00000000000E+00  0.45593999997E+02  0.45594000000E+02  0.51100000000E-03 0.  1.
         11   -1    0    0    0    0 -0.00000000000E+00 -0.00000000000E+00 -0.45593999997E+02  0.45594000000E+02  0.51100000000E-03 0. -1.
    9900012    2    1    2    0    0 -0.85459686067E+00  0.17120819747E+02 -0.39871931396E+02  0.47787265930E+02  0.19999976679E+02 0.  0.
        -12    1    1    2    0    0  0.85459686067E+00 -0.17120819747E+02  0.39871931396E+02  0.43400734070E+02  0.00000000000E+00 0.  1.
         11    1    3    3    0    0 -0.39768131729E+01  0.18068365626E+02 -0.36679351301E+02  0.41081086786E+02  0.51100000000E-03 0. -1.
        -11    1    3    3    0    0  0.18975023793E+01  0.16983455376E+01 -0.24187282213E+00  0.25580061704E+01  0.51100000000E-03 0.  1.
         12    1    3    3    0    0  0.12247139329E+01 -0.26458914164E+01 -0.29507072734E+01  0.41481729735E+01  0.00000000000E+00 0. -1.
</event>
<event>
 7    1  0.1457722E-010  0.4778728E+02  0.7816164E-02  0.1312668E+00
        -11   -1    0    0    0    0  0.00000000000E+00  0.00000000000E+00  0.45593999997E+02  0.45594000000E+02  0.51100000000E-03 0.  1.
         11   -1    0    0    0    0 -0.00000000000E+00 -0.00000000000E+00 -0.45593999997E+02  0.45594000000E+02  0.51100000000E-03 0. -1.
    9900012    2    1    2    0    0 -0.14452439398E+02 -0.27249186634E+02 -0.30532466312E+02  0.47787277934E+02  0.20000031412E+02 0.  0.
        -12    1    1    2    0    0  0.14452439398E+02  0.27249186634E+02  0.30532466312E+02  0.43400722066E+02  0.00000000000E+00 0.  1.
         11    1    3    3    0    0 -0.79510103222E+01 -0.10927583233E+02 -0.12329692979E+02  0.18293495283E+02  0.51100000000E-03 0. -1.
        -11    1    3    3    0    0 -0.41494955648E+00 -0.30480050940E+01 -0.13949212430E+02  0.14284363684E+02  0.51100000000E-03 0.  1.
        -12    1    3    3    0    0 -0.60864795191E+01 -0.13273598307E+02 -0.42535609037E+01  0.15209418967E+02  0.00000000000E+00 0.  1.
</event>
<event>
 7    1  0.1457722E-010  0.4778728E+02  0.7816164E-02  0.1312668E+00
        -11   -1    0    0    0    0  0.00000000000E+00  0.00000000000E+00  0.45593999997E+02  0.45594000000E+02  0.51100000000E-03 0.  1.
         11   -1    0    0    0    0 -0.00000000000E+00 -0.00000000000E+00 -0.45593999997E+02  0.45594000000E+02  0.51100000000E-03 0. -1.
    9900012    2    1    2    0    0  0.51821371025E+01  0.21291930318E+02 -0.37462269090E+02  0.47787280570E+02  0.20000043431E+02 0.  0.
        -12    1    1    2    0    0 -0.51821371025E+01 -0.21291930318E+02  0.37462269090E+02  0.43400719430E+02  0.00000000000E+00 0.  1.
         11    1    3    3    0    0  0.46217082942E+01  0.36171655830E+01 -0.90645268515E+01  0.10798598137E+02  0.51100000000E-03 0. -1.
        -11    1    3    3    0    0 -0.74787322383E+01  0.65308641615E+01 -0.12850643442E+02  0.16239540010E+02  0.51100000000E-03 0.  1.
        -12    1    3    3    0    0  0.80391610465E+01  0.11143900574E+02 -0.15547098797E+02  0.20749142424E+02  0.00000000000E+00 0.  1.
</event>
<event>
 7    1  0.1457722E-010  0.4778727E+02  0.7816164E-02  0.1312668E+00
        -11   -1    0    0    0    0  0.00000000000E+00  0.00000000000E+00  0.45593999997E+02  0.45594000000E+02  0.51100000000E-03 0. -1.
         11   -1    0    0    0    0 -0.00000000000E+00 -0.00000000000E+00 -0.45593999997E+02  0.45594000000E+02  0.51100000000E-03 0.  1.
    9900012    2    1    2    0    0 -0.42672839231E+02  0.79151256633E+01 -0.53527491743E-01  0.47787270888E+02  0.19999999286E+02 0.  0.
        -12    1    1    2    0    0  0.42672839231E+02 -0.79151256633E+01  0.53527491743E-01  0.43400729112E+02  0.00000000000E+00 0.  1.
         11    1    3    3    0    0 -0.93276884236E+01 -0.39716689873E+01  0.96330225400E+00  0.10183706465E+02  0.51100000000E-03 0. -1.
        -11    1    3    3    0    0 -0.26828984613E+01  0.52188717846E+01  0.16942145758E+01  0.61077762031E+01  0.51100000000E-03 0.  1.
         12    1    3    3    0    0 -0.30662252346E+02  0.66679228660E+01 -0.27110443215E+01  0.31495788220E+02  0.00000000000E+00 0. -1.
</event>
<event>
 7    1  0.1457722E-010  0.4778727E+02  0.7816164E-02  0.1312668E+00
        -11   -1    0    0    0    0  0.00000000000E+00  0.00000000000E+00  0.45593999997E+02  0.45594000000E+02  0.51100000000E-03 0.  1.
         11   -1    0    0    0    0 -0.00000000000E+00 -0.00000000000E+00 -0.45593999997E+02  0.45594000000E+02  0.51100000000E-03 0. -1.
    9900012    2    1    2    0    0 -0.33248177930E+02 -0.13459837980E+01 -0.27863417918E+02  0.47787273438E+02  0.20000010912E+02 0.  0.
        -12    1    1    2    0    0  0.33248177930E+02  0.13459837980E+01  0.27863417918E+02  0.43400726562E+02  0.00000000000E+00 0.  1.
         11    1    3    3    0    0 -0.85936633826E+01  0.24005239427E+01 -0.23198962151E+01  0.92192995527E+01  0.51100000000E-03 0. -1.
        -11    1    3    3    0    0 -0.19608873672E+02 -0.30646841273E+01 -0.10024140447E+02  0.22234738754E+02  0.51100000000E-03 0.  1.
        -12    1    3    3    0    0 -0.50456408752E+01 -0.68182361341E+00 -0.15519381256E+02  0.16333235131E+02  0.00000000000E+00 0.  1.
</event>
<event>
 7    1  0.1822825E-010  0.4778727E+02  0.7816164E-02  0.1312668E+00
        -11   -1    0    0    0    0  0.00000000000E+00  0.00000000000E+00  0.45593999997E+02  0.45594000000E+02  0.51100000000E-03 0.  1.
         11   -1    0    0    0    0 -0.00000000000E+00 -0.00000000000E+00 -0.45593999997E+02  0.45594000000E+02  0.51100000000E-03 0. -1.
    9900012    2    1    2    0    0 -0.31253353678E+02 -0.18600160529E+02 -0.23683007488E+02  0.47787274989E+02  0.20000017987E+02 0.  0.
        -12    1    1    2    0    0  0.31253353678E+02  0.18600160529E+02  0.23683007488E+02  0.43400725011E+02  0.00000000000E+00 0.  1.
         11    1    3    3    0    0 -0.17828380350E+02 -0.11125280031E+02 -0.12122552287E+02  0.24260652833E+02  0.51100000000E-03 0. -1.
        -11    1    3    3    0    0 -0.38988553383E+01 -0.47150461462E+01 -0.12137151813E+02  0.13592026615E+02  0.51100000000E-03 0.  1.
        -12    1    3    3    0    0 -0.95261179893E+01 -0.27598343515E+01  0.57669661222E+00  0.99345955416E+01  0.00000000000E+00 0.  1.
</event>
<event>
 7    1  0.1457722E-010  0.4778727E+02  0.7816164E-02  0.1312668E+00
        -11   -1    0    0    0    0  0.00000000000E+00  0.00000000000E+00  0.45593999997E+02  0.45594000000E+02  0.51100000000E-03 0. -1.
         11   -1    0    0    0    0 -0.00000000000E+00 -0.00000000000E+00 -0.45593999997E+02  0.45594000000E+02  0.51100000000E-03 0.  1.
    9900012    2    1    2    0    0 -0.12202104294E+02  0.24363139337E+00  0.41649396642E+02  0.47787274820E+02  0.20000017215E+02 0.  0.
        -12    1    1    2    0    0  0.12202104294E+02 -0.24363139337E+00 -0.41649396642E+02  0.43400725180E+02  0.00000000000E+00 0.  1.
         11    1    3    3    0    0  0.17478887427E+01  0.24284777216E+01  0.35582667193E+00  0.30131763942E+01  0.51100000000E-03 0. -1.
        -11    1    3    3    0    0 -0.31502534256E+01 -0.51240992148E+01  0.16801921294E+02  0.17846149412E+02  0.51100000000E-03 0.  1.
         12    1    3    3    0    0 -0.10799739612E+02  0.29392528865E+01  0.24491648677E+02  0.26927949014E+02  0.00000000000E+00 0. -1.
</event>
<event>
 7    1  0.1457722E-010  0.4778727E+02  0.7816164E-02  0.1312668E+00
        -11   -1    0    0    0    0  0.00000000000E+00  0.00000000000E+00  0.45593999997E+02  0.45594000000E+02  0.51100000000E-03 0. -1.
         11   -1    0    0    0    0 -0.00000000000E+00 -0.00000000000E+00 -0.45593999997E+02  0.45594000000E+02  0.51100000000E-03 0.  1.
    9900012    2    1    2    0    0 -0.30703361933E+02 -0.25617988817E+02  0.16871433644E+02  0.47787273529E+02  0.20000011328E+02 0.  0.
        -12    1    1    2    0    0  0.30703361933E+02  0.25617988817E+02 -0.16871433644E+02  0.43400726471E+02  0.00000000000E+00 0.  1.
         11    1    3    3    0    0 -0.65048291265E+01  0.20967418770E+01  0.18893543425E+01  0.70907537369E+01  0.51100000000E-03 0. -1.
        -11    1    3    3    0    0 -0.83003791847E+01 -0.12521747517E+02  0.19880997850E+01  0.15153976261E+02  0.51100000000E-03 0.  1.
        -12    1    3    3    0    0 -0.15898153622E+02 -0.15192983176E+02  0.12993979516E+02  0.25542543531E+02  0.00000000000E+00 0.  1.
</event>
<event>
 7    1  0.1457722E-010  0.4778729E+02  0.7816164E-02  0.1312668E+00
        -11   -1    0    0    0    0  0.00000000000E+00  0.00000000000E+00  0.45593999997E+02  0.45594000000E+02  0.51100000000E-03 0.  1.
         11   -1    0    0    0    0 -0.00000000000E+00 -0.00000000000E+00 -0.45593999997E+02  0.45594000000E+02  0.51100000000E-03 0. -1.
    9900012    2    1    2    0    0 -0.37530548612E+02  0.92240852218E+01 -0.19748313624E+02  0.47787288965E+02  0.20000081708E+02 0.  0.
        -12    1    1    2    0    0  0.37530548612E+02 -0.92240852218E+01  0.19748313624E+02  0.43400711035E+02  0.00000000000E+00 0.  1.
         11    1    3    3    0    0 -0.16011332331E+02  0.12131264107E+01 -0.50751046006E+01  0.16840164063E+02  0.51100000000E-03 0. -1.
        -11    1    3    3    0    0 -0.11776544368E+02  0.11391500955E+02 -0.59220330170E+01  0.17421933491E+02  0.51100000000E-03 0.  1.
         12    1    3    3    0    0 -0.97426719134E+01 -0.33805421443E+01 -0.87511760064E+01  0.13525191411E+02  0.00000000000E+00 0. -1.
</event>
<event>
 7    1  0.1457722E-010  0.4778727E+02  0.7816164E-02  0.1312668E+00
        -11   -1    0    0    0    0  0.00000000000E+00  0.00000000000E+00  0.45593999997E+02  0.45594000000E+02  0.51100000000E-03 0.  1.
         11   -1    0    0    0    0 -0.00000000000E+00 -0.00000000000E+00 -0.45593999997E+02  0.45594000000E+02  0.51100000000E-03 0. -1.
    9900012    2    1    2    0    0  0.12853674447E+02  0.57844106659E+01 -0.41048105285E+02  0.47787270732E+02  0.19999998574E+02 0.  0.
        -12    1    1    2    0    0 -0.12853674447E+02 -0.57844106659E+01  0.41048105285E+02  0.43400729268E+02  0.00000000000E+00 0.  1.
         11    1    3    3    0    0  0.11463077667E+02  0.63359892725E+00 -0.92669288370E+01  0.14753967857E+02  0.51100000000E-03 0. -1.
        -11    1    3    3    0    0  0.37006154233E+01  0.49274511275E+01 -0.17243433679E+02  0.18311480946E+02  0.51100000000E-03 0.  1.
         12    1    3    3    0    0 -0.23100186431E+01  0.22336061121E+00 -0.14537742768E+02  0.14721821928E+02  0.00000000000E+00 0. -1.
</event>
<event>
 7    1  0.1457722E-010  0.4778727E+02  0.7816164E-02  0.1312668E+00
        -11   -1    0    0    0    0  0.00000000000E+00  0.00000000000E+00  0.45593999997E+02  0.45594000000E+02  0.51100000000E-03 0. -1.
         11   -1    0    0    0    0 -0.00000000000E+00 -0.00000000000E+00 -0.45593999997E+02  0.45594000000E+02  0.51100000000E-03 0.  1.
    9900012    2    1    2    0    0 -0.17345582560E+02  0.39750403497E+02  0.16307087285E+01  0.47787273929E+02  0.20000013152E+02 0.  0.
        -12    1    1    2    0    0  0.17345582560E+02 -0.39750403497E+02 -0.16307087285E+01  0.43400726071E+02  0.00000000000E+00 0.  1.
         11    1    3    3    0    0 -0.79514870704E+01  0.97703264338E+01  0.78448434334E+01  0.14840046968E+02  0.51100000000E-03 0. -1.
        -11    1    3    3    0    0 -0.75471113277E+01  0.18337349571E+02 -0.47334053784E+00  0.19835355560E+02  0.51100000000E-03 0.  1.
         12    1    3    3    0    0 -0.18469841616E+01  0.11642727493E+02 -0.57407941670E+01  0.13111871401E+02  0.00000000000E+00 0. -1.
</event>
<event>
 7    1  0.1457722E-010  0.4778727E+02  0.7816164E-02  0.1312668E+00
        -11   -1    0    0    0    0  0.00000000000E+00  0.00000000000E+00  0.45593999997E+02  0.45594000000E+02  0.51100000000E-03 0.  1.
         11   -1    0    0    0    0 -0.00000000000E+00 -0.00000000000E+00 -0.45593999997E+02  0.45594000000E+02  0.51100000000E-03 0. -1.
    9900012    2    1    2    0    0 -0.22517452913E+02 -0.28028481179E+02 -0.24310326811E+02  0.47787269216E+02  0.19999991664E+02 0.  0.
        -12    1    1    2    0    0  0.22517452913E+02  0.28028481179E+02  0.24310326811E+02  0.43400730784E+02  0.00000000000E+00 0.  1.
         11    1    3    3    0    0 -0.15887550929E+01  0.34299524916E+00 -0.47131817766E+01  0.49855662875E+01  0.51100000000E-03 0. -1.
        -11    1    3    3    0    0 -0.98799425244E+01 -0.10980730260E+02 -0.61066867725E+00  0.14783863427E+02  0.51100000000E-03 0.  1.
         12    1    3    3    0    0 -0.11048755296E+02 -0.17390746168E+02 -0.18986476358E+02  0.28017839502E+02  0.00000000000E+00 0. -1.
</event>
<event>
 7    1  0.1457722E-010  0.4778727E+02  0.7816164E-02  0.1312668E+00
        -11   -1    0    0    0    0  0.00000000000E+00  0.00000000000E+00  0.45593999997E+02  0.45594000000E+02  0.51100000000E-03 0. -1.
         11   -1    0    0    0    0 -0.00000000000E+00 -0.00000000000E+00 -0.45593999997E+02  0.45594000000E+02  0.51100000000E-03 0.  1.
    9900012    2    1    2    0    0 -0.35539619533E+02 -0.57585115704E+01  0.24236301710E+02  0.47787270367E+02  0.19999996913E+02 0.  0.
        -12    1    1    2    0    0  0.35539619533E+02  0.57585115704E+01 -0.24236301710E+02  0.43400729633E+02  0.00000000000E+00 0.  1.
         11    1    3    3    0    0 -0.50015652613E+01  0.11530499529E+01  0.65767774105E+01  0.83426123382E+01  0.51100000000E-03 0. -1.
        -11    1    3    3    0    0 -0.29072602381E+02 -0.10673441402E+02  0.13968103446E+02  0.33974203077E+02  0.51100000000E-03 0.  1.
        -12    1    3    3    0    0 -0.14654518905E+01  0.37618798788E+01  0.36914208537E+01  0.54704549523E+01  0.00000000000E+00 0.  1.
</event>
<event>
 7    1  0.1457722E-010  0.4778727E+02  0.7816164E-02  0.1312668E+00
        -11   -1    0    0    0    0  0.00000000000E+00  0.00000000000E+00  0.45593999997E+02  0.45594000000E+02  0.51100000000E-03 0.  1.
         11   -1    0    0    0    0 -0.00000000000E+00 -0.00000000000E+00 -0.45593999997E+02  0.45594000000E+02  0.51100000000E-03 0. -1.
    9900012    2    1    2    0    0  0.70156284566E+01  0.14140425593E+02 -0.40428362168E+02  0.47787272515E+02  0.20000006706E+02 0.  0.
        -12    1    1    2    0    0 -0.70156284566E+01 -0.14140425593E+02  0.40428362168E+02  0.43400727485E+02  0.00000000000E+00 0.  1.
         11    1    3    3    0    0  0.32345412031E+01  0.64794941709E+01 -0.16844007662E+02  0.18334849219E+02  0.51100000000E-03 0. -1.
        -11    1    3    3    0    0 -0.22311376879E+01  0.95493786663E+01 -0.19816142628E+02  0.22109909932E+02  0.51100000000E-03 0.  1.
        -12    1    3    3    0    0  0.60122249414E+01 -0.18884472442E+01 -0.37682118777E+01  0.73425133636E+01  0.00000000000E+00 0.  1.
</event>
<event>
 7    1  0.1457722E-010  0.4778727E+02  0.7816164E-02  0.1312668E+00
        -11   -1    0    0    0    0  0.00000000000E+00  0.00000000000E+00  0.45593999997E+02  0.45594000000E+02  0.51100000000E-03 0.  1.
         11   -1    0    0    0    0 -0.00000000000E+00 -0.00000000000E+00 -0.45593999997E+02  0.45594000000E+02  0.51100000000E-03 0. -1.
    9900012    2    1    2    0    0 -0.25600668942E+02  0.34991339383E+02 -0.19583398848E+01  0.47787272158E+02  0.20000005076E+02 0.  0.
        -12    1    1    2    0    0  0.25600668942E+02 -0.34991339383E+02  0.19583398848E+01  0.43400727842E+02  0.00000000000E+00 0.  1.
         11    1    3    3    0    0 -0.24963516814E+01  0.14353906019E+02 -0.42542021470E+01  0.15177767487E+02  0.51100000000E-03 0. -1.
        -11    1    3    3    0    0 -0.36698806419E+01  0.32926111349E+01  0.42198847888E+01  0.64897411276E+01  0.51100000000E-03 0.  1.
         12    1    3    3    0    0 -0.19434436619E+02  0.17344822229E+02 -0.19240225266E+01  0.26119763543E+02  0.00000000000E+00 0. -1.
</event>
<event>
 7    1  0.1457722E-010  0.4778727E+02  0.7816164E-02  0.1312668E+00
        -11   -1    0    0    0    0  0.00000000000E+00  0.00000000000E+00  0.45593999997E+02  0.45594000000E+02  0.51100000000E-03 0.  1.
         11   -1    0    0    0    0 -0.00000000000E+00 -0.00000000000E+00 -0.45593999997E+02  0.45594000000E+02  0.51100000000E-03 0. -1.
    9900012    2    1    2    0    0  0.20466388299E+02 -0.97510098972E+01 -0.37009025898E+02  0.47787271413E+02  0.20000001679E+02 0.  0.
        -12    1    1    2    0    0 -0.20466388299E+02  0.97510098972E+01  0.37009025898E+02  0.43400728587E+02  0.00000000000E+00 0.  1.
         11    1    3    3    0    0  0.15100421136E+01 -0.95960962337E+01 -0.62540650905E+01  0.11553294791E+02  0.51100000000E-03 0. -1.
        -11    1    3    3    0    0  0.61057807909E+01 -0.18626193337E+00 -0.12459350415E+02  0.13876262667E+02  0.51100000000E-03 0.  1.
         12    1    3    3    0    0  0.12850565394E+02  0.31348269878E-01 -0.18295610392E+02  0.22357713955E+02  0.00000000000E+00 0. -1.
</event>
<event>
 7    1  0.1457722E-010  0.4778727E+02  0.7816164E-02  0.1312668E+00
        -11   -1    0    0    0    0  0.00000000000E+00  0.00000000000E+00  0.45593999997E+02  0.45594000000E+02  0.51100000000E-03 0.  1.
         11   -1    0    0    0    0 -0.00000000000E+00 -0.00000000000E+00 -0.45593999997E+02  0.45594000000E+02  0.51100000000E-03 0. -1.
    9900012    2    1    2    0    0 -0.28372952948E+02  0.85962312301E+01 -0.31697066813E+02  0.47787266194E+02  0.19999977886E+02 0.  0.
        -12    1    1    2    0    0  0.28372952948E+02 -0.85962312301E+01  0.31697066813E+02  0.43400733806E+02  0.00000000000E+00 0.  1.
         11    1    3    3    0    0 -0.49398594238E+01  0.11825346852E+00 -0.13505430483E+02  0.14380989111E+02  0.51100000000E-03 0.  1.
        -11    1    3    3    0    0 -0.13603832912E+02  0.11188311034E+02 -0.13448807457E+02  0.22161069378E+02  0.51100000000E-03 0. -1.
        -12    1    3    3    0    0 -0.98292606120E+01 -0.27103332723E+01 -0.47428288730E+01  0.11245207706E+02  0.00000000000E+00 0.  1.
</event>
<event>
 7    1  0.1457722E-010  0.4778723E+02  0.7816164E-02  0.1312668E+00
        -11   -1    0    0    0    0  0.00000000000E+00  0.00000000000E+00  0.45593999997E+02  0.45594000000E+02  0.51100000000E-03 0.  1.
         11   -1    0    0    0    0 -0.00000000000E+00 -0.00000000000E+00 -0.45593999997E+02  0.45594000000E+02  0.51100000000E-03 0. -1.
    9900012    2    1    2    0    0  0.34678748257E+02 -0.22988733163E+01 -0.25994746078E+02  0.47787225550E+02  0.19999792571E+02 0.  0.
        -12    1    1    2    0    0 -0.34678748257E+02  0.22988733163E+01  0.25994746078E+02  0.43400774450E+02  0.00000000000E+00 0.  1.
         11    1    3    3    0    0  0.13125818071E+02  0.55860091103E+01 -0.84525248917E+01  0.16581187385E+02  0.51100000000E-03 0. -1.
        -11    1    3    3    0    0  0.12206794237E+02 -0.31551919621E+01 -0.16375036416E+02  0.20666467520E+02  0.51100000000E-03 0.  1.
        -12    1    3    3    0    0  0.93461359492E+01 -0.47296904646E+01 -0.11671847696E+01  0.10539570644E+02  0.00000000000E+00 0.  1.
</event>
<event>
 7    1  0.1457722E-010  0.4778727E+02  0.7816164E-02  0.1312668E+00
        -11   -1    0    0    0    0  0.00000000000E+00  0.00000000000E+00  0.45593999997E+02  0.45594000000E+02  0.51100000000E-03 0.  1.
         11   -1    0    0    0    0 -0.00000000000E+00 -0.00000000000E+00 -0.45593999997E+02  0.45594000000E+02  0.51100000000E-03 0. -1.
    9900012    2    1    2    0    0  0.23121952640E+02 -0.36360718844E+02 -0.51862432982E+01  0.47787266270E+02  0.19999978232E+02 0.  0.
        -12    1    1    2    0    0 -0.23121952640E+02  0.36360718844E+02  0.51862432982E+01  0.43400733730E+02  0.00000000000E+00 0.  1.
         11    1    3    3    0    0  0.15448850137E+02 -0.91468956610E+01 -0.67269563030E+00  0.17966223601E+02  0.51100000000E-03 0. -1.
        -11    1    3    3    0    0  0.41870761737E+01 -0.16309490785E+02  0.14721786071E+01  0.16902615380E+02  0.51100000000E-03 0.  1.
        -12    1    3    3    0    0  0.34860263293E+01 -0.10904332397E+02 -0.59857262750E+01  0.12918427290E+02  0.00000000000E+00 0.  1.
</event>
<event>
 7    1  0.1457722E-010  0.4778727E+02  0.7816164E-02  0.1312668E+00
        -11   -1    0    0    0    0  0.00000000000E+00  0.00000000000E+00  0.45593999997E+02  0.45594000000E+02  0.51100000000E-03 0.  1.
         11   -1    0    0    0    0 -0.00000000000E+00 -0.00000000000E+00 -0.45593999997E+02  0.45594000000E+02  0.51100000000E-03 0. -1.
    9900012    2    1    2    0    0  0.28912195546E+02 -0.25858074848E+02 -0.19469675932E+02  0.47787269971E+02  0.19999995107E+02 0.  0.
        -12    1    1    2    0    0 -0.28912195546E+02  0.25858074848E+02  0.19469675932E+02  0.43400730029E+02  0.00000000000E+00 0.  1.
         11    1    3    3    0    0  0.20425924519E+02 -0.24681677980E+02 -0.16181864093E+02  0.35892288115E+02  0.51100000000E-03 0. -1.
        -11    1    3    3    0    0  0.84421809264E+01 -0.21382870283E+01 -0.25448216995E+00  0.87124882579E+01  0.51100000000E-03 0.  1.
        -12    1    3    3    0    0  0.44090100613E-01  0.96189016068E+00 -0.30333296692E+01  0.31824935978E+01  0.00000000000E+00 0.  1.
</event>
<event>
 7    1  0.2114270E-010  0.4778727E+02  0.7816164E-02  0.1312668E+00
        -11   -1    0    0    0    0  0.00000000000E+00  0.00000000000E+00  0.45593999997E+02  0.45594000000E+02  0.51100000000E-03 0.  1.
         11   -1    0    0    0    0 -0.00000000000E+00 -0.00000000000E+00 -0.45593999997E+02  0.45594000000E+02  0.51100000000E-03 0. -1.
    9900012    2    1    2    0    0 -0.54705381079E+01  0.28444081082E+02 -0.32320748936E+02  0.47787270196E+02  0.19999996131E+02 0.  0.
        -12    1    1    2    0    0  0.54705381079E+01 -0.28444081082E+02  0.32320748936E+02  0.43400729804E+02  0.00000000000E+00 0.  1.
         11    1    3    3    0    0 -0.77198545054E+01  0.15728132742E+02 -0.12537964144E+02  0.21544624812E+02  0.51100000000E-03 0. -1.
        -11    1    3    3    0    0 -0.14640575956E+01 -0.16052554638E+01 -0.43579169904E+01  0.48694712756E+01  0.51100000000E-03 0.  1.
         12    1    3    3    0    0  0.37133739930E+01  0.14321203803E+02 -0.15424867801E+02  0.21373174108E+02  0.00000000000E+00 0. -1.
</event>
<event>
 7    1  0.1457722E-010  0.4778727E+02  0.7816164E-02  0.1312668E+00
        -11   -1    0    0    0    0  0.00000000000E+00  0.00000000000E+00  0.45593999997E+02  0.45594000000E+02  0.51100000000E-03 0. -1.
         11   -1    0    0    0    0 -0.00000000000E+00 -0.00000000000E+00 -0.45593999997E+02  0.45594000000E+02  0.51100000000E-03 0.  1.
    9900012    2    1    2    0    0 -0.25769417985E+02  0.34734514729E+02  0.36157924929E+01  0.47787269913E+02  0.19999994840E+02 0.  0.
        -12    1    1    2    0    0  0.25769417985E+02 -0.34734514729E+02 -0.36157924929E+01  0.43400730087E+02  0.00000000000E+00 0.  1.
         11    1    3    3    0    0 -0.75038165886E+01  0.13437164314E+02  0.97047483765E+01  0.18194691245E+02  0.51100000000E-03 0. -1.
        -11    1    3    3    0    0 -0.51907139847E+01  0.25629026844E+01 -0.30566616882E+01  0.65463854743E+01  0.51100000000E-03 0.  1.
         12    1    3    3    0    0 -0.13074887412E+02  0.18734447731E+02 -0.30322941955E+01  0.23046193193E+02  0.00000000000E+00 0. -1.
</event>
<event>
 7    1  0.1457722E-010  0.4778727E+02  0.7816164E-02  0.1312668E+00
        -11   -1    0    0    0    0  0.00000000000E+00  0.00000000000E+00  0.45593999997E+02  0.45594000000E+02  0.51100000000E-03 0.  1.
         11   -1    0    0    0    0 -0.00000000000E+00 -0.00000000000E+00 -0.45593999997E+02  0.45594000000E+02  0.51100000000E-03 0. -1.
    9900012    2    1    2    0    0 -0.92386537954E+01 -0.67079381562E+00 -0.42400714036E+02  0.47787271445E+02  0.20000001828E+02 0.  0.
        -12    1    1    2    0    0  0.92386537954E+01  0.67079381562E+00  0.42400714036E+02  0.43400728555E+02  0.00000000000E+00 0.  1.
         11    1    3    3    0    0  0.34435166232E+01  0.20454688432E+01 -0.77092284658E+01  0.86875746513E+01  0.51100000000E-03 0. -1.
        -11    1    3    3    0    0  0.78330853171E+00 -0.43945049024E+01 -0.83204501280E+01  0.94421997536E+01  0.51100000000E-03 0.  1.
        -12    1    3    3    0    0 -0.13465478950E+02  0.16782422436E+01 -0.26371035442E+02  0.29657497040E+02  0.00000000000E+00 0.  1.
</event>
<event>
 7    1  0.1457722E-010  0.4778727E+02  0.7816164E-02  0.1312668E+00
        -11   -1    0    0    0    0  0.00000000000E+00  0.00000000000E+00  0.45593999997E+02  0.45594000000E+02  0.51100000000E-03 0.  1.
         11   -1    0    0    0    0 -0.00000000000E+00 -0.00000000000E+00 -0.45593999997E+02  0.45594000000E+02  0.51100000000E-03 0. -1.
    9900012    2    1    2    0    0 -0.42303411160E+02 -0.96962520391E+01  0.16581684749E+00  0.47787269653E+02  0.19999993658E+02 0.  0.
        -12    1    1    2    0    0  0.42303411160E+02  0.96962520391E+01 -0.16581684749E+00  0.43400730347E+02  0.00000000000E+00 0.  1.
         11    1    3    3    0    0 -0.24178339175E+01 -0.64882863847E-01 -0.36813259422E+01  0.44048032410E+01  0.51100000000E-03 0.  1.
        -11    1    3    3    0    0 -0.37372941009E+02 -0.88765734676E+01 -0.37166405403E+00  0.38414429719E+02  0.51100000000E-03 0. -1.
         12    1    3    3    0    0 -0.25126362331E+01 -0.75479570767E+00  0.42188068437E+01  0.49680366932E+01  0.00000000000E+00 0. -1.
</event>
<event>
 7    1  0.1457722E-010  0.4778727E+02  0.7816164E-02  0.1312668E+00
        -11   -1    0    0    0    0  0.00000000000E+00  0.00000000000E+00  0.45593999997E+02  0.45594000000E+02  0.51100000000E-03 0.  1.
         11   -1    0    0    0    0 -0.00000000000E+00 -0.00000000000E+00 -0.45593999997E+02  0.45594000000E+02  0.51100000000E-03 0. -1.
    9900012    2    1    2    0    0 -0.15693816670E+02 -0.23198655531E+02 -0.33153426845E+02  0.47787271761E+02  0.20000003267E+02 0.  0.
        -12    1    1    2    0    0  0.15693816670E+02  0.23198655531E+02  0.33153426845E+02  0.43400728239E+02  0.00000000000E+00 0.  1.
         11    1    3    3    0    0 -0.76495638742E+00 -0.78581260446E+01 -0.54807785420E+01  0.96111516945E+01  0.51100000000E-03 0. -1.
        -11    1    3    3    0    0 -0.12137821592E+02 -0.16052840525E+01 -0.11860532995E+02  0.17046286783E+02  0.51100000000E-03 0.  1.
        -12    1    3    3    0    0 -0.27910386909E+01 -0.13735245434E+02 -0.15812115307E+02  0.21129833284E+02  0.00000000000E+00 0.  1.
</event>
<event>
 7    1  0.1457722E-010  0.4778727E+02  0.7816164E-02  0.1312668E+00
        -11   -1    0    0    0    0  0.00000000000E+00  0.00000000000E+00  0.45593999997E+02  0.45594000000E+02  0.51100000000E-03 0.  1.
         11   -1    0    0    0    0 -0.00000000000E+00 -0.00000000000E+00 -0.45593999997E+02  0.45594000000E+02  0.51100000000E-03 0. -1.
    9900012    2    1    2    0    0 -0.34692988792E+00 -0.16828334326E+02 -0.40003875444E+02  0.47787271353E+02  0.20000001409E+02 0.  0.
        -12    1    1    2    0    0  0.34692988792E+00  0.16828334326E+02  0.40003875444E+02  0.43400728647E+02  0.00000000000E+00 0.  1.
         11    1    3    3    0    0  0.36241948544E+01 -0.22056252608E+00 -0.51354668569E+01  0.62893923610E+01  0.51100000000E-03 0. -1.
        -11    1    3    3    0    0 -0.94343586564E+01 -0.84896003977E+01 -0.18746240861E+02  0.22638506683E+02  0.51100000000E-03 0.  1.
        -12    1    3    3    0    0  0.54632339140E+01 -0.81181714020E+01 -0.16122167726E+02  0.18859372309E+02  0.00000000000E+00 0.  1.
</event>
<event>
 7    1  0.1457722E-010  0.4778727E+02  0.7816164E-02  0.1312668E+00
        -11   -1    0    0    0    0  0.00000000000E+00  0.00000000000E+00  0.45593999997E+02  0.45594000000E+02  0.51100000000E-03 0.  1.
         11   -1    0    0    0    0 -0.00000000000E+00 -0.00000000000E+00 -0.45593999997E+02  0.45594000000E+02  0.51100000000E-03 0. -1.
    9900012    2    1    2    0    0  0.16708459708E+02  0.70638594315E+01 -0.39427815924E+02  0.47787269540E+02  0.19999993142E+02 0.  0.
        -12    1    1    2    0    0 -0.16708459708E+02 -0.70638594315E+01  0.39427815924E+02  0.43400730460E+02  0.00000000000E+00 0.  1.
         11    1    3    3    0    0  0.42781737326E+01  0.95857409030E+01 -0.29778207157E+02  0.31574211326E+02  0.51100000000E-03 0. -1.
        -11    1    3    3    0    0  0.61352073027E+01 -0.29821158237E-01 -0.57020766447E+01  0.83758782389E+01  0.51100000000E-03 0.  1.
         12    1    3    3    0    0  0.62950786731E+01 -0.24920603133E+01 -0.39475321228E+01  0.78371799754E+01  0.00000000000E+00 0. -1.
</event>
<event>
 7    1  0.1457722E-010  0.4778727E+02  0.7816164E-02  0.1312668E+00
        -11   -1    0    0    0    0  0.00000000000E+00  0.00000000000E+00  0.45593999997E+02  0.45594000000E+02  0.51100000000E-03 0.  1.
         11   -1    0    0    0    0 -0.00000000000E+00 -0.00000000000E+00 -0.45593999997E+02  0.45594000000E+02  0.51100000000E-03 0. -1.
    9900012    2    1    2    0    0 -0.24182447581E+02 -0.32746670018E+02 -0.15049524571E+02  0.47787270074E+02  0.19999995576E+02 0.  0.
        -12    1    1    2    0    0  0.24182447581E+02  0.32746670018E+02  0.15049524571E+02  0.43400729926E+02  0.00000000000E+00 0.  1.
         11    1    3    3    0    0 -0.19803793377E+02 -0.15797400502E+02 -0.81096176560E+01  0.26599135203E+02  0.51100000000E-03 0. -1.
        -11    1    3    3    0    0 -0.40492526878E+01 -0.95841775572E+01 -0.87523130949E+01  0.13596171945E+02  0.51100000000E-03 0.  1.
        -12    1    3    3    0    0 -0.32940151660E+00 -0.73650919588E+01  0.18124061803E+01  0.75919629269E+01  0.00000000000E+00 0.  1.
</event>
<event>
 7    1  0.1457722E-010  0.4778727E+02  0.7816164E-02  0.1312668E+00
        -11   -1    0    0    0    0  0.00000000000E+00  0.00000000000E+00  0.45593999997E+02  0.45594000000E+02  0.51100000000E-03 0.  1.
         11   -1    0    0    0    0 -0.00000000000E+00 -0.00000000000E+00 -0.45593999997E+02  0.45594000000E+02  0.51100000000E-03 0. -1.
    9900012    2    1    2    0    0 -0.39699209282E+02 -0.18226232591E+01  0.17443456555E+02  0.47787270171E+02  0.19999996016E+02 0.  0.
        -12    1    1    2    0    0  0.39699209282E+02  0.18226232591E+01 -0.17443456555E+02  0.43400729829E+02  0.00000000000E+00 0.  1.
         11    1    3    3    0    0 -0.13854715705E+02  0.18023953514E+01  0.19854056860E+01  0.14111825263E+02  0.51100000000E-03 0.  1.
        -11    1    3    3    0    0 -0.11683923014E+02 -0.41212293940E+01 -0.41728728614E+00  0.12396480051E+02  0.51100000000E-03 0. -1.
        -12    1    3    3    0    0 -0.14160570562E+02  0.49621078355E+00  0.15875338155E+02  0.21278964856E+02  0.00000000000E+00 0.  1.
</event>
<event>
 7    1  0.1457722E-010  0.4778727E+02  0.7816164E-02  0.1312668E+00
        -11   -1    0    0    0    0  0.00000000000E+00  0.00000000000E+00  0.45593999997E+02  0.45594000000E+02  0.51100000000E-03 0. -1.
         11   -1    0    0    0    0 -0.00000000000E+00 -0.00000000000E+00 -0.45593999997E+02  0.45594000000E+02  0.51100000000E-03 0.  1.
    9900012    2    1    2    0    0  0.43000182327E+02 -0.58341272795E+01 -0.75557895064E+00  0.47787267047E+02  0.19999981775E+02 0.  0.
        -12    1    1    2    0    0 -0.43000182327E+02  0.58341272795E+01  0.75557895064E+00  0.43400732953E+02  0.00000000000E+00 0.  1.
         11    1    3    3    0    0  0.14683749588E+02 -0.87051506124E+01  0.38786338127E+01  0.17505312041E+02  0.51100000000E-03 0. -1.
        -11    1    3    3    0    0  0.17300861134E+02 -0.24189931181E+01 -0.45893190424E+01  0.18061926066E+02  0.51100000000E-03 0.  1.
         12    1    3    3    0    0  0.11015571605E+02  0.52900164511E+01 -0.44893720940E-01  0.12220028940E+02  0.00000000000E+00 0. -1.
</event>
<event>
 7    1  0.1457722E-010  0.4778727E+02  0.7816164E-02  0.1312668E+00
        -11   -1    0    0    0    0  0.00000000000E+00  0.00000000000E+00  0.45593999997E+02  0.45594000000E+02  0.51100000000E-03 0.  1.
         11   -1    0    0    0    0 -0.00000000000E+00 -0.00000000000E+00 -0.45593999997E+02  0.45594000000E+02  0.51100000000E-03 0. -1.
    9900012    2    1    2    0    0  0.73966990846E+01  0.35237967655E+02 -0.24232174101E+02  0.47787265173E+02  0.19999973231E+02 0.  0.
        -12    1    1    2    0    0 -0.73966990846E+01 -0.35237967655E+02  0.24232174101E+02  0.43400734827E+02  0.00000000000E+00 0.  1.
         11    1    3    3    0    0  0.53091882172E+01  0.20115888160E+01  0.10412077283E+01  0.57721818132E+01  0.51100000000E-03 0.  1.
        -11    1    3    3    0    0  0.28779072750E+01  0.19358734018E+02 -0.13155587237E+02  0.23582035723E+02  0.51100000000E-03 0. -1.
        -12    1    3    3    0    0 -0.79039640767E+00  0.13867644822E+02 -0.12117794593E+02  0.18433047637E+02  0.00000000000E+00 0.  1.
</event>
<event>
 7    1  0.1457722E-010  0.4778727E+02  0.7816164E-02  0.1312668E+00
        -11   -1    0    0    0    0  0.00000000000E+00  0.00000000000E+00  0.45593999997E+02  0.45594000000E+02  0.51100000000E-03 0.  1.
         11   -1    0    0    0    0 -0.00000000000E+00 -0.00000000000E+00 -0.45593999997E+02  0.45594000000E+02  0.51100000000E-03 0. -1.
    9900012    2    1    2    0    0 -0.31245963849E+01 -0.40855412117E+02 -0.14307183557E+02  0.47787270707E+02  0.19999998461E+02 0.  0.
        -12    1    1    2    0    0  0.31245963849E+01  0.40855412117E+02  0.14307183557E+02  0.43400729293E+02  0.00000000000E+00 0.  1.
         11    1    3    3    0    0 -0.12422400686E+01 -0.15063210846E+02 -0.63569094429E+01  0.16396761245E+02  0.51100000000E-03 0. -1.
        -11    1    3    3    0    0 -0.10615789824E+01  0.21095940393E+01  0.17640145879E-01  0.23617045502E+01  0.51100000000E-03 0.  1.
        -12    1    3    3    0    0 -0.82077733391E+00 -0.27901795310E+02 -0.79679142601E+01  0.29028804912E+02  0.00000000000E+00 0.  1.
</event>
<event>
 7    1  0.1457722E-010  0.4778727E+02  0.7816164E-02  0.1312668E+00
        -11   -1    0    0    0    0  0.00000000000E+00  0.00000000000E+00  0.45593999997E+02  0.45594000000E+02  0.51100000000E-03 0. -1.
         11   -1    0    0    0    0 -0.00000000000E+00 -0.00000000000E+00 -0.45593999997E+02  0.45594000000E+02  0.51100000000E-03 0.  1.
    9900012    2    1    2    0    0  0.73617928962E+01  0.36617764874E+02  0.22103546802E+02  0.47787268667E+02  0.19999989162E+02 0.  0.
        -12    1    1    2    0    0 -0.73617928962E+01 -0.36617764874E+02 -0.22103546802E+02  0.43400731333E+02  0.00000000000E+00 0.  1.
         11    1    3    3    0    0  0.57210824212E+01  0.16841167220E+02  0.54491855916E+01  0.18602400954E+02  0.51100000000E-03 0.  1.
        -11    1    3    3    0    0 -0.25183541825E+01 -0.93540221191E+00  0.30185402631E+01  0.40408749879E+01  0.51100000000E-03 0. -1.
         12    1    3    3    0    0  0.41590646575E+01  0.20711999866E+02  0.13635820947E+02  0.25143992725E+02  0.00000000000E+00 0. -1.
</event>
<event>
 7    1  0.1457722E-010  0.4778727E+02  0.7816164E-02  0.1312668E+00
        -11   -1    0    0    0    0  0.00000000000E+00  0.00000000000E+00  0.45593999997E+02  0.45594000000E+02  0.51100000000E-03 0. -1.
         11   -1    0    0    0    0 -0.00000000000E+00 -0.00000000000E+00 -0.45593999997E+02  0.45594000000E+02  0.51100000000E-03 0.  1.
    9900012    2    1    2    0    0  0.19719489349E+02 -0.37053892303E+02 -0.11035152951E+02  0.47787265033E+02  0.19999972594E+02 0.  0.
        -12    1    1    2    0    0 -0.19719489349E+02  0.37053892303E+02  0.11035152951E+02  0.43400734967E+02  0.00000000000E+00 0.  1.
         11    1    3    3    0    0  0.11995528559E+02 -0.31766867710E+02 -0.13131170052E+02  0.36406788058E+02  0.51100000000E-03 0. -1.
        -11    1    3    3    0    0  0.71982635015E+01 -0.66020714162E+01  0.19045319328E+01  0.99513610409E+01  0.51100000000E-03 0.  1.
        -12    1    3    3    0    0  0.52569728821E+00  0.13150468227E+01  0.19148516875E+00  0.14291159346E+01  0.00000000000E+00 0.  1.
</event>
<event>
 7    1  0.1457722E-010  0.4778727E+02  0.7816164E-02  0.1312668E+00
        -11   -1    0    0    0    0  0.00000000000E+00  0.00000000000E+00  0.45593999997E+02  0.45594000000E+02  0.51100000000E-03 0. -1.
         11   -1    0    0    0    0 -0.00000000000E+00 -0.00000000000E+00 -0.45593999997E+02  0.45594000000E+02  0.51100000000E-03 0.  1.
    9900012    2    1    2    0    0  0.38766068918E+02  0.19504174721E+02 -0.63470651978E+00  0.47787265176E+02  0.19999973243E+02 0.  0.
        -12    1    1    2    0    0 -0.38766068918E+02 -0.19504174721E+02  0.63470651978E+00  0.43400734824E+02  0.00000000000E+00 0.  1.
         11    1    3    3    0    0  0.11778772851E+02  0.99263769668E+01  0.11104495881E+01  0.15443624837E+02  0.51100000000E-03 0. -1.
        -11    1    3    3    0    0  0.12411435046E+02  0.34165640450E+01 -0.81894255593E+01  0.15257238316E+02  0.51100000000E-03 0.  1.
         12    1    3    3    0    0  0.14575861021E+02  0.61612337093E+01  0.64442694514E+01  0.17086402023E+02  0.00000000000E+00 0. -1.
</event>
<event>
 7    1  0.1457722E-010  0.4778728E+02  0.7816164E-02  0.1312668E+00
        -11   -1    0    0    0    0  0.00000000000E+00  0.00000000000E+00  0.45593999997E+02  0.45594000000E+02  0.51100000000E-03 0.  1.
         11   -1    0    0    0    0 -0.00000000000E+00 -0.00000000000E+00 -0.45593999997E+02  0.45594000000E+02  0.51100000000E-03 0. -1.
    9900012    2    1    2    0    0 -0.18149827765E+02  0.57065225188E+01 -0.39008232324E+02  0.47787276087E+02  0.20000022989E+02 0.  0.
        -12    1    1    2    0    0  0.18149827765E+02 -0.57065225188E+01  0.39008232324E+02  0.43400723913E+02  0.00000000000E+00 0.  1.
         11    1    3    3    0    0 -0.18864404018E+02  0.42232953350E+01 -0.35054587845E+02  0.40031563693E+02  0.51100000000E-03 0. -1.
        -11    1    3    3    0    0 -0.42853611795E+00  0.38665613735E+01 -0.31115238267E+01  0.49815179257E+01  0.51100000000E-03 0.  1.
         12    1    3    3    0    0  0.11431123710E+01 -0.23833341897E+01 -0.84212065194E+00  0.27741944678E+01  0.00000000000E+00 0. -1.
</event>
<event>
 7    1  0.1457722E-010  0.4778727E+02  0.7816164E-02  0.1312668E+00
        -11   -1    0    0    0    0  0.00000000000E+00  0.00000000000E+00  0.45593999997E+02  0.45594000000E+02  0.51100000000E-03 0. -1.
         11   -1    0    0    0    0 -0.00000000000E+00 -0.00000000000E+00 -0.45593999997E+02  0.45594000000E+02  0.51100000000E-03 0.  1.
    9900012    2    1    2    0    0  0.23647993705E+02  0.21730893595E+02  0.29191844595E+02  0.47787272660E+02  0.20000007368E+02 0.  0.
        -12    1    1    2    0    0 -0.23647993705E+02 -0.21730893595E+02 -0.29191844595E+02  0.43400727340E+02  0.00000000000E+00 0.  1.
         11    1    3    3    0    0  0.23248493174E+01  0.38473350310E+01 -0.47482595204E+00  0.45202180407E+01  0.51100000000E-03 0.  1.
        -11    1    3    3    0    0  0.21481071490E+02  0.19982127493E+02  0.27012413349E+02  0.39879723253E+02  0.51100000000E-03 0. -1.
         12    1    3    3    0    0 -0.15792710205E+00 -0.20985689287E+01  0.26542571978E+01  0.33873313671E+01  0.00000000000E+00 0. -1.
</event>
<event>
 7    1  0.1457722E-010  0.4778727E+02  0.7816164E-02  0.1312668E+00
        -11   -1    0    0    0    0  0.00000000000E+00  0.00000000000E+00  0.45593999997E+02  0.45594000000E+02  0.51100000000E-03 0.  1.
         11   -1    0    0    0    0 -0.00000000000E+00 -0.00000000000E+00 -0.45593999997E+02  0.45594000000E+02  0.51100000000E-03 0. -1.
    9900012    2    1    2    0    0 -0.49514882311E+01  0.28847561614E+02 -0.32045660275E+02  0.47787269715E+02  0.19999993940E+02 0.  0.
        -12    1    1    2    0    0  0.49514882311E+01 -0.28847561614E+02  0.32045660275E+02  0.43400730285E+02  0.00000000000E+00 0.  1.
         11    1    3    3    0    0 -0.77404859765E+00 -0.20458799626E+01 -0.18538837310E+01  0.28673439281E+01  0.51100000000E-03 0. -1.
        -11    1    3    3    0    0  0.19317013152E+01  0.13305379041E+02 -0.18729916759E+02  0.23055896501E+02  0.51100000000E-03 0.  1.
         12    1    3    3    0    0 -0.61091409486E+01  0.17588062536E+02 -0.11461859785E+02  0.21864029286E+02  0.00000000000E+00 0. -1.
</event>
<event>
 7    1  0.1457722E-010  0.4778727E+02  0.7816164E-02  0.1312668E+00
        -11   -1    0    0    0    0  0.00000000000E+00  0.00000000000E+00  0.45593999997E+02  0.45594000000E+02  0.51100000000E-03 0.  1.
         11   -1    0    0    0    0 -0.00000000000E+00 -0.00000000000E+00 -0.45593999997E+02  0.45594000000E+02  0.51100000000E-03 0. -1.
    9900012    2    1    2    0    0  0.19944035258E+02 -0.26251511219E+02 -0.28226182560E+02  0.47787265380E+02  0.19999974173E+02 0.  0.
        -12    1    1    2    0    0 -0.19944035258E+02  0.26251511219E+02  0.28226182560E+02  0.43400734620E+02  0.00000000000E+00 0.  1.
         11    1    3    3    0    0  0.73906545201E+01 -0.38563781347E+01 -0.11595180093E+02  0.14280813290E+02  0.51100000000E-03 0. -1.
        -11    1    3    3    0    0  0.10437517315E+02 -0.52469428308E+01 -0.82591124842E+01  0.14306820613E+02  0.51100000000E-03 0.  1.
        -12    1    3    3    0    0  0.21158634229E+01 -0.17148190253E+02 -0.83718899827E+01  0.19199631478E+02  0.00000000000E+00 0.  1.
</event>
<event>
 7    1  0.1457722E-010  0.4778727E+02  0.7816164E-02  0.1312668E+00
        -11   -1    0    0    0    0  0.00000000000E+00  0.00000000000E+00  0.45593999997E+02  0.45594000000E+02  0.51100000000E-03 0.  1.
         11   -1    0    0    0    0 -0.00000000000E+00 -0.00000000000E+00 -0.45593999997E+02  0.45594000000E+02  0.51100000000E-03 0. -1.
    9900012    2    1    2    0    0 -0.20312045182E+02 -0.30144362993E+02 -0.23714164767E+02  0.47787269473E+02  0.19999992833E+02 0.  0.
        -12    1    1    2    0    0  0.20312045182E+02  0.30144362993E+02  0.23714164767E+02  0.43400730527E+02  0.00000000000E+00 0.  1.
         11    1    3    3    0    0 -0.20135619799E+02 -0.18743360916E+02 -0.11338315105E+02  0.29754229159E+02  0.51100000000E-03 0. -1.
        -11    1    3    3    0    0  0.13900015652E+01 -0.87045359670E+01 -0.52626005037E+01  0.10266256137E+02  0.51100000000E-03 0.  1.
         12    1    3    3    0    0 -0.15664269481E+01 -0.26964661096E+01 -0.71132491582E+01  0.77667841769E+01  0.00000000000E+00 0. -1.
</event>
<event>
 7    1  0.1457722E-010  0.4778727E+02  0.7816164E-02  0.1312668E+00
        -11   -1    0    0    0    0  0.00000000000E+00  0.00000000000E+00  0.45593999997E+02  0.45594000000E+02  0.51100000000E-03 0. -1.
         11   -1    0    0    0    0 -0.00000000000E+00 -0.00000000000E+00 -0.45593999997E+02  0.45594000000E+02  0.51100000000E-03 0.  1.
    9900012    2    1    2    0    0  0.10353827049E+02  0.11496518459E+02  0.40549369035E+02  0.47787274195E+02  0.20000014365E+02 0.  0.
        -12    1    1    2    0    0 -0.10353827049E+02 -0.11496518459E+02 -0.40549369035E+02  0.43400725805E+02  0.00000000000E+00 0.  1.
         11    1    3    3    0    0  0.83337446520E+00  0.71102911561E+01  0.24842974695E+02  0.25853900001E+02  0.51100000000E-03 0. -1.
        -11    1    3    3    0    0  0.10776433470E+02  0.13721568217E+01  0.15116663635E+02  0.18615258590E+02  0.51100000000E-03 0.  1.
         12    1    3    3    0    0 -0.12559808864E+01  0.30140704813E+01  0.58973070553E+00  0.33181156035E+01  0.00000000000E+00 0. -1.
</event>
<event>
 7    1  0.1457722E-010  0.4778725E+02  0.7816164E-02  0.1312668E+00
        -11   -1    0    0    0    0  0.00000000000E+00  0.00000000000E+00  0.45593999997E+02  0.45594000000E+02  0.51100000000E-03 0. -1.
         11   -1    0    0    0    0 -0.00000000000E+00 -0.00000000000E+00 -0.45593999997E+02  0.45594000000E+02  0.51100000000E-03 0.  1.
    9900012    2    1    2    0    0 -0.81546607480E+01  0.22253879335E+02  0.36357830508E+02  0.47787245668E+02  0.19999884297E+02 0.  0.
        -12    1    1    2    0    0  0.81546607480E+01 -0.22253879335E+02 -0.36357830508E+02  0.43400754332E+02  0.00000000000E+00 0.  1.
         11    1    3    3    0    0  0.37065233251E+01  0.10202110805E+02  0.23208725905E+02  0.25621599061E+02  0.51100000000E-03 0. -1.
        -11    1    3    3    0    0 -0.83395042161E+00 -0.61471450942E+00  0.98053030659E+00  0.14264596654E+01  0.51100000000E-03 0.  1.
         12    1    3    3    0    0 -0.11027233651E+02  0.12666483039E+02  0.12168574296E+02  0.20739186941E+02  0.00000000000E+00 0. -1.
</event>
<event>
 7    1  0.1457722E-010  0.4778727E+02  0.7816164E-02  0.1312668E+00
        -11   -1    0    0    0    0  0.00000000000E+00  0.00000000000E+00  0.45593999997E+02  0.45594000000E+02  0.51100000000E-03 0.  1.
         11   -1    0    0    0    0 -0.00000000000E+00 -0.00000000000E+00 -0.45593999997E+02  0.45594000000E+02  0.51100000000E-03 0. -1.
    9900012    2    1    2    0    0  0.15228485587E+02  0.33255139917E+02 -0.23362621843E+02  0.47787271854E+02  0.20000003693E+02 0.  0.
        -12    1    1    2    0    0 -0.15228485587E+02 -0.33255139917E+02  0.23362621843E+02  0.43400728146E+02  0.00000000000E+00 0.  1.
         11    1    3    3    0    0  0.69112197770E+01  0.14269228073E+02 -0.15583962520E+02  0.22231412836E+02  0.51100000000E-03 0. -1.
        -11    1    3    3    0    0  0.28510501368E+00 -0.84806913542E+00  0.18772106987E+01  0.20795255218E+01  0.51100000000E-03 0.  1.
         12    1    3    3    0    0  0.80321607964E+01  0.19833980980E+02 -0.96558700219E+01  0.23476333497E+02  0.00000000000E+00 0. -1.
</event>
<event>
 7    1  0.1457722E-010  0.4778727E+02  0.7816164E-02  0.1312668E+00
        -11   -1    0    0    0    0  0.00000000000E+00  0.00000000000E+00  0.45593999997E+02  0.45594000000E+02  0.51100000000E-03 0.  1.
         11   -1    0    0    0    0 -0.00000000000E+00 -0.00000000000E+00 -0.45593999997E+02  0.45594000000E+02  0.51100000000E-03 0. -1.
    9900012    2    1    2    0    0  0.25245951598E+01  0.43202459991E+02 -0.32859642314E+01  0.47787266240E+02  0.19999978093E+02 0.  0.
        -12    1    1    2    0    0 -0.25245951598E+01 -0.43202459991E+02  0.32859642314E+01  0.43400733760E+02  0.00000000000E+00 0.  1.
         11    1    3    3    0    0 -0.45110246978E+01  0.18016559866E+02  0.12160759904E+01  0.18612485442E+02  0.51100000000E-03 0. -1.
        -11    1    3    3    0    0  0.68086052096E+00  0.23560694603E+00 -0.33237996040E+01  0.34009889372E+01  0.51100000000E-03 0.  1.
         12    1    3    3    0    0  0.63547593366E+01  0.24950293179E+02 -0.11782406177E+01  0.25773791861E+02  0.00000000000E+00 0. -1.
</event>
<event>
 7    1  0.1457722E-010  0.4778727E+02  0.7816164E-02  0.1312668E+00
        -11   -1    0    0    0    0  0.00000000000E+00  0.00000000000E+00  0.45593999997E+02  0.45594000000E+02  0.51100000000E-03 0. -1.
         11   -1    0    0    0    0 -0.00000000000E+00 -0.00000000000E+00 -0.45593999997E+02  0.45594000000E+02  0.51100000000E-03 0.  1.
    9900012    2    1    2    0    0 -0.25986862129E+02 -0.74483362269E+00  0.34752722350E+02  0.47787268541E+02  0.19999988586E+02 0.  0.
        -12    1    1    2    0    0  0.25986862129E+02  0.74483362269E+00 -0.34752722350E+02  0.43400731459E+02  0.00000000000E+00 0.  1.
         11    1    3    3    0    0 -0.62976890649E+00 -0.35797901892E+01  0.17534907601E+01  0.40356209907E+01  0.51100000000E-03 0. -1.
        -11    1    3    3    0    0 -0.20168059781E+02 -0.26514448220E+01  0.18946437884E+02  0.27798350738E+02  0.51100000000E-03 0.  1.
         12    1    3    3    0    0 -0.51890334415E+01  0.54864013885E+01  0.14052793705E+02  0.15953296812E+02  0.00000000000E+00 0. -1.
</event>
<event>
 7    1  0.1457722E-010  0.4778727E+02  0.7816164E-02  0.1312668E+00
        -11   -1    0    0    0    0  0.00000000000E+00  0.00000000000E+00  0.45593999997E+02  0.45594000000E+02  0.51100000000E-03 0.  1.
         11   -1    0    0    0    0 -0.00000000000E+00 -0.00000000000E+00 -0.45593999997E+02  0.45594000000E+02  0.51100000000E-03 0. -1.
    9900012    2    1    2    0    0 -0.10513849701E+02 -0.21961167949E+02 -0.35927552711E+02  0.47787274464E+02  0.20000015591E+02 0.  0.
        -12    1    1    2    0    0  0.10513849701E+02  0.21961167949E+02  0.35927552711E+02  0.43400725536E+02  0.00000000000E+00 0.  1.
         11    1    3    3    0    0  0.15527399422E+01 -0.14998762823E+02 -0.96065392770E+01  0.17879023594E+02  0.51100000000E-03 0. -1.
        -11    1    3    3    0    0 -0.51431251066E+01 -0.19290946540E+01 -0.12462928859E+02  0.13619755433E+02  0.51100000000E-03 0.  1.
        -12    1    3    3    0    0 -0.69234645371E+01 -0.50333104725E+01 -0.13858084575E+02  0.16288495437E+02  0.00000000000E+00 0.  1.
</event>
<event>
 7    1  0.1457722E-010  0.4778727E+02  0.7816164E-02  0.1312668E+00
        -11   -1    0    0    0    0  0.00000000000E+00  0.00000000000E+00  0.45593999997E+02  0.45594000000E+02  0.51100000000E-03 0.  1.
         11   -1    0    0    0    0 -0.00000000000E+00 -0.00000000000E+00 -0.45593999997E+02  0.45594000000E+02  0.51100000000E-03 0. -1.
    9900012    2    1    2    0    0  0.22336023898E+02 -0.12959373159E+02 -0.34882373955E+02  0.47787270409E+02  0.19999997104E+02 0.  0.
        -12    1    1    2    0    0 -0.22336023898E+02  0.12959373159E+02  0.34882373955E+02  0.43400729591E+02  0.00000000000E+00 0.  1.
         11    1    3    3    0    0  0.11370484482E+02 -0.11161996192E+02 -0.17422791726E+02  0.23609992548E+02  0.51100000000E-03 0. -1.
        -11    1    3    3    0    0  0.10189930260E+02 -0.27553883819E+00 -0.19200300974E+02  0.21738494845E+02  0.51100000000E-03 0.  1.
         12    1    3    3    0    0  0.77560915630E+00 -0.15218381288E+01  0.17407187448E+01  0.24387830166E+01  0.00000000000E+00 0. -1.
</event>
<event>
 7    1  0.1457722E-010  0.4778727E+02  0.7816164E-02  0.1312668E+00
        -11   -1    0    0    0    0  0.00000000000E+00  0.00000000000E+00  0.45593999997E+02  0.45594000000E+02  0.51100000000E-03 0. -1.
         11   -1    0    0    0    0 -0.00000000000E+00 -0.00000000000E+00 -0.45593999997E+02  0.45594000000E+02  0.51100000000E-03 0.  1.
    9900012    2    1    2    0    0  0.28784314042E+01  0.34721720068E+02  0.25879334292E+02  0.47787272412E+02  0.20000006233E+02 0.  0.
        -12    1    1    2    0    0 -0.28784314042E+01 -0.34721720068E+02 -0.25879334292E+02  0.43400727588E+02  0.00000000000E+00 0.  1.
         11    1    3    3    0    0  0.49521411570E+01  0.36170104356E+01  0.46940346504E+01  0.77227215469E+01  0.51100000000E-03 0. -1.
        -11    1    3    3    0    0 -0.72455353052E+01  0.17598982468E+02  0.85666834841E+01  0.20871272888E+02  0.51100000000E-03 0.  1.
         12    1    3    3    0    0  0.51718255524E+01  0.13505727164E+02  0.12618616158E+02  0.19193277977E+02  0.00000000000E+00 0. -1.
</event>
<event>
 7    1  0.1457722E-010  0.4778728E+02  0.7816164E-02  0.1312668E+00
        -11   -1    0    0    0    0  0.00000000000E+00  0.00000000000E+00  0.45593999997E+02  0.45594000000E+02  0.51100000000E-03 0.  1.
         11   -1    0    0    0    0 -0.00000000000E+00 -0.00000000000E+00 -0.45593999997E+02  0.45594000000E+02  0.51100000000E-03 0. -1.
    9900012    2    1    2    0    0  0.36961079530E+02  0.12286973205E+02 -0.19145012905E+02  0.47787278466E+02  0.20000033839E+02 0.  0.
        -12    1    1    2    0    0 -0.36961079530E+02 -0.12286973205E+02  0.19145012905E+02  0.43400721534E+02  0.00000000000E+00 0.  1.
         11    1    3    3    0    0  0.10841593078E+01  0.48329002062E+01 -0.68942885681E+01  0.84890247337E+01  0.51100000000E-03 0. -1.
        -11    1    3    3    0    0  0.97926969649E+01  0.29502466322E+01 -0.23916611902E+00  0.10230252672E+02  0.51100000000E-03 0.  1.
         12    1    3    3    0    0  0.26084223257E+02  0.45038263661E+01 -0.12011558218E+02  0.29068001061E+02  0.00000000000E+00 0. -1.
</event>
<event>
 7    1  0.1457722E-010  0.4778727E+02  0.7816164E-02  0.1312668E+00
        -11   -1    0    0    0    0  0.00000000000E+00  0.00000000000E+00  0.45593999997E+02  0.45594000000E+02  0.51100000000E-03 0. -1.
         11   -1    0    0    0    0 -0.00000000000E+00 -0.00000000000E+00 -0.45593999997E+02  0.45594000000E+02  0.51100000000E-03 0.  1.
    9900012    2    1    2    0    0 -0.34749613437E+02 -0.25735863084E+02  0.37085153186E+01  0.47787269954E+02  0.19999995027E+02 0.  0.
        -12    1    1    2    0    0  0.34749613437E+02  0.25735863084E+02 -0.37085153186E+01  0.43400730046E+02  0.00000000000E+00 0.  1.
         11    1    3    3    0    0 -0.14190045437E+02 -0.14365470179E+02 -0.39259856186E+01  0.20570305936E+02  0.51100000000E-03 0. -1.
        -11    1    3    3    0    0 -0.21392865866E+02 -0.88173711782E+01  0.54922392465E+01  0.23781619724E+02  0.51100000000E-03 0.  1.
        -12    1    3    3    0    0  0.83329786590E+00 -0.25530217262E+01  0.21422616907E+01  0.34353442942E+01  0.00000000000E+00 0.  1.
</event>
<event>
 7    1  0.1457722E-010  0.4778729E+02  0.7816164E-02  0.1312668E+00
        -11   -1    0    0    0    0  0.00000000000E+00  0.00000000000E+00  0.45593999997E+02  0.45594000000E+02  0.51100000000E-03 0.  1.
         11   -1    0    0    0    0 -0.00000000000E+00 -0.00000000000E+00 -0.45593999997E+02  0.45594000000E+02  0.51100000000E-03 0. -1.
    9900012    2    1    2    0    0  0.15775716318E+02  0.27535046968E+02 -0.29606915772E+02  0.47787291499E+02  0.20000093259E+02 0.  0.
        -12    1    1    2    0    0 -0.15775716318E+02 -0.27535046968E+02  0.29606915772E+02  0.43400708501E+02  0.00000000000E+00 0.  1.
         11    1    3    3    0    0  0.61333879272E+01  0.18442012473E+02 -0.10037088970E+02  0.21873944015E+02  0.51100000000E-03 0. -1.
        -11    1    3    3    0    0  0.63006525980E+01  0.79420169048E+01 -0.57629540583E+01  0.11661281894E+02  0.51100000000E-03 0.  1.
        -12    1    3    3    0    0  0.33416757925E+01  0.11510175898E+01 -0.13806872744E+02  0.14252065589E+02  0.00000000000E+00 0.  1.
</event>
<event>
 7    1  0.1457722E-010  0.4778727E+02  0.7816164E-02  0.1312668E+00
        -11   -1    0    0    0    0  0.00000000000E+00  0.00000000000E+00  0.45593999997E+02  0.45594000000E+02  0.51100000000E-03 0.  1.
         11   -1    0    0    0    0 -0.00000000000E+00 -0.00000000000E+00 -0.45593999997E+02  0.45594000000E+02  0.51100000000E-03 0. -1.
    9900012    2    1    2    0    0 -0.12750329415E+01  0.12427953986E+02 -0.41563729035E+02  0.47787270507E+02  0.19999997548E+02 0.  0.
        -12    1    1    2    0    0  0.12750329415E+01 -0.12427953986E+02  0.41563729035E+02  0.43400729493E+02  0.00000000000E+00 0.  1.
         11    1    3    3    0    0 -0.48711826881E+01  0.32656591465E+01 -0.19803038225E+02  0.20653166189E+02  0.51100000000E-03 0. -1.
        -11    1    3    3    0    0  0.68373403383E+01  0.61467298593E+01 -0.20598155584E+02  0.22556939611E+02  0.51100000000E-03 0.  1.
        -12    1    3    3    0    0 -0.32411905917E+01  0.30155649800E+01 -0.11625352252E+01  0.45771647065E+01  0.00000000000E+00 0.  1.
</event>
<event>
 7    1  0.1457722E-010  0.4778727E+02  0.7816164E-02  0.1312668E+00
        -11   -1    0    0    0    0  0.00000000000E+00  0.00000000000E+00  0.45593999997E+02  0.45594000000E+02  0.51100000000E-03 0. -1.
         11   -1    0    0    0    0 -0.00000000000E+00 -0.00000000000E+00 -0.45593999997E+02  0.45594000000E+02  0.51100000000E-03 0.  1.
    9900012    2    1    2    0    0  0.26995043475E+02 -0.19584067530E+01  0.33927213440E+02  0.47787267967E+02  0.19999985967E+02 0.  0.
        -12    1    1    2    0    0 -0.26995043475E+02  0.19584067530E+01 -0.33927213440E+02  0.43400732033E+02  0.00000000000E+00 0.  1.
         11    1    3    3    0    0  0.11446434098E+02 -0.11988539472E+01  0.15098141788E+02  0.18984519747E+02  0.51100000000E-03 0. -1.
        -11    1    3    3    0    0  0.10126231729E+02  0.28285942232E+01  0.19214787077E+01  0.10688011741E+02  0.51100000000E-03 0.  1.
         12    1    3    3    0    0  0.54223776487E+01 -0.35881470290E+01  0.16907592945E+02  0.18114736478E+02  0.00000000000E+00 0. -1.
</event>
<event>
 7    1  0.1457722E-010  0.4778727E+02  0.7816164E-02  0.1312668E+00
        -11   -1    0    0    0    0  0.00000000000E+00  0.00000000000E+00  0.45593999997E+02  0.45594000000E+02  0.51100000000E-03 0.  1.
         11   -1    0    0    0    0 -0.00000000000E+00 -0.00000000000E+00 -0.45593999997E+02  0.45594000000E+02  0.51100000000E-03 0. -1.
    9900012    2    1    2    0    0  0.76911824724E+01  0.42705431786E+02 -0.84563526378E+00  0.47787270848E+02  0.19999999106E+02 0.  0.
        -12    1    1    2    0    0 -0.76911824724E+01 -0.42705431786E+02  0.84563526378E+00  0.43400729152E+02  0.00000000000E+00 0.  1.
         11    1    3    3    0    0  0.55283693059E+01  0.59010602424E+01  0.17352713680E+01  0.82702204413E+01  0.51100000000E-03 0. -1.
        -11    1    3    3    0    0 -0.49475575545E+01  0.19528311127E+02  0.21087310967E+01  0.20255369864E+02  0.51100000000E-03 0.  1.
         12    1    3    3    0    0  0.71103707211E+01  0.17276060417E+02 -0.46896377284E+01  0.19261680543E+02  0.00000000000E+00 0. -1.
</event>
<event>
 7    1  0.1457722E-010  0.4778727E+02  0.7816164E-02  0.1312668E+00
        -11   -1    0    0    0    0  0.00000000000E+00  0.00000000000E+00  0.45593999997E+02  0.45594000000E+02  0.51100000000E-03 0.  1.
         11   -1    0    0    0    0 -0.00000000000E+00 -0.00000000000E+00 -0.45593999997E+02  0.45594000000E+02  0.51100000000E-03 0. -1.
    9900012    2    1    2    0    0  0.12500446582E+02  0.37041036037E+02 -0.18850034519E+02  0.47787270550E+02  0.19999997746E+02 0.  0.
        -12    1    1    2    0    0 -0.12500446582E+02 -0.37041036037E+02  0.18850034519E+02  0.43400729450E+02  0.00000000000E+00 0.  1.
         11    1    3    3    0    0  0.36278459345E+00  0.41423339200E+00 -0.41158233450E+01  0.41524937125E+01  0.51100000000E-03 0. -1.
        -11    1    3    3    0    0  0.13888908164E+02  0.28423305372E+02 -0.15468247472E+02  0.35214382550E+02  0.51100000000E-03 0.  1.
         12    1    3    3    0    0 -0.17512461759E+01  0.82034972724E+01  0.73403629762E+00  0.84203942873E+01  0.00000000000E+00 0. -1.
</event>
<event>
 7    1  0.1457722E-010  0.4778728E+02  0.7816164E-02  0.1312668E+00
        -11   -1    0    0    0    0  0.00000000000E+00  0.00000000000E+00  0.45593999997E+02  0.45594000000E+02  0.51100000000E-03 0. -1.
         11   -1    0    0    0    0 -0.00000000000E+00 -0.00000000000E+00 -0.45593999997E+02  0.45594000000E+02  0.51100000000E-03 0.  1.
    9900012    2    1    2    0    0 -0.23451686148E+02 -0.36440679237E+02  0.23912750972E+01  0.47787275547E+02  0.20000020529E+02 0.  0.
        -12    1    1    2    0    0  0.23451686148E+02  0.36440679237E+02 -0.23912750972E+01  0.43400724453E+02  0.00000000000E+00 0.  1.
         11    1    3    3    0    0 -0.27639510923E+01  0.12854905213E+01 -0.65432750575E+00  0.31177004774E+01  0.51100000000E-03 0. -1.
        -11    1    3    3    0    0 -0.11829937724E+02 -0.17998525254E+02 -0.40390090982E+01  0.21913647178E+02  0.51100000000E-03 0.  1.
         12    1    3    3    0    0 -0.88577973313E+01 -0.19727644505E+02  0.70846117012E+01  0.22755927892E+02  0.00000000000E+00 0. -1.
</event>
<event>
 7    1  0.1457722E-010  0.4778727E+02  0.7816164E-02  0.1312668E+00
        -11   -1    0    0    0    0  0.00000000000E+00  0.00000000000E+00  0.45593999997E+02  0.45594000000E+02  0.51100000000E-03 0. -1.
         11   -1    0    0    0    0 -0.00000000000E+00 -0.00000000000E+00 -0.45593999997E+02  0.45594000000E+02  0.51100000000E-03 0.  1.
    9900012    2    1    2    0    0  0.38396500321E+02  0.60235105971E+01  0.19314483635E+02  0.47787271954E+02  0.20000004147E+02 0.  0.
        -12    1    1    2    0    0 -0.38396500321E+02 -0.60235105971E+01 -0.19314483635E+02  0.43400728046E+02  0.00000000000E+00 0.  1.
         11    1    3    3    0    0  0.23521450279E+02 -0.51452665617E+01  0.59640093015E+01  0.24805277633E+02  0.51100000000E-03 0. -1.
        -11    1    3    3    0    0  0.44982640527E+01  0.29688385731E+01  0.49225725709E+01  0.72993220876E+01  0.51100000000E-03 0.  1.
         12    1    3    3    0    0  0.10376785990E+02  0.81999385856E+01  0.84279017622E+01  0.15682672234E+02  0.00000000000E+00 0. -1.
</event>
<event>
 7    1  0.1457722E-010  0.4778727E+02  0.7816164E-02  0.1312668E+00
        -11   -1    0    0    0    0  0.00000000000E+00  0.00000000000E+00  0.45593999997E+02  0.45594000000E+02  0.51100000000E-03 0. -1.
         11   -1    0    0    0    0 -0.00000000000E+00 -0.00000000000E+00 -0.45593999997E+02  0.45594000000E+02  0.51100000000E-03 0.  1.
    9900012    2    1    2    0    0  0.42388833631E+01 -0.36105326444E+02  0.23707817226E+02  0.47787270428E+02  0.19999997187E+02 0.  0.
        -12    1    1    2    0    0 -0.42388833631E+01  0.36105326444E+02 -0.23707817226E+02  0.43400729572E+02  0.00000000000E+00 0.  1.
         11    1    3    3    0    0  0.22918172597E+01 -0.73887859903E+01  0.86408154903E+01  0.11597856585E+02  0.51100000000E-03 0. -1.
        -11    1    3    3    0    0 -0.50046926053E+01 -0.79127495012E+01 -0.36573657834E+00  0.93697553996E+01  0.51100000000E-03 0.  1.
        -12    1    3    3    0    0  0.69517587087E+01 -0.20803790953E+02  0.15432738314E+02  0.26819658443E+02  0.00000000000E+00 0.  1.
</event>
<event>
 7    1  0.1457722E-010  0.4778727E+02  0.7816164E-02  0.1312668E+00
        -11   -1    0    0    0    0  0.00000000000E+00  0.00000000000E+00  0.45593999997E+02  0.45594000000E+02  0.51100000000E-03 0.  1.
         11   -1    0    0    0    0 -0.00000000000E+00 -0.00000000000E+00 -0.45593999997E+02  0.45594000000E+02  0.51100000000E-03 0. -1.
    9900012    2    1    2    0    0 -0.76603709881E+01 -0.65071165318E+01 -0.42220841194E+02  0.47787270970E+02  0.19999999659E+02 0.  0.
        -12    1    1    2    0    0  0.76603709881E+01  0.65071165318E+01  0.42220841194E+02  0.43400729030E+02  0.00000000000E+00 0.  1.
         11    1    3    3    0    0 -0.56693201363E+01 -0.45725284804E+01 -0.84854514265E+01  0.11182669345E+02  0.51100000000E-03 0.  1.
        -11    1    3    3    0    0 -0.66805537065E+01 -0.36034343669E+01 -0.11225149468E+02  0.13550591054E+02  0.51100000000E-03 0. -1.
        -12    1    3    3    0    0  0.46895028547E+01  0.16688463156E+01 -0.22510240299E+02  0.23054010570E+02  0.00000000000E+00 0.  1.
</event>
<event>
 7    1  0.1457722E-010  0.4778727E+02  0.7816164E-02  0.1312668E+00
        -11   -1    0    0    0    0  0.00000000000E+00  0.00000000000E+00  0.45593999997E+02  0.45594000000E+02  0.51100000000E-03 0.  1.
         11   -1    0    0    0    0 -0.00000000000E+00 -0.00000000000E+00 -0.45593999997E+02  0.45594000000E+02  0.51100000000E-03 0. -1.
    9900012    2    1    2    0    0 -0.38010397046E+02  0.51073771506E+01 -0.20316188114E+02  0.47787273227E+02  0.20000009950E+02 0.  0.
        -12    1    1    2    0    0  0.38010397046E+02 -0.51073771506E+01  0.20316188114E+02  0.43400726773E+02  0.00000000000E+00 0.  1.
         11    1    3    3    0    0 -0.31456766200E+02 -0.19050495004E+01 -0.16567203807E+02  0.35603786254E+02  0.51100000000E-03 0. -1.
        -11    1    3    3    0    0 -0.15649066489E+01  0.19456932125E+01 -0.43834620017E+01  0.50447392676E+01  0.51100000000E-03 0.  1.
        -12    1    3    3    0    0 -0.49887241974E+01  0.50667334385E+01  0.63447769480E+00  0.71387477053E+01  0.00000000000E+00 0.  1.
</event>
<event>
 7    1  0.1457722E-010  0.4778728E+02  0.7816164E-02  0.1312668E+00
        -11   -1    0    0    0    0  0.00000000000E+00  0.00000000000E+00  0.45593999997E+02  0.45594000000E+02  0.51100000000E-03 0. -1.
         11   -1    0    0    0    0 -0.00000000000E+00 -0.00000000000E+00 -0.45593999997E+02  0.45594000000E+02  0.51100000000E-03 0.  1.
    9900012    2    1    2    0    0 -0.29082423866E+02 -0.31764701520E+02  0.53701787681E+01  0.47787280414E+02  0.20000042719E+02 0.  0.
        -12    1    1    2    0    0  0.29082423866E+02  0.31764701520E+02 -0.53701787681E+01  0.43400719586E+02  0.00000000000E+00 0.  1.
         11    1    3    3    0    0 -0.17563888252E+02 -0.23932807391E+02  0.12305921264E+02  0.32135729937E+02  0.51100000000E-03 0. -1.
        -11    1    3    3    0    0 -0.40589602310E+01 -0.18363848514E+01 -0.24085310481E+01  0.50644337838E+01  0.51100000000E-03 0.  1.
         12    1    3    3    0    0 -0.74595753828E+01 -0.59955092776E+01 -0.45272114477E+01  0.10587116693E+02  0.00000000000E+00 0. -1.
</event>
<event>
 7    1  0.1457722E-010  0.4778727E+02  0.7816164E-02  0.1312668E+00
        -11   -1    0    0    0    0  0.00000000000E+00  0.00000000000E+00  0.45593999997E+02  0.45594000000E+02  0.51100000000E-03 0.  1.
         11   -1    0    0    0    0 -0.00000000000E+00 -0.00000000000E+00 -0.45593999997E+02  0.45594000000E+02  0.51100000000E-03 0. -1.
    9900012    2    1    2    0    0  0.22915768399E+02 -0.23734261769E+02 -0.28198859101E+02  0.47787271001E+02  0.19999999802E+02 0.  0.
        -12    1    1    2    0    0 -0.22915768399E+02  0.23734261769E+02  0.28198859101E+02  0.43400728999E+02  0.00000000000E+00 0.  1.
         11    1    3    3    0    0  0.42724831725E+01 -0.64200365117E+01 -0.18698432302E+02  0.20226278750E+02  0.51100000000E-03 0. -1.
        -11    1    3    3    0    0  0.79353742571E+01 -0.10540423373E+02 -0.45115868436E+01  0.13943640328E+02  0.51100000000E-03 0.  1.
         12    1    3    3    0    0  0.10707910969E+02 -0.67738018846E+01 -0.49888399556E+01  0.13617351923E+02  0.00000000000E+00 0. -1.
</event>
<event>
 7    1  0.1457722E-010  0.4778727E+02  0.7816164E-02  0.1312668E+00
        -11   -1    0    0    0    0  0.00000000000E+00  0.00000000000E+00  0.45593999997E+02  0.45594000000E+02  0.51100000000E-03 0.  1.
         11   -1    0    0    0    0 -0.00000000000E+00 -0.00000000000E+00 -0.45593999997E+02  0.45594000000E+02  0.51100000000E-03 0. -1.
    9900012    2    1    2    0    0  0.13617131264E+02  0.23656741210E+02 -0.33742486403E+02  0.47787273541E+02  0.20000011382E+02 0.  0.
        -12    1    1    2    0    0 -0.13617131264E+02 -0.23656741210E+02  0.33742486403E+02  0.43400726459E+02  0.00000000000E+00 0.  1.
         11    1    3    3    0    0  0.11879640431E+02  0.68256015672E+01 -0.90332903353E+01  0.16410820457E+02  0.51100000000E-03 0. -1.
        -11    1    3    3    0    0 -0.26336226542E+01  0.13062138185E+01 -0.21380392514E+01  0.36350206225E+01  0.51100000000E-03 0.  1.
        -12    1    3    3    0    0  0.43711134865E+01  0.15524925824E+02 -0.22571156817E+02  0.27741432461E+02  0.00000000000E+00 0.  1.
</event>
<event>
 7    1  0.1457722E-010  0.4778727E+02  0.7816164E-02  0.1312668E+00
        -11   -1    0    0    0    0  0.00000000000E+00  0.00000000000E+00  0.45593999997E+02  0.45594000000E+02  0.51100000000E-03 0. -1.
         11   -1    0    0    0    0 -0.00000000000E+00 -0.00000000000E+00 -0.45593999997E+02  0.45594000000E+02  0.51100000000E-03 0.  1.
    9900012    2    1    2    0    0 -0.17679521961E+02  0.29204280736E+02  0.26798653655E+02  0.47787270193E+02  0.19999996118E+02 0.  0.
        -12    1    1    2    0    0  0.17679521961E+02 -0.29204280736E+02 -0.26798653655E+02  0.43400729807E+02  0.00000000000E+00 0.  1.
         11    1    3    3    0    0 -0.35389293179E+01  0.98846248757E+01  0.17252564677E+02  0.20196059463E+02  0.51100000000E-03 0. -1.
        -11    1    3    3    0    0 -0.19582320818E+01  0.10214796983E+02  0.19163122154E+01  0.10575868903E+02  0.51100000000E-03 0.  1.
        -12    1    3    3    0    0 -0.12182360561E+02  0.91048588769E+01  0.76297767624E+01  0.17015341826E+02  0.00000000000E+00 0.  1.
</event>
<event>
 7    1  0.1457722E-010  0.4778727E+02  0.7816164E-02  0.1312668E+00
        -11   -1    0    0    0    0  0.00000000000E+00  0.00000000000E+00  0.45593999997E+02  0.45594000000E+02  0.51100000000E-03 0.  1.
         11   -1    0    0    0    0 -0.00000000000E+00 -0.00000000000E+00 -0.45593999997E+02  0.45594000000E+02  0.51100000000E-03 0. -1.
    9900012    2    1    2    0    0  0.35851679797E+02  0.14140785201E+02 -0.19957923507E+02  0.47787268887E+02  0.19999990165E+02 0.  0.
        -12    1    1    2    0    0 -0.35851679797E+02 -0.14140785201E+02  0.19957923507E+02  0.43400731113E+02  0.00000000000E+00 0.  1.
         11    1    3    3    0    0  0.12373248268E+02  0.35717309941E+01 -0.80341159709E+01  0.15178983981E+02  0.51100000000E-03 0. -1.
        -11    1    3    3    0    0  0.45741838339E+01  0.93280687472E+01 -0.32418459214E+00  0.10394283054E+02  0.51100000000E-03 0.  1.
        -12    1    3    3    0    0  0.18904247696E+02  0.12409854596E+01 -0.11599622944E+02  0.22214001852E+02  0.00000000000E+00 0.  1.
</event>
<event>
 7    1  0.1457722E-010  0.4778727E+02  0.7816164E-02  0.1312668E+00
        -11   -1    0    0    0    0  0.00000000000E+00  0.00000000000E+00  0.45593999997E+02  0.45594000000E+02  0.51100000000E-03 0.  1.
         11   -1    0    0    0    0 -0.00000000000E+00 -0.00000000000E+00 -0.45593999997E+02  0.45594000000E+02  0.51100000000E-03 0. -1.
    9900012    2    1    2    0    0  0.17861240042E+02 -0.38021795859E+02  0.10906065978E+02  0.47787272687E+02  0.20000007488E+02 0.  0.
        -12    1    1    2    0    0 -0.17861240042E+02  0.38021795859E+02 -0.10906065978E+02  0.43400727313E+02  0.00000000000E+00 0.  1.
         11    1    3    3    0    0  0.47485104783E+01 -0.11962631903E+02 -0.31100760285E+01  0.13241053092E+02  0.51100000000E-03 0.  1.
        -11    1    3    3    0    0  0.62870981903E+01 -0.16038401931E+02  0.17766416091E+01  0.17318036720E+02  0.51100000000E-03 0. -1.
         12    1    3    3    0    0  0.68256313737E+01 -0.10020762025E+02  0.12239500398E+02  0.17228182875E+02  0.00000000000E+00 0. -1.
</event>
<event>
 7    1  0.1457722E-010  0.4778727E+02  0.7816164E-02  0.1312668E+00
        -11   -1    0    0    0    0  0.00000000000E+00  0.00000000000E+00  0.45593999997E+02  0.45594000000E+02  0.51100000000E-03 0.  1.
         11   -1    0    0    0    0 -0.00000000000E+00 -0.00000000000E+00 -0.45593999997E+02  0.45594000000E+02  0.51100000000E-03 0. -1.
    9900012    2    1    2    0    0 -0.36173812717E+02 -0.16997922566E+02 -0.16915940590E+02  0.47787272540E+02  0.20000006819E+02 0.  0.
        -12    1    1    2    0    0  0.36173812717E+02  0.16997922566E+02  0.16915940590E+02  0.43400727460E+02  0.00000000000E+00 0.  1.
         11    1    3    3    0    0 -0.30535472297E+02 -0.19199709805E+02 -0.15192104578E+02  0.39138778299E+02  0.51100000000E-03 0. -1.
        -11    1    3    3    0    0 -0.30231383963E+01 -0.69239434829E+00  0.16304760234E+01  0.35038875582E+01  0.51100000000E-03 0.  1.
        -12    1    3    3    0    0 -0.26152020235E+01  0.28941815877E+01 -0.33543120352E+01  0.51446066823E+01  0.00000000000E+00 0.  1.
</event>
<event>
 7    1  0.1457722E-010  0.4778727E+02  0.7816164E-02  0.1312668E+00
        -11   -1    0    0    0    0  0.00000000000E+00  0.00000000000E+00  0.45593999997E+02  0.45594000000E+02  0.51100000000E-03 0. -1.
         11   -1    0    0    0    0 -0.00000000000E+00 -0.00000000000E+00 -0.45593999997E+02  0.45594000000E+02  0.51100000000E-03 0.  1.
    9900012    2    1    2    0    0  0.40078164252E+02  0.43167024829E+01  0.16085091428E+02  0.47787270324E+02  0.19999996717E+02 0.  0.
        -12    1    1    2    0    0 -0.40078164252E+02 -0.43167024829E+01 -0.16085091428E+02  0.43400729676E+02  0.00000000000E+00 0.  1.
         11    1    3    3    0    0  0.30927796764E+01  0.33133306421E+01  0.36282773705E+01  0.58058455895E+01  0.51100000000E-03 0. -1.
        -11    1    3    3    0    0  0.39871658170E+01  0.42398141207E+01  0.56940472453E+01  0.81422164872E+01  0.51100000000E-03 0.  1.
        -12    1    3    3    0    0  0.32998218759E+02 -0.32364422799E+01  0.67627668120E+01  0.33839208248E+02  0.00000000000E+00 0.  1.
</event>
<event>
 7    1  0.1457722E-010  0.4778727E+02  0.7816164E-02  0.1312668E+00
        -11   -1    0    0    0    0  0.00000000000E+00  0.00000000000E+00  0.45593999997E+02  0.45594000000E+02  0.51100000000E-03 0.  1.
         11   -1    0    0    0    0 -0.00000000000E+00 -0.00000000000E+00 -0.45593999997E+02  0.45594000000E+02  0.51100000000E-03 0. -1.
    9900012    2    1    2    0    0  0.35229877650E+02  0.24902511239E+02 -0.47269485924E+01  0.47787269727E+02  0.19999993994E+02 0.  0.
        -12    1    1    2    0    0 -0.35229877650E+02 -0.24902511239E+02  0.47269485924E+01  0.43400730273E+02  0.00000000000E+00 0.  1.
         11    1    3    3    0    0  0.64841374239E+01  0.18838820357E+00 -0.56059944372E+00  0.65110521611E+01  0.51100000000E-03 0. -1.
        -11    1    3    3    0    0  0.47699407002E+01  0.24739454447E+01  0.49719879222E+01  0.73207516353E+01  0.51100000000E-03 0.  1.
         12    1    3    3    0    0  0.23975799526E+02  0.22240177591E+02 -0.91383370709E+01  0.33955465931E+02  0.00000000000E+00 0. -1.
</event>
<event>
 7    1  0.1457722E-010  0.4778727E+02  0.7816164E-02  0.1312668E+00
        -11   -1    0    0    0    0  0.00000000000E+00  0.00000000000E+00  0.45593999997E+02  0.45594000000E+02  0.51100000000E-03 0.  1.
         11   -1    0    0    0    0 -0.00000000000E+00 -0.00000000000E+00 -0.45593999997E+02  0.45594000000E+02  0.51100000000E-03 0. -1.
    9900012    2    1    2    0    0 -0.30943199521E+02 -0.12586900145E+02 -0.27707608928E+02  0.47787271385E+02  0.20000001551E+02 0.  0.
        -12    1    1    2    0    0  0.30943199521E+02  0.12586900145E+02  0.27707608928E+02  0.43400728615E+02  0.00000000000E+00 0.  1.
         11    1    3    3    0    0 -0.10389676337E+02 -0.10412568668E+02 -0.15724235655E+02  0.21531803172E+02  0.51100000000E-03 0. -1.
        -11    1    3    3    0    0 -0.11710256000E+02 -0.49441234772E+01 -0.11224253328E+02  0.16957544503E+02  0.51100000000E-03 0.  1.
        -12    1    3    3    0    0 -0.88432671837E+01  0.27697920003E+01 -0.75911994509E+00  0.92979237090E+01  0.00000000000E+00 0.  1.
</event>
<event>
 7    1  0.1457722E-010  0.4778727E+02  0.7816164E-02  0.1312668E+00
        -11   -1    0    0    0    0  0.00000000000E+00  0.00000000000E+00  0.45593999997E+02  0.45594000000E+02  0.51100000000E-03 0. -1.
         11   -1    0    0    0    0 -0.00000000000E+00 -0.00000000000E+00 -0.45593999997E+02  0.45594000000E+02  0.51100000000E-03 0.  1.
    9900012    2    1    2    0    0  0.98701501485E+01  0.28587721764E+02  0.31127893176E+02  0.47787269209E+02  0.19999991632E+02 0.  0.
        -12    1    1    2    0    0 -0.98701501485E+01 -0.28587721764E+02 -0.31127893176E+02  0.43400730791E+02  0.00000000000E+00 0.  1.
         11    1    3    3    0    0  0.11891613560E+02  0.20573082017E+02  0.13365534739E+02  0.27263523174E+02  0.51100000000E-03 0. -1.
        -11    1    3    3    0    0  0.11586246202E+01  0.64856836582E+01  0.13230963920E+02  0.14780558516E+02  0.51100000000E-03 0.  1.
        -12    1    3    3    0    0 -0.31800880318E+01  0.15289560890E+01  0.45313945163E+01  0.57431875187E+01  0.00000000000E+00 0.  1.
</event>
<event>
 7    1  0.1457722E-010  0.4778727E+02  0.7816164E-02  0.1312668E+00
        -11   -1    0    0    0    0  0.00000000000E+00  0.00000000000E+00  0.45593999997E+02  0.45594000000E+02  0.51100000000E-03 0.  1.
         11   -1    0    0    0    0 -0.00000000000E+00 -0.00000000000E+00 -0.45593999997E+02  0.45594000000E+02  0.51100000000E-03 0. -1.
    9900012    2    1    2    0    0 -0.10501315785E+02 -0.16721642324E+02 -0.38648834455E+02  0.47787270053E+02  0.19999995478E+02 0.  0.
        -12    1    1    2    0    0  0.10501315785E+02  0.16721642324E+02  0.38648834455E+02  0.43400729947E+02  0.00000000000E+00 0.  1.
         11    1    3    3    0    0 -0.11931909690E+01 -0.77866007625E+01 -0.26986672452E+02  0.28112903557E+02  0.51100000000E-03 0. -1.
        -11    1    3    3    0    0 -0.71052663721E+01 -0.98100026649E+01 -0.12255136315E+02  0.17231057103E+02  0.51100000000E-03 0.  1.
        -12    1    3    3    0    0 -0.22028584440E+01  0.87496110326E+00  0.59297431202E+00  0.24433093933E+01  0.00000000000E+00 0.  1.
</event>
<event>
 7    1  0.1457722E-010  0.4778726E+02  0.7816164E-02  0.1312668E+00
        -11   -1    0    0    0    0  0.00000000000E+00  0.00000000000E+00  0.45593999997E+02  0.45594000000E+02  0.51100000000E-03 0.  1.
         11   -1    0    0    0    0 -0.00000000000E+00 -0.00000000000E+00 -0.45593999997E+02  0.45594000000E+02  0.51100000000E-03 0. -1.
    9900012    2    1    2    0    0 -0.10904668677E+02  0.27419825726E+02 -0.31825553517E+02  0.47787256936E+02  0.19999935674E+02 0.  0.
        -12    1    1    2    0    0  0.10904668677E+02 -0.27419825726E+02  0.31825553517E+02  0.43400743064E+02  0.00000000000E+00 0.  1.
         11    1    3    3    0    0 -0.13552409630E+01 -0.18563051183E+01 -0.51139579446E+01  0.56067024962E+01  0.51100000000E-03 0. -1.
        -11    1    3    3    0    0 -0.54234923339E+01  0.97018873851E+01 -0.37575739940E+01  0.11732870515E+02  0.51100000000E-03 0.  1.
         12    1    3    3    0    0 -0.41259353802E+01  0.19574243460E+02 -0.22954021579E+02  0.30447683925E+02  0.00000000000E+00 0. -1.
</event>
<event>
 7    1  0.1457722E-010  0.4778727E+02  0.7816164E-02  0.1312668E+00
        -11   -1    0    0    0    0  0.00000000000E+00  0.00000000000E+00  0.45593999997E+02  0.45594000000E+02  0.51100000000E-03 0. -1.
         11   -1    0    0    0    0 -0.00000000000E+00 -0.00000000000E+00 -0.45593999997E+02  0.45594000000E+02  0.51100000000E-03 0.  1.
    9900012    2    1    2    0    0 -0.44770884537E+01 -0.43164570850E+02  0.63154691888E+00  0.47787270176E+02  0.19999996042E+02 0.  0.
        -12    1    1    2    0    0  0.44770884537E+01  0.43164570850E+02 -0.63154691888E+00  0.43400729824E+02  0.00000000000E+00 0.  1.
         11    1    3    3    0    0 -0.37788949630E+01 -0.10507299738E+02 -0.29274038940E+01  0.11543530168E+02  0.51100000000E-03 0. -1.
        -11    1    3    3    0    0  0.59739868796E+01 -0.60513051655E+01  0.21847148937E+01  0.87795098309E+01  0.51100000000E-03 0.  1.
         12    1    3    3    0    0 -0.66721803703E+01 -0.26605965947E+02  0.13742359192E+01  0.27464230177E+02  0.00000000000E+00 0. -1.
</event>
<event>
 7    1  0.1457722E-010  0.4778727E+02  0.7816164E-02  0.1312668E+00
        -11   -1    0    0    0    0  0.00000000000E+00  0.00000000000E+00  0.45593999997E+02  0.45594000000E+02  0.51100000000E-03 0.  1.
         11   -1    0    0    0    0 -0.00000000000E+00 -0.00000000000E+00 -0.45593999997E+02  0.45594000000E+02  0.51100000000E-03 0. -1.
    9900012    2    1    2    0    0  0.11099024005E+02  0.41281050842E+02 -0.75040165518E+01  0.47787265479E+02  0.19999974626E+02 0.  0.
        -12    1    1    2    0    0 -0.11099024005E+02 -0.41281050842E+02  0.75040165518E+01  0.43400734521E+02  0.00000000000E+00 0.  1.
         11    1    3    3    0    0  0.10733731054E+02  0.16222365411E+02 -0.42203071478E+01  0.19904499857E+02  0.51100000000E-03 0. -1.
        -11    1    3    3    0    0 -0.11243959280E+00  0.10541444843E+02  0.44317262094E+01  0.11435685353E+02  0.51100000000E-03 0.  1.
         12    1    3    3    0    0  0.47773254460E+00  0.14517240589E+02 -0.77154356134E+01  0.16447080270E+02  0.00000000000E+00 0. -1.
</event>
<event>
 7    1  0.1457722E-010  0.4778727E+02  0.7816164E-02  0.1312668E+00
        -11   -1    0    0    0    0  0.00000000000E+00  0.00000000000E+00  0.45593999997E+02  0.45594000000E+02  0.51100000000E-03 0.  1.
         11   -1    0    0    0    0 -0.00000000000E+00 -0.00000000000E+00 -0.45593999997E+02  0.45594000000E+02  0.51100000000E-03 0. -1.
    9900012    2    1    2    0    0 -0.39894826075E+02  0.11529130927E+01 -0.17049826884E+02  0.47787274742E+02  0.20000016857E+02 0.  0.
        -12    1    1    2    0    0  0.39894826075E+02 -0.11529130927E+01  0.17049826884E+02  0.43400725258E+02  0.00000000000E+00 0.  1.
         11    1    3    3    0    0 -0.15653627544E+02 -0.77195180117E+01 -0.65426294886E+01  0.18639555105E+02  0.51100000000E-03 0. -1.
        -11    1    3    3    0    0 -0.45178803974E+01  0.45300442556E+01 -0.52573663194E+01  0.82808480919E+01  0.51100000000E-03 0.  1.
        -12    1    3    3    0    0 -0.19723318134E+02  0.43423868488E+01 -0.52498310758E+01  0.20866871545E+02  0.00000000000E+00 0.  1.
</event>
<event>
 7    1  0.1457722E-010  0.4778727E+02  0.7816164E-02  0.1312668E+00
        -11   -1    0    0    0    0  0.00000000000E+00  0.00000000000E+00  0.45593999997E+02  0.45594000000E+02  0.51100000000E-03 0. -1.
         11   -1    0    0    0    0 -0.00000000000E+00 -0.00000000000E+00 -0.45593999997E+02  0.45594000000E+02  0.51100000000E-03 0.  1.
    9900012    2    1    2    0    0  0.21067267327E+02 -0.37929561214E+02  0.10687910597E+01  0.47787266356E+02  0.19999978624E+02 0.  0.
        -12    1    1    2    0    0 -0.21067267327E+02  0.37929561214E+02 -0.10687910597E+01  0.43400733644E+02  0.00000000000E+00 0.  1.
         11    1    3    3    0    0  0.11764112152E+02 -0.78828332802E+01  0.68142641251E+01  0.15715202547E+02  0.51100000000E-03 0. -1.
        -11    1    3    3    0    0  0.20199663822E+01 -0.79395349425E+01 -0.25348595817E+01  0.85756628110E+01  0.51100000000E-03 0.  1.
         12    1    3    3    0    0  0.72831887921E+01 -0.22107192991E+02 -0.32106134837E+01  0.23496400998E+02  0.00000000000E+00 0. -1.
</event>
<event>
 7    1  0.1457722E-010  0.4778727E+02  0.7816164E-02  0.1312668E+00
        -11   -1    0    0    0    0  0.00000000000E+00  0.00000000000E+00  0.45593999997E+02  0.45594000000E+02  0.51100000000E-03 0.  1.
         11   -1    0    0    0    0 -0.00000000000E+00 -0.00000000000E+00 -0.45593999997E+02  0.45594000000E+02  0.51100000000E-03 0. -1.
    9900012    2    1    2    0    0  0.30043915700E+02  0.29084376768E+02  0.11622642450E+02  0.47787266595E+02  0.19999979714E+02 0.  0.
        -12    1    1    2    0    0 -0.30043915700E+02 -0.29084376768E+02 -0.11622642450E+02  0.43400733405E+02  0.00000000000E+00 0.  1.
         11    1    3    3    0    0  0.49688804131E+01  0.30982748127E+01 -0.52681705416E+01  0.78767188912E+01  0.51100000000E-03 0. -1.
        -11    1    3    3    0    0  0.78909499741E-01  0.27241081855E+00  0.24465536016E+00  0.37455422784E+00  0.51100000000E-03 0.  1.
         12    1    3    3    0    0  0.24996125787E+02  0.25713691137E+02  0.16646157632E+02  0.39535993476E+02  0.00000000000E+00 0. -1.
</event>
<event>
 7    1  0.1457722E-010  0.4778727E+02  0.7816164E-02  0.1312668E+00
        -11   -1    0    0    0    0  0.00000000000E+00  0.00000000000E+00  0.45593999997E+02  0.45594000000E+02  0.51100000000E-03 0. -1.
         11   -1    0    0    0    0 -0.00000000000E+00 -0.00000000000E+00 -0.45593999997E+02  0.45594000000E+02  0.51100000000E-03 0.  1.
    9900012    2    1    2    0    0 -0.32850316356E+02 -0.25614294506E+02  0.12181458214E+02  0.47787270837E+02  0.19999999053E+02 0.  0.
        -12    1    1    2    0    0  0.32850316356E+02  0.25614294506E+02 -0.12181458214E+02  0.43400729163E+02  0.00000000000E+00 0.  1.
         11    1    3    3    0    0 -0.24379257214E+02 -0.70289095782E+01  0.70573219757E+01  0.26335518713E+02  0.51100000000E-03 0. -1.
        -11    1    3    3    0    0  0.48418788568E-01 -0.35366330987E+01  0.94274553666E+00  0.36604490792E+01  0.51100000000E-03 0.  1.
         12    1    3    3    0    0 -0.85194779301E+01 -0.15048751829E+02  0.41813907020E+01  0.17791303044E+02  0.00000000000E+00 0. -1.
</event>
<event>
 7    1  0.1457722E-010  0.4778727E+02  0.7816164E-02  0.1312668E+00
        -11   -1    0    0    0    0  0.00000000000E+00  0.00000000000E+00  0.45593999997E+02  0.45594000000E+02  0.51100000000E-03 0.  1.
         11   -1    0    0    0    0 -0.00000000000E+00 -0.00000000000E+00 -0.45593999997E+02  0.45594000000E+02  0.51100000000E-03 0. -1.
    9900012    2    1    2    0    0  0.24519484670E+02 -0.12006298783E+01 -0.35790730686E+02  0.47787273697E+02  0.20000012094E+02 0.  0.
        -12    1    1    2    0    0 -0.24519484670E+02  0.12006298783E+01  0.35790730686E+02  0.43400726303E+02  0.00000000000E+00 0.  1.
         11    1    3    3    0    0  0.12245190632E+02 -0.72221487261E+00 -0.16902608895E+02  0.20884551124E+02  0.51100000000E-03 0. -1.
        -11    1    3    3    0    0  0.89983955816E+01  0.33811432179E+01 -0.19561484673E+02  0.21795754985E+02  0.51100000000E-03 0.  1.
        -12    1    3    3    0    0  0.32758984557E+01 -0.38595582235E+01  0.67336288149E+00  0.51069675878E+01  0.00000000000E+00 0.  1.
</event>
<event>
 7    1  0.1457722E-010  0.4778727E+02  0.7816164E-02  0.1312668E+00
        -11   -1    0    0    0    0  0.00000000000E+00  0.00000000000E+00  0.45593999997E+02  0.45594000000E+02  0.51100000000E-03 0. -1.
         11   -1    0    0    0    0 -0.00000000000E+00 -0.00000000000E+00 -0.45593999997E+02  0.45594000000E+02  0.51100000000E-03 0.  1.
    9900012    2    1    2    0    0  0.24450381050E+02  0.21153357924E+02  0.28954062377E+02  0.47787269441E+02  0.19999992690E+02 0.  0.
        -12    1    1    2    0    0 -0.24450381050E+02 -0.21153357924E+02 -0.28954062377E+02  0.43400730559E+02  0.00000000000E+00 0.  1.
         11    1    3    3    0    0 -0.11097369632E+01  0.68875877847E+00  0.29812077080E+01  0.32547664189E+01  0.51100000000E-03 0. -1.
        -11    1    3    3    0    0  0.30839404441E+01  0.55995381839E+01 -0.92397896812E+00  0.64590443512E+01  0.51100000000E-03 0.  1.
         12    1    3    3    0    0  0.22476177569E+02  0.14865060961E+02  0.26896833637E+02  0.38073458671E+02  0.00000000000E+00 0. -1.
</event>
<event>
 7    1  0.1457722E-010  0.4778726E+02  0.7816164E-02  0.1312668E+00
        -11   -1    0    0    0    0  0.00000000000E+00  0.00000000000E+00  0.45593999997E+02  0.45594000000E+02  0.51100000000E-03 0. -1.
         11   -1    0    0    0    0 -0.00000000000E+00 -0.00000000000E+00 -0.45593999997E+02  0.45594000000E+02  0.51100000000E-03 0.  1.
    9900012    2    1    2    0    0 -0.35470842644E+02 -0.21674328089E+02  0.12476665383E+02  0.47787258588E+02  0.19999943208E+02 0.  0.
        -12    1    1    2    0    0  0.35470842644E+02  0.21674328089E+02 -0.12476665383E+02  0.43400741412E+02  0.00000000000E+00 0.  1.
         11    1    3    3    0    0 -0.15004565300E+02 -0.18413313026E+01  0.18004124293E+01  0.15223960259E+02  0.51100000000E-03 0. -1.
        -11    1    3    3    0    0 -0.16063373976E+02 -0.15312874141E+02  0.26451382266E+01  0.22349784214E+02  0.51100000000E-03 0.  1.
         12    1    3    3    0    0 -0.44029033686E+01 -0.45201226456E+01  0.80311147272E+01  0.10213514114E+02  0.00000000000E+00 0. -1.
</event>
<event>
 7    1  0.1457722E-010  0.4778727E+02  0.7816164E-02  0.1312668E+00
        -11   -1    0    0    0    0  0.00000000000E+00  0.00000000000E+00  0.45593999997E+02  0.45594000000E+02  0.51100000000E-03 0.  1.
         11   -1    0    0    0    0 -0.00000000000E+00 -0.00000000000E+00 -0.45593999997E+02  0.45594000000E+02  0.51100000000E-03 0. -1.
    9900012    2    1    2    0    0  0.32334535190E+01  0.23844179392E+02 -0.36119566960E+02  0.47787271551E+02  0.20000002307E+02 0.  0.
        -12    1    1    2    0    0 -0.32334535190E+01 -0.23844179392E+02  0.36119566960E+02  0.43400728449E+02  0.00000000000E+00 0.  1.
         11    1    3    3    0    0 -0.51179722406E+00 -0.12553978647E+00  0.16738161615E+01  0.17548098017E+01  0.51100000000E-03 0. -1.
        -11    1    3    3    0    0  0.64294807577E+01  0.91363805409E+01 -0.14936720886E+02  0.18652541470E+02  0.51100000000E-03 0.  1.
         12    1    3    3    0    0 -0.26842300147E+01  0.14833338638E+02 -0.22856662235E+02  0.27379920279E+02  0.00000000000E+00 0. -1.
</event>
<event>
 7    1  0.1457722E-010  0.4778727E+02  0.7816164E-02  0.1312668E+00
        -11   -1    0    0    0    0  0.00000000000E+00  0.00000000000E+00  0.45593999997E+02  0.45594000000E+02  0.51100000000E-03 0.  1.
         11   -1    0    0    0    0 -0.00000000000E+00 -0.00000000000E+00 -0.45593999997E+02  0.45594000000E+02  0.51100000000E-03 0. -1.
    9900012    2    1    2    0    0 -0.20047908068E+02  0.92519084547E+01 -0.37364519676E+02  0.47787265460E+02  0.19999974539E+02 0.  0.
        -12    1    1    2    0    0  0.20047908068E+02 -0.92519084547E+01  0.37364519676E+02  0.43400734540E+02  0.00000000000E+00 0.  1.
         11    1    3    3    0    0 -0.21254625447E+02  0.95627484385E+01 -0.30612118885E+02  0.38474759044E+02  0.51100000000E-03 0. -1.
        -11    1    3    3    0    0  0.14894613060E+01  0.10187835926E+01 -0.75322104907E+01  0.77453605550E+01  0.51100000000E-03 0.  1.
        -12    1    3    3    0    0 -0.28274392737E+00 -0.13296235765E+01  0.77980969933E+00  0.15671458613E+01  0.00000000000E+00 0.  1.
</event>
<event>
 7    1  0.1457722E-010  0.4778727E+02  0.7816164E-02  0.1312668E+00
        -11   -1    0    0    0    0  0.00000000000E+00  0.00000000000E+00  0.45593999997E+02  0.45594000000E+02  0.51100000000E-03 0. -1.
         11   -1    0    0    0    0 -0.00000000000E+00 -0.00000000000E+00 -0.45593999997E+02  0.45594000000E+02  0.51100000000E-03 0.  1.
    9900012    2    1    2    0    0 -0.84345822453E+01 -0.21413206093E+02  0.36796137716E+02  0.47787270471E+02  0.19999997387E+02 0.  0.
        -12    1    1    2    0    0  0.84345822453E+01  0.21413206093E+02 -0.36796137716E+02  0.43400729529E+02  0.00000000000E+00 0.  1.
         11    1    3    3    0    0 -0.50451791221E+01  0.23443780230E+01  0.39928967429E+01  0.68478584498E+01  0.51100000000E-03 0. -1.
        -11    1    3    3    0    0 -0.16877893862E+01 -0.18519062006E+01  0.38424642419E+01  0.45872346026E+01  0.51100000000E-03 0.  1.
        -12    1    3    3    0    0 -0.17016137370E+01 -0.21905677915E+02  0.28960776731E+02  0.36352177419E+02  0.00000000000E+00 0.  1.
</event>
<event>
 7    1  0.1457722E-010  0.4778727E+02  0.7816164E-02  0.1312668E+00
        -11   -1    0    0    0    0  0.00000000000E+00  0.00000000000E+00  0.45593999997E+02  0.45594000000E+02  0.51100000000E-03 0.  1.
         11   -1    0    0    0    0 -0.00000000000E+00 -0.00000000000E+00 -0.45593999997E+02  0.45594000000E+02  0.51100000000E-03 0. -1.
    9900012    2    1    2    0    0  0.72456952848E+01 -0.19775139867E+02 -0.37948211681E+02  0.47787273892E+02  0.20000012982E+02 0.  0.
        -12    1    1    2    0    0 -0.72456952848E+01  0.19775139867E+02  0.37948211681E+02  0.43400726108E+02  0.00000000000E+00 0.  1.
         11    1    3    3    0    0  0.38025091051E+01 -0.70142169068E+01 -0.28607037735E+02  0.29698837057E+02  0.51100000000E-03 0. -1.
        -11    1    3    3    0    0  0.15842437795E+01 -0.30414366888E+00  0.90735622420E+00  0.18508450240E+01  0.51100000000E-03 0.  1.
        -12    1    3    3    0    0  0.18589424003E+01 -0.12456779291E+02 -0.10248530171E+02  0.16237591811E+02  0.00000000000E+00 0.  1.
</event>
<event>
 7    1  0.1457722E-010  0.4778727E+02  0.7816164E-02  0.1312668E+00
        -11   -1    0    0    0    0  0.00000000000E+00  0.00000000000E+00  0.45593999997E+02  0.45594000000E+02  0.51100000000E-03 0.  1.
         11   -1    0    0    0    0 -0.00000000000E+00 -0.00000000000E+00 -0.45593999997E+02  0.45594000000E+02  0.51100000000E-03 0. -1.
    9900012    2    1    2    0    0 -0.27657138912E+02 -0.25579359013E+02 -0.21549989031E+02  0.47787274573E+02  0.20000016088E+02 0.  0.
        -12    1    1    2    0    0  0.27657138912E+02  0.25579359013E+02  0.21549989031E+02  0.43400725427E+02  0.00000000000E+00 0.  1.
         11    1    3    3    0    0 -0.72764385669E+00 -0.42068144003E+01  0.30210634285E+01  0.52300647683E+01  0.51100000000E-03 0.  1.
        -11    1    3    3    0    0 -0.10543287448E+02 -0.11436303250E+02 -0.11878219448E+02  0.19571459827E+02  0.51100000000E-03 0. -1.
        -12    1    3    3    0    0 -0.16386207608E+02 -0.99362413627E+01 -0.12692833012E+02  0.22985749978E+02  0.00000000000E+00 0.  1.
</event>
<event>
 7    1  0.1457722E-010  0.4778727E+02  0.7816164E-02  0.1312668E+00
        -11   -1    0    0    0    0  0.00000000000E+00  0.00000000000E+00  0.45593999997E+02  0.45594000000E+02  0.51100000000E-03 0.  1.
         11   -1    0    0    0    0 -0.00000000000E+00 -0.00000000000E+00 -0.45593999997E+02  0.45594000000E+02  0.51100000000E-03 0. -1.
    9900012    2    1    2    0    0 -0.14509921576E+02 -0.34288193554E+02 -0.22302585426E+02  0.47787270075E+02  0.19999995580E+02 0.  0.
        -12    1    1    2    0    0  0.14509921576E+02  0.34288193554E+02  0.22302585426E+02  0.43400729925E+02  0.00000000000E+00 0.  1.
         11    1    3    3    0    0 -0.13150654334E+02 -0.17757518024E+02 -0.16288174600E+02  0.27451298473E+02  0.51100000000E-03 0. -1.
        -11    1    3    3    0    0 -0.10701977124E+01 -0.42380805064E+00  0.20269823752E+01  0.23310071253E+01  0.51100000000E-03 0.  1.
        -12    1    3    3    0    0 -0.28906952996E+00 -0.16106867480E+02 -0.80413932012E+01  0.18004964477E+02  0.00000000000E+00 0.  1.
</event>
<event>
 7    1  0.1457722E-010  0.4778726E+02  0.7816164E-02  0.1312668E+00
        -11   -1    0    0    0    0  0.00000000000E+00  0.00000000000E+00  0.45593999997E+02  0.45594000000E+02  0.51100000000E-03 0.  1.
         11   -1    0    0    0    0 -0.00000000000E+00 -0.00000000000E+00 -0.45593999997E+02  0.45594000000E+02  0.51100000000E-03 0. -1.
    9900012    2    1    2    0    0  0.25491570980E+02  0.13051028264E+02 -0.32610956917E+02  0.47787262209E+02  0.19999959714E+02 0.  0.
        -12    1    1    2    0    0 -0.25491570980E+02 -0.13051028264E+02  0.32610956917E+02  0.43400737791E+02  0.00000000000E+00 0.  1.
         11    1    3    3    0    0  0.75659630517E+01 -0.19290411585E+01 -0.18399242253E+02  0.19987423857E+02  0.51100000000E-03 0. -1.
        -11    1    3    3    0    0  0.30991310050E+01  0.50861627978E+01 -0.24252230986E+01  0.64308142821E+01  0.51100000000E-03 0.  1.
        -12    1    3    3    0    0  0.14826476923E+02  0.98939066248E+01 -0.11786491566E+02  0.21369024070E+02  0.00000000000E+00 0.  1.
</event>
<event>
 7    1  0.1457722E-010  0.4778727E+02  0.7816164E-02  0.1312668E+00
        -11   -1    0    0    0    0  0.00000000000E+00  0.00000000000E+00  0.45593999997E+02  0.45594000000E+02  0.51100000000E-03 0.  1.
         11   -1    0    0    0    0 -0.00000000000E+00 -0.00000000000E+00 -0.45593999997E+02  0.45594000000E+02  0.51100000000E-03 0. -1.
    9900012    2    1    2    0    0 -0.19073165251E+02 -0.31743801296E+02 -0.22631141928E+02  0.47787272605E+02  0.20000007117E+02 0.  0.
        -12    1    1    2    0    0  0.19073165251E+02  0.31743801296E+02  0.22631141928E+02  0.43400727395E+02  0.00000000000E+00 0.  1.
         11    1    3    3    0    0 -0.14996366516E+02 -0.31380295238E+02 -0.15782763755E+02  0.38193056566E+02  0.51100000000E-03 0. -1.
        -11    1    3    3    0    0  0.71630095875E+00 -0.15948005616E+01 -0.14554656803E+01  0.22748310931E+01  0.51100000000E-03 0.  1.
         12    1    3    3    0    0 -0.47930996935E+01  0.12312945032E+01 -0.53929124933E+01  0.73193849458E+01  0.00000000000E+00 0. -1.
</event>
<event>
 7    1  0.1457722E-010  0.4778726E+02  0.7816164E-02  0.1312668E+00
        -11   -1    0    0    0    0  0.00000000000E+00  0.00000000000E+00  0.45593999997E+02  0.45594000000E+02  0.51100000000E-03 0.  1.
         11   -1    0    0    0    0 -0.00000000000E+00 -0.00000000000E+00 -0.45593999997E+02  0.45594000000E+02  0.51100000000E-03 0. -1.
    9900012    2    1    2    0    0 -0.41216565073E+01  0.13933361796E+01 -0.43182109469E+02  0.47787262492E+02  0.19999961005E+02 0.  0.
        -12    1    1    2    0    0  0.41216565073E+01 -0.13933361796E+01  0.43182109469E+02  0.43400737508E+02  0.00000000000E+00 0.  1.
         11    1    3    3    0    0  0.58517080974E+01 -0.45477544931E+00 -0.27656639290E+02  0.28272583990E+02  0.51100000000E-03 0. -1.
        -11    1    3    3    0    0 -0.36519769697E+01  0.12169828189E+01 -0.15253343797E+01  0.41406072260E+01  0.51100000000E-03 0.  1.
        -12    1    3    3    0    0 -0.63213876350E+01  0.63112881004E+00 -0.14000135799E+02  0.15374071276E+02  0.00000000000E+00 0.  1.
</event>
<event>
 7    1  0.1457722E-010  0.4778727E+02  0.7816164E-02  0.1312668E+00
        -11   -1    0    0    0    0  0.00000000000E+00  0.00000000000E+00  0.45593999997E+02  0.45594000000E+02  0.51100000000E-03 0.  1.
         11   -1    0    0    0    0 -0.00000000000E+00 -0.00000000000E+00 -0.45593999997E+02  0.45594000000E+02  0.51100000000E-03 0. -1.
    9900012    2    1    2    0    0 -0.12480653907E+02 -0.40227905404E+02 -0.10467670944E+02  0.47787271548E+02  0.20000002298E+02 0.  0.
        -12    1    1    2    0    0  0.12480653907E+02  0.40227905404E+02  0.10467670944E+02  0.43400728452E+02  0.00000000000E+00 0.  1.
         11    1    3    3    0    0 -0.90375815086E+01 -0.22338303889E+02 -0.93634972879E+01  0.25852519836E+02  0.51100000000E-03 0. -1.
        -11    1    3    3    0    0  0.44386083067E+01 -0.69957360926E+01 -0.17708143927E+01  0.84721515008E+01  0.51100000000E-03 0.  1.
         12    1    3    3    0    0 -0.78816807054E+01 -0.10893865423E+02  0.66664073686E+00  0.13462600212E+02  0.00000000000E+00 0. -1.
</event>
<event>
 7    1  0.1457722E-010  0.4778727E+02  0.7816164E-02  0.1312668E+00
        -11   -1    0    0    0    0  0.00000000000E+00  0.00000000000E+00  0.45593999997E+02  0.45594000000E+02  0.51100000000E-03 0.  1.
         11   -1    0    0    0    0 -0.00000000000E+00 -0.00000000000E+00 -0.45593999997E+02  0.45594000000E+02  0.51100000000E-03 0. -1.
    9900012    2    1    2    0    0 -0.14674978010E+02  0.15627792731E+02 -0.37736456377E+02  0.47787273910E+02  0.20000013064E+02 0.  0.
        -12    1    1    2    0    0  0.14674978010E+02 -0.15627792731E+02  0.37736456377E+02  0.43400726090E+02  0.00000000000E+00 0.  1.
         11    1    3    3    0    0  0.13786129091E+01  0.19860313761E+01 -0.82051459722E+01  0.85539064097E+01  0.51100000000E-03 0. -1.
        -11    1    3    3    0    0 -0.15413804373E+02  0.13609256327E+02 -0.31245008539E+02  0.37403847154E+02  0.51100000000E-03 0.  1.
         12    1    3    3    0    0 -0.63978654668E+00  0.32505028497E-01  0.17136981342E+01  0.18295203463E+01  0.00000000000E+00 0. -1.
</event>
<event>
 7    1  0.1457722E-010  0.4778727E+02  0.7816164E-02  0.1312668E+00
        -11   -1    0    0    0    0  0.00000000000E+00  0.00000000000E+00  0.45593999997E+02  0.45594000000E+02  0.51100000000E-03 0. -1.
         11   -1    0    0    0    0 -0.00000000000E+00 -0.00000000000E+00 -0.45593999997E+02  0.45594000000E+02  0.51100000000E-03 0.  1.
    9900012    2    1    2    0    0 -0.78813587847E+01  0.36303715258E+02  0.22439874764E+02  0.47787268010E+02  0.19999986166E+02 0.  0.
        -12    1    1    2    0    0  0.78813587847E+01 -0.36303715258E+02 -0.22439874764E+02  0.43400731990E+02  0.00000000000E+00 0.  1.
         11    1    3    3    0    0  0.66520277488E+00  0.75663623247E+01  0.13263747868E+02  0.15284611258E+02  0.51100000000E-03 0. -1.
        -11    1    3    3    0    0 -0.35168800233E+01  0.33518846967E+01  0.35554522861E+01  0.60203668774E+01  0.51100000000E-03 0.  1.
        -12    1    3    3    0    0 -0.50296815363E+01  0.25385468236E+02  0.56206746105E+01  0.26482289875E+02  0.00000000000E+00 0.  1.
</event>
<event>
 7    1  0.1457722E-010  0.4778727E+02  0.7816164E-02  0.1312668E+00
        -11   -1    0    0    0    0  0.00000000000E+00  0.00000000000E+00  0.45593999997E+02  0.45594000000E+02  0.51100000000E-03 0. -1.
         11   -1    0    0    0    0 -0.00000000000E+00 -0.00000000000E+00 -0.45593999997E+02  0.45594000000E+02  0.51100000000E-03 0.  1.
    9900012    2    1    2    0    0  0.12456865040E+02 -0.38959995411E+02 -0.14510979405E+02  0.47787271292E+02  0.20000001129E+02 0.  0.
        -12    1    1    2    0    0 -0.12456865040E+02  0.38959995411E+02  0.14510979405E+02  0.43400728708E+02  0.00000000000E+00 0.  1.
         11    1    3    3    0    0 -0.57858029470E+00 -0.10087036720E+01  0.27954994953E+01  0.30277146405E+01  0.51100000000E-03 0. -1.
        -11    1    3    3    0    0  0.99824484236E+00 -0.13093099713E+02 -0.89959930671E+01  0.15917086555E+02  0.51100000000E-03 0.  1.
         12    1    3    3    0    0  0.12037200492E+02 -0.24858192026E+02 -0.83104858336E+01  0.28842470097E+02  0.00000000000E+00 0. -1.
</event>
<event>
 7    1  0.1457722E-010  0.4778727E+02  0.7816164E-02  0.1312668E+00
        -11   -1    0    0    0    0  0.00000000000E+00  0.00000000000E+00  0.45593999997E+02  0.45594000000E+02  0.51100000000E-03 0. -1.
         11   -1    0    0    0    0 -0.00000000000E+00 -0.00000000000E+00 -0.45593999997E+02  0.45594000000E+02  0.51100000000E-03 0.  1.
    9900012    2    1    2    0    0 -0.29471432492E+02  0.80310942495E+00  0.31849850690E+02  0.47787270664E+02  0.19999998266E+02 0.  0.
        -12    1    1    2    0    0  0.29471432492E+02 -0.80310942495E+00 -0.31849850690E+02  0.43400729336E+02  0.00000000000E+00 0.  1.
         11    1    3    3    0    0 -0.87871928117E+01  0.50468328687E+01  0.10660733673E+02  0.14708382719E+02  0.51100000000E-03 0. -1.
        -11    1    3    3    0    0 -0.51420598009E+01  0.19039979275E+01  0.13714022555E+02  0.14769576907E+02  0.51100000000E-03 0.  1.
         12    1    3    3    0    0 -0.15542179880E+02 -0.61477213712E+01  0.74750944622E+01  0.18309311038E+02  0.00000000000E+00 0. -1.
</event>
<event>
 7    1  0.1457722E-010  0.4778727E+02  0.7816164E-02  0.1312668E+00
        -11   -1    0    0    0    0  0.00000000000E+00  0.00000000000E+00  0.45593999997E+02  0.45594000000E+02  0.51100000000E-03 0. -1.
         11   -1    0    0    0    0 -0.00000000000E+00 -0.00000000000E+00 -0.45593999997E+02  0.45594000000E+02  0.51100000000E-03 0.  1.
    9900012    2    1    2    0    0 -0.27050681119E+01  0.37258097517E+02  0.22093888484E+02  0.47787272674E+02  0.20000007430E+02 0.  0.
        -12    1    1    2    0    0  0.27050681119E+01 -0.37258097517E+02 -0.22093888484E+02  0.43400727326E+02  0.00000000000E+00 0.  1.
         11    1    3    3    0    0 -0.28882337280E+01  0.18926115265E+02  0.31753688491E+01  0.19406769455E+02  0.51100000000E-03 0. -1.
        -11    1    3    3    0    0  0.33449791271E+00 -0.49859908456E+00 -0.87438551162E+00  0.10606791149E+01  0.51100000000E-03 0.  1.
         12    1    3    3    0    0 -0.15133229668E+00  0.18830581337E+02  0.19792905146E+02  0.27319824104E+02  0.00000000000E+00 0. -1.
</event>
<event>
 7    1  0.1457722E-010  0.4778728E+02  0.7816164E-02  0.1312668E+00
        -11   -1    0    0    0    0  0.00000000000E+00  0.00000000000E+00  0.45593999997E+02  0.45594000000E+02  0.51100000000E-03 0.  1.
         11   -1    0    0    0    0 -0.00000000000E+00 -0.00000000000E+00 -0.45593999997E+02  0.45594000000E+02  0.51100000000E-03 0. -1.
    9900012    2    1    2    0    0 -0.34099035893E+02  0.15824707074E+02  0.21690027981E+02  0.47787275161E+02  0.20000018767E+02 0.  0.
        -12    1    1    2    0    0  0.34099035893E+02 -0.15824707074E+02 -0.21690027981E+02  0.43400724839E+02  0.00000000000E+00 0.  1.
         11    1    3    3    0    0 -0.14106917389E+01 -0.78305516882E+00 -0.19339818723E+01  0.25186331061E+01  0.51100000000E-03 0. -1.
        -11    1    3    3    0    0 -0.84230817215E+01  0.93298942747E+01  0.12065071234E+02  0.17423007117E+02  0.51100000000E-03 0.  1.
         12    1    3    3    0    0 -0.24265262432E+02  0.72778679683E+01  0.11558938619E+02  0.27845634938E+02  0.00000000000E+00 0. -1.
</event>
<event>
 7    1  0.1833084E-010  0.4778727E+02  0.7816164E-02  0.1312668E+00
        -11   -1    0    0    0    0  0.00000000000E+00  0.00000000000E+00  0.45593999997E+02  0.45594000000E+02  0.51100000000E-03 0. -1.
         11   -1    0    0    0    0 -0.00000000000E+00 -0.00000000000E+00 -0.45593999997E+02  0.45594000000E+02  0.51100000000E-03 0.  1.
    9900012    2    1    2    0    0  0.29944825158E+01  0.39557864566E+02  0.17602046435E+02  0.47787267134E+02  0.19999982171E+02 0.  0.
        -12    1    1    2    0    0 -0.29944825158E+01 -0.39557864566E+02 -0.17602046435E+02  0.43400732866E+02  0.00000000000E+00 0.  1.
         11    1    3    3    0    0 -0.13952931814E+01  0.28049751153E+02  0.87625209197E+01  0.29419672941E+02  0.51100000000E-03 0. -1.
        -11    1    3    3    0    0 -0.28301763831E+01  0.10243046235E+01  0.33541428257E+01  0.45065921358E+01  0.51100000000E-03 0.  1.
        -12    1    3    3    0    0  0.72199520804E+01  0.10483808790E+02  0.54853826900E+01  0.13861002058E+02  0.00000000000E+00 0.  1.
</event>
<event>
 7    1  0.1457722E-010  0.4778727E+02  0.7816164E-02  0.1312668E+00
        -11   -1    0    0    0    0  0.00000000000E+00  0.00000000000E+00  0.45593999997E+02  0.45594000000E+02  0.51100000000E-03 0.  1.
         11   -1    0    0    0    0 -0.00000000000E+00 -0.00000000000E+00 -0.45593999997E+02  0.45594000000E+02  0.51100000000E-03 0. -1.
    9900012    2    1    2    0    0  0.26389832258E+02 -0.26634295061E+02 -0.21858971801E+02  0.47787267654E+02  0.19999984541E+02 0.  0.
        -12    1    1    2    0    0 -0.26389832258E+02  0.26634295061E+02  0.21858971801E+02  0.43400732346E+02  0.00000000000E+00 0.  1.
         11    1    3    3    0    0  0.12893915960E+02 -0.97362184368E+01 -0.80856923082E+01  0.18067247676E+02  0.51100000000E-03 0. -1.
        -11    1    3    3    0    0  0.63411645885E+00 -0.19369662191E+01  0.31330426465E+01  0.37376327138E+01  0.51100000000E-03 0.  1.
        -12    1    3    3    0    0  0.12861799839E+02 -0.14961110405E+02 -0.16906322140E+02  0.25982387264E+02  0.00000000000E+00 0.  1.
</event>
<event>
 7    1  0.2133398E-010  0.4778727E+02  0.7816164E-02  0.1312668E+00
        -11   -1    0    0    0    0  0.00000000000E+00  0.00000000000E+00  0.45593999997E+02  0.45594000000E+02  0.51100000000E-03 0. -1.
         11   -1    0    0    0    0 -0.00000000000E+00 -0.00000000000E+00 -0.45593999997E+02  0.45594000000E+02  0.51100000000E-03 0.  1.
    9900012    2    1    2    0    0 -0.15346487828E+02  0.31973446122E+02  0.25016137244E+02  0.47787273414E+02  0.20000010805E+02 0.  0.
        -12    1    1    2    0    0  0.15346487828E+02 -0.31973446122E+02 -0.25016137244E+02  0.43400726586E+02  0.00000000000E+00 0.  1.
         11    1    3    3    0    0 -0.11099834682E+02  0.16419398754E+02  0.16289105199E+02  0.25654199146E+02  0.51100000000E-03 0. -1.
        -11    1    3    3    0    0 -0.39563291396E+01  0.20185080492E+00 -0.82914160649E+00  0.40473151685E+01  0.51100000000E-03 0.  1.
         12    1    3    3    0    0 -0.29032400695E+00  0.15352196563E+02  0.95561736517E+01  0.18085759099E+02  0.00000000000E+00 0. -1.
</event>
<event>
 7    1  0.1457722E-010  0.4778727E+02  0.7816164E-02  0.1312668E+00
        -11   -1    0    0    0    0  0.00000000000E+00  0.00000000000E+00  0.45593999997E+02  0.45594000000E+02  0.51100000000E-03 0.  1.
         11   -1    0    0    0    0 -0.00000000000E+00 -0.00000000000E+00 -0.45593999997E+02  0.45594000000E+02  0.51100000000E-03 0. -1.
    9900012    2    1    2    0    0 -0.33062929050E+02  0.13997506426E+02 -0.24383104402E+02  0.47787271391E+02  0.20000001581E+02 0.  0.
        -12    1    1    2    0    0  0.33062929050E+02 -0.13997506426E+02  0.24383104402E+02  0.43400728609E+02  0.00000000000E+00 0.  1.
         11    1    3    3    0    0 -0.97982834888E+01  0.61807528423E+01 -0.26912581027E+01  0.11893314738E+02  0.51100000000E-03 0. -1.
        -11    1    3    3    0    0 -0.10238394849E+02 -0.16092879897E+01 -0.15538472520E+02  0.18677758576E+02  0.51100000000E-03 0.  1.
        -12    1    3    3    0    0 -0.13026250712E+02  0.94260415731E+01 -0.61533737796E+01  0.17216198077E+02  0.00000000000E+00 0.  1.
</event>
<event>
 7    1  0.1457722E-010  0.4778727E+02  0.7816164E-02  0.1312668E+00
        -11   -1    0    0    0    0  0.00000000000E+00  0.00000000000E+00  0.45593999997E+02  0.45594000000E+02  0.51100000000E-03 0.  1.
         11   -1    0    0    0    0 -0.00000000000E+00 -0.00000000000E+00 -0.45593999997E+02  0.45594000000E+02  0.51100000000E-03 0. -1.
    9900012    2    1    2    0    0 -0.33998598862E+00 -0.54716553644E+01 -0.43053091206E+02  0.47787271144E+02  0.20000000453E+02 0.  0.
        -12    1    1    2    0    0  0.33998598862E+00  0.54716553644E+01  0.43053091206E+02  0.43400728856E+02  0.00000000000E+00 0.  1.
         11    1    3    3    0    0 -0.56922866290E+01  0.31551241946E+01 -0.26976677311E+02  0.27750640619E+02  0.51100000000E-03 0. -1.
        -11    1    3    3    0    0  0.93387183106E+00 -0.36129731022E+01 -0.15387916114E+01  0.40365295885E+01  0.51100000000E-03 0.  1.
        -12    1    3    3    0    0  0.44184288093E+01 -0.50138064568E+01 -0.14537622283E+02  0.16000100936E+02  0.00000000000E+00 0.  1.
</event>
<event>
 7    1  0.1983804E-010  0.4778727E+02  0.7816164E-02  0.1312668E+00
        -11   -1    0    0    0    0  0.00000000000E+00  0.00000000000E+00  0.45593999997E+02  0.45594000000E+02  0.51100000000E-03 0.  1.
         11   -1    0    0    0    0 -0.00000000000E+00 -0.00000000000E+00 -0.45593999997E+02  0.45594000000E+02  0.51100000000E-03 0. -1.
    9900012    2    1    2    0    0  0.26110112798E+02  0.32481366158E+02 -0.12118007479E+02  0.47787271399E+02  0.20000001617E+02 0.  0.
        -12    1    1    2    0    0 -0.26110112798E+02 -0.32481366158E+02  0.12118007479E+02  0.43400728601E+02  0.00000000000E+00 0.  1.
         11    1    3    3    0    0  0.13725880792E+02  0.23758674794E+02 -0.98542302171E+01  0.29154421361E+02  0.51100000000E-03 0. -1.
        -11    1    3    3    0    0  0.39140324561E+01  0.10616472834E+01 -0.54336901988E+01  0.67802458997E+01  0.51100000000E-03 0.  1.
         12    1    3    3    0    0  0.84701995506E+01  0.76610440805E+01  0.31699129370E+01  0.11852604138E+02  0.00000000000E+00 0. -1.
</event>
<event>
 7    1  0.1457722E-010  0.4778727E+02  0.7816164E-02  0.1312668E+00
        -11   -1    0    0    0    0  0.00000000000E+00  0.00000000000E+00  0.45593999997E+02  0.45594000000E+02  0.51100000000E-03 0.  1.
         11   -1    0    0    0    0 -0.00000000000E+00 -0.00000000000E+00 -0.45593999997E+02  0.45594000000E+02  0.51100000000E-03 0. -1.
    9900012    2    1    2    0    0 -0.31283827084E+02  0.30081754636E+02  0.18215939528E+00  0.47787274418E+02  0.20000015380E+02 0.  0.
        -12    1    1    2    0    0  0.31283827084E+02 -0.30081754636E+02 -0.18215939528E+00  0.43400725582E+02  0.00000000000E+00 0.  1.
         11    1    3    3    0    0 -0.11405107310E+02  0.45744908476E+01 -0.35630017165E+01  0.12794429287E+02  0.51100000000E-03 0. -1.
        -11    1    3    3    0    0 -0.13045537491E+02  0.12117279642E+02  0.77762847696E+01  0.19428976284E+02  0.51100000000E-03 0.  1.
         12    1    3    3    0    0 -0.68331822831E+01  0.13389984147E+02 -0.40311236578E+01  0.15563868848E+02  0.00000000000E+00 0. -1.
</event>
<event>
 7    1  0.1457722E-010  0.4778727E+02  0.7816164E-02  0.1312668E+00
        -11   -1    0    0    0    0  0.00000000000E+00  0.00000000000E+00  0.45593999997E+02  0.45594000000E+02  0.51100000000E-03 0.  1.
         11   -1    0    0    0    0 -0.00000000000E+00 -0.00000000000E+00 -0.45593999997E+02  0.45594000000E+02  0.51100000000E-03 0. -1.
    9900012    2    1    2    0    0  0.47381375975E+01 -0.30778729257E+02 -0.30229836769E+02  0.47787272430E+02  0.20000006316E+02 0.  0.
        -12    1    1    2    0    0 -0.47381375975E+01  0.30778729257E+02  0.30229836769E+02  0.43400727570E+02  0.00000000000E+00 0.  1.
         11    1    3    3    0    0  0.22299507462E+01  0.29441506038E-01 -0.10878955627E+02  0.11105189009E+02  0.51100000000E-03 0. -1.
        -11    1    3    3    0    0 -0.90651014792E+00 -0.10157348927E+02 -0.71485120457E+01  0.12453703168E+02  0.51100000000E-03 0.  1.
         12    1    3    3    0    0  0.34146969992E+01 -0.20650821836E+02 -0.12202369096E+02  0.24228380253E+02  0.00000000000E+00 0. -1.
</event>
<event>
 7    1  0.1457722E-010  0.4778727E+02  0.7816164E-02  0.1312668E+00
        -11   -1    0    0    0    0  0.00000000000E+00  0.00000000000E+00  0.45593999997E+02  0.45594000000E+02  0.51100000000E-03 0.  1.
         11   -1    0    0    0    0 -0.00000000000E+00 -0.00000000000E+00 -0.45593999997E+02  0.45594000000E+02  0.51100000000E-03 0. -1.
    9900012    2    1    2    0    0 -0.35387400387E+02  0.82161706826E+01 -0.23745515379E+02  0.47787273423E+02  0.20000010845E+02 0.  0.
        -12    1    1    2    0    0  0.35387400387E+02 -0.82161706826E+01  0.23745515379E+02  0.43400726577E+02  0.00000000000E+00 0.  1.
         11    1    3    3    0    0 -0.31024666179E+01  0.50457366864E+00  0.13263126781E+01  0.34115977611E+01  0.51100000000E-03 0. -1.
        -11    1    3    3    0    0 -0.10642182178E+02  0.17691319063E+00 -0.32649528661E+00  0.10648659034E+02  0.51100000000E-03 0.  1.
         12    1    3    3    0    0 -0.21642751591E+02  0.75346838233E+01 -0.24745332770E+02  0.33727016628E+02  0.00000000000E+00 0. -1.
</event>
<event>
 7    1  0.1457722E-010  0.4778727E+02  0.7816164E-02  0.1312668E+00
        -11   -1    0    0    0    0  0.00000000000E+00  0.00000000000E+00  0.45593999997E+02  0.45594000000E+02  0.51100000000E-03 0. -1.
         11   -1    0    0    0    0 -0.00000000000E+00 -0.00000000000E+00 -0.45593999997E+02  0.45594000000E+02  0.51100000000E-03 0.  1.
    9900012    2    1    2    0    0 -0.42585880106E+02  0.83571871687E+01  0.47246500659E+00  0.47787274373E+02  0.20000015178E+02 0.  0.
        -12    1    1    2    0    0  0.42585880106E+02 -0.83571871687E+01 -0.47246500659E+00  0.43400725627E+02  0.00000000000E+00 0.  1.
         11    1    3    3    0    0 -0.10940999371E+02  0.45990950587E+01 -0.32877861238E+01  0.12315302694E+02  0.51100000000E-03 0. -1.
        -11    1    3    3    0    0 -0.26602611383E+02  0.33146562735E+01  0.89108691148E+01  0.28250477292E+02  0.51100000000E-03 0.  1.
        -12    1    3    3    0    0 -0.50422693521E+01  0.44343583654E+00 -0.51506179844E+01  0.72214943870E+01  0.00000000000E+00 0.  1.
</event>
<event>
 7    1  0.1457722E-010  0.4778727E+02  0.7816164E-02  0.1312668E+00
        -11   -1    0    0    0    0  0.00000000000E+00  0.00000000000E+00  0.45593999997E+02  0.45594000000E+02  0.51100000000E-03 0.  1.
         11   -1    0    0    0    0 -0.00000000000E+00 -0.00000000000E+00 -0.45593999997E+02  0.45594000000E+02  0.51100000000E-03 0. -1.
    9900012    2    1    2    0    0  0.16505729665E+02  0.13757295858E+02 -0.37708368876E+02  0.47787269771E+02  0.19999994195E+02 0.  0.
        -12    1    1    2    0    0 -0.16505729665E+02 -0.13757295858E+02  0.37708368876E+02  0.43400730229E+02  0.00000000000E+00 0.  1.
         11    1    3    3    0    0  0.48058064727E+01 -0.11975068093E+01 -0.68489620898E+01  0.84521050857E+01  0.51100000000E-03 0. -1.
        -11    1    3    3    0    0  0.68066962206E+01  0.17516385255E+02 -0.25099638874E+02  0.31355170829E+02  0.51100000000E-03 0.  1.
        -12    1    3    3    0    0  0.48932269721E+01 -0.25615825877E+01 -0.57597679121E+01  0.79799938569E+01  0.00000000000E+00 0.  1.
</event>
<event>
 7    1  0.1457722E-010  0.4778727E+02  0.7816164E-02  0.1312668E+00
        -11   -1    0    0    0    0  0.00000000000E+00  0.00000000000E+00  0.45593999997E+02  0.45594000000E+02  0.51100000000E-03 0.  1.
         11   -1    0    0    0    0 -0.00000000000E+00 -0.00000000000E+00 -0.45593999997E+02  0.45594000000E+02  0.51100000000E-03 0. -1.
    9900012    2    1    2    0    0 -0.12081623937E+02 -0.14894358367E+02 -0.38933481248E+02  0.47787268322E+02  0.19999987588E+02 0.  0.
        -12    1    1    2    0    0  0.12081623937E+02  0.14894358367E+02  0.38933481248E+02  0.43400731678E+02  0.00000000000E+00 0.  1.
         11    1    3    3    0    0 -0.75317098837E+01 -0.41820110384E+01 -0.78095129311E+01  0.11627741078E+02  0.51100000000E-03 0.  1.
        -11    1    3    3    0    0 -0.15789694551E+01 -0.69103272289E+01 -0.30477893107E+02  0.31291336428E+02  0.51100000000E-03 0. -1.
         12    1    3    3    0    0 -0.29709445983E+01 -0.38020200995E+01 -0.64607520931E+00  0.48681908158E+01  0.00000000000E+00 0. -1.
</event>
<event>
 7    1  0.1457722E-010  0.4778725E+02  0.7816164E-02  0.1312668E+00
        -11   -1    0    0    0    0  0.00000000000E+00  0.00000000000E+00  0.45593999997E+02  0.45594000000E+02  0.51100000000E-03 0.  1.
         11   -1    0    0    0    0 -0.00000000000E+00 -0.00000000000E+00 -0.45593999997E+02  0.45594000000E+02  0.51100000000E-03 0. -1.
    9900012    2    1    2    0    0 -0.36095736039E+02  0.10680360035E+02 -0.21602148436E+02  0.47787250378E+02  0.19999905775E+02 0.  0.
        -12    1    1    2    0    0  0.36095736039E+02 -0.10680360035E+02  0.21602148436E+02  0.43400749622E+02  0.00000000000E+00 0.  1.
         11    1    3    3    0    0 -0.49855475668E+01 -0.41064357085E+01 -0.72471029377E+01  0.97076773752E+01  0.51100000000E-03 0.  1.
        -11    1    3    3    0    0 -0.17175066435E+02  0.54737090654E+01 -0.10570573221E+02  0.20896923613E+02  0.51100000000E-03 0. -1.
        -12    1    3    3    0    0 -0.13935122037E+02  0.93130866785E+01 -0.37844722766E+01  0.17182649390E+02  0.00000000000E+00 0.  1.
</event>
<event>
 7    1  0.1457722E-010  0.4778727E+02  0.7816164E-02  0.1312668E+00
        -11   -1    0    0    0    0  0.00000000000E+00  0.00000000000E+00  0.45593999997E+02  0.45594000000E+02  0.51100000000E-03 0.  1.
         11   -1    0    0    0    0 -0.00000000000E+00 -0.00000000000E+00 -0.45593999997E+02  0.45594000000E+02  0.51100000000E-03 0. -1.
    9900012    2    1    2    0    0 -0.37789526002E+01 -0.32210281612E+02 -0.28841641162E+02  0.47787274324E+02  0.20000014955E+02 0.  0.
        -12    1    1    2    0    0  0.37789526002E+01  0.32210281612E+02  0.28841641162E+02  0.43400725676E+02  0.00000000000E+00 0.  1.
         11    1    3    3    0    0  0.24004466600E+01 -0.49345836556E+01 -0.15244380092E+01  0.56952762468E+01  0.51100000000E-03 0. -1.
        -11    1    3    3    0    0 -0.44864813628E+01 -0.21187055196E+02 -0.28363615394E+02  0.35686334939E+02  0.51100000000E-03 0.  1.
        -12    1    3    3    0    0 -0.16929178974E+01 -0.60886427598E+01  0.10464122417E+01  0.64056631385E+01  0.00000000000E+00 0.  1.
</event>
<event>
 7    1  0.1457722E-010  0.4778728E+02  0.7816164E-02  0.1312668E+00
        -11   -1    0    0    0    0  0.00000000000E+00  0.00000000000E+00  0.45593999997E+02  0.45594000000E+02  0.51100000000E-03 0.  1.
         11   -1    0    0    0    0 -0.00000000000E+00 -0.00000000000E+00 -0.45593999997E+02  0.45594000000E+02  0.51100000000E-03 0. -1.
    9900012    2    1    2    0    0  0.28810986219E+02 -0.12643106559E+02 -0.29894843887E+02  0.47787276948E+02  0.20000026918E+02 0.  0.
        -12    1    1    2    0    0 -0.28810986219E+02  0.12643106559E+02  0.29894843887E+02  0.43400723052E+02  0.00000000000E+00 0.  1.
         11    1    3    3    0    0  0.44565918829E+01 -0.83756884359E+01 -0.13767405608E+02  0.16719893104E+02  0.51100000000E-03 0.  1.
        -11    1    3    3    0    0  0.15046915243E+02 -0.73496155555E+01 -0.99457079289E+01  0.19476745458E+02  0.51100000000E-03 0. -1.
        -12    1    3    3    0    0  0.93074790929E+01  0.30821974328E+01 -0.61817303505E+01  0.11590638386E+02  0.00000000000E+00 0.  1.
</event>
<event>
 7    1  0.1457722E-010  0.4778727E+02  0.7816164E-02  0.1312668E+00
        -11   -1    0    0    0    0  0.00000000000E+00  0.00000000000E+00  0.45593999997E+02  0.45594000000E+02  0.51100000000E-03 0.  1.
         11   -1    0    0    0    0 -0.00000000000E+00 -0.00000000000E+00 -0.45593999997E+02  0.45594000000E+02  0.51100000000E-03 0. -1.
    9900012    2    1    2    0    0  0.13630683445E+02 -0.21083807087E+02 -0.35401989170E+02  0.47787270863E+02  0.19999999170E+02 0.  0.
        -12    1    1    2    0    0 -0.13630683445E+02  0.21083807087E+02  0.35401989170E+02  0.43400729137E+02  0.00000000000E+00 0.  1.
         11    1    3    3    0    0  0.60811567833E+01 -0.29549761101E+01 -0.13086428275E+02  0.14729798264E+02  0.51100000000E-03 0. -1.
        -11    1    3    3    0    0 -0.53514277959E+00 -0.13621906967E+02 -0.18651929612E+02  0.23102753206E+02  0.51100000000E-03 0.  1.
        -12    1    3    3    0    0  0.80846694411E+01 -0.45069240101E+01 -0.36636312839E+01  0.99547193928E+01  0.00000000000E+00 0.  1.
</event>
<event>
 7    1  0.1457722E-010  0.4778728E+02  0.7816164E-02  0.1312668E+00
        -11   -1    0    0    0    0  0.00000000000E+00  0.00000000000E+00  0.45593999997E+02  0.45594000000E+02  0.51100000000E-03 0.  1.
         11   -1    0    0    0    0 -0.00000000000E+00 -0.00000000000E+00 -0.45593999997E+02  0.45594000000E+02  0.51100000000E-03 0. -1.
    9900012    2    1    2    0    0  0.21140406667E+02 -0.15523101046E+02 -0.34579458363E+02  0.47787281103E+02  0.20000045861E+02 0.  0.
        -12    1    1    2    0    0 -0.21140406667E+02  0.15523101046E+02  0.34579458363E+02  0.43400718897E+02  0.00000000000E+00 0.  1.
         11    1    3    3    0    0  0.27509388033E+01 -0.39322200465E+00 -0.80298792278E+01  0.84971317819E+01  0.51100000000E-03 0. -1.
        -11    1    3    3    0    0  0.10362051448E+02 -0.16815835405E+02 -0.13672579396E+02  0.24022569767E+02  0.51100000000E-03 0.  1.
        -12    1    3    3    0    0  0.80274164157E+01  0.16859563646E+01 -0.12876999739E+02  0.15267579555E+02  0.00000000000E+00 0.  1.
</event>
<event>
 7    1  0.1457722E-010  0.4778727E+02  0.7816164E-02  0.1312668E+00
        -11   -1    0    0    0    0  0.00000000000E+00  0.00000000000E+00  0.45593999997E+02  0.45594000000E+02  0.51100000000E-03 0.  1.
         11   -1    0    0    0    0 -0.00000000000E+00 -0.00000000000E+00 -0.45593999997E+02  0.45594000000E+02  0.51100000000E-03 0. -1.
    9900012    2    1    2    0    0  0.16645899717E+01  0.38840535536E+01 -0.43194524999E+02  0.47787265885E+02  0.19999976477E+02 0.  0.
        -12    1    1    2    0    0 -0.16645899717E+01 -0.38840535536E+01  0.43194524999E+02  0.43400734115E+02  0.00000000000E+00 0.  1.
         11    1    3    3    0    0  0.77340497207E+00  0.24851765074E+01 -0.19645819779E+02  0.19817479471E+02  0.51100000000E-03 0. -1.
        -11    1    3    3    0    0  0.41531851109E+01  0.36728217074E+01 -0.17536476258E+01  0.58149674218E+01  0.51100000000E-03 0.  1.
        -12    1    3    3    0    0 -0.32620001113E+01 -0.22739446612E+01 -0.21795057595E+02  0.22154818993E+02  0.00000000000E+00 0.  1.
</event>
<event>
 7    1  0.1457722E-010  0.4778727E+02  0.7816164E-02  0.1312668E+00
        -11   -1    0    0    0    0  0.00000000000E+00  0.00000000000E+00  0.45593999997E+02  0.45594000000E+02  0.51100000000E-03 0.  1.
         11   -1    0    0    0    0 -0.00000000000E+00 -0.00000000000E+00 -0.45593999997E+02  0.45594000000E+02  0.51100000000E-03 0. -1.
    9900012    2    1    2    0    0 -0.65852395300E+00 -0.29687434907E+02 -0.31651951906E+02  0.47787268387E+02  0.19999987882E+02 0.  0.
        -12    1    1    2    0    0  0.65852395300E+00  0.29687434907E+02  0.31651951906E+02  0.43400731613E+02  0.00000000000E+00 0.  1.
         11    1    3    3    0    0 -0.11337137902E+01 -0.22853996981E+02 -0.30387275952E+02  0.38039151213E+02  0.51100000000E-03 0. -1.
        -11    1    3    3    0    0 -0.13224700786E+01 -0.73874600257E+01 -0.19363979844E+01  0.77506857861E+01  0.51100000000E-03 0.  1.
        -12    1    3    3    0    0  0.17976599157E+01  0.55402210006E+00  0.67172203087E+00  0.19974313872E+01  0.00000000000E+00 0.  1.
</event>
<event>
 7    1  0.1457722E-010  0.4778727E+02  0.7816164E-02  0.1312668E+00
        -11   -1    0    0    0    0  0.00000000000E+00  0.00000000000E+00  0.45593999997E+02  0.45594000000E+02  0.51100000000E-03 0. -1.
         11   -1    0    0    0    0 -0.00000000000E+00 -0.00000000000E+00 -0.45593999997E+02  0.45594000000E+02  0.51100000000E-03 0.  1.
    9900012    2    1    2    0    0 -0.16824272464E+02  0.18787384745E+02  0.35321400660E+02  0.47787270581E+02  0.19999997888E+02 0.  0.
        -12    1    1    2    0    0  0.16824272464E+02 -0.18787384745E+02 -0.35321400660E+02  0.43400729419E+02  0.00000000000E+00 0.  1.
         11    1    3    3    0    0 -0.12748693879E+02  0.12489085582E+02  0.14879243076E+02  0.23235712365E+02  0.51100000000E-03 0. -1.
        -11    1    3    3    0    0 -0.80662162730E+00  0.91944363583E+01  0.13768475263E+02  0.16575862262E+02  0.51100000000E-03 0.  1.
        -12    1    3    3    0    0 -0.32689569568E+01 -0.28961371954E+01  0.66736823206E+01  0.79756959544E+01  0.00000000000E+00 0.  1.
</event>
<event>
 7    1  0.1457722E-010  0.4778727E+02  0.7816164E-02  0.1312668E+00
        -11   -1    0    0    0    0  0.00000000000E+00  0.00000000000E+00  0.45593999997E+02  0.45594000000E+02  0.51100000000E-03 0.  1.
         11   -1    0    0    0    0 -0.00000000000E+00 -0.00000000000E+00 -0.45593999997E+02  0.45594000000E+02  0.51100000000E-03 0. -1.
    9900012    2    1    2    0    0  0.41430436108E+02  0.49146383840E+01 -0.11957793043E+02  0.47787268198E+02  0.19999987021E+02 0.  0.
        -12    1    1    2    0    0 -0.41430436108E+02 -0.49146383840E+01  0.11957793043E+02  0.43400731802E+02  0.00000000000E+00 0.  1.
         11    1    3    3    0    0  0.16936069737E+02 -0.24416681842E+01 -0.95520598456E+01  0.19596786706E+02  0.51100000000E-03 0. -1.
        -11    1    3    3    0    0  0.11153485119E+02 -0.11037973380E+01  0.28093353113E+01  0.11554694458E+02  0.51100000000E-03 0.  1.
         12    1    3    3    0    0  0.13340881252E+02  0.84601039062E+01 -0.52150685089E+01  0.16635787034E+02  0.00000000000E+00 0. -1.
</event>
<event>
 7    1  0.1457722E-010  0.4778727E+02  0.7816164E-02  0.1312668E+00
        -11   -1    0    0    0    0  0.00000000000E+00  0.00000000000E+00  0.45593999997E+02  0.45594000000E+02  0.51100000000E-03 0.  1.
         11   -1    0    0    0    0 -0.00000000000E+00 -0.00000000000E+00 -0.45593999997E+02  0.45594000000E+02  0.51100000000E-03 0. -1.
    9900012    2    1    2    0    0  0.26196291008E+02 -0.31620234617E+02  0.14054834434E+02  0.47787271081E+02  0.20000000165E+02 0.  0.
        -12    1    1    2    0    0 -0.26196291008E+02  0.31620234617E+02 -0.14054834434E+02  0.43400728919E+02  0.00000000000E+00 0.  1.
         11    1    3    3    0    0  0.48818220995E+01 -0.49585569736E+01 -0.28250097342E+01  0.75100036306E+01  0.51100000000E-03 0. -1.
        -11    1    3    3    0    0  0.15971887681E+01 -0.58973257812E+01  0.84506081614E+01  0.10427954828E+02  0.51100000000E-03 0.  1.
         12    1    3    3    0    0  0.19717280140E+02 -0.20764351862E+02  0.84292360071E+01  0.29849312622E+02  0.00000000000E+00 0. -1.
</event>
<event>
 7    1  0.1457722E-010  0.4778727E+02  0.7816164E-02  0.1312668E+00
        -11   -1    0    0    0    0  0.00000000000E+00  0.00000000000E+00  0.45593999997E+02  0.45594000000E+02  0.51100000000E-03 0.  1.
         11   -1    0    0    0    0 -0.00000000000E+00 -0.00000000000E+00 -0.45593999997E+02  0.45594000000E+02  0.51100000000E-03 0. -1.
    9900012    2    1    2    0    0 -0.30533963869E+02 -0.99111834819E+01 -0.29207339981E+02  0.47787271707E+02  0.20000003021E+02 0.  0.
        -12    1    1    2    0    0  0.30533963869E+02  0.99111834819E+01  0.29207339981E+02  0.43400728293E+02  0.00000000000E+00 0.  1.
         11    1    3    3    0    0 -0.16619881303E+02 -0.61668244637E+01 -0.18245674254E+02  0.25439237562E+02  0.51100000000E-03 0. -1.
        -11    1    3    3    0    0  0.11405462399E+01  0.15670046732E+00 -0.58730739461E+01  0.59848474165E+01  0.51100000000E-03 0.  1.
         12    1    3    3    0    0 -0.15054628806E+02 -0.39010594855E+01 -0.50885917811E+01  0.16363186728E+02  0.00000000000E+00 0. -1.
</event>
<event>
 7    1  0.1457722E-010  0.4778725E+02  0.7816164E-02  0.1312668E+00
        -11   -1    0    0    0    0  0.00000000000E+00  0.00000000000E+00  0.45593999997E+02  0.45594000000E+02  0.51100000000E-03 0.  1.
         11   -1    0    0    0    0 -0.00000000000E+00 -0.00000000000E+00 -0.45593999997E+02  0.45594000000E+02  0.51100000000E-03 0. -1.
    9900012    2    1    2    0    0 -0.13760239342E+02 -0.52159612623E+01 -0.40829820592E+02  0.47787254751E+02  0.19999925709E+02 0.  0.
        -12    1    1    2    0    0  0.13760239342E+02  0.52159612623E+01  0.40829820592E+02  0.43400745249E+02  0.00000000000E+00 0.  1.
         11    1    3    3    0    0 -0.27799745759E+01 -0.47998499088E+01 -0.47886619530E+01  0.73278988360E+01  0.51100000000E-03 0.  1.
        -11    1    3    3    0    0 -0.10198872025E+02 -0.10016129582E+01 -0.37404209146E+02  0.38782664700E+02  0.51100000000E-03 0. -1.
         12    1    3    3    0    0 -0.78139274134E+00  0.58550160467E+00  0.13630505071E+01  0.16766912149E+01  0.00000000000E+00 0. -1.
</event>
<event>
 7    1  0.1457722E-010  0.4778727E+02  0.7816164E-02  0.1312668E+00
        -11   -1    0    0    0    0  0.00000000000E+00  0.00000000000E+00  0.45593999997E+02  0.45594000000E+02  0.51100000000E-03 0. -1.
         11   -1    0    0    0    0 -0.00000000000E+00 -0.00000000000E+00 -0.45593999997E+02  0.45594000000E+02  0.51100000000E-03 0.  1.
    9900012    2    1    2    0    0  0.14874807413E+02 -0.36605115057E+02  0.17956307565E+02  0.47787270452E+02  0.19999997300E+02 0.  0.
        -12    1    1    2    0    0 -0.14874807413E+02  0.36605115057E+02 -0.17956307565E+02  0.43400729548E+02  0.00000000000E+00 0.  1.
         11    1    3    3    0    0  0.67156993009E+01 -0.22995606008E+02  0.17676069272E+01  0.24021301948E+02  0.51100000000E-03 0. -1.
        -11    1    3    3    0    0  0.42571897037E+01 -0.97944336593E+01  0.61079090914E+01  0.12302891880E+02  0.51100000000E-03 0.  1.
        -12    1    3    3    0    0  0.39019184088E+01 -0.38150753899E+01  0.10080791546E+02  0.11463076624E+02  0.00000000000E+00 0.  1.
</event>
<event>
 7    1  0.2837134E-010  0.4778727E+02  0.7816164E-02  0.1312668E+00
        -11   -1    0    0    0    0  0.00000000000E+00  0.00000000000E+00  0.45593999997E+02  0.45594000000E+02  0.51100000000E-03 0. -1.
         11   -1    0    0    0    0 -0.00000000000E+00 -0.00000000000E+00 -0.45593999997E+02  0.45594000000E+02  0.51100000000E-03 0.  1.
    9900012    2    1    2    0    0 -0.16117244197E+02  0.30503015233E+02  0.26332940343E+02  0.47787271366E+02  0.20000001466E+02 0.  0.
        -12    1    1    2    0    0  0.16117244197E+02 -0.30503015233E+02 -0.26332940343E+02  0.43400728634E+02  0.00000000000E+00 0.  1.
         11    1    3    3    0    0 -0.95474110445E+01  0.13408727553E+02  0.20629211260E+02  0.26391502226E+02  0.51100000000E-03 0.  1.
        -11    1    3    3    0    0 -0.88155678962E+01  0.10958776795E+02  0.43669989012E+01  0.14726836247E+02  0.51100000000E-03 0. -1.
        -12    1    3    3    0    0  0.22457347433E+01  0.61355108848E+01  0.13367301817E+01  0.66689328932E+01  0.00000000000E+00 0.  1.
</event>
<event>
 7    1  0.1457722E-010  0.4778727E+02  0.7816164E-02  0.1312668E+00
        -11   -1    0    0    0    0  0.00000000000E+00  0.00000000000E+00  0.45593999997E+02  0.45594000000E+02  0.51100000000E-03 0.  1.
         11   -1    0    0    0    0 -0.00000000000E+00 -0.00000000000E+00 -0.45593999997E+02  0.45594000000E+02  0.51100000000E-03 0. -1.
    9900012    2    1    2    0    0  0.19069286185E+02  0.23149770319E+02 -0.31369951749E+02  0.47787269428E+02  0.19999992631E+02 0.  0.
        -12    1    1    2    0    0 -0.19069286185E+02 -0.23149770319E+02  0.31369951749E+02  0.43400730572E+02  0.00000000000E+00 0.  1.
         11    1    3    3    0    0 -0.55283732219E+00  0.20978275494E+01  0.19798190596E+00  0.21784642821E+01  0.51100000000E-03 0.  1.
        -11    1    3    3    0    0  0.10075053905E+02  0.41949140502E+01 -0.20687509487E+02  0.23389678581E+02  0.51100000000E-03 0. -1.
         12    1    3    3    0    0  0.95470696029E+01  0.16857028720E+02 -0.10880424168E+02  0.22219126565E+02  0.00000000000E+00 0. -1.
</event>
<event>
 7    1  0.1457722E-010  0.4778725E+02  0.7816164E-02  0.1312668E+00
        -11   -1    0    0    0    0  0.00000000000E+00  0.00000000000E+00  0.45593999997E+02  0.45594000000E+02  0.51100000000E-03 0. -1.
         11   -1    0    0    0    0 -0.00000000000E+00 -0.00000000000E+00 -0.45593999997E+02  0.45594000000E+02  0.51100000000E-03 0.  1.
    9900012    2    1    2    0    0 -0.33415270583E+02  0.27686019396E+02 -0.72749919050E+00  0.47787248472E+02  0.19999897082E+02 0.  0.
        -12    1    1    2    0    0  0.33415270583E+02 -0.27686019396E+02  0.72749919050E+00  0.43400751528E+02  0.00000000000E+00 0.  1.
         11    1    3    3    0    0 -0.17298526598E+02  0.14831646962E+02 -0.46372295603E+01  0.23253401306E+02  0.51100000000E-03 0. -1.
        -11    1    3    3    0    0 -0.18093131146E+02  0.98773195310E+01  0.28714166396E+01  0.20812685304E+02  0.51100000000E-03 0.  1.
        -12    1    3    3    0    0  0.19763871607E+01  0.29770529032E+01  0.10383137302E+01  0.37211618615E+01  0.00000000000E+00 0.  1.
</event>
<event>
 7    1  0.1457722E-010  0.4778727E+02  0.7816164E-02  0.1312668E+00
        -11   -1    0    0    0    0  0.00000000000E+00  0.00000000000E+00  0.45593999997E+02  0.45594000000E+02  0.51100000000E-03 0.  1.
         11   -1    0    0    0    0 -0.00000000000E+00 -0.00000000000E+00 -0.45593999997E+02  0.45594000000E+02  0.51100000000E-03 0. -1.
    9900012    2    1    2    0    0 -0.28418261434E+02  0.24696507380E+02 -0.21589539825E+02  0.47787270864E+02  0.19999999178E+02 0.  0.
        -12    1    1    2    0    0  0.28418261434E+02 -0.24696507380E+02  0.21589539825E+02  0.43400729136E+02  0.00000000000E+00 0.  1.
         11    1    3    3    0    0 -0.14474607861E+02  0.11180536648E+02 -0.64927339078E+01  0.19408097957E+02  0.51100000000E-03 0. -1.
        -11    1    3    3    0    0 -0.14330155843E+02  0.14558037302E+02 -0.16729625243E+02  0.26403980336E+02  0.51100000000E-03 0.  1.
        -12    1    3    3    0    0  0.38650226989E+00 -0.10420665702E+01  0.16328193256E+01  0.19751925707E+01  0.00000000000E+00 0.  1.
</event>
<event>
 7    1  0.1457722E-010  0.4778727E+02  0.7816164E-02  0.1312668E+00
        -11   -1    0    0    0    0  0.00000000000E+00  0.00000000000E+00  0.45593999997E+02  0.45594000000E+02  0.51100000000E-03 0.  1.
         11   -1    0    0    0    0 -0.00000000000E+00 -0.00000000000E+00 -0.45593999997E+02  0.45594000000E+02  0.51100000000E-03 0. -1.
    9900012    2    1    2    0    0 -0.35068382900E+02  0.23010191828E+02 -0.11151805828E+02  0.47787272122E+02  0.20000004911E+02 0.  0.
        -12    1    1    2    0    0  0.35068382900E+02 -0.23010191828E+02  0.11151805828E+02  0.43400727878E+02  0.00000000000E+00 0.  1.
         11    1    3    3    0    0  0.27888339271E+00  0.34087993006E+01  0.15016743695E+01  0.37353332906E+01  0.51100000000E-03 0. -1.
        -11    1    3    3    0    0 -0.18524774646E+02  0.58933985271E+01 -0.11075087523E+01  0.19471158101E+02  0.51100000000E-03 0.  1.
         12    1    3    3    0    0 -0.16822491646E+02  0.13707994000E+02 -0.11545971445E+02  0.24580780730E+02  0.00000000000E+00 0. -1.
</event>
<event>
 7    1  0.1457722E-010  0.4778727E+02  0.7816164E-02  0.1312668E+00
        -11   -1    0    0    0    0  0.00000000000E+00  0.00000000000E+00  0.45593999997E+02  0.45594000000E+02  0.51100000000E-03 0. -1.
         11   -1    0    0    0    0 -0.00000000000E+00 -0.00000000000E+00 -0.45593999997E+02  0.45594000000E+02  0.51100000000E-03 0.  1.
    9900012    2    1    2    0    0 -0.31730832673E+02  0.18427950726E+02  0.23177329685E+02  0.47787265888E+02  0.19999976491E+02 0.  0.
        -12    1    1    2    0    0  0.31730832673E+02 -0.18427950726E+02 -0.23177329685E+02  0.43400734112E+02  0.00000000000E+00 0.  1.
         11    1    3    3    0    0 -0.64625890840E+01 -0.19379957273E+01  0.35646697068E+01  0.76307113356E+01  0.51100000000E-03 0.  1.
        -11    1    3    3    0    0 -0.95076829060E+01  0.12668046785E+02  0.32495170575E+01  0.16168945697E+02  0.51100000000E-03 0. -1.
         12    1    3    3    0    0 -0.15760560683E+02  0.76978996686E+01  0.16363142921E+02  0.23987608856E+02  0.00000000000E+00 0. -1.
</event>
<event>
 7    1  0.1457722E-010  0.4778727E+02  0.7816164E-02  0.1312668E+00
        -11   -1    0    0    0    0  0.00000000000E+00  0.00000000000E+00  0.45593999997E+02  0.45594000000E+02  0.51100000000E-03 0. -1.
         11   -1    0    0    0    0 -0.00000000000E+00 -0.00000000000E+00 -0.45593999997E+02  0.45594000000E+02  0.51100000000E-03 0.  1.
    9900012    2    1    2    0    0  0.22272101803E+02 -0.14078212484E+02  0.34487394547E+02  0.47787274567E+02  0.20000016060E+02 0.  0.
        -12    1    1    2    0    0 -0.22272101803E+02  0.14078212484E+02 -0.34487394547E+02  0.43400725433E+02  0.00000000000E+00 0.  1.
         11    1    3    3    0    0 -0.13356308241E+01 -0.67477703285E+00  0.84305747143E+01  0.85623492114E+01  0.51100000000E-03 0. -1.
        -11    1    3    3    0    0  0.27751347330E+00 -0.40831493002E+01  0.48662540169E+01  0.63584235746E+01  0.51100000000E-03 0.  1.
         12    1    3    3    0    0  0.23330219154E+02 -0.93202861505E+01  0.21190565816E+02  0.32866501781E+02  0.00000000000E+00 0. -1.
</event>
<event>
 7    1  0.1457722E-010  0.4778727E+02  0.7816164E-02  0.1312668E+00
        -11   -1    0    0    0    0  0.00000000000E+00  0.00000000000E+00  0.45593999997E+02  0.45594000000E+02  0.51100000000E-03 0.  1.
         11   -1    0    0    0    0 -0.00000000000E+00 -0.00000000000E+00 -0.45593999997E+02  0.45594000000E+02  0.51100000000E-03 0. -1.
    9900012    2    1    2    0    0 -0.39891322523E+01  0.30645575554E+02 -0.30472259901E+02  0.47787273040E+02  0.20000009098E+02 0.  0.
        -12    1    1    2    0    0  0.39891322523E+01 -0.30645575554E+02  0.30472259901E+02  0.43400726960E+02  0.00000000000E+00 0.  1.
         11    1    3    3    0    0 -0.85410137715E+01  0.26274069019E+02 -0.27771495326E+02  0.39173097554E+02  0.51100000000E-03 0. -1.
        -11    1    3    3    0    0  0.51465457758E+00  0.74201420080E+00  0.14993294008E+01  0.17502694997E+01  0.51100000000E-03 0.  1.
         12    1    3    3    0    0  0.40372269416E+01  0.36294923340E+01 -0.42000939764E+01  0.68639059865E+01  0.00000000000E+00 0. -1.
</event>
<event>
 7    1  0.1457722E-010  0.4778727E+02  0.7816164E-02  0.1312668E+00
        -11   -1    0    0    0    0  0.00000000000E+00  0.00000000000E+00  0.45593999997E+02  0.45594000000E+02  0.51100000000E-03 0.  1.
         11   -1    0    0    0    0 -0.00000000000E+00 -0.00000000000E+00 -0.45593999997E+02  0.45594000000E+02  0.51100000000E-03 0. -1.
    9900012    2    1    2    0    0  0.22862542553E+02 -0.54430748489E+01 -0.36486989976E+02  0.47787270129E+02  0.19999995828E+02 0.  0.
        -12    1    1    2    0    0 -0.22862542553E+02  0.54430748489E+01  0.36486989976E+02  0.43400729871E+02  0.00000000000E+00 0.  1.
         11    1    3    3    0    0  0.11623351141E+02 -0.25176118109E+01 -0.58427407713E+01  0.13250595495E+02  0.51100000000E-03 0. -1.
        -11    1    3    3    0    0 -0.13079834520E+01  0.19731161330E+01 -0.60294831921E+01  0.64775516833E+01  0.51100000000E-03 0.  1.
         12    1    3    3    0    0  0.12547174864E+02 -0.48985791710E+01 -0.24614766012E+02  0.28059122951E+02  0.00000000000E+00 0. -1.
</event>
<event>
 7    1  0.2898992E-010  0.4778727E+02  0.7816164E-02  0.1312668E+00
        -11   -1    0    0    0    0  0.00000000000E+00  0.00000000000E+00  0.45593999997E+02  0.45594000000E+02  0.51100000000E-03 0. -1.
         11   -1    0    0    0    0 -0.00000000000E+00 -0.00000000000E+00 -0.45593999997E+02  0.45594000000E+02  0.51100000000E-03 0.  1.
    9900012    2    1    2    0    0  0.21654567990E+02 -0.27936497625E+02  0.25184422925E+02  0.47787269909E+02  0.19999994823E+02 0.  0.
        -12    1    1    2    0    0 -0.21654567990E+02  0.27936497625E+02 -0.25184422925E+02  0.43400730091E+02  0.00000000000E+00 0.  1.
         11    1    3    3    0    0  0.11708118239E+01 -0.11311411968E+02  0.12158668437E+02  0.16647884534E+02  0.51100000000E-03 0. -1.
        -11    1    3    3    0    0  0.27508205102E+01 -0.69033847512E+00 -0.15139558493E+01  0.32149095266E+01  0.51100000000E-03 0.  1.
         12    1    3    3    0    0  0.17732935656E+02 -0.15934747182E+02  0.14539710337E+02  0.27924475849E+02  0.00000000000E+00 0. -1.
</event>
<event>
 7    1  0.1457722E-010  0.4778727E+02  0.7816164E-02  0.1312668E+00
        -11   -1    0    0    0    0  0.00000000000E+00  0.00000000000E+00  0.45593999997E+02  0.45594000000E+02  0.51100000000E-03 0.  1.
         11   -1    0    0    0    0 -0.00000000000E+00 -0.00000000000E+00 -0.45593999997E+02  0.45594000000E+02  0.51100000000E-03 0. -1.
    9900012    2    1    2    0    0  0.17472907962E+02  0.27995912038E+02 -0.28187756243E+02  0.47787271832E+02  0.20000003592E+02 0.  0.
        -12    1    1    2    0    0 -0.17472907962E+02 -0.27995912038E+02  0.28187756243E+02  0.43400728168E+02  0.00000000000E+00 0.  1.
         11    1    3    3    0    0 -0.91479390274E+00  0.38909380271E+01 -0.97910605094E+01  0.10575495864E+02  0.51100000000E-03 0. -1.
        -11    1    3    3    0    0  0.15317013506E+02  0.12138412076E+02 -0.14224402301E+02  0.24171999742E+02  0.51100000000E-03 0.  1.
         12    1    3    3    0    0  0.30706883595E+01  0.11966561934E+02 -0.41722934329E+01  0.13039776226E+02  0.00000000000E+00 0. -1.
</event>
<event>
 7    1  0.1457722E-010  0.4778727E+02  0.7816164E-02  0.1312668E+00
        -11   -1    0    0    0    0  0.00000000000E+00  0.00000000000E+00  0.45593999997E+02  0.45594000000E+02  0.51100000000E-03 0.  1.
         11   -1    0    0    0    0 -0.00000000000E+00 -0.00000000000E+00 -0.45593999997E+02  0.45594000000E+02  0.51100000000E-03 0. -1.
    9900012    2    1    2    0    0 -0.33530270958E+02  0.17876100955E+02 -0.20971152896E+02  0.47787270633E+02  0.19999998122E+02 0.  0.
        -12    1    1    2    0    0  0.33530270958E+02 -0.17876100955E+02  0.20971152896E+02  0.43400729367E+02  0.00000000000E+00 0.  1.
         11    1    3    3    0    0 -0.45369696238E+01  0.68448765475E+01 -0.43913757815E+01  0.93123901246E+01  0.51100000000E-03 0. -1.
        -11    1    3    3    0    0 -0.16953808589E+02  0.10261551685E+02 -0.17414820553E+02  0.26381945414E+02  0.51100000000E-03 0.  1.
        -12    1    3    3    0    0 -0.12039492745E+02  0.76967272310E+00  0.83504343879E+00  0.12092935094E+02  0.00000000000E+00 0.  1.
</event>
<event>
 7    1  0.1457722E-010  0.4778728E+02  0.7816164E-02  0.1312668E+00
        -11   -1    0    0    0    0  0.00000000000E+00  0.00000000000E+00  0.45593999997E+02  0.45594000000E+02  0.51100000000E-03 0. -1.
         11   -1    0    0    0    0 -0.00000000000E+00 -0.00000000000E+00 -0.45593999997E+02  0.45594000000E+02  0.51100000000E-03 0.  1.
    9900012    2    1    2    0    0 -0.23746562728E+02 -0.16825133263E+02  0.32196866210E+02  0.47787279448E+02  0.20000038313E+02 0.  0.
        -12    1    1    2    0    0  0.23746562728E+02  0.16825133263E+02 -0.32196866210E+02  0.43400720552E+02  0.00000000000E+00 0.  1.
         11    1    3    3    0    0 -0.53468467592E+01  0.11920506227E+01  0.12774478720E+02  0.13899534589E+02  0.51100000000E-03 0. -1.
        -11    1    3    3    0    0 -0.11417317494E+02 -0.13381040919E+02  0.18381721953E+02  0.25441994754E+02  0.51100000000E-03 0.  1.
        -12    1    3    3    0    0 -0.69823984752E+01 -0.46361429667E+01  0.10406655366E+01  0.84457501048E+01  0.00000000000E+00 0.  1.
</event>
<event>
 7    1  0.1457722E-010  0.4778727E+02  0.7816164E-02  0.1312668E+00
        -11   -1    0    0    0    0  0.00000000000E+00  0.00000000000E+00  0.45593999997E+02  0.45594000000E+02  0.51100000000E-03 0. -1.
         11   -1    0    0    0    0 -0.00000000000E+00 -0.00000000000E+00 -0.45593999997E+02  0.45594000000E+02  0.51100000000E-03 0.  1.
    9900012    2    1    2    0    0  0.22075318715E+00 -0.40118881217E+02  0.16554447015E+02  0.47787273300E+02  0.20000010283E+02 0.  0.
        -12    1    1    2    0    0 -0.22075318715E+00  0.40118881217E+02 -0.16554447015E+02  0.43400726700E+02  0.00000000000E+00 0.  1.
         11    1    3    3    0    0  0.40561016351E+01 -0.10398652405E+02  0.80297383963E+01  0.13749932047E+02  0.51100000000E-03 0. -1.
        -11    1    3    3    0    0  0.37129629714E+01 -0.61768366904E+01  0.56286571711E+01  0.91444621131E+01  0.51100000000E-03 0.  1.
        -12    1    3    3    0    0 -0.75483114194E+01 -0.23543392122E+02  0.28960514481E+01  0.24892879140E+02  0.00000000000E+00 0.  1.
</event>
<event>
 7    1  0.1457722E-010  0.4778727E+02  0.7816164E-02  0.1312668E+00
        -11   -1    0    0    0    0  0.00000000000E+00  0.00000000000E+00  0.45593999997E+02  0.45594000000E+02  0.51100000000E-03 0. -1.
         11   -1    0    0    0    0 -0.00000000000E+00 -0.00000000000E+00 -0.45593999997E+02  0.45594000000E+02  0.51100000000E-03 0.  1.
    9900012    2    1    2    0    0 -0.11182710130E+01 -0.38335706741E+02  0.20316155035E+02  0.47787273084E+02  0.20000009300E+02 0.  0.
        -12    1    1    2    0    0  0.11182710130E+01  0.38335706741E+02 -0.20316155035E+02  0.43400726916E+02  0.00000000000E+00 0.  1.
         11    1    3    3    0    0 -0.96394435500E+01 -0.23904927208E+02  0.15226597425E+02  0.29936828258E+02  0.51100000000E-03 0. -1.
        -11    1    3    3    0    0  0.17921394497E+01 -0.13541060753E+01 -0.11785054243E+00  0.22492790138E+01  0.51100000000E-03 0.  1.
         12    1    3    3    0    0  0.67290330873E+01 -0.13076673458E+02  0.52074081524E+01  0.15601165812E+02  0.00000000000E+00 0. -1.
</event>
<event>
 7    1  0.1457722E-010  0.4778728E+02  0.7816164E-02  0.1312668E+00
        -11   -1    0    0    0    0  0.00000000000E+00  0.00000000000E+00  0.45593999997E+02  0.45594000000E+02  0.51100000000E-03 0.  1.
         11   -1    0    0    0    0 -0.00000000000E+00 -0.00000000000E+00 -0.45593999997E+02  0.45594000000E+02  0.51100000000E-03 0. -1.
    9900012    2    1    2    0    0  0.49140018114E+00  0.25818955691E+02 -0.34882124291E+02  0.47787279475E+02  0.20000038437E+02 0.  0.
        -12    1    1    2    0    0 -0.49140018114E+00 -0.25818955691E+02  0.34882124291E+02  0.43400720525E+02  0.00000000000E+00 0.  1.
         11    1    3    3    0    0  0.46341772017E+01  0.16627051343E+02 -0.15769860072E+02  0.23379968384E+02  0.51100000000E-03 0. -1.
        -11    1    3    3    0    0 -0.61210936495E+01  0.93412143763E+00 -0.50952113010E+01  0.80188246514E+01  0.51100000000E-03 0.  1.
         12    1    3    3    0    0  0.19783166289E+01  0.82577829100E+01 -0.14017052918E+02  0.16388486439E+02  0.00000000000E+00 0. -1.
</event>
<event>
 7    1  0.1457722E-010  0.4778727E+02  0.7816164E-02  0.1312668E+00
        -11   -1    0    0    0    0  0.00000000000E+00  0.00000000000E+00  0.45593999997E+02  0.45594000000E+02  0.51100000000E-03 0.  1.
         11   -1    0    0    0    0 -0.00000000000E+00 -0.00000000000E+00 -0.45593999997E+02  0.45594000000E+02  0.51100000000E-03 0. -1.
    9900012    2    1    2    0    0  0.85283368493E+01 -0.24765247620E+02  0.34605971428E+02  0.47787271002E+02  0.19999999806E+02 0.  0.
        -12    1    1    2    0    0 -0.85283368493E+01  0.24765247620E+02 -0.34605971428E+02  0.43400728998E+02  0.00000000000E+00 0.  1.
         11    1    3    3    0    0  0.41701043076E+01 -0.94350328175E+00  0.34599828809E+00  0.42894852203E+01  0.51100000000E-03 0. -1.
        -11    1    3    3    0    0  0.18093348412E-01  0.97826070627E+00  0.40767506686E+01  0.41925192491E+01  0.51100000000E-03 0.  1.
         12    1    3    3    0    0  0.43401391933E+01 -0.24800005044E+02  0.30183222471E+02  0.39305266532E+02  0.00000000000E+00 0. -1.
</event>
<event>
 7    1  0.1457722E-010  0.4778728E+02  0.7816164E-02  0.1312668E+00
        -11   -1    0    0    0    0  0.00000000000E+00  0.00000000000E+00  0.45593999997E+02  0.45594000000E+02  0.51100000000E-03 0.  1.
         11   -1    0    0    0    0 -0.00000000000E+00 -0.00000000000E+00 -0.45593999997E+02  0.45594000000E+02  0.51100000000E-03 0. -1.
    9900012    2    1    2    0    0 -0.54051447272E+01  0.10468986089E+02 -0.41770893996E+02  0.47787275992E+02  0.20000022557E+02 0.  0.
        -12    1    1    2    0    0  0.54051447272E+01 -0.10468986089E+02  0.41770893996E+02  0.43400724008E+02  0.00000000000E+00 0.  1.
         11    1    3    3    0    0  0.14413506756E+01  0.27684825440E+01 -0.22677733815E+02  0.22891518050E+02  0.51100000000E-03 0. -1.
        -11    1    3    3    0    0  0.19331465767E+01  0.37873283698E+01 -0.94008765786E+00  0.43548452249E+01  0.51100000000E-03 0.  1.
         12    1    3    3    0    0 -0.87796419795E+01  0.39131751751E+01 -0.18153072522E+02  0.20540912717E+02  0.00000000000E+00 0. -1.
</event>
<event>
 7    1  0.1457722E-010  0.4778729E+02  0.7816164E-02  0.1312668E+00
        -11   -1    0    0    0    0  0.00000000000E+00  0.00000000000E+00  0.45593999997E+02  0.45594000000E+02  0.51100000000E-03 0.  1.
         11   -1    0    0    0    0 -0.00000000000E+00 -0.00000000000E+00 -0.45593999997E+02  0.45594000000E+02  0.51100000000E-03 0. -1.
    9900012    2    1    2    0    0 -0.12486980452E+02  0.41044205368E+02 -0.65627995726E+01  0.47787287870E+02  0.20000076716E+02 0.  0.
        -12    1    1    2    0    0  0.12486980452E+02 -0.41044205368E+02  0.65627995726E+01  0.43400712130E+02  0.00000000000E+00 0.  1.
         11    1    3    3    0    0 -0.66752694276E+00 -0.20278655392E+00 -0.22782442061E+01  0.23826689928E+01  0.51100000000E-03 0. -1.
        -11    1    3    3    0    0 -0.13857140196E+02  0.30765357106E+02  0.39976908825E+00  0.33744441733E+02  0.51100000000E-03 0.  1.
         12    1    3    3    0    0  0.20376866863E+01  0.10481634816E+02 -0.46843244548E+01  0.11660177145E+02  0.00000000000E+00 0. -1.
</event>
<event>
 7    1  0.1457722E-010  0.4778725E+02  0.7816164E-02  0.1312668E+00
        -11   -1    0    0    0    0  0.00000000000E+00  0.00000000000E+00  0.45593999997E+02  0.45594000000E+02  0.51100000000E-03 0.  1.
         11   -1    0    0    0    0 -0.00000000000E+00 -0.00000000000E+00 -0.45593999997E+02  0.45594000000E+02  0.51100000000E-03 0. -1.
    9900012    2    1    2    0    0  0.33669286922E+02  0.26112989676E+02 -0.82532427588E+01  0.47787249687E+02  0.19999902625E+02 0.  0.
        -12    1    1    2    0    0 -0.33669286922E+02 -0.26112989676E+02  0.82532427588E+01  0.43400750313E+02  0.00000000000E+00 0.  1.
         11    1    3    3    0    0  0.16522387581E+02  0.79417978066E+01 -0.58942893467E+01  0.19256274067E+02  0.51100000000E-03 0. -1.
        -11    1    3    3    0    0 -0.76282722300E+00  0.36245174299E+00 -0.31504673113E+01  0.32617052562E+01  0.51100000000E-03 0.  1.
        -12    1    3    3    0    0  0.17909726564E+02  0.17808740126E+02  0.79151389919E+00  0.25269270364E+02  0.00000000000E+00 0.  1.
</event>
<event>
 7    1  0.1457722E-010  0.4778727E+02  0.7816164E-02  0.1312668E+00
        -11   -1    0    0    0    0  0.00000000000E+00  0.00000000000E+00  0.45593999997E+02  0.45594000000E+02  0.51100000000E-03 0. -1.
         11   -1    0    0    0    0 -0.00000000000E+00 -0.00000000000E+00 -0.45593999997E+02  0.45594000000E+02  0.51100000000E-03 0.  1.
    9900012    2    1    2    0    0 -0.16493734214E+01  0.28162342801E+02  0.32981591229E+02  0.47787270228E+02  0.19999996279E+02 0.  0.
        -12    1    1    2    0    0  0.16493734214E+01 -0.28162342801E+02 -0.32981591229E+02  0.43400729772E+02  0.00000000000E+00 0.  1.
         11    1    3    3    0    0 -0.39489127150E+01  0.40891630144E+01  0.95658837060E+01  0.11127501837E+02  0.51100000000E-03 0.  1.
        -11    1    3    3    0    0  0.72196950710E+01  0.18862152127E+02  0.20900766098E+02  0.29064528269E+02  0.51100000000E-03 0. -1.
         12    1    3    3    0    0 -0.49201557774E+01  0.52110276602E+01  0.25149414250E+01  0.75952401226E+01  0.00000000000E+00 0. -1.
</event>
<event>
 7    1  0.1457722E-010  0.4778727E+02  0.7816164E-02  0.1312668E+00
        -11   -1    0    0    0    0  0.00000000000E+00  0.00000000000E+00  0.45593999997E+02  0.45594000000E+02  0.51100000000E-03 0.  1.
         11   -1    0    0    0    0 -0.00000000000E+00 -0.00000000000E+00 -0.45593999997E+02  0.45594000000E+02  0.51100000000E-03 0. -1.
    9900012    2    1    2    0    0 -0.91120540950E+01  0.14081365763E+02 -0.40028848943E+02  0.47787272595E+02  0.20000007068E+02 0.  0.
        -12    1    1    2    0    0  0.91120540950E+01 -0.14081365763E+02  0.40028848943E+02  0.43400727405E+02  0.00000000000E+00 0.  1.
         11    1    3    3    0    0 -0.79225215769E-01  0.84626175245E+01 -0.17481890581E+02  0.19422632946E+02  0.51100000000E-03 0.  1.
        -11    1    3    3    0    0 -0.95267893053E+01 -0.21804559338E+00 -0.19630332995E+02  0.21821027293E+02  0.51100000000E-03 0. -1.
        -12    1    3    3    0    0  0.49396042606E+00  0.58367938315E+01 -0.29166253672E+01  0.65436123561E+01  0.00000000000E+00 0.  1.
</event>
<event>
 7    1  0.1457722E-010  0.4778728E+02  0.7816164E-02  0.1312668E+00
        -11   -1    0    0    0    0  0.00000000000E+00  0.00000000000E+00  0.45593999997E+02  0.45594000000E+02  0.51100000000E-03 0. -1.
         11   -1    0    0    0    0 -0.00000000000E+00 -0.00000000000E+00 -0.45593999997E+02  0.45594000000E+02  0.51100000000E-03 0.  1.
    9900012    2    1    2    0    0  0.98155478172E+01  0.33260723910E+02  0.26096011346E+02  0.47787279474E+02  0.20000038434E+02 0.  0.
        -12    1    1    2    0    0 -0.98155478172E+01 -0.33260723910E+02 -0.26096011346E+02  0.43400720526E+02  0.00000000000E+00 0.  1.
         11    1    3    3    0    0  0.19300863067E+01  0.15225936723E+02  0.94642988743E+01  0.18031287688E+02  0.51100000000E-03 0. -1.
        -11    1    3    3    0    0  0.11899450670E+02  0.10541251293E+02  0.12898017227E+02  0.20471290964E+02  0.51100000000E-03 0.  1.
        -12    1    3    3    0    0 -0.40139891600E+01  0.74935358941E+01  0.37336952448E+01  0.92847008220E+01  0.00000000000E+00 0.  1.
</event>
<event>
 7    1  0.1457722E-010  0.4778727E+02  0.7816164E-02  0.1312668E+00
        -11   -1    0    0    0    0  0.00000000000E+00  0.00000000000E+00  0.45593999997E+02  0.45594000000E+02  0.51100000000E-03 0.  1.
         11   -1    0    0    0    0 -0.00000000000E+00 -0.00000000000E+00 -0.45593999997E+02  0.45594000000E+02  0.51100000000E-03 0. -1.
    9900012    2    1    2    0    0 -0.20958026010E+02  0.20291298216E+01 -0.37950848669E+02  0.47787272624E+02  0.20000007201E+02 0.  0.
        -12    1    1    2    0    0  0.20958026010E+02 -0.20291298216E+01  0.37950848669E+02  0.43400727376E+02  0.00000000000E+00 0.  1.
         11    1    3    3    0    0 -0.54781071011E+01  0.15256071745E+00 -0.11872637020E+01  0.56073636892E+01  0.51100000000E-03 0.  1.
        -11    1    3    3    0    0 -0.50175293360E+01 -0.50237512781E+01 -0.20183014237E+02  0.21395507507E+02  0.51100000000E-03 0. -1.
         12    1    3    3    0    0 -0.10462389573E+02  0.69003203822E+01 -0.16580570730E+02  0.20784401427E+02  0.00000000000E+00 0. -1.
</event>
<event>
 7    1  0.1457722E-010  0.4778727E+02  0.7816164E-02  0.1312668E+00
        -11   -1    0    0    0    0  0.00000000000E+00  0.00000000000E+00  0.45593999997E+02  0.45594000000E+02  0.51100000000E-03 0.  1.
         11   -1    0    0    0    0 -0.00000000000E+00 -0.00000000000E+00 -0.45593999997E+02  0.45594000000E+02  0.51100000000E-03 0. -1.
    9900012    2    1    2    0    0 -0.27005941796E+02  0.30094099737E+02 -0.15768562034E+02  0.47787270975E+02  0.19999999684E+02 0.  0.
        -12    1    1    2    0    0  0.27005941796E+02 -0.30094099737E+02  0.15768562034E+02  0.43400729025E+02  0.00000000000E+00 0.  1.
         11    1    3    3    0    0 -0.59009109945E+01  0.14266735330E+02 -0.35259162993E+01  0.15836431844E+02  0.51100000000E-03 0. -1.
        -11    1    3    3    0    0 -0.14989994135E+01  0.52133653823E+01  0.16644705531E+01  0.56742083442E+01  0.51100000000E-03 0.  1.
         12    1    3    3    0    0 -0.19606031388E+02  0.10613999025E+02 -0.13907116288E+02  0.26276630787E+02  0.00000000000E+00 0. -1.
</event>
<event>
 7    1  0.1457722E-010  0.4778723E+02  0.7816164E-02  0.1312668E+00
        -11   -1    0    0    0    0  0.00000000000E+00  0.00000000000E+00  0.45593999997E+02  0.45594000000E+02  0.51100000000E-03 0.  1.
         11   -1    0    0    0    0 -0.00000000000E+00 -0.00000000000E+00 -0.45593999997E+02  0.45594000000E+02  0.51100000000E-03 0. -1.
    9900012    2    1    2    0    0 -0.21842821655E+02 -0.37494589287E+02 -0.82100136340E+00  0.47787226656E+02  0.19999797613E+02 0.  0.
        -12    1    1    2    0    0  0.21842821655E+02  0.37494589287E+02  0.82100136340E+00  0.43400773344E+02  0.00000000000E+00 0.  1.
         11    1    3    3    0    0 -0.15954103043E+02 -0.28545136408E+02 -0.75621093921E+01  0.33564024121E+02  0.51100000000E-03 0. -1.
        -11    1    3    3    0    0 -0.66593110137E+01 -0.49092514826E+01  0.34850280641E+01  0.89773378106E+01  0.51100000000E-03 0.  1.
        -12    1    3    3    0    0  0.77059240148E+00 -0.40402013956E+01  0.32560799646E+01  0.52458647239E+01  0.00000000000E+00 0.  1.
</event>
<event>
 7    1  0.1457722E-010  0.4778728E+02  0.7816164E-02  0.1312668E+00
        -11   -1    0    0    0    0  0.00000000000E+00  0.00000000000E+00  0.45593999997E+02  0.45594000000E+02  0.51100000000E-03 0.  1.
         11   -1    0    0    0    0 -0.00000000000E+00 -0.00000000000E+00 -0.45593999997E+02  0.45594000000E+02  0.51100000000E-03 0. -1.
    9900012    2    1    2    0    0 -0.38094548027E+02 -0.18931004001E+02 -0.86049648246E+01  0.47787275104E+02  0.20000018508E+02 0.  0.
        -12    1    1    2    0    0  0.38094548027E+02  0.18931004001E+02  0.86049648246E+01  0.43400724896E+02  0.00000000000E+00 0.  1.
         11    1    3    3    0    0  0.14640135930E-01  0.57039880344E+00  0.11988303971E+01  0.13276911202E+01  0.51100000000E-03 0. -1.
        -11    1    3    3    0    0 -0.19808653711E+02 -0.14282176533E+02 -0.12166113811E+02  0.27283285248E+02  0.51100000000E-03 0.  1.
         12    1    3    3    0    0 -0.18300534452E+02 -0.52192262711E+01  0.23623185895E+01  0.19176298736E+02  0.00000000000E+00 0. -1.
</event>
<event>
 7    1  0.1457722E-010  0.4778727E+02  0.7816164E-02  0.1312668E+00
        -11   -1    0    0    0    0  0.00000000000E+00  0.00000000000E+00  0.45593999997E+02  0.45594000000E+02  0.51100000000E-03 0.  1.
         11   -1    0    0    0    0 -0.00000000000E+00 -0.00000000000E+00 -0.45593999997E+02  0.45594000000E+02  0.51100000000E-03 0. -1.
    9900012    2    1    2    0    0 -0.81082545940E+01  0.93936303930E+01 -0.41588933340E+02  0.47787268890E+02  0.19999990176E+02 0.  0.
        -12    1    1    2    0    0  0.81082545940E+01 -0.93936303930E+01  0.41588933340E+02  0.43400731110E+02  0.00000000000E+00 0.  1.
         11    1    3    3    0    0 -0.12198039580E+02  0.68939813954E+01 -0.27525271598E+02  0.30886238455E+02  0.51100000000E-03 0. -1.
        -11    1    3    3    0    0  0.42131676964E+01  0.15201905919E+01 -0.14930130062E+02  0.15587512483E+02  0.51100000000E-03 0.  1.
        -12    1    3    3    0    0 -0.12338271082E+00  0.97945840577E+00  0.86646831970E+00  0.13135179523E+01  0.00000000000E+00 0.  1.
</event>
<event>
 7    1  0.1457722E-010  0.4778727E+02  0.7816164E-02  0.1312668E+00
        -11   -1    0    0    0    0  0.00000000000E+00  0.00000000000E+00  0.45593999997E+02  0.45594000000E+02  0.51100000000E-03 0.  1.
         11   -1    0    0    0    0 -0.00000000000E+00 -0.00000000000E+00 -0.45593999997E+02  0.45594000000E+02  0.51100000000E-03 0. -1.
    9900012    2    1    2    0    0 -0.12970304016E+02 -0.27036832411E+02 -0.31375214501E+02  0.47787272148E+02  0.20000005033E+02 0.  0.
        -12    1    1    2    0    0  0.12970304016E+02  0.27036832411E+02  0.31375214501E+02  0.43400727852E+02  0.00000000000E+00 0.  1.
         11    1    3    3    0    0 -0.41506495143E+01 -0.31876848126E+01 -0.79309077987E+00  0.52932238855E+01  0.51100000000E-03 0. -1.
        -11    1    3    3    0    0 -0.10129891398E+02 -0.15215001794E+02 -0.11733573975E+02  0.21720675354E+02  0.51100000000E-03 0.  1.
         12    1    3    3    0    0  0.13102368964E+01 -0.86341458041E+01 -0.18848549746E+02  0.20773372909E+02  0.00000000000E+00 0. -1.
</event>
<event>
 7    1  0.1457722E-010  0.4778727E+02  0.7816164E-02  0.1312668E+00
        -11   -1    0    0    0    0  0.00000000000E+00  0.00000000000E+00  0.45593999997E+02  0.45594000000E+02  0.51100000000E-03 0.  1.
         11   -1    0    0    0    0 -0.00000000000E+00 -0.00000000000E+00 -0.45593999997E+02  0.45594000000E+02  0.51100000000E-03 0. -1.
    9900012    2    1    2    0    0 -0.24170220429E+02  0.27141587053E+02 -0.23722525342E+02  0.47787268302E+02  0.19999987494E+02 0.  0.
        -12    1    1    2    0    0  0.24170220429E+02 -0.27141587053E+02  0.23722525342E+02  0.43400731698E+02  0.00000000000E+00 0.  1.
         11    1    3    3    0    0  0.34924706919E+00  0.41102737501E+01 -0.47623032719E+01  0.63004647869E+01  0.51100000000E-03 0. -1.
        -11    1    3    3    0    0 -0.18030433061E+02  0.10367367301E+02 -0.46622680804E+01  0.21314679567E+02  0.51100000000E-03 0.  1.
        -12    1    3    3    0    0 -0.64890344369E+01  0.12663946002E+02 -0.14297953990E+02  0.20172123947E+02  0.00000000000E+00 0.  1.
</event>
<event>
 7    1  0.1457722E-010  0.4778728E+02  0.7816164E-02  0.1312668E+00
        -11   -1    0    0    0    0  0.00000000000E+00  0.00000000000E+00  0.45593999997E+02  0.45594000000E+02  0.51100000000E-03 0.  1.
         11   -1    0    0    0    0 -0.00000000000E+00 -0.00000000000E+00 -0.45593999997E+02  0.45594000000E+02  0.51100000000E-03 0. -1.
    9900012    2    1    2    0    0  0.17615071826E+02  0.14035204889E+02 -0.37099120997E+02  0.47787279840E+02  0.20000040100E+02 0.  0.
        -12    1    1    2    0    0 -0.17615071826E+02 -0.14035204889E+02  0.37099120997E+02  0.43400720160E+02  0.00000000000E+00 0.  1.
         11    1    3    3    0    0  0.15794375446E+02  0.77856815178E+01 -0.28434772382E+02  0.33445708441E+02  0.51100000000E-03 0. -1.
        -11    1    3    3    0    0  0.48282017628E+01  0.39278162678E+00 -0.37392188223E+01  0.61194417499E+01  0.51100000000E-03 0.  1.
        -12    1    3    3    0    0 -0.30075053831E+01  0.58567417440E+01 -0.49251297922E+01  0.82221296484E+01  0.00000000000E+00 0.  1.
</event>
<event>
 7    1  0.1457722E-010  0.4778727E+02  0.7816164E-02  0.1312668E+00
        -11   -1    0    0    0    0  0.00000000000E+00  0.00000000000E+00  0.45593999997E+02  0.45594000000E+02  0.51100000000E-03 0. -1.
         11   -1    0    0    0    0 -0.00000000000E+00 -0.00000000000E+00 -0.45593999997E+02  0.45594000000E+02  0.51100000000E-03 0.  1.
    9900012    2    1    2    0    0 -0.64046743950E+01 -0.33252965609E+02  0.27144867347E+02  0.47787269601E+02  0.19999993417E+02 0.  0.
        -12    1    1    2    0    0  0.64046743950E+01  0.33252965609E+02 -0.27144867347E+02  0.43400730399E+02  0.00000000000E+00 0.  1.
         11    1    3    3    0    0 -0.63936903691E+01 -0.11532353631E+02  0.10237111698E+02  0.16693499124E+02  0.51100000000E-03 0. -1.
        -11    1    3    3    0    0  0.58466119146E+01 -0.18064393204E+02  0.14053170233E+02  0.23621955181E+02  0.51100000000E-03 0.  1.
         12    1    3    3    0    0 -0.58575959404E+01 -0.36562187735E+01  0.28545854167E+01  0.74718152963E+01  0.00000000000E+00 0. -1.
</event>
<event>
 7    1  0.1457722E-010  0.4778728E+02  0.7816164E-02  0.1312668E+00
        -11   -1    0    0    0    0  0.00000000000E+00  0.00000000000E+00  0.45593999997E+02  0.45594000000E+02  0.51100000000E-03 0. -1.
         11   -1    0    0    0    0 -0.00000000000E+00 -0.00000000000E+00 -0.45593999997E+02  0.45594000000E+02  0.51100000000E-03 0.  1.
    9900012    2    1    2    0    0 -0.71263133951E+01 -0.23638769644E+02  0.35693794206E+02  0.47787277452E+02  0.20000029214E+02 0.  0.
        -12    1    1    2    0    0  0.71263133951E+01  0.23638769644E+02 -0.35693794206E+02  0.43400722548E+02  0.00000000000E+00 0.  1.
         11    1    3    3    0    0 -0.55779411314E+01 -0.88713845788E+01  0.21260361152E+02  0.23702697066E+02  0.51100000000E-03 0. -1.
        -11    1    3    3    0    0 -0.63457321909E+01 -0.10235724592E+02  0.12134491593E+02  0.17096323039E+02  0.51100000000E-03 0.  1.
        -12    1    3    3    0    0  0.47973599271E+01 -0.45316604730E+01  0.22989414605E+01  0.69882573473E+01  0.00000000000E+00 0.  1.
</event>
<event>
 7    1  0.1816868E-010  0.4778727E+02  0.7816164E-02  0.1312668E+00
        -11   -1    0    0    0    0  0.00000000000E+00  0.00000000000E+00  0.45593999997E+02  0.45594000000E+02  0.51100000000E-03 0. -1.
         11   -1    0    0    0    0 -0.00000000000E+00 -0.00000000000E+00 -0.45593999997E+02  0.45594000000E+02  0.51100000000E-03 0.  1.
    9900012    2    1    2    0    0  0.34889748486E+02  0.59063416136E+01  0.25128550783E+02  0.47787268610E+02  0.19999988902E+02 0.  0.
        -12    1    1    2    0    0 -0.34889748486E+02 -0.59063416136E+01 -0.25128550783E+02  0.43400731390E+02  0.00000000000E+00 0.  1.
         11    1    3    3    0    0  0.91384983934E+01  0.15324137175E+01  0.91748008201E+01  0.13039839533E+02  0.51100000000E-03 0. -1.
        -11    1    3    3    0    0  0.10359969858E+02 -0.23312449349E+01 -0.12706331723E+01  0.10694773832E+02  0.51100000000E-03 0.  1.
        -12    1    3    3    0    0  0.15391280235E+02  0.67051728310E+01  0.17224383135E+02  0.24052655245E+02  0.00000000000E+00 0.  1.
</event>
<event>
 7    1  0.1457722E-010  0.4778727E+02  0.7816164E-02  0.1312668E+00
        -11   -1    0    0    0    0  0.00000000000E+00  0.00000000000E+00  0.45593999997E+02  0.45594000000E+02  0.51100000000E-03 0. -1.
         11   -1    0    0    0    0 -0.00000000000E+00 -0.00000000000E+00 -0.45593999997E+02  0.45594000000E+02  0.51100000000E-03 0.  1.
    9900012    2    1    2    0    0 -0.21607639704E+02 -0.37125835070E+02  0.61972002059E+01  0.47787274043E+02  0.20000013671E+02 0.  0.
        -12    1    1    2    0    0  0.21607639704E+02  0.37125835070E+02 -0.61972002059E+01  0.43400725957E+02  0.00000000000E+00 0.  1.
         11    1    3    3    0    0 -0.12332143937E+02 -0.14710012326E+02 -0.11747375401E+01  0.19231386982E+02  0.51100000000E-03 0.  1.
        -11    1    3    3    0    0 -0.12447083960E+02 -0.15116632609E+02  0.44745755734E+01  0.20086420970E+02  0.51100000000E-03 0. -1.
        -12    1    3    3    0    0  0.31715881939E+01 -0.72991901349E+01  0.28973621726E+01  0.84694660903E+01  0.00000000000E+00 0.  1.
</event>
<event>
 7    1  0.1457722E-010  0.4778727E+02  0.7816164E-02  0.1312668E+00
        -11   -1    0    0    0    0  0.00000000000E+00  0.00000000000E+00  0.45593999997E+02  0.45594000000E+02  0.51100000000E-03 0.  1.
         11   -1    0    0    0    0 -0.00000000000E+00 -0.00000000000E+00 -0.45593999997E+02  0.45594000000E+02  0.51100000000E-03 0. -1.
    9900012    2    1    2    0    0  0.35230511531E+02  0.10971605747E+02 -0.22848587941E+02  0.47787273666E+02  0.20000011952E+02 0.  0.
        -12    1    1    2    0    0 -0.35230511531E+02 -0.10971605747E+02  0.22848587941E+02  0.43400726334E+02  0.00000000000E+00 0.  1.
         11    1    3    3    0    0  0.60809207924E+01  0.30335872146E+01 -0.13958827478E+02  0.15525112363E+02  0.51100000000E-03 0. -1.
        -11    1    3    3    0    0  0.12445003357E+02  0.67612231752E+01 -0.53923304524E+01  0.15154849896E+02  0.51100000000E-03 0.  1.
        -12    1    3    3    0    0  0.16704587382E+02  0.11767953574E+01 -0.34974300112E+01  0.17107311407E+02  0.00000000000E+00 0.  1.
</event>
<event>
 7    1  0.1457722E-010  0.4778727E+02  0.7816164E-02  0.1312668E+00
        -11   -1    0    0    0    0  0.00000000000E+00  0.00000000000E+00  0.45593999997E+02  0.45594000000E+02  0.51100000000E-03 0.  1.
         11   -1    0    0    0    0 -0.00000000000E+00 -0.00000000000E+00 -0.45593999997E+02  0.45594000000E+02  0.51100000000E-03 0. -1.
    9900012    2    1    2    0    0 -0.12371122495E+02  0.19357235277E+02 -0.36822222202E+02  0.47787271006E+02  0.19999999823E+02 0.  0.
        -12    1    1    2    0    0  0.12371122495E+02 -0.19357235277E+02  0.36822222202E+02  0.43400728994E+02  0.00000000000E+00 0.  1.
         11    1    3    3    0    0 -0.99304089557E+00 -0.22304461712E+01 -0.72232026230E+01  0.76246755168E+01  0.51100000000E-03 0. -1.
        -11    1    3    3    0    0 -0.18041185951E+01  0.41408818880E+01 -0.25995871533E-01  0.45169041126E+01  0.51100000000E-03 0.  1.
         12    1    3    3    0    0 -0.95739630039E+01  0.17446799560E+02 -0.29573023708E+02  0.35645691376E+02  0.00000000000E+00 0. -1.
</event>
<event>
 7    1  0.1457722E-010  0.4778727E+02  0.7816164E-02  0.1312668E+00
        -11   -1    0    0    0    0  0.00000000000E+00  0.00000000000E+00  0.45593999997E+02  0.45594000000E+02  0.51100000000E-03 0.  1.
         11   -1    0    0    0    0 -0.00000000000E+00 -0.00000000000E+00 -0.45593999997E+02  0.45594000000E+02  0.51100000000E-03 0. -1.
    9900012    2    1    2    0    0  0.19706503978E+02 -0.32586574252E+02 -0.20818073756E+02  0.47787270565E+02  0.19999997816E+02 0.  0.
        -12    1    1    2    0    0 -0.19706503978E+02  0.32586574252E+02  0.20818073756E+02  0.43400729435E+02  0.00000000000E+00 0.  1.
         11    1    3    3    0    0  0.14678020448E+02 -0.18359759555E+02 -0.11152041061E+02  0.26017168856E+02  0.51100000000E-03 0. -1.
        -11    1    3    3    0    0  0.93339793126E+00 -0.13539136527E+02 -0.29722142994E+01  0.13892930133E+02  0.51100000000E-03 0.  1.
         12    1    3    3    0    0  0.40950855992E+01 -0.68767817061E+00 -0.66938183958E+01  0.78771715765E+01  0.00000000000E+00 0. -1.
</event>
<event>
 7    1  0.1457722E-010  0.4778727E+02  0.7816164E-02  0.1312668E+00
        -11   -1    0    0    0    0  0.00000000000E+00  0.00000000000E+00  0.45593999997E+02  0.45594000000E+02  0.51100000000E-03 0. -1.
         11   -1    0    0    0    0 -0.00000000000E+00 -0.00000000000E+00 -0.45593999997E+02  0.45594000000E+02  0.51100000000E-03 0.  1.
    9900012    2    1    2    0    0  0.53736336677E+01  0.42562873117E+02 -0.65688040769E+01  0.47787270815E+02  0.19999998954E+02 0.  0.
        -12    1    1    2    0    0 -0.53736336677E+01 -0.42562873117E+02  0.65688040769E+01  0.43400729185E+02  0.00000000000E+00 0.  1.
         11    1    3    3    0    0 -0.32285733411E+01  0.13225395021E+02 -0.87676044005E+00  0.13641974505E+02  0.51100000000E-03 0. -1.
        -11    1    3    3    0    0  0.22933192359E+01  0.53710020747E+01 -0.72545053887E+01  0.93131533381E+01  0.51100000000E-03 0.  1.
         12    1    3    3    0    0  0.63088877730E+01  0.23966476022E+02  0.15624617519E+01  0.24832142972E+02  0.00000000000E+00 0. -1.
</event>
<event>
 7    1  0.1457722E-010  0.4778727E+02  0.7816164E-02  0.1312668E+00
        -11   -1    0    0    0    0  0.00000000000E+00  0.00000000000E+00  0.45593999997E+02  0.45594000000E+02  0.51100000000E-03 0.  1.
         11   -1    0    0    0    0 -0.00000000000E+00 -0.00000000000E+00 -0.45593999997E+02  0.45594000000E+02  0.51100000000E-03 0. -1.
    9900012    2    1    2    0    0  0.11110050706E+02 -0.37151547764E+02 -0.19492367974E+02  0.47787272619E+02  0.20000007179E+02 0.  0.
        -12    1    1    2    0    0 -0.11110050706E+02  0.37151547764E+02  0.19492367974E+02  0.43400727381E+02  0.00000000000E+00 0.  1.
         11    1    3    3    0    0  0.47362148154E+01 -0.10603371168E+02 -0.11758673243E+02  0.16526633281E+02  0.51100000000E-03 0. -1.
        -11    1    3    3    0    0  0.73231685253E+01 -0.94733295129E+01 -0.75558098770E+01  0.14158496829E+02  0.51100000000E-03 0.  1.
        -12    1    3    3    0    0 -0.94933263484E+00 -0.17074847083E+02 -0.17788485383E+00  0.17102142508E+02  0.00000000000E+00 0.  1.
</event>
<event>
 7    1  0.1457722E-010  0.4778727E+02  0.7816164E-02  0.1312668E+00
        -11   -1    0    0    0    0  0.00000000000E+00  0.00000000000E+00  0.45593999997E+02  0.45594000000E+02  0.51100000000E-03 0. -1.
         11   -1    0    0    0    0 -0.00000000000E+00 -0.00000000000E+00 -0.45593999997E+02  0.45594000000E+02  0.51100000000E-03 0.  1.
    9900012    2    1    2    0    0 -0.41666717757E+02  0.36089166704E+01  0.11596703165E+02  0.47787272213E+02  0.20000005329E+02 0.  0.
        -12    1    1    2    0    0  0.41666717757E+02 -0.36089166704E+01 -0.11596703165E+02  0.43400727787E+02  0.00000000000E+00 0.  1.
         11    1    3    3    0    0 -0.67821644614E+01 -0.19074282327E+01  0.43773239931E+01  0.82943958699E+01  0.51100000000E-03 0. -1.
        -11    1    3    3    0    0 -0.26339702630E+02 -0.32848538112E+01  0.54768752356E+01  0.27102884750E+02  0.51100000000E-03 0.  1.
        -12    1    3    3    0    0 -0.85448506655E+01  0.88011987144E+01  0.17425039359E+01  0.12389991593E+02  0.00000000000E+00 0.  1.
</event>
<event>
 7    1  0.1457722E-010  0.4778727E+02  0.7816164E-02  0.1312668E+00
        -11   -1    0    0    0    0  0.00000000000E+00  0.00000000000E+00  0.45593999997E+02  0.45594000000E+02  0.51100000000E-03 0.  1.
         11   -1    0    0    0    0 -0.00000000000E+00 -0.00000000000E+00 -0.45593999997E+02  0.45594000000E+02  0.51100000000E-03 0. -1.
    9900012    2    1    2    0    0 -0.66000449763E+01 -0.22319966916E+02 -0.36631707278E+02  0.47787268498E+02  0.19999988390E+02 0.  0.
        -12    1    1    2    0    0  0.66000449763E+01  0.22319966916E+02  0.36631707278E+02  0.43400731502E+02  0.00000000000E+00 0.  1.
         11    1    3    3    0    0  0.14620504709E+01 -0.10436464530E+02 -0.10350776918E+02  0.14771457834E+02  0.51100000000E-03 0.  1.
        -11    1    3    3    0    0 -0.29580907311E+01  0.30219601497E+01 -0.55457928730E+01  0.69741209318E+01  0.51100000000E-03 0. -1.
         12    1    3    3    0    0 -0.51040047161E+01 -0.14905462536E+02 -0.20735137487E+02  0.26041689733E+02  0.00000000000E+00 0. -1.
</event>
<event>
 7    1  0.1457722E-010  0.4778727E+02  0.7816164E-02  0.1312668E+00
        -11   -1    0    0    0    0  0.00000000000E+00  0.00000000000E+00  0.45593999997E+02  0.45594000000E+02  0.51100000000E-03 0.  1.
         11   -1    0    0    0    0 -0.00000000000E+00 -0.00000000000E+00 -0.45593999997E+02  0.45594000000E+02  0.51100000000E-03 0. -1.
    9900012    2    1    2    0    0 -0.28479913983E+02 -0.34459512501E+01 -0.32567517465E+02  0.47787271039E+02  0.19999999976E+02 0.  0.
        -12    1    1    2    0    0  0.28479913983E+02  0.34459512501E+01  0.32567517465E+02  0.43400728961E+02  0.00000000000E+00 0.  1.
         11    1    3    3    0    0 -0.11378810154E+02  0.29314484002E+01 -0.15324102371E+02  0.19310588390E+02  0.51100000000E-03 0. -1.
        -11    1    3    3    0    0 -0.17213911977E+02 -0.84079516085E+01 -0.11407829879E+02  0.22296883159E+02  0.51100000000E-03 0.  1.
         12    1    3    3    0    0  0.11280814768E+00  0.20305519582E+01 -0.58355852150E+01  0.61797994899E+01  0.00000000000E+00 0. -1.
</event>
<event>
 7    1  0.1457722E-010  0.4778727E+02  0.7816164E-02  0.1312668E+00
        -11   -1    0    0    0    0  0.00000000000E+00  0.00000000000E+00  0.45593999997E+02  0.45594000000E+02  0.51100000000E-03 0. -1.
         11   -1    0    0    0    0 -0.00000000000E+00 -0.00000000000E+00 -0.45593999997E+02  0.45594000000E+02  0.51100000000E-03 0.  1.
    9900012    2    1    2    0    0 -0.30187216753E+01 -0.17202296947E+01  0.43261431700E+02  0.47787270242E+02  0.19999996341E+02 0.  0.
        -12    1    1    2    0    0  0.30187216753E+01  0.17202296947E+01 -0.43261431700E+02  0.43400729758E+02  0.00000000000E+00 0.  1.
         11    1    3    3    0    0 -0.11589301519E+00  0.25068951829E+01  0.30613592914E+02  0.30716282751E+02  0.51100000000E-03 0. -1.
        -11    1    3    3    0    0 -0.48865977700E+01 -0.49300915068E+01  0.13183452504E+02  0.14899263748E+02  0.51100000000E-03 0.  1.
        -12    1    3    3    0    0  0.19837691099E+01  0.70296662921E+00 -0.53561371796E+00  0.21717237435E+01  0.00000000000E+00 0.  1.
</event>
<event>
 7    1  0.1457722E-010  0.4778727E+02  0.7816164E-02  0.1312668E+00
        -11   -1    0    0    0    0  0.00000000000E+00  0.00000000000E+00  0.45593999997E+02  0.45594000000E+02  0.51100000000E-03 0. -1.
         11   -1    0    0    0    0 -0.00000000000E+00 -0.00000000000E+00 -0.45593999997E+02  0.45594000000E+02  0.51100000000E-03 0.  1.
    9900012    2    1    2    0    0 -0.18494638994E+02  0.38343983249E+02  0.84445590818E+01  0.47787270732E+02  0.19999998576E+02 0.  0.
        -12    1    1    2    0    0  0.18494638994E+02 -0.38343983249E+02 -0.84445590818E+01  0.43400729268E+02  0.00000000000E+00 0.  1.
         11    1    3    3    0    0 -0.42085491140E+00  0.50281580415E+01 -0.52176833017E+01  0.72583545963E+01  0.51100000000E-03 0.  1.
        -11    1    3    3    0    0 -0.46238093804E+01  0.12710467716E+02  0.55476873995E+01  0.14618906884E+02  0.51100000000E-03 0. -1.
        -12    1    3    3    0    0 -0.13449974703E+02  0.20605357492E+02  0.81145549840E+01  0.25910009252E+02  0.00000000000E+00 0.  1.
</event>
<event>
 7    1  0.1457722E-010  0.4778727E+02  0.7816164E-02  0.1312668E+00
        -11   -1    0    0    0    0  0.00000000000E+00  0.00000000000E+00  0.45593999997E+02  0.45594000000E+02  0.51100000000E-03 0.  1.
         11   -1    0    0    0    0 -0.00000000000E+00 -0.00000000000E+00 -0.45593999997E+02  0.45594000000E+02  0.51100000000E-03 0. -1.
    9900012    2    1    2    0    0 -0.32419192917E+02  0.76528960862E+01 -0.27821793290E+02  0.47787273396E+02  0.20000010721E+02 0.  0.
        -12    1    1    2    0    0  0.32419192917E+02 -0.76528960862E+01  0.27821793290E+02  0.43400726604E+02  0.00000000000E+00 0.  1.
         11    1    3    3    0    0 -0.33918148841E+01  0.62431896360E+01 -0.34257931510E+01  0.78878313885E+01  0.51100000000E-03 0. -1.
        -11    1    3    3    0    0 -0.67736755632E+01  0.51453507118E+01 -0.10021351550E+02  0.13144763282E+02  0.51100000000E-03 0.  1.
        -12    1    3    3    0    0 -0.22253702470E+02 -0.37356442616E+01 -0.14374648589E+02  0.26754678726E+02  0.00000000000E+00 0.  1.
</event>
<event>
 7    1  0.1457722E-010  0.4778727E+02  0.7816164E-02  0.1312668E+00
        -11   -1    0    0    0    0  0.00000000000E+00  0.00000000000E+00  0.45593999997E+02  0.45594000000E+02  0.51100000000E-03 0.  1.
         11   -1    0    0    0    0 -0.00000000000E+00 -0.00000000000E+00 -0.45593999997E+02  0.45594000000E+02  0.51100000000E-03 0. -1.
    9900012    2    1    2    0    0  0.26457652106E+02  0.33823327067E+02  0.62927461290E+01  0.47787268869E+02  0.19999990083E+02 0.  0.
        -12    1    1    2    0    0 -0.26457652106E+02 -0.33823327067E+02 -0.62927461290E+01  0.43400731131E+02  0.00000000000E+00 0.  1.
         11    1    3    3    0    0  0.50905986203E+01  0.16575006980E+01  0.22103965204E+01  0.57920079346E+01  0.51100000000E-03 0. -1.
        -11    1    3    3    0    0  0.16731832242E+02  0.31771727662E+02  0.68878575248E+01  0.36562815405E+02  0.51100000000E-03 0.  1.
         12    1    3    3    0    0  0.46352212432E+01  0.39409870730E+00 -0.28055079162E+01  0.54324455296E+01  0.00000000000E+00 0. -1.
</event>
<event>
 7    1  0.1457722E-010  0.4778728E+02  0.7816164E-02  0.1312668E+00
        -11   -1    0    0    0    0  0.00000000000E+00  0.00000000000E+00  0.45593999997E+02  0.45594000000E+02  0.51100000000E-03 0. -1.
         11   -1    0    0    0    0 -0.00000000000E+00 -0.00000000000E+00 -0.45593999997E+02  0.45594000000E+02  0.51100000000E-03 0.  1.
    9900012    2    1    2    0    0  0.16194635900E+02 -0.35447492313E+02 -0.19100569385E+02  0.47787277725E+02  0.20000030457E+02 0.  0.
        -12    1    1    2    0    0 -0.16194635900E+02  0.35447492313E+02  0.19100569385E+02  0.43400722275E+02  0.00000000000E+00 0.  1.
         11    1    3    3    0    0 -0.72462636513E+00 -0.74350738764E+01 -0.28802309079E+01  0.80063185835E+01  0.51100000000E-03 0. -1.
        -11    1    3    3    0    0  0.17453312495E+02 -0.22295125055E+02 -0.74153944069E+01  0.29269075707E+02  0.51100000000E-03 0.  1.
        -12    1    3    3    0    0 -0.53405022983E+00 -0.57172933813E+01 -0.88049440699E+01  0.10511883434E+02  0.00000000000E+00 0.  1.
</event>
<event>
 7    1  0.1916824E-010  0.4778727E+02  0.7816164E-02  0.1312668E+00
        -11   -1    0    0    0    0  0.00000000000E+00  0.00000000000E+00  0.45593999997E+02  0.45594000000E+02  0.51100000000E-03 0. -1.
         11   -1    0    0    0    0 -0.00000000000E+00 -0.00000000000E+00 -0.45593999997E+02  0.45594000000E+02  0.51100000000E-03 0.  1.
    9900012    2    1    2    0    0  0.30978694498E+02  0.19790437452E+02 -0.23071247163E+02  0.47787269903E+02  0.19999994795E+02 0.  0.
        -12    1    1    2    0    0 -0.30978694498E+02 -0.19790437452E+02  0.23071247163E+02  0.43400730097E+02  0.00000000000E+00 0.  1.
         11    1    3    3    0    0  0.12636946872E+02  0.53162339514E+01 -0.54621569836E+01  0.14757707439E+02  0.51100000000E-03 0. -1.
        -11    1    3    3    0    0  0.10280413664E+02  0.90057652271E+01 -0.18771003845E+02  0.23219416402E+02  0.51100000000E-03 0.  1.
        -12    1    3    3    0    0  0.80613339613E+01  0.54684382733E+01  0.11619136659E+01  0.98101460617E+01  0.00000000000E+00 0.  1.
</event>
<event>
 7    1  0.1457722E-010  0.4778727E+02  0.7816164E-02  0.1312668E+00
        -11   -1    0    0    0    0  0.00000000000E+00  0.00000000000E+00  0.45593999997E+02  0.45594000000E+02  0.51100000000E-03 0. -1.
         11   -1    0    0    0    0 -0.00000000000E+00 -0.00000000000E+00 -0.45593999997E+02  0.45594000000E+02  0.51100000000E-03 0.  1.
    9900012    2    1    2    0    0  0.16287652376E+02 -0.39840619210E+02 -0.55732204053E+01  0.47787270229E+02  0.19999996283E+02 0.  0.
        -12    1    1    2    0    0 -0.16287652376E+02  0.39840619210E+02  0.55732204053E+01  0.43400729771E+02  0.00000000000E+00 0.  1.
         11    1    3    3    0    0  0.13715989571E+01 -0.21690091188E+02 -0.93552113492E+01  0.23661388782E+02  0.51100000000E-03 0. -1.
        -11    1    3    3    0    0  0.50281571335E+01 -0.35834084362E+01  0.31970593101E+00  0.61826687056E+01  0.51100000000E-03 0.  1.
         12    1    3    3    0    0  0.98878962857E+01 -0.14567119585E+02  0.34622850129E+01  0.17943212741E+02  0.00000000000E+00 0. -1.
</event>
<event>
 7    1  0.1457722E-010  0.4778726E+02  0.7816164E-02  0.1312668E+00
        -11   -1    0    0    0    0  0.00000000000E+00  0.00000000000E+00  0.45593999997E+02  0.45594000000E+02  0.51100000000E-03 0. -1.
         11   -1    0    0    0    0 -0.00000000000E+00 -0.00000000000E+00 -0.45593999997E+02  0.45594000000E+02  0.51100000000E-03 0.  1.
    9900012    2    1    2    0    0  0.33146525513E+02 -0.24884442916E+02 -0.12872302466E+02  0.47787264712E+02  0.19999971126E+02 0.  0.
        -12    1    1    2    0    0 -0.33146525513E+02  0.24884442916E+02  0.12872302466E+02  0.43400735288E+02  0.00000000000E+00 0.  1.
         11    1    3    3    0    0  0.16961798515E+02 -0.19398301629E+02 -0.61835080821E+01  0.26499669572E+02  0.51100000000E-03 0. -1.
        -11    1    3    3    0    0  0.12375630736E+02 -0.38117449435E+01  0.52482862173E+00  0.12959979976E+02  0.51100000000E-03 0.  1.
         12    1    3    3    0    0  0.38090962612E+01 -0.16743963435E+01 -0.72136230060E+01  0.83276151638E+01  0.00000000000E+00 0. -1.
</event>
<event>
 7    1  0.1457722E-010  0.4778727E+02  0.7816164E-02  0.1312668E+00
        -11   -1    0    0    0    0  0.00000000000E+00  0.00000000000E+00  0.45593999997E+02  0.45594000000E+02  0.51100000000E-03 0.  1.
         11   -1    0    0    0    0 -0.00000000000E+00 -0.00000000000E+00 -0.45593999997E+02  0.45594000000E+02  0.51100000000E-03 0. -1.
    9900012    2    1    2    0    0  0.27854452321E+01 -0.43064746544E+01 -0.43096619450E+02  0.47787273773E+02  0.20000012439E+02 0.  0.
        -12    1    1    2    0    0 -0.27854452321E+01  0.43064746544E+01  0.43096619450E+02  0.43400726227E+02  0.00000000000E+00 0.  1.
         11    1    3    3    0    0 -0.56880428611E+01 -0.82259915098E+01 -0.19417217084E+02  0.21841453419E+02  0.51100000000E-03 0. -1.
        -11    1    3    3    0    0  0.22986896230E+01  0.35743898637E+01 -0.11996529259E+02  0.12727016594E+02  0.51100000000E-03 0.  1.
        -12    1    3    3    0    0  0.61747984702E+01  0.34512699176E+00 -0.11682873107E+02  0.13218803759E+02  0.00000000000E+00 0.  1.
</event>
<event>
 7    1  0.1457722E-010  0.4778727E+02  0.7816164E-02  0.1312668E+00
        -11   -1    0    0    0    0  0.00000000000E+00  0.00000000000E+00  0.45593999997E+02  0.45594000000E+02  0.51100000000E-03 0.  1.
         11   -1    0    0    0    0 -0.00000000000E+00 -0.00000000000E+00 -0.45593999997E+02  0.45594000000E+02  0.51100000000E-03 0. -1.
    9900012    2    1    2    0    0  0.28300464733E+02  0.23807042224E+02 -0.22714134245E+02  0.47787268923E+02  0.19999990325E+02 0.  0.
        -12    1    1    2    0    0 -0.28300464733E+02 -0.23807042224E+02  0.22714134245E+02  0.43400731077E+02  0.00000000000E+00 0.  1.
         11    1    3    3    0    0  0.56591281979E+01  0.15212571886E+02 -0.98360414895E+01  0.18978824721E+02  0.51100000000E-03 0. -1.
        -11    1    3    3    0    0  0.11631339322E+02  0.66867694982E+01 -0.26824821620E+01  0.13681982735E+02  0.51100000000E-03 0.  1.
        -12    1    3    3    0    0  0.11009997213E+02  0.19077008397E+01 -0.10195610593E+02  0.15126461466E+02  0.00000000000E+00 0.  1.
</event>
<event>
 7    1  0.1457722E-010  0.4778732E+02  0.7816164E-02  0.1312668E+00
        -11   -1    0    0    0    0  0.00000000000E+00  0.00000000000E+00  0.45593999997E+02  0.45594000000E+02  0.51100000000E-03 0.  1.
         11   -1    0    0    0    0 -0.00000000000E+00 -0.00000000000E+00 -0.45593999997E+02  0.45594000000E+02  0.51100000000E-03 0. -1.
    9900012    2    1    2    0    0  0.28493281337E+02 -0.71695204672E+01 -0.31942915548E+02  0.47787320757E+02  0.20000226657E+02 0.  0.
        -12    1    1    2    0    0 -0.28493281337E+02  0.71695204672E+01  0.31942915548E+02  0.43400679243E+02  0.00000000000E+00 0.  1.
         11    1    3    3    0    0  0.18569806313E+01  0.51388107389E+01 -0.45697465096E+01  0.71230847459E+01  0.51100000000E-03 0. -1.
        -11    1    3    3    0    0  0.33011555414E+00 -0.16132817878E+01 -0.19199391702E+01  0.25293914454E+01  0.51100000000E-03 0.  1.
        -12    1    3    3    0    0  0.26306185152E+02 -0.10695049418E+02 -0.25453229868E+02  0.38134844565E+02  0.00000000000E+00 0.  1.
</event>
<event>
 7    1  0.1457722E-010  0.4778728E+02  0.7816164E-02  0.1312668E+00
        -11   -1    0    0    0    0  0.00000000000E+00  0.00000000000E+00  0.45593999997E+02  0.45594000000E+02  0.51100000000E-03 0. -1.
         11   -1    0    0    0    0 -0.00000000000E+00 -0.00000000000E+00 -0.45593999997E+02  0.45594000000E+02  0.51100000000E-03 0.  1.
    9900012    2    1    2    0    0 -0.12948062250E+02  0.32390188740E+02  0.25823365753E+02  0.47787275795E+02  0.20000021661E+02 0.  0.
        -12    1    1    2    0    0  0.12948062250E+02 -0.32390188740E+02 -0.25823365753E+02  0.43400724205E+02  0.00000000000E+00 0.  1.
         11    1    3    3    0    0 -0.12072186060E+00  0.45525419575E+01 -0.44554947273E+00  0.45758853391E+01  0.51100000000E-03 0. -1.
        -11    1    3    3    0    0 -0.14629337101E+02  0.13845247486E+02  0.16694888164E+02  0.26161568627E+02  0.51100000000E-03 0.  1.
        -12    1    3    3    0    0  0.18019967110E+01  0.13992399296E+02  0.95740270616E+01  0.17049821829E+02  0.00000000000E+00 0.  1.
</event>
<event>
 7    1  0.1457722E-010  0.4778729E+02  0.7816164E-02  0.1312668E+00
        -11   -1    0    0    0    0  0.00000000000E+00  0.00000000000E+00  0.45593999997E+02  0.45594000000E+02  0.51100000000E-03 0.  1.
         11   -1    0    0    0    0 -0.00000000000E+00 -0.00000000000E+00 -0.45593999997E+02  0.45594000000E+02  0.51100000000E-03 0. -1.
    9900012    2    1    2    0    0  0.24380625505E+02  0.81800355002E-01 -0.35905434204E+02  0.47787288063E+02  0.20000077594E+02 0.  0.
        -12    1    1    2    0    0 -0.24380625505E+02 -0.81800355002E-01  0.35905434204E+02  0.43400711937E+02  0.00000000000E+00 0.  1.
         11    1    3    3    0    0  0.11185143721E+02 -0.20712252445E+01 -0.48995754316E+01  0.12385606717E+02  0.51100000000E-03 0. -1.
        -11    1    3    3    0    0  0.12089505760E+02  0.50330406441E+01 -0.19497765672E+02  0.23487241518E+02  0.51100000000E-03 0.  1.
        -12    1    3    3    0    0  0.11059760236E+01 -0.28800150446E+01 -0.11508093100E+02  0.11914439828E+02  0.00000000000E+00 0.  1.
</event>
<event>
 7    1  0.1457722E-010  0.4778726E+02  0.7816164E-02  0.1312668E+00
        -11   -1    0    0    0    0  0.00000000000E+00  0.00000000000E+00  0.45593999997E+02  0.45594000000E+02  0.51100000000E-03 0.  1.
         11   -1    0    0    0    0 -0.00000000000E+00 -0.00000000000E+00 -0.45593999997E+02  0.45594000000E+02  0.51100000000E-03 0. -1.
    9900012    2    1    2    0    0  0.40709670269E+02  0.14973690287E+02 -0.14612367644E+01  0.47787264210E+02  0.19999968840E+02 0.  0.
        -12    1    1    2    0    0 -0.40709670269E+02 -0.14973690287E+02  0.14612367644E+01  0.43400735790E+02  0.00000000000E+00 0.  1.
         11    1    3    3    0    0  0.14461275598E+02 -0.13852943103E+01 -0.52565966446E+01  0.15449250493E+02  0.51100000000E-03 0. -1.
        -11    1    3    3    0    0  0.17822515542E+01  0.32470570630E+01  0.26534639488E+01  0.45563879731E+01  0.51100000000E-03 0.  1.
        -12    1    3    3    0    0  0.24466143116E+02  0.13111927534E+02  0.11418959314E+01  0.27781625744E+02  0.00000000000E+00 0.  1.
</event>
<event>
 7    1  0.1457722E-010  0.4778727E+02  0.7816164E-02  0.1312668E+00
        -11   -1    0    0    0    0  0.00000000000E+00  0.00000000000E+00  0.45593999997E+02  0.45594000000E+02  0.51100000000E-03 0. -1.
         11   -1    0    0    0    0 -0.00000000000E+00 -0.00000000000E+00 -0.45593999997E+02  0.45594000000E+02  0.51100000000E-03 0.  1.
    9900012    2    1    2    0    0  0.35925700800E+02 -0.17068738622E+02  0.17367364908E+02  0.47787272126E+02  0.20000004931E+02 0.  0.
        -12    1    1    2    0    0 -0.35925700800E+02  0.17068738622E+02 -0.17367364908E+02  0.43400727874E+02  0.00000000000E+00 0.  1.
         11    1    3    3    0    0  0.24137320139E+02 -0.13099609546E+02  0.14808499840E+02  0.31200988150E+02  0.51100000000E-03 0. -1.
        -11    1    3    3    0    0  0.10290378060E+02  0.17721758399E+01  0.19404146235E+01  0.10620626017E+02  0.51100000000E-03 0.  1.
        -12    1    3    3    0    0  0.14980026017E+01 -0.57413049162E+01  0.61845044462E+00  0.59656579594E+01  0.00000000000E+00 0.  1.
</event>
<event>
 7    1  0.1910641E-010  0.4778727E+02  0.7816164E-02  0.1312668E+00
        -11   -1    0    0    0    0  0.00000000000E+00  0.00000000000E+00  0.45593999997E+02  0.45594000000E+02  0.51100000000E-03 0.  1.
         11   -1    0    0    0    0 -0.00000000000E+00 -0.00000000000E+00 -0.45593999997E+02  0.45594000000E+02  0.51100000000E-03 0. -1.
    9900012    2    1    2    0    0 -0.12582731177E+02  0.41042051307E+02 -0.63912515220E+01  0.47787271949E+02  0.20000004125E+02 0.  0.
        -12    1    1    2    0    0  0.12582731177E+02 -0.41042051307E+02  0.63912515220E+01  0.43400728051E+02  0.00000000000E+00 0.  1.
         11    1    3    3    0    0 -0.83616847030E+01  0.15932363080E+02  0.20515414226E+01  0.18109853309E+02  0.51100000000E-03 0. -1.
        -11    1    3    3    0    0 -0.39564737377E+01  0.27452868675E+01 -0.51834716820E+01  0.70752147219E+01  0.51100000000E-03 0.  1.
         12    1    3    3    0    0 -0.26457273645E+00  0.22364401359E+02 -0.32593212625E+01  0.22602203918E+02  0.00000000000E+00 0. -1.
</event>
<event>
 7    1  0.1457722E-010  0.4778727E+02  0.7816164E-02  0.1312668E+00
        -11   -1    0    0    0    0  0.00000000000E+00  0.00000000000E+00  0.45593999997E+02  0.45594000000E+02  0.51100000000E-03 0. -1.
         11   -1    0    0    0    0 -0.00000000000E+00 -0.00000000000E+00 -0.45593999997E+02  0.45594000000E+02  0.51100000000E-03 0.  1.
    9900012    2    1    2    0    0  0.13679691342E+02 -0.40932432647E+02 -0.45853224363E+01  0.47787272132E+02  0.20000004960E+02 0.  0.
        -12    1    1    2    0    0 -0.13679691342E+02  0.40932432647E+02  0.45853224363E+01  0.43400727868E+02  0.00000000000E+00 0.  1.
         11    1    3    3    0    0 -0.20819390710E+01 -0.63394919679E+01  0.83046705205E+00  0.67240839147E+01  0.51100000000E-03 0. -1.
        -11    1    3    3    0    0  0.11826342262E+02 -0.12877833945E+02  0.24063630946E+01  0.17649123549E+02  0.51100000000E-03 0.  1.
        -12    1    3    3    0    0  0.39352881502E+01 -0.21715106734E+02 -0.78221525830E+01  0.23414064669E+02  0.00000000000E+00 0.  1.
</event>
<event>
 7    1  0.1457722E-010  0.4778727E+02  0.7816164E-02  0.1312668E+00
        -11   -1    0    0    0    0  0.00000000000E+00  0.00000000000E+00  0.45593999997E+02  0.45594000000E+02  0.51100000000E-03 0.  1.
         11   -1    0    0    0    0 -0.00000000000E+00 -0.00000000000E+00 -0.45593999997E+02  0.45594000000E+02  0.51100000000E-03 0. -1.
    9900012    2    1    2    0    0 -0.13689965770E+02 -0.21563968448E+02 -0.35088506458E+02  0.47787272086E+02  0.20000004749E+02 0.  0.
        -12    1    1    2    0    0  0.13689965770E+02  0.21563968448E+02  0.35088506458E+02  0.43400727914E+02  0.00000000000E+00 0.  1.
         11    1    3    3    0    0  0.37552833573E+01 -0.40232214552E+01 -0.61401740249E+01  0.82456170957E+01  0.51100000000E-03 0. -1.
        -11    1    3    3    0    0 -0.81406307786E+01 -0.97030010693E+01 -0.70621147423E+01  0.14501433175E+02  0.51100000000E-03 0.  1.
         12    1    3    3    0    0 -0.93046183483E+01 -0.78377459240E+01 -0.21886217691E+02  0.25040221816E+02  0.00000000000E+00 0. -1.
</event>
<event>
 7    1  0.1457722E-010  0.4778727E+02  0.7816164E-02  0.1312668E+00
        -11   -1    0    0    0    0  0.00000000000E+00  0.00000000000E+00  0.45593999997E+02  0.45594000000E+02  0.51100000000E-03 0. -1.
         11   -1    0    0    0    0 -0.00000000000E+00 -0.00000000000E+00 -0.45593999997E+02  0.45594000000E+02  0.51100000000E-03 0.  1.
    9900012    2    1    2    0    0 -0.36996103958E+02  0.18810444092E+02 -0.12691700625E+02  0.47787265216E+02  0.19999973427E+02 0.  0.
        -12    1    1    2    0    0  0.36996103958E+02 -0.18810444092E+02  0.12691700625E+02  0.43400734784E+02  0.00000000000E+00 0.  1.
         11    1    3    3    0    0 -0.25920710320E+02  0.15027724598E+02 -0.73086383130E+01  0.30840426786E+02  0.51100000000E-03 0. -1.
        -11    1    3    3    0    0 -0.10862424840E+02 -0.13239604761E+01 -0.40110866494E+01  0.11654782757E+02  0.51100000000E-03 0.  1.
         12    1    3    3    0    0 -0.21296879803E+00  0.51066799703E+01 -0.13719756630E+01  0.52920556732E+01  0.00000000000E+00 0. -1.
</event>
<event>
 7    1  0.1457722E-010  0.4778727E+02  0.7816164E-02  0.1312668E+00
        -11   -1    0    0    0    0  0.00000000000E+00  0.00000000000E+00  0.45593999997E+02  0.45594000000E+02  0.51100000000E-03 0.  1.
         11   -1    0    0    0    0 -0.00000000000E+00 -0.00000000000E+00 -0.45593999997E+02  0.45594000000E+02  0.51100000000E-03 0. -1.
    9900012    2    1    2    0    0  0.13783243975E+02  0.41135026236E+02 -0.12470109280E+01  0.47787271502E+02  0.20000002087E+02 0.  0.
        -12    1    1    2    0    0 -0.13783243975E+02 -0.41135026236E+02  0.12470109280E+01  0.43400728498E+02  0.00000000000E+00 0.  1.
         11    1    3    3    0    0  0.47372070213E+01  0.14764880399E+02 -0.57466419743E+01  0.16536829134E+02  0.51100000000E-03 0. -1.
        -11    1    3    3    0    0  0.12454824646E+02  0.18025936669E+02  0.30760237208E+01  0.22125075637E+02  0.51100000000E-03 0.  1.
        -12    1    3    3    0    0 -0.34087876920E+01  0.83442091683E+01  0.14236073256E+01  0.91253667318E+01  0.00000000000E+00 0.  1.
</event>
<event>
 7    1  0.1457722E-010  0.4778727E+02  0.7816164E-02  0.1312668E+00
        -11   -1    0    0    0    0  0.00000000000E+00  0.00000000000E+00  0.45593999997E+02  0.45594000000E+02  0.51100000000E-03 0.  1.
         11   -1    0    0    0    0 -0.00000000000E+00 -0.00000000000E+00 -0.45593999997E+02  0.45594000000E+02  0.51100000000E-03 0. -1.
    9900012    2    1    2    0    0 -0.17170028769E+02 -0.35039486879E+02 -0.19001267219E+02  0.47787266313E+02  0.19999978426E+02 0.  0.
        -12    1    1    2    0    0  0.17170028769E+02  0.35039486879E+02  0.19001267219E+02  0.43400733687E+02  0.00000000000E+00 0.  1.
         11    1    3    3    0    0 -0.91780057680E+01 -0.10220229153E+02 -0.84873773114E+01  0.16146964040E+02  0.51100000000E-03 0. -1.
        -11    1    3    3    0    0 -0.28448240430E+00 -0.29680018610E+01  0.34713968555E+01  0.45760858465E+01  0.51100000000E-03 0.  1.
        -12    1    3    3    0    0 -0.77075405966E+01 -0.21851255865E+02 -0.13985286763E+02  0.27064216426E+02  0.00000000000E+00 0.  1.
</event>
<event>
 7    1  0.1457722E-010  0.4778727E+02  0.7816164E-02  0.1312668E+00
        -11   -1    0    0    0    0  0.00000000000E+00  0.00000000000E+00  0.45593999997E+02  0.45594000000E+02  0.51100000000E-03 0.  1.
         11   -1    0    0    0    0 -0.00000000000E+00 -0.00000000000E+00 -0.45593999997E+02  0.45594000000E+02  0.51100000000E-03 0. -1.
    9900012    2    1    2    0    0  0.83524361691E+01  0.98529811772E+01 -0.41434027460E+02  0.47787273513E+02  0.20000011255E+02 0.  0.
        -12    1    1    2    0    0 -0.83524361691E+01 -0.98529811772E+01  0.41434027460E+02  0.43400726487E+02  0.00000000000E+00 0.  1.
         11    1    3    3    0    0  0.10947980942E+01 -0.24692126392E+01 -0.18131540938E+02  0.18331622159E+02  0.51100000000E-03 0. -1.
        -11    1    3    3    0    0  0.63556937101E+01  0.20519464583E+01 -0.46320234976E+01  0.81277899055E+01  0.51100000000E-03 0.  1.
        -12    1    3    3    0    0  0.90194436486E+00  0.10270247358E+02 -0.18670463024E+02  0.21327861449E+02  0.00000000000E+00 0.  1.
</event>
<event>
 7    1  0.1457722E-010  0.4778727E+02  0.7816164E-02  0.1312668E+00
        -11   -1    0    0    0    0  0.00000000000E+00  0.00000000000E+00  0.45593999997E+02  0.45594000000E+02  0.51100000000E-03 0.  1.
         11   -1    0    0    0    0 -0.00000000000E+00 -0.00000000000E+00 -0.45593999997E+02  0.45594000000E+02  0.51100000000E-03 0. -1.
    9900012    2    1    2    0    0 -0.16942404887E+02  0.31221809339E+02 -0.24935448515E+02  0.47787273573E+02  0.20000011529E+02 0.  0.
        -12    1    1    2    0    0  0.16942404887E+02 -0.31221809339E+02  0.24935448515E+02  0.43400726427E+02  0.00000000000E+00 0.  1.
         11    1    3    3    0    0 -0.13899893744E+02  0.10661965908E+02 -0.11041453405E+02  0.20707444475E+02  0.51100000000E-03 0. -1.
        -11    1    3    3    0    0  0.64277622732E-01  0.49413494462E+01  0.12572197113E+01  0.50991830352E+01  0.51100000000E-03 0.  1.
        -12    1    3    3    0    0 -0.31067887650E+01  0.15618493985E+02 -0.15151214822E+02  0.21980646063E+02  0.00000000000E+00 0.  1.
</event>
<event>
 7    1  0.1457722E-010  0.4778727E+02  0.7816164E-02  0.1312668E+00
        -11   -1    0    0    0    0  0.00000000000E+00  0.00000000000E+00  0.45593999997E+02  0.45594000000E+02  0.51100000000E-03 0. -1.
         11   -1    0    0    0    0 -0.00000000000E+00 -0.00000000000E+00 -0.45593999997E+02  0.45594000000E+02  0.51100000000E-03 0.  1.
    9900012    2    1    2    0    0  0.16697136819E+02  0.35303625941E+02  0.18933639437E+02  0.47787273222E+02  0.20000009928E+02 0.  0.
        -12    1    1    2    0    0 -0.16697136819E+02 -0.35303625941E+02 -0.18933639437E+02  0.43400726778E+02  0.00000000000E+00 0.  1.
         11    1    3    3    0    0  0.12281169099E+01  0.35733804166E+01  0.49373476714E+01  0.62172920983E+01  0.51100000000E-03 0. -1.
        -11    1    3    3    0    0  0.70187227439E+01  0.23107275402E+01  0.69849485787E+01  0.10168158025E+02  0.51100000000E-03 0.  1.
         12    1    3    3    0    0  0.84502971650E+01  0.29419517984E+02  0.70113431868E+01  0.31401823098E+02  0.00000000000E+00 0. -1.
</event>
<event>
 7    1  0.1457722E-010  0.4778727E+02  0.7816164E-02  0.1312668E+00
        -11   -1    0    0    0    0  0.00000000000E+00  0.00000000000E+00  0.45593999997E+02  0.45594000000E+02  0.51100000000E-03 0.  1.
         11   -1    0    0    0    0 -0.00000000000E+00 -0.00000000000E+00 -0.45593999997E+02  0.45594000000E+02  0.51100000000E-03 0. -1.
    9900012    2    1    2    0    0  0.25680258507E+02  0.15599811928E+01 -0.34953028478E+02  0.47787269383E+02  0.19999992427E+02 0.  0.
        -12    1    1    2    0    0 -0.25680258507E+02 -0.15599811928E+01  0.34953028478E+02  0.43400730617E+02  0.00000000000E+00 0.  1.
         11    1    3    3    0    0  0.31630762148E+01  0.82840727886E+00 -0.16312507700E+02  0.16636983425E+02  0.51100000000E-03 0. -1.
        -11    1    3    3    0    0  0.13375424492E+02 -0.41560642829E+01 -0.13963843759E+02  0.19777860942E+02  0.51100000000E-03 0.  1.
        -12    1    3    3    0    0  0.91417578002E+01  0.48876381968E+01 -0.46766770191E+01  0.11372425017E+02  0.00000000000E+00 0.  1.
</event>
<event>
 7    1  0.1457722E-010  0.4778727E+02  0.7816164E-02  0.1312668E+00
        -11   -1    0    0    0    0  0.00000000000E+00  0.00000000000E+00  0.45593999997E+02  0.45594000000E+02  0.51100000000E-03 0. -1.
         11   -1    0    0    0    0 -0.00000000000E+00 -0.00000000000E+00 -0.45593999997E+02  0.45594000000E+02  0.51100000000E-03 0.  1.
    9900012    2    1    2    0    0  0.20834020769E+02 -0.26632229448E+02  0.27208302398E+02  0.47787265143E+02  0.19999973093E+02 0.  0.
        -12    1    1    2    0    0 -0.20834020769E+02  0.26632229448E+02 -0.27208302398E+02  0.43400734857E+02  0.00000000000E+00 0.  1.
         11    1    3    3    0    0  0.90720690603E+01 -0.83139016539E+01 -0.68033574674E+00  0.12324214163E+02  0.51100000000E-03 0. -1.
        -11    1    3    3    0    0  0.11930901067E+01 -0.81784686302E+00  0.21832739416E+01  0.26189736271E+01  0.51100000000E-03 0.  1.
         12    1    3    3    0    0  0.10568861602E+02 -0.17500480931E+02  0.25705364203E+02  0.32844077353E+02  0.00000000000E+00 0. -1.
</event>
<event>
 7    1  0.1457722E-010  0.4778727E+02  0.7816164E-02  0.1312668E+00
        -11   -1    0    0    0    0  0.00000000000E+00  0.00000000000E+00  0.45593999997E+02  0.45594000000E+02  0.51100000000E-03 0.  1.
         11   -1    0    0    0    0 -0.00000000000E+00 -0.00000000000E+00 -0.45593999997E+02  0.45594000000E+02  0.51100000000E-03 0. -1.
    9900012    2    1    2    0    0  0.12097636243E+02  0.36239053208E+02 -0.20591296382E+02  0.47787271127E+02  0.20000000374E+02 0.  0.
        -12    1    1    2    0    0 -0.12097636243E+02 -0.36239053208E+02  0.20591296382E+02  0.43400728873E+02  0.00000000000E+00 0.  1.
         11    1    3    3    0    0  0.12991614438E+02  0.21092248099E+02 -0.10482462229E+02  0.26898828790E+02  0.51100000000E-03 0. -1.
        -11    1    3    3    0    0 -0.22470230990E+00  0.16452588420E+02 -0.79395171816E+01  0.18269485219E+02  0.51100000000E-03 0.  1.
        -12    1    3    3    0    0 -0.66927588503E+00 -0.13057833113E+01 -0.21693169708E+01  0.26189571180E+01  0.00000000000E+00 0.  1.
</event>
<event>
 7    1  0.1544696E-010  0.4778727E+02  0.7816164E-02  0.1312668E+00
        -11   -1    0    0    0    0  0.00000000000E+00  0.00000000000E+00  0.45593999997E+02  0.45594000000E+02  0.51100000000E-03 0.  1.
         11   -1    0    0    0    0 -0.00000000000E+00 -0.00000000000E+00 -0.45593999997E+02  0.45594000000E+02  0.51100000000E-03 0. -1.
    9900012    2    1    2    0    0  0.37462873795E+02  0.12272851262E+02 -0.18153052135E+02  0.47787273130E+02  0.20000009507E+02 0.  0.
        -12    1    1    2    0    0 -0.37462873795E+02 -0.12272851262E+02  0.18153052135E+02  0.43400726870E+02  0.00000000000E+00 0.  1.
         11    1    3    3    0    0  0.12251182908E+02  0.42367574766E+01 -0.83267967838E+01  0.15407048436E+02  0.51100000000E-03 0. -1.
        -11    1    3    3    0    0  0.14640766291E+01  0.42623494161E+01  0.27141904616E+01  0.52609859384E+01  0.51100000000E-03 0.  1.
        -12    1    3    3    0    0  0.23747614258E+02  0.37737443696E+01 -0.12540445813E+02  0.27119238756E+02  0.00000000000E+00 0.  1.
</event>
<event>
 7    1  0.1457722E-010  0.4778727E+02  0.7816164E-02  0.1312668E+00
        -11   -1    0    0    0    0  0.00000000000E+00  0.00000000000E+00  0.45593999997E+02  0.45594000000E+02  0.51100000000E-03 0.  1.
         11   -1    0    0    0    0 -0.00000000000E+00 -0.00000000000E+00 -0.45593999997E+02  0.45594000000E+02  0.51100000000E-03 0. -1.
    9900012    2    1    2    0    0 -0.13011942898E+02  0.39909206822E+02 -0.11025777576E+02  0.47787271685E+02  0.20000002919E+02 0.  0.
        -12    1    1    2    0    0  0.13011942898E+02 -0.39909206822E+02  0.11025777576E+02  0.43400728315E+02  0.00000000000E+00 0.  1.
         11    1    3    3    0    0 -0.99012863217E+01  0.26435734579E+02 -0.29782975452E+01  0.28385802615E+02  0.51100000000E-03 0. -1.
        -11    1    3    3    0    0 -0.85220107907E+00  0.14315271370E+02 -0.88613330639E+01  0.16857534369E+02  0.51100000000E-03 0.  1.
         12    1    3    3    0    0 -0.22584554971E+01 -0.84179912699E+00  0.81385303293E+00  0.25439347007E+01  0.00000000000E+00 0. -1.
</event>
<event>
 7    1  0.1457722E-010  0.4778727E+02  0.7816164E-02  0.1312668E+00
        -11   -1    0    0    0    0  0.00000000000E+00  0.00000000000E+00  0.45593999997E+02  0.45594000000E+02  0.51100000000E-03 0.  1.
         11   -1    0    0    0    0 -0.00000000000E+00 -0.00000000000E+00 -0.45593999997E+02  0.45594000000E+02  0.51100000000E-03 0. -1.
    9900012    2    1    2    0    0 -0.22527918879E+01  0.35636147543E+02 -0.24670086363E+02  0.47787271387E+02  0.20000001560E+02 0.  0.
        -12    1    1    2    0    0  0.22527918879E+01 -0.35636147543E+02  0.24670086363E+02  0.43400728613E+02  0.00000000000E+00 0.  1.
         11    1    3    3    0    0  0.77409759798E+00  0.90559000333E+01 -0.10874824847E+02  0.14172874381E+02  0.51100000000E-03 0. -1.
        -11    1    3    3    0    0 -0.55137382617E+01  0.20276592735E+02 -0.16083865323E+02  0.26461901794E+02  0.51100000000E-03 0.  1.
        -12    1    3    3    0    0  0.24868487757E+01  0.63036547750E+01  0.22886038078E+01  0.71524952111E+01  0.00000000000E+00 0.  1.
</event>
<event>
 7    1  0.1457722E-010  0.4778729E+02  0.7816164E-02  0.1312668E+00
        -11   -1    0    0    0    0  0.00000000000E+00  0.00000000000E+00  0.45593999997E+02  0.45594000000E+02  0.51100000000E-03 0. -1.
         11   -1    0    0    0    0 -0.00000000000E+00 -0.00000000000E+00 -0.45593999997E+02  0.45594000000E+02  0.51100000000E-03 0.  1.
    9900012    2    1    2    0    0 -0.12452542339E+02 -0.27815024979E+02  0.30901135874E+02  0.47787290057E+02  0.20000086685E+02 0.  0.
        -12    1    1    2    0    0  0.12452542339E+02  0.27815024979E+02 -0.30901135874E+02  0.43400709943E+02  0.00000000000E+00 0.  1.
         11    1    3    3    0    0 -0.10382835481E+02 -0.29274677716E+02  0.24581314950E+02  0.39611249323E+02  0.51100000000E-03 0. -1.
        -11    1    3    3    0    0 -0.33391205532E+01  0.12485974776E+00  0.42215882941E+01  0.53839691689E+01  0.51100000000E-03 0.  1.
        -12    1    3    3    0    0  0.12694136953E+01  0.13347929894E+01  0.20982326295E+01  0.27920715646E+01  0.00000000000E+00 0.  1.
</event>
<event>
 7    1  0.1457722E-010  0.4778727E+02  0.7816164E-02  0.1312668E+00
        -11   -1    0    0    0    0  0.00000000000E+00  0.00000000000E+00  0.45593999997E+02  0.45594000000E+02  0.51100000000E-03 0. -1.
         11   -1    0    0    0    0 -0.00000000000E+00 -0.00000000000E+00 -0.45593999997E+02  0.45594000000E+02  0.51100000000E-03 0.  1.
    9900012    2    1    2    0    0  0.26574015880E+02 -0.17126222647E+02  0.29734448467E+02  0.47787271345E+02  0.20000001371E+02 0.  0.
        -12    1    1    2    0    0 -0.26574015880E+02  0.17126222647E+02 -0.29734448467E+02  0.43400728655E+02  0.00000000000E+00 0.  1.
         11    1    3    3    0    0  0.72881730644E+01 -0.66467684722E+01  0.61542055756E+01  0.11626316883E+02  0.51100000000E-03 0. -1.
        -11    1    3    3    0    0  0.60874406085E+01  0.27845756460E+01  0.13107083140E+02  0.14717554939E+02  0.51100000000E-03 0.  1.
        -12    1    3    3    0    0  0.13198402207E+02 -0.13264029821E+02  0.10473159752E+02  0.21443399523E+02  0.00000000000E+00 0.  1.
</event>
<event>
 7    1  0.1457722E-010  0.4778727E+02  0.7816164E-02  0.1312668E+00
        -11   -1    0    0    0    0  0.00000000000E+00  0.00000000000E+00  0.45593999997E+02  0.45594000000E+02  0.51100000000E-03 0.  1.
         11   -1    0    0    0    0 -0.00000000000E+00 -0.00000000000E+00 -0.45593999997E+02  0.45594000000E+02  0.51100000000E-03 0. -1.
    9900012    2    1    2    0    0 -0.33175465204E+01 -0.16411637313E+02 -0.40040920814E+02  0.47787270814E+02  0.19999998951E+02 0.  0.
        -12    1    1    2    0    0  0.33175465204E+01  0.16411637313E+02  0.40040920814E+02  0.43400729186E+02  0.00000000000E+00 0.  1.
         11    1    3    3    0    0 -0.18555994193E+01 -0.15838585345E+02 -0.30399952413E+02  0.34328721821E+02  0.51100000000E-03 0. -1.
        -11    1    3    3    0    0  0.37340611964E+01 -0.11760391753E+01 -0.26508687439E+01  0.47279368142E+01  0.51100000000E-03 0.  1.
        -12    1    3    3    0    0 -0.51960082975E+01  0.60298720724E+00 -0.69900996572E+01  0.87306121788E+01  0.00000000000E+00 0.  1.
</event>
<event>
 7    1  0.1457722E-010  0.4778727E+02  0.7816164E-02  0.1312668E+00
        -11   -1    0    0    0    0  0.00000000000E+00  0.00000000000E+00  0.45593999997E+02  0.45594000000E+02  0.51100000000E-03 0. -1.
         11   -1    0    0    0    0 -0.00000000000E+00 -0.00000000000E+00 -0.45593999997E+02  0.45594000000E+02  0.51100000000E-03 0.  1.
    9900012    2    1    2    0    0 -0.36437573594E+02  0.64851935779E+01  0.22668670331E+02  0.47787272820E+02  0.20000008095E+02 0.  0.
        -12    1    1    2    0    0  0.36437573594E+02 -0.64851935779E+01 -0.22668670331E+02  0.43400727180E+02  0.00000000000E+00 0.  1.
         11    1    3    3    0    0 -0.32816039882E+01  0.41825401044E+01  0.52034574991E+01  0.74389876103E+01  0.51100000000E-03 0. -1.
        -11    1    3    3    0    0 -0.32939291774E+02  0.70529737863E+00  0.19074849201E+02  0.38070254258E+02  0.51100000000E-03 0.  1.
        -12    1    3    3    0    0 -0.21667783198E+00  0.15973560949E+01 -0.16096363688E+01  0.22780309516E+01  0.00000000000E+00 0.  1.
</event>
<event>
 7    1  0.1457722E-010  0.4778727E+02  0.7816164E-02  0.1312668E+00
        -11   -1    0    0    0    0  0.00000000000E+00  0.00000000000E+00  0.45593999997E+02  0.45594000000E+02  0.51100000000E-03 0. -1.
         11   -1    0    0    0    0 -0.00000000000E+00 -0.00000000000E+00 -0.45593999997E+02  0.45594000000E+02  0.51100000000E-03 0.  1.
    9900012    2    1    2    0    0  0.37053340584E+01 -0.40021618803E+02  0.16375711978E+02  0.47787269420E+02  0.19999992593E+02 0.  0.
        -12    1    1    2    0    0 -0.37053340584E+01  0.40021618803E+02 -0.16375711978E+02  0.43400730580E+02  0.00000000000E+00 0.  1.
         11    1    3    3    0    0 -0.92060316439E+00 -0.15274213137E+02  0.11019456245E+00  0.15302327935E+02  0.51100000000E-03 0. -1.
        -11    1    3    3    0    0  0.46822644724E+01 -0.34592886907E+01  0.74225183115E+01  0.94331361265E+01  0.51100000000E-03 0.  1.
         12    1    3    3    0    0 -0.56327249570E-01 -0.21288116976E+02  0.88429991041E+01  0.23051805358E+02  0.00000000000E+00 0. -1.
</event>
<event>
 7    1  0.1457722E-010  0.4778727E+02  0.7816164E-02  0.1312668E+00
        -11   -1    0    0    0    0  0.00000000000E+00  0.00000000000E+00  0.45593999997E+02  0.45594000000E+02  0.51100000000E-03 0.  1.
         11   -1    0    0    0    0 -0.00000000000E+00 -0.00000000000E+00 -0.45593999997E+02  0.45594000000E+02  0.51100000000E-03 0. -1.
    9900012    2    1    2    0    0 -0.25076217236E+02 -0.23267569914E+02 -0.26710050867E+02  0.47787270768E+02  0.19999998739E+02 0.  0.
        -12    1    1    2    0    0  0.25076217236E+02  0.23267569914E+02  0.26710050867E+02  0.43400729232E+02  0.00000000000E+00 0.  1.
         11    1    3    3    0    0 -0.13720104305E+02 -0.60729082226E+01 -0.85147727247E+01  0.17251748643E+02  0.51100000000E-03 0. -1.
        -11    1    3    3    0    0 -0.37245117222E+01 -0.10358898523E+02 -0.17305033830E+01  0.11143312272E+02  0.51100000000E-03 0.  1.
        -12    1    3    3    0    0 -0.76316012087E+01 -0.68357631683E+01 -0.16464774759E+02  0.19392209853E+02  0.00000000000E+00 0.  1.
</event>
<event>
 7    1  0.1457722E-010  0.4778727E+02  0.7816164E-02  0.1312668E+00
        -11   -1    0    0    0    0  0.00000000000E+00  0.00000000000E+00  0.45593999997E+02  0.45594000000E+02  0.51100000000E-03 0.  1.
         11   -1    0    0    0    0 -0.00000000000E+00 -0.00000000000E+00 -0.45593999997E+02  0.45594000000E+02  0.51100000000E-03 0. -1.
    9900012    2    1    2    0    0 -0.37016906656E+02 -0.22657499809E+02 -0.10036471081E+00  0.47787265570E+02  0.19999975041E+02 0.  0.
        -12    1    1    2    0    0  0.37016906656E+02  0.22657499809E+02  0.10036471081E+00  0.43400734430E+02  0.00000000000E+00 0.  1.
         11    1    3    3    0    0 -0.84190442363E+01 -0.21351456346E+01 -0.45257016462E+01  0.97939332439E+01  0.51100000000E-03 0. -1.
        -11    1    3    3    0    0 -0.38827194405E+01  0.15046729564E+01  0.24427853194E+01  0.48277066333E+01  0.51100000000E-03 0.  1.
         12    1    3    3    0    0 -0.24715142979E+02 -0.22027027131E+02  0.19825516161E+01  0.33165625693E+02  0.00000000000E+00 0. -1.
</event>
<event>
 7    1  0.1457722E-010  0.4778727E+02  0.7816164E-02  0.1312668E+00
        -11   -1    0    0    0    0  0.00000000000E+00  0.00000000000E+00  0.45593999997E+02  0.45594000000E+02  0.51100000000E-03 0.  1.
         11   -1    0    0    0    0 -0.00000000000E+00 -0.00000000000E+00 -0.45593999997E+02  0.45594000000E+02  0.51100000000E-03 0. -1.
    9900012    2    1    2    0    0 -0.41113490162E+02 -0.73844700016E+01 -0.11780246910E+02  0.47787266276E+02  0.19999978258E+02 0.  0.
        -12    1    1    2    0    0  0.41113490162E+02  0.73844700016E+01  0.11780246910E+02  0.43400733724E+02  0.00000000000E+00 0.  1.
         11    1    3    3    0    0 -0.27559640962E+02 -0.12790029548E+02 -0.45637615305E+01  0.30723713730E+02  0.51100000000E-03 0. -1.
        -11    1    3    3    0    0 -0.92450972135E+01  0.34438991736E+01 -0.20885554288E+01  0.10084360567E+02  0.51100000000E-03 0.  1.
         12    1    3    3    0    0 -0.43087519869E+01  0.19616603729E+01 -0.51279299504E+01  0.69791919790E+01  0.00000000000E+00 0. -1.
</event>
<event>
 7    1  0.1457722E-010  0.4778727E+02  0.7816164E-02  0.1312668E+00
        -11   -1    0    0    0    0  0.00000000000E+00  0.00000000000E+00  0.45593999997E+02  0.45594000000E+02  0.51100000000E-03 0.  1.
         11   -1    0    0    0    0 -0.00000000000E+00 -0.00000000000E+00 -0.45593999997E+02  0.45594000000E+02  0.51100000000E-03 0. -1.
    9900012    2    1    2    0    0 -0.12963252225E+02  0.23096383229E+02 -0.34382186639E+02  0.47787267465E+02  0.19999983678E+02 0.  0.
        -12    1    1    2    0    0  0.12963252225E+02 -0.23096383229E+02  0.34382186639E+02  0.43400732535E+02  0.00000000000E+00 0.  1.
         11    1    3    3    0    0  0.22304482999E+00  0.67866245556E+01 -0.52047179165E+01  0.85555310008E+01  0.51100000000E-03 0. -1.
        -11    1    3    3    0    0 -0.93852626558E+01  0.27624174329E+01 -0.20462314819E+02  0.22680838459E+02  0.51100000000E-03 0.  1.
        -12    1    3    3    0    0 -0.38010343987E+01  0.13547341241E+02 -0.87151539042E+01  0.16550898005E+02  0.00000000000E+00 0.  1.
</event>
<event>
 7    1  0.1457722E-010  0.4778727E+02  0.7816164E-02  0.1312668E+00
        -11   -1    0    0    0    0  0.00000000000E+00  0.00000000000E+00  0.45593999997E+02  0.45594000000E+02  0.51100000000E-03 0.  1.
         11   -1    0    0    0    0 -0.00000000000E+00 -0.00000000000E+00 -0.45593999997E+02  0.45594000000E+02  0.51100000000E-03 0. -1.
    9900012    2    1    2    0    0 -0.54463338553E+01 -0.42625285754E+02  0.60865243000E+01  0.47787270557E+02  0.19999997779E+02 0.  0.
        -12    1    1    2    0    0  0.54463338553E+01  0.42625285754E+02 -0.60865243000E+01  0.43400729443E+02  0.00000000000E+00 0.  1.
         11    1    3    3    0    0  0.14477844374E+01 -0.15796688144E+02 -0.40630222755E+01  0.16374968286E+02  0.51100000000E-03 0. -1.
        -11    1    3    3    0    0 -0.46004121409E+01 -0.26295965779E+02  0.72214799069E+01  0.27654861786E+02  0.51100000000E-03 0.  1.
        -12    1    3    3    0    0 -0.22937061518E+01 -0.53263183103E+00  0.29280666686E+01  0.37574404844E+01  0.00000000000E+00 0.  1.
</event>
<event>
 7    1  0.1457722E-010  0.4778727E+02  0.7816164E-02  0.1312668E+00
        -11   -1    0    0    0    0  0.00000000000E+00  0.00000000000E+00  0.45593999997E+02  0.45594000000E+02  0.51100000000E-03 0. -1.
         11   -1    0    0    0    0 -0.00000000000E+00 -0.00000000000E+00 -0.45593999997E+02  0.45594000000E+02  0.51100000000E-03 0.  1.
    9900012    2    1    2    0    0  0.45163898368E+00 -0.23417473777E+02  0.36538212955E+02  0.47787273487E+02  0.20000011137E+02 0.  0.
        -12    1    1    2    0    0 -0.45163898368E+00  0.23417473777E+02 -0.36538212955E+02  0.43400726513E+02  0.00000000000E+00 0.  1.
         11    1    3    3    0    0 -0.55732991857E+00  0.66329892104E+00 -0.52134750721E+00  0.10111308428E+01  0.51100000000E-03 0. -1.
        -11    1    3    3    0    0  0.24909344461E+01 -0.47653510626E-01  0.11069277555E+02  0.11346185752E+02  0.51100000000E-03 0.  1.
         12    1    3    3    0    0 -0.14819655439E+01 -0.24033119188E+02  0.25990282908E+02  0.35429956892E+02  0.00000000000E+00 0. -1.
</event>
<event>
 7    1  0.1457722E-010  0.4778727E+02  0.7816164E-02  0.1312668E+00
        -11   -1    0    0    0    0  0.00000000000E+00  0.00000000000E+00  0.45593999997E+02  0.45594000000E+02  0.51100000000E-03 0.  1.
         11   -1    0    0    0    0 -0.00000000000E+00 -0.00000000000E+00 -0.45593999997E+02  0.45594000000E+02  0.51100000000E-03 0. -1.
    9900012    2    1    2    0    0  0.29710189409E+02 -0.24135786106E+01 -0.31545245452E+02  0.47787271584E+02  0.20000002459E+02 0.  0.
        -12    1    1    2    0    0 -0.29710189409E+02  0.24135786106E+01  0.31545245452E+02  0.43400728416E+02  0.00000000000E+00 0.  1.
         11    1    3    3    0    0 -0.12513995361E+01 -0.22494881675E+00 -0.28769920329E+01  0.31454230538E+01  0.51100000000E-03 0. -1.
        -11    1    3    3    0    0  0.73310902827E+01 -0.34734451717E+01 -0.90746667100E+00  0.81629162750E+01  0.51100000000E-03 0.  1.
        -12    1    3    3    0    0  0.23630498663E+02  0.12848153778E+01 -0.27760786748E+02  0.36478932255E+02  0.00000000000E+00 0.  1.
</event>
<event>
 7    1  0.1457722E-010  0.4778728E+02  0.7816164E-02  0.1312668E+00
        -11   -1    0    0    0    0  0.00000000000E+00  0.00000000000E+00  0.45593999997E+02  0.45594000000E+02  0.51100000000E-03 0.  1.
         11   -1    0    0    0    0 -0.00000000000E+00 -0.00000000000E+00 -0.45593999997E+02  0.45594000000E+02  0.51100000000E-03 0. -1.
    9900012    2    1    2    0    0 -0.16728442946E+02 -0.15400870799E+02 -0.36967483835E+02  0.47787280122E+02  0.20000041390E+02 0.  0.
        -12    1    1    2    0    0  0.16728442946E+02  0.15400870799E+02  0.36967483835E+02  0.43400719878E+02  0.00000000000E+00 0.  1.
         11    1    3    3    0    0 -0.83583101519E+01  0.23939714617E+00 -0.51265368442E+01  0.98081619004E+01  0.51100000000E-03 0. -1.
        -11    1    3    3    0    0 -0.69844794901E+01 -0.58833733534E+01 -0.22973754981E+02  0.24722266359E+02  0.51100000000E-03 0.  1.
        -12    1    3    3    0    0 -0.13856533037E+01 -0.97568945921E+01 -0.88671920103E+01  0.13256851863E+02  0.00000000000E+00 0.  1.
</event>
<event>
 7    1  0.1457722E-010  0.4778727E+02  0.7816164E-02  0.1312668E+00
        -11   -1    0    0    0    0  0.00000000000E+00  0.00000000000E+00  0.45593999997E+02  0.45594000000E+02  0.51100000000E-03 0.  1.
         11   -1    0    0    0    0 -0.00000000000E+00 -0.00000000000E+00 -0.45593999997E+02  0.45594000000E+02  0.51100000000E-03 0. -1.
    9900012    2    1    2    0    0 -0.32313376500E+02  0.14240714745E+02 -0.25232341860E+02  0.47787270363E+02  0.19999996893E+02 0.  0.
        -12    1    1    2    0    0  0.32313376500E+02 -0.14240714745E+02  0.25232341860E+02  0.43400729637E+02  0.00000000000E+00 0.  1.
         11    1    3    3    0    0 -0.85918588711E+01  0.28355985849E+01 -0.11752081564E+01  0.91236929292E+01  0.51100000000E-03 0. -1.
        -11    1    3    3    0    0  0.11677892476E+01  0.14942937614E+01  0.85524261480E+00  0.20804051921E+01  0.51100000000E-03 0.  1.
         12    1    3    3    0    0 -0.24889306877E+02  0.99108223984E+01 -0.24912376319E+02  0.36583172242E+02  0.00000000000E+00 0. -1.
</event>
<event>
 7    1  0.1907672E-010  0.4778727E+02  0.7816164E-02  0.1312668E+00
        -11   -1    0    0    0    0  0.00000000000E+00  0.00000000000E+00  0.45593999997E+02  0.45594000000E+02  0.51100000000E-03 0. -1.
         11   -1    0    0    0    0 -0.00000000000E+00 -0.00000000000E+00 -0.45593999997E+02  0.45594000000E+02  0.51100000000E-03 0.  1.
    9900012    2    1    2    0    0 -0.31273546009E+02  0.51396937429E+01  0.29650836471E+02  0.47787271491E+02  0.20000002034E+02 0.  0.
        -12    1    1    2    0    0  0.31273546009E+02 -0.51396937429E+01 -0.29650836471E+02  0.43400728509E+02  0.00000000000E+00 0.  1.
         11    1    3    3    0    0 -0.21099451133E+02 -0.49722142418E+01  0.13657394350E+02  0.25620971357E+02  0.51100000000E-03 0. -1.
        -11    1    3    3    0    0  0.38628201005E+00  0.19847103639E+01  0.21445196187E+01  0.29474147445E+01  0.51100000000E-03 0.  1.
         12    1    3    3    0    0 -0.10560376886E+02  0.81271976208E+01  0.13848922502E+02  0.19218885389E+02  0.00000000000E+00 0. -1.
</event>
<event>
 7    1  0.1457722E-010  0.4778727E+02  0.7816164E-02  0.1312668E+00
        -11   -1    0    0    0    0  0.00000000000E+00  0.00000000000E+00  0.45593999997E+02  0.45594000000E+02  0.51100000000E-03 0.  1.
         11   -1    0    0    0    0 -0.00000000000E+00 -0.00000000000E+00 -0.45593999997E+02  0.45594000000E+02  0.51100000000E-03 0. -1.
    9900012    2    1    2    0    0 -0.32921293947E+02 -0.25737390121E+02 -0.11721726819E+02  0.47787265847E+02  0.19999976304E+02 0.  0.
        -12    1    1    2    0    0  0.32921293947E+02  0.25737390121E+02  0.11721726819E+02  0.43400734153E+02  0.00000000000E+00 0.  1.
         11    1    3    3    0    0  0.43075702830E+00 -0.45763873737E+01  0.35017425356E-01  0.45967487959E+01  0.51100000000E-03 0.  1.
        -11    1    3    3    0    0 -0.18757857981E+02 -0.44446798274E+01 -0.40371796718E+01  0.19695462288E+02  0.51100000000E-03 0. -1.
         12    1    3    3    0    0 -0.14594192995E+02 -0.16716322919E+02 -0.77195645726E+01  0.23495054763E+02  0.00000000000E+00 0. -1.
</event>
<event>
 7    1  0.1457722E-010  0.4778727E+02  0.7816164E-02  0.1312668E+00
        -11   -1    0    0    0    0  0.00000000000E+00  0.00000000000E+00  0.45593999997E+02  0.45594000000E+02  0.51100000000E-03 0.  1.
         11   -1    0    0    0    0 -0.00000000000E+00 -0.00000000000E+00 -0.45593999997E+02  0.45594000000E+02  0.51100000000E-03 0. -1.
    9900012    2    1    2    0    0  0.18461753233E+02 -0.18109942461E+02 -0.34854219613E+02  0.47787274508E+02  0.20000015794E+02 0.  0.
        -12    1    1    2    0    0 -0.18461753233E+02  0.18109942461E+02  0.34854219613E+02  0.43400725492E+02  0.00000000000E+00 0.  1.
         11    1    3    3    0    0  0.14955369389E+02 -0.81209320177E+01 -0.22675486708E+02  0.28351195885E+02  0.51100000000E-03 0. -1.
        -11    1    3    3    0    0  0.43397186771E+01 -0.43902432320E+01 -0.18748743586E+00  0.61759651579E+01  0.51100000000E-03 0.  1.
         12    1    3    3    0    0 -0.83333483292E+00 -0.55987672111E+01 -0.11991245469E+02  0.13260113466E+02  0.00000000000E+00 0. -1.
</event>
<event>
 7    1  0.1457722E-010  0.4778728E+02  0.7816164E-02  0.1312668E+00
        -11   -1    0    0    0    0  0.00000000000E+00  0.00000000000E+00  0.45593999997E+02  0.45594000000E+02  0.51100000000E-03 0.  1.
         11   -1    0    0    0    0 -0.00000000000E+00 -0.00000000000E+00 -0.45593999997E+02  0.45594000000E+02  0.51100000000E-03 0. -1.
    9900012    2    1    2    0    0  0.35174740158E+02 -0.25015356199E+02  0.45378061145E+01  0.47787284853E+02  0.20000062960E+02 0.  0.
        -12    1    1    2    0    0 -0.35174740158E+02  0.25015356199E+02 -0.45378061145E+01  0.43400715147E+02  0.00000000000E+00 0.  1.
         11    1    3    3    0    0  0.28090742072E+02 -0.12239818163E+02  0.78456317395E+01  0.31629999628E+02  0.51100000000E-03 0. -1.
        -11    1    3    3    0    0 -0.68541585009E+00 -0.52378727992E+00 -0.12290244928E+01  0.15015490226E+01  0.51100000000E-03 0.  1.
        -12    1    3    3    0    0  0.77694139354E+01 -0.12251750756E+02 -0.20788011322E+01  0.14655736203E+02  0.00000000000E+00 0.  1.
</event>
<event>
 7    1  0.1457722E-010  0.4778727E+02  0.7816164E-02  0.1312668E+00
        -11   -1    0    0    0    0  0.00000000000E+00  0.00000000000E+00  0.45593999997E+02  0.45594000000E+02  0.51100000000E-03 0. -1.
         11   -1    0    0    0    0 -0.00000000000E+00 -0.00000000000E+00 -0.45593999997E+02  0.45594000000E+02  0.51100000000E-03 0.  1.
    9900012    2    1    2    0    0  0.27676357132E+02  0.30454587443E+02  0.13789872574E+02  0.47787271595E+02  0.20000002512E+02 0.  0.
        -12    1    1    2    0    0 -0.27676357132E+02 -0.30454587443E+02 -0.13789872574E+02  0.43400728405E+02  0.00000000000E+00 0.  1.
         11    1    3    3    0    0  0.47273514445E+01  0.12548391770E+02  0.52882083284E+01  0.14414407212E+02  0.51100000000E-03 0. -1.
        -11    1    3    3    0    0  0.49664475542E+01  0.48860408697E+00 -0.29995333074E+01  0.58225025192E+01  0.51100000000E-03 0.  1.
         12    1    3    3    0    0  0.17982558133E+02  0.17417591586E+02  0.11501197553E+02  0.27550361864E+02  0.00000000000E+00 0. -1.
</event>
<event>
 7    1  0.1457722E-010  0.4778727E+02  0.7816164E-02  0.1312668E+00
        -11   -1    0    0    0    0  0.00000000000E+00  0.00000000000E+00  0.45593999997E+02  0.45594000000E+02  0.51100000000E-03 0.  1.
         11   -1    0    0    0    0 -0.00000000000E+00 -0.00000000000E+00 -0.45593999997E+02  0.45594000000E+02  0.51100000000E-03 0. -1.
    9900012    2    1    2    0    0  0.83252038248E+01  0.11840315715E+02 -0.40916025445E+02  0.47787271513E+02  0.20000002137E+02 0.  0.
        -12    1    1    2    0    0 -0.83252038248E+01 -0.11840315715E+02  0.40916025445E+02  0.43400728487E+02  0.00000000000E+00 0.  1.
         11    1    3    3    0    0 -0.53789682628E+00 -0.44079167902E+00  0.13403259505E+01  0.15100013956E+01  0.51100000000E-03 0.  1.
        -11    1    3    3    0    0  0.35005363918E+00  0.42857417070E+01 -0.25454282039E+02  0.25814929671E+02  0.51100000000E-03 0. -1.
         12    1    3    3    0    0  0.85130470119E+01  0.79953656869E+01 -0.16802069356E+02  0.20462340447E+02  0.00000000000E+00 0. -1.
</event>
<event>
 7    1  0.1457722E-010  0.4778727E+02  0.7816164E-02  0.1312668E+00
        -11   -1    0    0    0    0  0.00000000000E+00  0.00000000000E+00  0.45593999997E+02  0.45594000000E+02  0.51100000000E-03 0. -1.
         11   -1    0    0    0    0 -0.00000000000E+00 -0.00000000000E+00 -0.45593999997E+02  0.45594000000E+02  0.51100000000E-03 0.  1.
    9900012    2    1    2    0    0  0.14140035126E+02 -0.10095865907E+02  0.39771298192E+02  0.47787271186E+02  0.20000000644E+02 0.  0.
        -12    1    1    2    0    0 -0.14140035126E+02  0.10095865907E+02 -0.39771298192E+02  0.43400728814E+02  0.00000000000E+00 0.  1.
         11    1    3    3    0    0 -0.18590182255E+01  0.22194370768E+01  0.10584451292E+02  0.10973261097E+02  0.51100000000E-03 0. -1.
        -11    1    3    3    0    0  0.11342042304E+02 -0.63500662562E+01  0.24969716422E+02  0.28150524037E+02  0.51100000000E-03 0.  1.
        -12    1    3    3    0    0  0.46570110469E+01 -0.59652367271E+01  0.42171304779E+01  0.86634860518E+01  0.00000000000E+00 0.  1.
</event>
<event>
 7    1  0.1457722E-010  0.4778727E+02  0.7816164E-02  0.1312668E+00
        -11   -1    0    0    0    0  0.00000000000E+00  0.00000000000E+00  0.45593999997E+02  0.45594000000E+02  0.51100000000E-03 0.  1.
         11   -1    0    0    0    0 -0.00000000000E+00 -0.00000000000E+00 -0.45593999997E+02  0.45594000000E+02  0.51100000000E-03 0. -1.
    9900012    2    1    2    0    0  0.37665434708E+01 -0.40823197339E+02 -0.14244399928E+02  0.47787271665E+02  0.20000002828E+02 0.  0.
        -12    1    1    2    0    0 -0.37665434708E+01  0.40823197339E+02  0.14244399928E+02  0.43400728335E+02  0.00000000000E+00 0.  1.
         11    1    3    3    0    0 -0.43885597897E+01 -0.24561267574E+02 -0.14787046300E+02  0.29002966408E+02  0.51100000000E-03 0. -1.
        -11    1    3    3    0    0  0.50670666199E+01 -0.58797975805E+01 -0.10627772423E+01  0.78343269939E+01  0.51100000000E-03 0.  1.
         12    1    3    3    0    0  0.30880366406E+01 -0.10382132184E+02  0.16054236144E+01  0.10949978263E+02  0.00000000000E+00 0. -1.
</event>
<event>
 7    1  0.1457722E-010  0.4778727E+02  0.7816164E-02  0.1312668E+00
        -11   -1    0    0    0    0  0.00000000000E+00  0.00000000000E+00  0.45593999997E+02  0.45594000000E+02  0.51100000000E-03 0. -1.
         11   -1    0    0    0    0 -0.00000000000E+00 -0.00000000000E+00 -0.45593999997E+02  0.45594000000E+02  0.51100000000E-03 0.  1.
    9900012    2    1    2    0    0  0.21039423796E+02 -0.37489980323E+02  0.59554363347E+01  0.47787271893E+02  0.20000003868E+02 0.  0.
        -12    1    1    2    0    0 -0.21039423796E+02  0.37489980323E+02 -0.59554363347E+01  0.43400728107E+02  0.00000000000E+00 0.  1.
         11    1    3    3    0    0  0.10497267067E+02 -0.55097948293E+01  0.32560905965E+01  0.12294412599E+02  0.51100000000E-03 0. -1.
        -11    1    3    3    0    0  0.24653613594E+01 -0.35558479410E+00  0.13317148746E+01  0.28245197727E+01  0.51100000000E-03 0.  1.
        -12    1    3    3    0    0  0.80767953701E+01 -0.31624600700E+02  0.13676308637E+01  0.32668339521E+02  0.00000000000E+00 0.  1.
</event>
<event>
 7    1  0.1457722E-010  0.4778727E+02  0.7816164E-02  0.1312668E+00
        -11   -1    0    0    0    0  0.00000000000E+00  0.00000000000E+00  0.45593999997E+02  0.45594000000E+02  0.51100000000E-03 0.  1.
         11   -1    0    0    0    0 -0.00000000000E+00 -0.00000000000E+00 -0.45593999997E+02  0.45594000000E+02  0.51100000000E-03 0. -1.
    9900012    2    1    2    0    0 -0.91871870506E+01  0.39350973874E+02 -0.15834123485E+02  0.47787274001E+02  0.20000013478E+02 0.  0.
        -12    1    1    2    0    0  0.91871870506E+01 -0.39350973874E+02  0.15834123485E+02  0.43400725999E+02  0.00000000000E+00 0.  1.
         11    1    3    3    0    0 -0.47237963437E+01  0.31639960030E+01 -0.13598961010E+01  0.58458908877E+01  0.51100000000E-03 0. -1.
        -11    1    3    3    0    0  0.82445925960E+00  0.23719278659E+01  0.26668059249E+01  0.36630081864E+01  0.51100000000E-03 0.  1.
         12    1    3    3    0    0 -0.52878499665E+01  0.33815050005E+02 -0.17141033309E+02  0.38278374927E+02  0.00000000000E+00 0. -1.
</event>
<event>
 7    1  0.1457722E-010  0.4778727E+02  0.7816164E-02  0.1312668E+00
        -11   -1    0    0    0    0  0.00000000000E+00  0.00000000000E+00  0.45593999997E+02  0.45594000000E+02  0.51100000000E-03 0.  1.
         11   -1    0    0    0    0 -0.00000000000E+00 -0.00000000000E+00 -0.45593999997E+02  0.45594000000E+02  0.51100000000E-03 0. -1.
    9900012    2    1    2    0    0  0.26318944871E+02  0.24939737010E+02 -0.23852584092E+02  0.47787272943E+02  0.20000008655E+02 0.  0.
        -12    1    1    2    0    0 -0.26318944871E+02 -0.24939737010E+02  0.23852584092E+02  0.43400727057E+02  0.00000000000E+00 0.  1.
         11    1    3    3    0    0  0.11119806527E+02  0.17087093240E+02 -0.10701482199E+02  0.23024781739E+02  0.51100000000E-03 0. -1.
        -11    1    3    3    0    0  0.16063063358E+02  0.77313418840E+01 -0.14619267753E+02  0.23054688063E+02  0.51100000000E-03 0.  1.
         12    1    3    3    0    0 -0.86392501400E+00  0.12130188537E+00  0.14681658599E+01  0.17078031413E+01  0.00000000000E+00 0. -1.
</event>
<event>
 7    1  0.1457722E-010  0.4778727E+02  0.7816164E-02  0.1312668E+00
        -11   -1    0    0    0    0  0.00000000000E+00  0.00000000000E+00  0.45593999997E+02  0.45594000000E+02  0.51100000000E-03 0. -1.
         11   -1    0    0    0    0 -0.00000000000E+00 -0.00000000000E+00 -0.45593999997E+02  0.45594000000E+02  0.51100000000E-03 0.  1.
    9900012    2    1    2    0    0 -0.66357613220E+01  0.80220165562E+01  0.42133567599E+02  0.47787267327E+02  0.19999983049E+02 0.  0.
        -12    1    1    2    0    0  0.66357613220E+01 -0.80220165562E+01 -0.42133567599E+02  0.43400732673E+02  0.00000000000E+00 0.  1.
         11    1    3    3    0    0 -0.89065308429E+01  0.71629344356E+01  0.41715727385E+02  0.43253159803E+02  0.51100000000E-03 0. -1.
        -11    1    3    3    0    0 -0.54719939823E+00  0.72714505458E+00 -0.10206722367E+01  0.13674571978E+01  0.51100000000E-03 0.  1.
         12    1    3    3    0    0  0.28179689191E+01  0.13193706599E+00  0.14385124508E+01  0.31666503264E+01  0.00000000000E+00 0. -1.
</event>
<event>
 7    1  0.1457722E-010  0.4778727E+02  0.7816164E-02  0.1312668E+00
        -11   -1    0    0    0    0  0.00000000000E+00  0.00000000000E+00  0.45593999997E+02  0.45594000000E+02  0.51100000000E-03 0. -1.
         11   -1    0    0    0    0 -0.00000000000E+00 -0.00000000000E+00 -0.45593999997E+02  0.45594000000E+02  0.51100000000E-03 0.  1.
    9900012    2    1    2    0    0  0.11630758246E+02  0.67732476889E+01  0.41261021586E+02  0.47787270467E+02  0.19999997368E+02 0.  0.
        -12    1    1    2    0    0 -0.11630758246E+02 -0.67732476889E+01 -0.41261021586E+02  0.43400729533E+02  0.00000000000E+00 0.  1.
         11    1    3    3    0    0  0.13102978577E+01 -0.15955313275E+01  0.12205246507E+02  0.12378636567E+02  0.51100000000E-03 0. -1.
        -11    1    3    3    0    0  0.73383830752E+01  0.12800080640E+02  0.23086511320E+02  0.27398557184E+02  0.51100000000E-03 0.  1.
        -12    1    3    3    0    0  0.29820773126E+01 -0.44313016237E+01  0.59692637587E+01  0.80100767162E+01  0.00000000000E+00 0.  1.
</event>
<event>
 7    1  0.1457722E-010  0.4778727E+02  0.7816164E-02  0.1312668E+00
        -11   -1    0    0    0    0  0.00000000000E+00  0.00000000000E+00  0.45593999997E+02  0.45594000000E+02  0.51100000000E-03 0.  1.
         11   -1    0    0    0    0 -0.00000000000E+00 -0.00000000000E+00 -0.45593999997E+02  0.45594000000E+02  0.51100000000E-03 0. -1.
    9900012    2    1    2    0    0 -0.30412982662E+02  0.29323429922E+02  0.99403214485E+01  0.47787273655E+02  0.20000011903E+02 0.  0.
        -12    1    1    2    0    0  0.30412982662E+02 -0.29323429922E+02 -0.99403214485E+01  0.43400726345E+02  0.00000000000E+00 0.  1.
         11    1    3    3    0    0 -0.60680368936E+01  0.13027004052E+02 -0.10165074664E+01  0.14406845387E+02  0.51100000000E-03 0. -1.
        -11    1    3    3    0    0 -0.56482769508E+01  0.74866035962E+01  0.83342808562E+01  0.12546413973E+02  0.51100000000E-03 0.  1.
        -12    1    3    3    0    0 -0.18696668817E+02  0.88098222741E+01  0.26225480587E+01  0.20834014296E+02  0.00000000000E+00 0.  1.
</event>
<event>
 7    1  0.1457722E-010  0.4778727E+02  0.7816164E-02  0.1312668E+00
        -11   -1    0    0    0    0  0.00000000000E+00  0.00000000000E+00  0.45593999997E+02  0.45594000000E+02  0.51100000000E-03 0. -1.
         11   -1    0    0    0    0 -0.00000000000E+00 -0.00000000000E+00 -0.45593999997E+02  0.45594000000E+02  0.51100000000E-03 0.  1.
    9900012    2    1    2    0    0  0.85787261418E+01 -0.41952961040E+02  0.70694887927E+01  0.47787272425E+02  0.20000006293E+02 0.  0.
        -12    1    1    2    0    0 -0.85787261418E+01  0.41952961040E+02 -0.70694887927E+01  0.43400727575E+02  0.00000000000E+00 0.  1.
         11    1    3    3    0    0  0.50739544753E+01 -0.32369760827E+02  0.96612218919E+01  0.34159707825E+02  0.51100000000E-03 0. -1.
        -11    1    3    3    0    0  0.25543154009E+01 -0.10958382229E+02 -0.34221041463E+01  0.11761014637E+02  0.51100000000E-03 0.  1.
        -12    1    3    3    0    0  0.95045626560E+00  0.13751820151E+01  0.83037104717E+00  0.18665499627E+01  0.00000000000E+00 0.  1.
</event>
<event>
 7    1  0.1457722E-010  0.4778727E+02  0.7816164E-02  0.1312668E+00
        -11   -1    0    0    0    0  0.00000000000E+00  0.00000000000E+00  0.45593999997E+02  0.45594000000E+02  0.51100000000E-03 0.  1.
         11   -1    0    0    0    0 -0.00000000000E+00 -0.00000000000E+00 -0.45593999997E+02  0.45594000000E+02  0.51100000000E-03 0. -1.
    9900012    2    1    2    0    0  0.14630231079E+01 -0.37048379306E+02 -0.22558826894E+02  0.47787268247E+02  0.19999987247E+02 0.  0.
        -12    1    1    2    0    0 -0.14630231079E+01  0.37048379306E+02  0.22558826894E+02  0.43400731753E+02  0.00000000000E+00 0.  1.
         11    1    3    3    0    0  0.64602045527E-01 -0.25518437981E+01  0.22566930283E+01  0.34071606771E+01  0.51100000000E-03 0.  1.
        -11    1    3    3    0    0 -0.49939514264E+01 -0.12856016848E+02 -0.12795923919E+02  0.18813622438E+02  0.51100000000E-03 0. -1.
         12    1    3    3    0    0  0.63923724887E+01 -0.21640518661E+02 -0.12019596003E+02  0.25566485132E+02  0.00000000000E+00 0. -1.
</event>
<event>
 7    1  0.1457722E-010  0.4778726E+02  0.7816164E-02  0.1312668E+00
        -11   -1    0    0    0    0  0.00000000000E+00  0.00000000000E+00  0.45593999997E+02  0.45594000000E+02  0.51100000000E-03 0.  1.
         11   -1    0    0    0    0 -0.00000000000E+00 -0.00000000000E+00 -0.45593999997E+02  0.45594000000E+02  0.51100000000E-03 0. -1.
    9900012    2    1    2    0    0 -0.27527045938E+01  0.24456258355E+02 -0.35748259028E+02  0.47787262923E+02  0.19999962970E+02 0.  0.
        -12    1    1    2    0    0  0.27527045938E+01 -0.24456258355E+02  0.35748259028E+02  0.43400737077E+02  0.00000000000E+00 0.  1.
         11    1    3    3    0    0 -0.15796253846E+01  0.65816506727E+01 -0.98683024426E+01  0.11966483832E+02  0.51100000000E-03 0. -1.
        -11    1    3    3    0    0  0.11390743310E+01  0.19791220123E+02 -0.15941835061E+02  0.25438789076E+02  0.51100000000E-03 0.  1.
         12    1    3    3    0    0 -0.23121535401E+01 -0.19166124406E+01 -0.99381215245E+01  0.10381990015E+02  0.00000000000E+00 0. -1.
</event>
<event>
 7    1  0.1457722E-010  0.4778729E+02  0.7816164E-02  0.1312668E+00
        -11   -1    0    0    0    0  0.00000000000E+00  0.00000000000E+00  0.45593999997E+02  0.45594000000E+02  0.51100000000E-03 0. -1.
         11   -1    0    0    0    0 -0.00000000000E+00 -0.00000000000E+00 -0.45593999997E+02  0.45594000000E+02  0.51100000000E-03 0.  1.
    9900012    2    1    2    0    0 -0.86680874257E+01 -0.33126074695E+02  0.26667372781E+02  0.47787293377E+02  0.20000101821E+02 0.  0.
        -12    1    1    2    0    0  0.86680874257E+01  0.33126074695E+02 -0.26667372781E+02  0.43400706623E+02  0.00000000000E+00 0.  1.
         11    1    3    3    0    0  0.78839274549E+00  0.10252579938E+01  0.54878799221E+00  0.14049503894E+01  0.51100000000E-03 0. -1.
        -11    1    3    3    0    0 -0.47063242085E+01 -0.27376581165E+02  0.12531144989E+02  0.30473862223E+02  0.51100000000E-03 0.  1.
        -12    1    3    3    0    0 -0.47501559627E+01 -0.67747515247E+01  0.13587439800E+02  0.15908480764E+02  0.00000000000E+00 0.  1.
</event>
<event>
 7    1  0.1457722E-010  0.4778727E+02  0.7816164E-02  0.1312668E+00
        -11   -1    0    0    0    0  0.00000000000E+00  0.00000000000E+00  0.45593999997E+02  0.45594000000E+02  0.51100000000E-03 0.  1.
         11   -1    0    0    0    0 -0.00000000000E+00 -0.00000000000E+00 -0.45593999997E+02  0.45594000000E+02  0.51100000000E-03 0. -1.
    9900012    2    1    2    0    0  0.34752502210E+01  0.31134113537E+02 -0.30036855673E+02  0.47787273179E+02  0.20000009732E+02 0.  0.
        -12    1    1    2    0    0 -0.34752502210E+01 -0.31134113537E+02  0.30036855673E+02  0.43400726821E+02  0.00000000000E+00 0.  1.
         11    1    3    3    0    0  0.93079822353E+01  0.22260119172E+02 -0.14346064732E+02  0.28070643249E+02  0.51100000000E-03 0. -1.
        -11    1    3    3    0    0 -0.34599320400E+01  0.25635689501E+01 -0.27055692185E+01  0.50855796661E+01  0.51100000000E-03 0.  1.
         12    1    3    3    0    0 -0.23727999743E+01  0.63104254154E+01 -0.12985221723E+02  0.14631050264E+02  0.00000000000E+00 0. -1.
</event>
<event>
 7    1  0.1457722E-010  0.4778726E+02  0.7816164E-02  0.1312668E+00
        -11   -1    0    0    0    0  0.00000000000E+00  0.00000000000E+00  0.45593999997E+02  0.45594000000E+02  0.51100000000E-03 0. -1.
         11   -1    0    0    0    0 -0.00000000000E+00 -0.00000000000E+00 -0.45593999997E+02  0.45594000000E+02  0.51100000000E-03 0.  1.
    9900012    2    1    2    0    0 -0.27924264784E+02 -0.32201197284E+02  0.81818199216E+01  0.47787264436E+02  0.19999969871E+02 0.  0.
        -12    1    1    2    0    0  0.27924264784E+02  0.32201197284E+02 -0.81818199216E+01  0.43400735564E+02  0.00000000000E+00 0.  1.
         11    1    3    3    0    0 -0.12294745156E+02 -0.19932316221E+02  0.13697633722E+02  0.27130852516E+02  0.51100000000E-03 0. -1.
        -11    1    3    3    0    0 -0.69617167075E+01 -0.52372232164E+01 -0.18262630349E+01  0.89010810280E+01  0.51100000000E-03 0.  1.
         12    1    3    3    0    0 -0.86678029206E+01 -0.70316578466E+01 -0.36895507660E+01  0.11755330893E+02  0.00000000000E+00 0. -1.
</event>
<event>
 7    1  0.1457722E-010  0.4778728E+02  0.7816164E-02  0.1312668E+00
        -11   -1    0    0    0    0  0.00000000000E+00  0.00000000000E+00  0.45593999997E+02  0.45594000000E+02  0.51100000000E-03 0.  1.
         11   -1    0    0    0    0 -0.00000000000E+00 -0.00000000000E+00 -0.45593999997E+02  0.45594000000E+02  0.51100000000E-03 0. -1.
    9900012    2    1    2    0    0 -0.28980135096E+02  0.16906553816E+02 -0.27530761614E+02  0.47787278495E+02  0.20000033969E+02 0.  0.
        -12    1    1    2    0    0  0.28980135096E+02 -0.16906553816E+02  0.27530761614E+02  0.43400721505E+02  0.00000000000E+00 0.  1.
         11    1    3    3    0    0 -0.27049485730E+01  0.98362985736E+01 -0.71400317143E+01  0.12451890200E+02  0.51100000000E-03 0. -1.
        -11    1    3    3    0    0 -0.15435563542E+02  0.75390404871E+01 -0.82615526341E+01  0.19061663241E+02  0.51100000000E-03 0.  1.
         12    1    3    3    0    0 -0.10839622980E+02 -0.46878524471E+00 -0.12129177266E+02  0.16273725053E+02  0.00000000000E+00 0. -1.
</event>
<event>
 7    1  0.1457722E-010  0.4778727E+02  0.7816164E-02  0.1312668E+00
        -11   -1    0    0    0    0  0.00000000000E+00  0.00000000000E+00  0.45593999997E+02  0.45594000000E+02  0.51100000000E-03 0. -1.
         11   -1    0    0    0    0 -0.00000000000E+00 -0.00000000000E+00 -0.45593999997E+02  0.45594000000E+02  0.51100000000E-03 0.  1.
    9900012    2    1    2    0    0  0.98188454947E+01  0.22991491276E+02  0.35476822235E+02  0.47787270585E+02  0.19999997903E+02 0.  0.
        -12    1    1    2    0    0 -0.98188454947E+01 -0.22991491276E+02 -0.35476822235E+02  0.43400729415E+02  0.00000000000E+00 0.  1.
         11    1    3    3    0    0  0.81248382980E+01  0.17129491861E+02  0.11494184278E+02  0.22170898973E+02  0.51100000000E-03 0. -1.
        -11    1    3    3    0    0 -0.19155731014E+01 -0.10985297206E+00  0.37166747238E+01  0.41827215119E+01  0.51100000000E-03 0.  1.
         12    1    3    3    0    0  0.36095802981E+01  0.59718523865E+01  0.20265963232E+02  0.21433650100E+02  0.00000000000E+00 0. -1.
</event>
<event>
 7    1  0.1457722E-010  0.4778727E+02  0.7816164E-02  0.1312668E+00
        -11   -1    0    0    0    0  0.00000000000E+00  0.00000000000E+00  0.45593999997E+02  0.45594000000E+02  0.51100000000E-03 0.  1.
         11   -1    0    0    0    0 -0.00000000000E+00 -0.00000000000E+00 -0.45593999997E+02  0.45594000000E+02  0.51100000000E-03 0. -1.
    9900012    2    1    2    0    0  0.11672134163E+02  0.10559870743E+02 -0.40445936773E+02  0.47787269736E+02  0.19999994035E+02 0.  0.
        -12    1    1    2    0    0 -0.11672134163E+02 -0.10559870743E+02  0.40445936773E+02  0.43400730264E+02  0.00000000000E+00 0.  1.
         11    1    3    3    0    0  0.37329899834E+01  0.39227772384E+01 -0.26552937818E+01  0.60310845466E+01  0.51100000000E-03 0. -1.
        -11    1    3    3    0    0 -0.21216841735E+01  0.65602327524E+01 -0.21793778471E+02  0.22858411532E+02  0.51100000000E-03 0.  1.
        -12    1    3    3    0    0  0.10060828353E+02  0.76860751756E-01 -0.15996864520E+02  0.18897773657E+02  0.00000000000E+00 0.  1.
</event>
<event>
 7    1  0.1457722E-010  0.4778732E+02  0.7816164E-02  0.1312668E+00
        -11   -1    0    0    0    0  0.00000000000E+00  0.00000000000E+00  0.45593999997E+02  0.45594000000E+02  0.51100000000E-03 0.  1.
         11   -1    0    0    0    0 -0.00000000000E+00 -0.00000000000E+00 -0.45593999997E+02  0.45594000000E+02  0.51100000000E-03 0. -1.
    9900012    2    1    2    0    0  0.11601796858E+02  0.10409251382E+01 -0.41808298374E+02  0.47787319954E+02  0.20000222998E+02 0.  0.
        -12    1    1    2    0    0 -0.11601796858E+02 -0.10409251382E+01  0.41808298374E+02  0.43400680046E+02  0.00000000000E+00 0.  1.
         11    1    3    3    0    0  0.12308213446E+01  0.75775908418E+01 -0.19013886320E+02  0.20505186597E+02  0.51100000000E-03 0. -1.
        -11    1    3    3    0    0  0.81689544172E+01 -0.33713413865E+01 -0.21449010024E+02  0.23198228171E+02  0.51100000000E-03 0.  1.
        -12    1    3    3    0    0  0.22020210965E+01 -0.31653243171E+01 -0.13454020304E+01  0.40839051856E+01  0.00000000000E+00 0.  1.
</event>
<event>
 7    1  0.1457722E-010  0.4778727E+02  0.7816164E-02  0.1312668E+00
        -11   -1    0    0    0    0  0.00000000000E+00  0.00000000000E+00  0.45593999997E+02  0.45594000000E+02  0.51100000000E-03 0.  1.
         11   -1    0    0    0    0 -0.00000000000E+00 -0.00000000000E+00 -0.45593999997E+02  0.45594000000E+02  0.51100000000E-03 0. -1.
    9900012    2    1    2    0    0  0.45141891155E+01  0.71348083933E+01 -0.42571587680E+02  0.47787268765E+02  0.19999989606E+02 0.  0.
        -12    1    1    2    0    0 -0.45141891155E+01 -0.71348083933E+01  0.42571587680E+02  0.43400731235E+02  0.00000000000E+00 0.  1.
         11    1    3    3    0    0  0.75967212695E+00 -0.53993129965E+01 -0.80322767208E+01  0.97080972469E+01  0.51100000000E-03 0. -1.
        -11    1    3    3    0    0  0.61148752474E+01  0.43364916117E+01 -0.16673098042E+02  0.18280838531E+02  0.51100000000E-03 0.  1.
        -12    1    3    3    0    0 -0.23603582588E+01  0.81976297781E+01 -0.17866212917E+02  0.19798332987E+02  0.00000000000E+00 0.  1.
</event>
<event>
 7    1  0.1457722E-010  0.4778727E+02  0.7816164E-02  0.1312668E+00
        -11   -1    0    0    0    0  0.00000000000E+00  0.00000000000E+00  0.45593999997E+02  0.45594000000E+02  0.51100000000E-03 0.  1.
         11   -1    0    0    0    0 -0.00000000000E+00 -0.00000000000E+00 -0.45593999997E+02  0.45594000000E+02  0.51100000000E-03 0. -1.
    9900012    2    1    2    0    0  0.15153807395E+02 -0.97440123358E+01 -0.39484676681E+02  0.47787270196E+02  0.19999996130E+02 0.  0.
        -12    1    1    2    0    0 -0.15153807395E+02  0.97440123358E+01  0.39484676681E+02  0.43400729804E+02  0.00000000000E+00 0.  1.
         11    1    3    3    0    0  0.87959583930E+01 -0.21480279662E+01 -0.32447927571E+02  0.33687548325E+02  0.51100000000E-03 0. -1.
        -11    1    3    3    0    0  0.37354097252E+00  0.96700501048E+00  0.56427247881E+00  0.11802691388E+01  0.51100000000E-03 0.  1.
         12    1    3    3    0    0  0.59843080296E+01 -0.85629893801E+01 -0.76010215880E+01  0.12919452732E+02  0.00000000000E+00 0. -1.
</event>
<event>
 7    1  0.1457722E-010  0.4778727E+02  0.7816164E-02  0.1312668E+00
        -11   -1    0    0    0    0  0.00000000000E+00  0.00000000000E+00  0.45593999997E+02  0.45594000000E+02  0.51100000000E-03 0.  1.
         11   -1    0    0    0    0 -0.00000000000E+00 -0.00000000000E+00 -0.45593999997E+02  0.45594000000E+02  0.51100000000E-03 0. -1.
    9900012    2    1    2    0    0 -0.21064278446E+02 -0.30837180941E+02 -0.22113064021E+02  0.47787272412E+02  0.20000006234E+02 0.  0.
        -12    1    1    2    0    0  0.21064278446E+02  0.30837180941E+02  0.22113064021E+02  0.43400727588E+02  0.00000000000E+00 0.  1.
         11    1    3    3    0    0 -0.54283780874E+01 -0.13557604308E+02 -0.36482710625E+01  0.15052767361E+02  0.51100000000E-03 0. -1.
        -11    1    3    3    0    0 -0.30164851112E+01 -0.10333593326E+02 -0.21624709580E+01  0.10979918686E+02  0.51100000000E-03 0.  1.
         12    1    3    3    0    0 -0.12619415248E+02 -0.69459833072E+01 -0.16302322000E+02  0.21754586364E+02  0.00000000000E+00 0. -1.
</event>
<event>
 7    1  0.1457722E-010  0.4778727E+02  0.7816164E-02  0.1312668E+00
        -11   -1    0    0    0    0  0.00000000000E+00  0.00000000000E+00  0.45593999997E+02  0.45594000000E+02  0.51100000000E-03 0.  1.
         11   -1    0    0    0    0 -0.00000000000E+00 -0.00000000000E+00 -0.45593999997E+02  0.45594000000E+02  0.51100000000E-03 0. -1.
    9900012    2    1    2    0    0 -0.35453385057E+02 -0.24356250677E+02 -0.57839185083E+01  0.47787272214E+02  0.20000005332E+02 0.  0.
        -12    1    1    2    0    0  0.35453385057E+02  0.24356250677E+02  0.57839185083E+01  0.43400727786E+02  0.00000000000E+00 0.  1.
         11    1    3    3    0    0 -0.60263705160E+01  0.63986511463E+00  0.23673861969E+01  0.65062344430E+01  0.51100000000E-03 0. -1.
        -11    1    3    3    0    0 -0.88415417351E+01 -0.11028487955E+02 -0.83233609658E+01  0.16403619870E+02  0.51100000000E-03 0.  1.
         12    1    3    3    0    0 -0.20585472806E+02 -0.13967627837E+02  0.17205626061E+00  0.24877417901E+02  0.00000000000E+00 0. -1.
</event>
<event>
 7    1  0.1457722E-010  0.4778726E+02  0.7816164E-02  0.1312668E+00
        -11   -1    0    0    0    0  0.00000000000E+00  0.00000000000E+00  0.45593999997E+02  0.45594000000E+02  0.51100000000E-03 0.  1.
         11   -1    0    0    0    0 -0.00000000000E+00 -0.00000000000E+00 -0.45593999997E+02  0.45594000000E+02  0.51100000000E-03 0. -1.
    9900012    2    1    2    0    0  0.40867542714E+02 -0.13844624164E+02  0.46684726394E+01  0.47787259194E+02  0.19999945968E+02 0.  0.
        -12    1    1    2    0    0 -0.40867542714E+02  0.13844624164E+02 -0.46684726394E+01  0.43400740806E+02  0.00000000000E+00 0.  1.
         11    1    3    3    0    0  0.61680739288E+01  0.62257123202E+00  0.52555050728E+01  0.81273036587E+01  0.51100000000E-03 0. -1.
        -11    1    3    3    0    0  0.11901591630E+02 -0.11138370444E+02  0.22154506539E+01  0.16450513710E+02  0.51100000000E-03 0.  1.
         12    1    3    3    0    0  0.22797877155E+02 -0.33288249524E+01 -0.28024830874E+01  0.23209441825E+02  0.00000000000E+00 0. -1.
</event>
<event>
 7    1  0.1457722E-010  0.4778726E+02  0.7816164E-02  0.1312668E+00
        -11   -1    0    0    0    0  0.00000000000E+00  0.00000000000E+00  0.45593999997E+02  0.45594000000E+02  0.51100000000E-03 0.  1.
         11   -1    0    0    0    0 -0.00000000000E+00 -0.00000000000E+00 -0.45593999997E+02  0.45594000000E+02  0.51100000000E-03 0. -1.
    9900012    2    1    2    0    0 -0.10571785611E+02  0.21372315301E+02 -0.36264109265E+02  0.47787261145E+02  0.19999954867E+02 0.  0.
        -12    1    1    2    0    0  0.10571785611E+02 -0.21372315301E+02  0.36264109265E+02  0.43400738855E+02  0.00000000000E+00 0.  1.
         11    1    3    3    0    0  0.19110979530E+01  0.69779123395E+01 -0.32343613809E+01  0.79249384734E+01  0.51100000000E-03 0. -1.
        -11    1    3    3    0    0 -0.18617868406E+01 -0.78357895287E+00 -0.10508854821E+02  0.10701227786E+02  0.51100000000E-03 0.  1.
        -12    1    3    3    0    0 -0.10621096723E+02  0.15177981915E+02 -0.22520893063E+02  0.29161094886E+02  0.00000000000E+00 0.  1.
</event>
<event>
 7    1  0.1457722E-010  0.4778727E+02  0.7816164E-02  0.1312668E+00
        -11   -1    0    0    0    0  0.00000000000E+00  0.00000000000E+00  0.45593999997E+02  0.45594000000E+02  0.51100000000E-03 0. -1.
         11   -1    0    0    0    0 -0.00000000000E+00 -0.00000000000E+00 -0.45593999997E+02  0.45594000000E+02  0.51100000000E-03 0.  1.
    9900012    2    1    2    0    0 -0.21475026653E+02  0.25258459400E+02  0.28008158270E+02  0.47787268777E+02  0.19999989661E+02 0.  0.
        -12    1    1    2    0    0  0.21475026653E+02 -0.25258459400E+02 -0.28008158270E+02  0.43400731223E+02  0.00000000000E+00 0.  1.
         11    1    3    3    0    0 -0.32253686071E+01  0.84310733873E+01  0.21380246938E+01  0.92766993573E+01  0.51100000000E-03 0. -1.
        -11    1    3    3    0    0 -0.10587426517E+02  0.99744977660E+00  0.70883005201E+01  0.12780160829E+02  0.51100000000E-03 0.  1.
         12    1    3    3    0    0 -0.76622315295E+01  0.15829936236E+02  0.18781833056E+02  0.25730408590E+02  0.00000000000E+00 0. -1.
</event>
<event>
 7    1  0.1457722E-010  0.4778727E+02  0.7816164E-02  0.1312668E+00
        -11   -1    0    0    0    0  0.00000000000E+00  0.00000000000E+00  0.45593999997E+02  0.45594000000E+02  0.51100000000E-03 0.  1.
         11   -1    0    0    0    0 -0.00000000000E+00 -0.00000000000E+00 -0.45593999997E+02  0.45594000000E+02  0.51100000000E-03 0. -1.
    9900012    2    1    2    0    0  0.18580570845E+02  0.19976163177E+02 -0.33754087091E+02  0.47787273007E+02  0.20000008947E+02 0.  0.
        -12    1    1    2    0    0 -0.18580570845E+02 -0.19976163177E+02  0.33754087091E+02  0.43400726993E+02  0.00000000000E+00 0.  1.
         11    1    3    3    0    0  0.59246309189E+01  0.10803525314E+02 -0.72046814696E+01  0.14273221293E+02  0.51100000000E-03 0.  1.
        -11    1    3    3    0    0  0.10589095359E+02  0.10164006576E+02 -0.12500859544E+02  0.19279716280E+02  0.51100000000E-03 0. -1.
        -12    1    3    3    0    0  0.20668445665E+01 -0.99136871292E+00 -0.14048546077E+02  0.14234335435E+02  0.00000000000E+00 0.  1.
</event>
<event>
 7    1  0.1457722E-010  0.4778725E+02  0.7816164E-02  0.1312668E+00
        -11   -1    0    0    0    0  0.00000000000E+00  0.00000000000E+00  0.45593999997E+02  0.45594000000E+02  0.51100000000E-03 0.  1.
         11   -1    0    0    0    0 -0.00000000000E+00 -0.00000000000E+00 -0.45593999997E+02  0.45594000000E+02  0.51100000000E-03 0. -1.
    9900012    2    1    2    0    0 -0.37937105894E+02  0.11636773337E+01  0.21048687173E+02  0.47787246778E+02  0.19999889359E+02 0.  0.
        -12    1    1    2    0    0  0.37937105894E+02 -0.11636773337E+01 -0.21048687173E+02  0.43400753222E+02  0.00000000000E+00 0.  1.
         11    1    3    3    0    0 -0.48995996765E+00 -0.19110713758E+01  0.11877950382E+01  0.23028486462E+01  0.51100000000E-03 0. -1.
        -11    1    3    3    0    0 -0.30710015701E+00  0.12647808264E+01 -0.19732030158E+01  0.23637917523E+01  0.51100000000E-03 0.  1.
         12    1    3    3    0    0 -0.37140045769E+02  0.18099678831E+01  0.21834095151E+02  0.43120606379E+02  0.00000000000E+00 0. -1.
</event>
<event>
 7    1  0.1457722E-010  0.4778726E+02  0.7816164E-02  0.1312668E+00
        -11   -1    0    0    0    0  0.00000000000E+00  0.00000000000E+00  0.45593999997E+02  0.45594000000E+02  0.51100000000E-03 0.  1.
         11   -1    0    0    0    0 -0.00000000000E+00 -0.00000000000E+00 -0.45593999997E+02  0.45594000000E+02  0.51100000000E-03 0. -1.
    9900012    2    1    2    0    0 -0.62158454684E+01  0.42405002011E+02  0.68412657928E+01  0.47787264429E+02  0.19999969836E+02 0.  0.
        -12    1    1    2    0    0  0.62158454684E+01 -0.42405002011E+02 -0.68412657928E+01  0.43400735571E+02  0.00000000000E+00 0.  1.
         11    1    3    3    0    0 -0.26908280913E+01  0.22117803654E+02  0.70752147525E+01  0.23377263705E+02  0.51100000000E-03 0. -1.
        -11    1    3    3    0    0 -0.84925801441E+01  0.12900450572E+02 -0.98736945936E+00  0.15476447951E+02  0.51100000000E-03 0.  1.
         12    1    3    3    0    0  0.49675627671E+01  0.73867477862E+01  0.75342049964E+00  0.89335527732E+01  0.00000000000E+00 0. -1.
</event>
<event>
 7    1  0.1457722E-010  0.4778727E+02  0.7816164E-02  0.1312668E+00
        -11   -1    0    0    0    0  0.00000000000E+00  0.00000000000E+00  0.45593999997E+02  0.45594000000E+02  0.51100000000E-03 0. -1.
         11   -1    0    0    0    0 -0.00000000000E+00 -0.00000000000E+00 -0.45593999997E+02  0.45594000000E+02  0.51100000000E-03 0.  1.
    9900012    2    1    2    0    0 -0.40890297936E+02  0.48861136370E+00 -0.14538500253E+02  0.47787271942E+02  0.20000004094E+02 0.  0.
        -12    1    1    2    0    0  0.40890297936E+02 -0.48861136370E+00  0.14538500253E+02  0.43400728058E+02  0.00000000000E+00 0.  1.
         11    1    3    3    0    0 -0.52640947038E+01 -0.31701060537E+01  0.40018652620E+01  0.73331569790E+01  0.51100000000E-03 0. -1.
        -11    1    3    3    0    0 -0.84190291747E+01  0.47573614654E+00 -0.58607225955E+01  0.10269101554E+02  0.51100000000E-03 0.  1.
         12    1    3    3    0    0 -0.27207174057E+02  0.31829812708E+01 -0.12679642920E+02  0.30185013409E+02  0.00000000000E+00 0. -1.
</event>
<event>
 7    1  0.1457722E-010  0.4778727E+02  0.7816164E-02  0.1312668E+00
        -11   -1    0    0    0    0  0.00000000000E+00  0.00000000000E+00  0.45593999997E+02  0.45594000000E+02  0.51100000000E-03 0.  1.
         11   -1    0    0    0    0 -0.00000000000E+00 -0.00000000000E+00 -0.45593999997E+02  0.45594000000E+02  0.51100000000E-03 0. -1.
    9900012    2    1    2    0    0  0.10985148611E+02  0.12662359780E+02 -0.40032669582E+02  0.47787268680E+02  0.19999989222E+02 0.  0.
        -12    1    1    2    0    0 -0.10985148611E+02 -0.12662359780E+02  0.40032669582E+02  0.43400731320E+02  0.00000000000E+00 0.  1.
         11    1    3    3    0    0  0.13207628622E+01  0.13648880057E+02 -0.14802275866E+02  0.20177802467E+02  0.51100000000E-03 0.  1.
        -11    1    3    3    0    0  0.21134455286E+01 -0.18343581960E+01 -0.29371966290E+01  0.40569257193E+01  0.51100000000E-03 0. -1.
         12    1    3    3    0    0  0.75509402199E+01  0.84783791909E+00 -0.22293197087E+02  0.23552540494E+02  0.00000000000E+00 0. -1.
</event>
<event>
 7    1  0.1457722E-010  0.4778727E+02  0.7816164E-02  0.1312668E+00
        -11   -1    0    0    0    0  0.00000000000E+00  0.00000000000E+00  0.45593999997E+02  0.45594000000E+02  0.51100000000E-03 0.  1.
         11   -1    0    0    0    0 -0.00000000000E+00 -0.00000000000E+00 -0.45593999997E+02  0.45594000000E+02  0.51100000000E-03 0. -1.
    9900012    2    1    2    0    0  0.73169562957E+01  0.28020249715E+01 -0.42687631106E+02  0.47787273707E+02  0.20000012138E+02 0.  0.
        -12    1    1    2    0    0 -0.73169562957E+01 -0.28020249715E+01  0.42687631106E+02  0.43400726293E+02  0.00000000000E+00 0.  1.
         11    1    3    3    0    0  0.40765420776E+01  0.28765119608E+01 -0.27908402875E+02  0.28350863614E+02  0.51100000000E-03 0. -1.
        -11    1    3    3    0    0 -0.13874244032E+01 -0.50514711886E+01 -0.94310184272E+01  0.10788253634E+02  0.51100000000E-03 0.  1.
        -12    1    3    3    0    0  0.46278386212E+01  0.49769841993E+01 -0.53482098035E+01  0.86481564583E+01  0.00000000000E+00 0.  1.
</event>
<event>
 7    1  0.1457722E-010  0.4778727E+02  0.7816164E-02  0.1312668E+00
        -11   -1    0    0    0    0  0.00000000000E+00  0.00000000000E+00  0.45593999997E+02  0.45594000000E+02  0.51100000000E-03 0.  1.
         11   -1    0    0    0    0 -0.00000000000E+00 -0.00000000000E+00 -0.45593999997E+02  0.45594000000E+02  0.51100000000E-03 0. -1.
    9900012    2    1    2    0    0  0.39212247496E+02 -0.14181212930E+02  0.12038121884E+02  0.47787268067E+02  0.19999986426E+02 0.  0.
        -12    1    1    2    0    0 -0.39212247496E+02  0.14181212930E+02 -0.12038121884E+02  0.43400731933E+02  0.00000000000E+00 0.  1.
         11    1    3    3    0    0  0.87190906626E+01 -0.73899551315E+01  0.20944377978E+01  0.11619838587E+02  0.51100000000E-03 0. -1.
        -11    1    3    3    0    0  0.13772330554E+02 -0.10889893426E+02  0.50931889590E+01  0.18281341355E+02  0.51100000000E-03 0.  1.
        -12    1    3    3    0    0  0.16720826279E+02  0.40986356273E+01  0.48504951267E+01  0.17886088126E+02  0.00000000000E+00 0.  1.
</event>
<event>
 7    1  0.1457722E-010  0.4778726E+02  0.7816164E-02  0.1312668E+00
        -11   -1    0    0    0    0  0.00000000000E+00  0.00000000000E+00  0.45593999997E+02  0.45594000000E+02  0.51100000000E-03 0.  1.
         11   -1    0    0    0    0 -0.00000000000E+00 -0.00000000000E+00 -0.45593999997E+02  0.45594000000E+02  0.51100000000E-03 0. -1.
    9900012    2    1    2    0    0 -0.34301480496E+02  0.16224766950E+02  0.21066320745E+02  0.47787256959E+02  0.19999935779E+02 0.  0.
        -12    1    1    2    0    0  0.34301480496E+02 -0.16224766950E+02 -0.21066320745E+02  0.43400743041E+02  0.00000000000E+00 0.  1.
         11    1    3    3    0    0 -0.49439428855E+01  0.34320190832E+01  0.10306390980E+02  0.11934949582E+02  0.51100000000E-03 0. -1.
        -11    1    3    3    0    0 -0.57546443260E+00 -0.18117117982E+01  0.90924532113E+00  0.21071749496E+01  0.51100000000E-03 0.  1.
         12    1    3    3    0    0 -0.28782073178E+02  0.14604459665E+02  0.98506844436E+01  0.33745132427E+02  0.00000000000E+00 0. -1.
</event>
<event>
 7    1  0.1457722E-010  0.4778727E+02  0.7816164E-02  0.1312668E+00
        -11   -1    0    0    0    0  0.00000000000E+00  0.00000000000E+00  0.45593999997E+02  0.45594000000E+02  0.51100000000E-03 0.  1.
         11   -1    0    0    0    0 -0.00000000000E+00 -0.00000000000E+00 -0.45593999997E+02  0.45594000000E+02  0.51100000000E-03 0. -1.
    9900012    2    1    2    0    0 -0.15645560241E+02 -0.93272466337E+00 -0.40471838440E+02  0.47787271466E+02  0.20000001923E+02 0.  0.
        -12    1    1    2    0    0  0.15645560241E+02  0.93272466337E+00  0.40471838440E+02  0.43400728534E+02  0.00000000000E+00 0.  1.
         11    1    3    3    0    0 -0.10312169968E+02  0.42867800359E+01 -0.23363576573E+02  0.25895444446E+02  0.51100000000E-03 0. -1.
        -11    1    3    3    0    0 -0.11083607456E+01  0.30827197345E+01 -0.88718636303E+01  0.94573563451E+01  0.51100000000E-03 0.  1.
        -12    1    3    3    0    0 -0.42250295268E+01 -0.83022244337E+01 -0.82363982372E+01  0.12434470675E+02  0.00000000000E+00 0.  1.
</event>
<event>
 7    1  0.2274107E-010  0.4778727E+02  0.7816164E-02  0.1312668E+00
        -11   -1    0    0    0    0  0.00000000000E+00  0.00000000000E+00  0.45593999997E+02  0.45594000000E+02  0.51100000000E-03 0. -1.
         11   -1    0    0    0    0 -0.00000000000E+00 -0.00000000000E+00 -0.45593999997E+02  0.45594000000E+02  0.51100000000E-03 0.  1.
    9900012    2    1    2    0    0 -0.23179003780E+02 -0.45739899478E+01  0.36406533978E+02  0.47787270553E+02  0.19999997759E+02 0.  0.
        -12    1    1    2    0    0  0.23179003780E+02  0.45739899478E+01 -0.36406533978E+02  0.43400729447E+02  0.00000000000E+00 0.  1.
         11    1    3    3    0    0 -0.69387688982E+01  0.25287188277E+01  0.18755030346E+02  0.20156688624E+02  0.51100000000E-03 0. -1.
        -11    1    3    3    0    0 -0.33457761879E+01  0.45907268453E+00 -0.11890548848E+01  0.35803376670E+01  0.51100000000E-03 0.  1.
         12    1    3    3    0    0 -0.12894458694E+02 -0.75617814601E+01  0.18840558516E+02  0.24050244262E+02  0.00000000000E+00 0. -1.
</event>
<event>
 7    1  0.1457722E-010  0.4778727E+02  0.7816164E-02  0.1312668E+00
        -11   -1    0    0    0    0  0.00000000000E+00  0.00000000000E+00  0.45593999997E+02  0.45594000000E+02  0.51100000000E-03 0.  1.
         11   -1    0    0    0    0 -0.00000000000E+00 -0.00000000000E+00 -0.45593999997E+02  0.45594000000E+02  0.51100000000E-03 0. -1.
    9900012    2    1    2    0    0 -0.13754999268E+02  0.13257652627E+02 -0.38969962896E+02  0.47787269982E+02  0.19999995154E+02 0.  0.
        -12    1    1    2    0    0  0.13754999268E+02 -0.13257652627E+02  0.38969962896E+02  0.43400730018E+02  0.00000000000E+00 0.  1.
         11    1    3    3    0    0  0.17347060337E+01  0.32580122975E+01 -0.59401269944E+01  0.69934939854E+01  0.51100000000E-03 0. -1.
        -11    1    3    3    0    0  0.95261600353E+00 -0.25247523493E+01 -0.14837434178E+01  0.30795042566E+01  0.51100000000E-03 0.  1.
         12    1    3    3    0    0 -0.16442321305E+02  0.12524392679E+02 -0.31546092483E+02  0.37714271740E+02  0.00000000000E+00 0. -1.
</event>
<event>
 7    1  0.1457722E-010  0.4778728E+02  0.7816164E-02  0.1312668E+00
        -11   -1    0    0    0    0  0.00000000000E+00  0.00000000000E+00  0.45593999997E+02  0.45594000000E+02  0.51100000000E-03 0. -1.
         11   -1    0    0    0    0 -0.00000000000E+00 -0.00000000000E+00 -0.45593999997E+02  0.45594000000E+02  0.51100000000E-03 0.  1.
    9900012    2    1    2    0    0 -0.19315209270E+02 -0.15023812962E+01  0.38836688798E+02  0.47787275864E+02  0.20000021974E+02 0.  0.
        -12    1    1    2    0    0  0.19315209270E+02  0.15023812962E+01 -0.38836688798E+02  0.43400724136E+02  0.00000000000E+00 0.  1.
         11    1    3    3    0    0 -0.13111296487E+02 -0.78399869289E+01  0.17426977944E+02  0.23174793443E+02  0.51100000000E-03 0.  1.
        -11    1    3    3    0    0 -0.62069681217E+01  0.45259962445E+01  0.80375046988E+01  0.11118119324E+02  0.51100000000E-03 0. -1.
        -12    1    3    3    0    0  0.30553379078E-02  0.18116093882E+01  0.13372206155E+02  0.13494363096E+02  0.00000000000E+00 0.  1.
</event>
<event>
 7    1  0.1457722E-010  0.4778727E+02  0.7816164E-02  0.1312668E+00
        -11   -1    0    0    0    0  0.00000000000E+00  0.00000000000E+00  0.45593999997E+02  0.45594000000E+02  0.51100000000E-03 0. -1.
         11   -1    0    0    0    0 -0.00000000000E+00 -0.00000000000E+00 -0.45593999997E+02  0.45594000000E+02  0.51100000000E-03 0.  1.
    9900012    2    1    2    0    0 -0.37769675036E+02  0.43094964313E+01  0.20940467603E+02  0.47787270798E+02  0.19999998875E+02 0.  0.
        -12    1    1    2    0    0  0.37769675036E+02 -0.43094964313E+01 -0.20940467603E+02  0.43400729202E+02  0.00000000000E+00 0.  1.
         11    1    3    3    0    0 -0.96841365637E+01  0.28051617791E+01  0.14987242303E+02  0.18062914098E+02  0.51100000000E-03 0. -1.
        -11    1    3    3    0    0 -0.59069174118E+01 -0.27336477701E+01  0.74243494260E+00  0.65510085747E+01  0.51100000000E-03 0.  1.
         12    1    3    3    0    0 -0.22178621061E+02  0.42379824223E+01  0.52107903574E+01  0.23173348125E+02  0.00000000000E+00 0. -1.
</event>
<event>
 7    1  0.1457722E-010  0.4778727E+02  0.7816164E-02  0.1312668E+00
        -11   -1    0    0    0    0  0.00000000000E+00  0.00000000000E+00  0.45593999997E+02  0.45594000000E+02  0.51100000000E-03 0. -1.
         11   -1    0    0    0    0 -0.00000000000E+00 -0.00000000000E+00 -0.45593999997E+02  0.45594000000E+02  0.51100000000E-03 0.  1.
    9900012    2    1    2    0    0  0.19964513126E+02 -0.38381154576E+02 -0.34538000900E+01  0.47787267909E+02  0.19999985706E+02 0.  0.
        -12    1    1    2    0    0 -0.19964513126E+02  0.38381154576E+02  0.34538000900E+01  0.43400732091E+02  0.00000000000E+00 0.  1.
         11    1    3    3    0    0  0.48249920325E+01 -0.18429814478E+02  0.56121751707E-01  0.19051030411E+02  0.51100000000E-03 0. -1.
        -11    1    3    3    0    0  0.64981674031E+01 -0.75957740591E+01 -0.82181750849E+01  0.12940647787E+02  0.51100000000E-03 0.  1.
         12    1    3    3    0    0  0.86413536899E+01 -0.12355566039E+02  0.47082532432E+01  0.15795589712E+02  0.00000000000E+00 0. -1.
</event>
<event>
 7    1  0.1457722E-010  0.4778727E+02  0.7816164E-02  0.1312668E+00
        -11   -1    0    0    0    0  0.00000000000E+00  0.00000000000E+00  0.45593999997E+02  0.45594000000E+02  0.51100000000E-03 0.  1.
         11   -1    0    0    0    0 -0.00000000000E+00 -0.00000000000E+00 -0.45593999997E+02  0.45594000000E+02  0.51100000000E-03 0. -1.
    9900012    2    1    2    0    0  0.28576866407E+02  0.32030451370E+02 -0.64059607145E+01  0.47787269115E+02  0.19999991204E+02 0.  0.
        -12    1    1    2    0    0 -0.28576866407E+02 -0.32030451370E+02  0.64059607145E+01  0.43400730885E+02  0.00000000000E+00 0.  1.
         11    1    3    3    0    0  0.26151803191E+02  0.17886579208E+02 -0.86527754957E+01  0.32843828187E+02  0.51100000000E-03 0. -1.
        -11    1    3    3    0    0  0.10395177952E+01  0.41165005608E+01  0.22832604055E+01  0.48207315269E+01  0.51100000000E-03 0.  1.
        -12    1    3    3    0    0  0.13855454209E+01  0.10027371602E+02 -0.36445624308E-01  0.10122709402E+02  0.00000000000E+00 0.  1.
</event>
<event>
 7    1  0.1457722E-010  0.4778727E+02  0.7816164E-02  0.1312668E+00
        -11   -1    0    0    0    0  0.00000000000E+00  0.00000000000E+00  0.45593999997E+02  0.45594000000E+02  0.51100000000E-03 0. -1.
         11   -1    0    0    0    0 -0.00000000000E+00 -0.00000000000E+00 -0.45593999997E+02  0.45594000000E+02  0.51100000000E-03 0.  1.
    9900012    2    1    2    0    0  0.30093126955E+02 -0.28666475756E+02 -0.12500407588E+02  0.47787270605E+02  0.19999997995E+02 0.  0.
        -12    1    1    2    0    0 -0.30093126955E+02  0.28666475756E+02  0.12500407588E+02  0.43400729395E+02  0.00000000000E+00 0.  1.
         11    1    3    3    0    0 -0.35473545031E+00 -0.52662735307E+01  0.35012953077E+00  0.52898076609E+01  0.51100000000E-03 0. -1.
        -11    1    3    3    0    0 -0.11061911470E+01 -0.22904167770E+01 -0.84204199298E+00  0.26793101435E+01  0.51100000000E-03 0.  1.
         12    1    3    3    0    0  0.31554053552E+02 -0.21109785448E+02 -0.12008495126E+02  0.39818152800E+02  0.00000000000E+00 0. -1.
</event>
<event>
 7    1  0.1457722E-010  0.4778728E+02  0.7816164E-02  0.1312668E+00
        -11   -1    0    0    0    0  0.00000000000E+00  0.00000000000E+00  0.45593999997E+02  0.45594000000E+02  0.51100000000E-03 0. -1.
         11   -1    0    0    0    0 -0.00000000000E+00 -0.00000000000E+00 -0.45593999997E+02  0.45594000000E+02  0.51100000000E-03 0.  1.
    9900012    2    1    2    0    0 -0.20274338054E+02  0.19924830645E+02  0.32795959895E+02  0.47787278287E+02  0.20000033022E+02 0.  0.
        -12    1    1    2    0    0  0.20274338054E+02 -0.19924830645E+02 -0.32795959895E+02  0.43400721713E+02  0.00000000000E+00 0.  1.
         11    1    3    3    0    0 -0.16127299050E+02  0.14654352101E+02  0.20439225801E+02  0.29876441584E+02  0.51100000000E-03 0. -1.
        -11    1    3    3    0    0 -0.55746175611E+01 -0.10426829422E+01  0.89524051578E+01  0.10597599117E+02  0.51100000000E-03 0.  1.
         12    1    3    3    0    0  0.14275785569E+01  0.63131614857E+01  0.34043289369E+01  0.73132375861E+01  0.00000000000E+00 0. -1.
</event>
<event>
 7    1  0.1457722E-010  0.4778727E+02  0.7816164E-02  0.1312668E+00
        -11   -1    0    0    0    0  0.00000000000E+00  0.00000000000E+00  0.45593999997E+02  0.45594000000E+02  0.51100000000E-03 0.  1.
         11   -1    0    0    0    0 -0.00000000000E+00 -0.00000000000E+00 -0.45593999997E+02  0.45594000000E+02  0.51100000000E-03 0. -1.
    9900012    2    1    2    0    0 -0.18426291861E+01  0.26249062517E+02 -0.34513979465E+02  0.47787270238E+02  0.19999996325E+02 0.  0.
        -12    1    1    2    0    0  0.18426291861E+01 -0.26249062517E+02  0.34513979465E+02  0.43400729762E+02  0.00000000000E+00 0.  1.
         11    1    3    3    0    0 -0.80499641348E+01  0.45159512216E+01 -0.10395521163E+02  0.13901891904E+02  0.51100000000E-03 0. -1.
        -11    1    3    3    0    0  0.39546082869E+01  0.34773602513E+01 -0.39089977431E+01  0.65582943390E+01  0.51100000000E-03 0.  1.
         12    1    3    3    0    0  0.22527266619E+01  0.18255751044E+02 -0.20209460559E+02  0.27327083995E+02  0.00000000000E+00 0. -1.
</event>
<event>
 7    1  0.1457722E-010  0.4778727E+02  0.7816164E-02  0.1312668E+00
        -11   -1    0    0    0    0  0.00000000000E+00  0.00000000000E+00  0.45593999997E+02  0.45594000000E+02  0.51100000000E-03 0.  1.
         11   -1    0    0    0    0 -0.00000000000E+00 -0.00000000000E+00 -0.45593999997E+02  0.45594000000E+02  0.51100000000E-03 0. -1.
    9900012    2    1    2    0    0  0.16234359851E+02 -0.26719479567E+01 -0.40161297241E+02  0.47787267958E+02  0.19999985928E+02 0.  0.
        -12    1    1    2    0    0 -0.16234359851E+02  0.26719479567E+01  0.40161297241E+02  0.43400732042E+02  0.00000000000E+00 0.  1.
         11    1    3    3    0    0  0.10758463777E+02 -0.17582831119E+01 -0.23460476134E+02  0.25869480919E+02  0.51100000000E-03 0. -1.
        -11    1    3    3    0    0  0.94135881634E+01  0.13183206606E+01 -0.96984181447E+01  0.13579872100E+02  0.51100000000E-03 0.  1.
         12    1    3    3    0    0 -0.39376920887E+01 -0.22319855054E+01 -0.70024029625E+01  0.83379149391E+01  0.00000000000E+00 0. -1.
</event>
<event>
 7    1  0.1457722E-010  0.4778727E+02  0.7816164E-02  0.1312668E+00
        -11   -1    0    0    0    0  0.00000000000E+00  0.00000000000E+00  0.45593999997E+02  0.45594000000E+02  0.51100000000E-03 0.  1.
         11   -1    0    0    0    0 -0.00000000000E+00 -0.00000000000E+00 -0.45593999997E+02  0.45594000000E+02  0.51100000000E-03 0. -1.
    9900012    2    1    2    0    0 -0.18207457948E+02  0.88160497579E+01 -0.38397774610E+02  0.47787270129E+02  0.19999995828E+02 0.  0.
        -12    1    1    2    0    0  0.18207457948E+02 -0.88160497579E+01  0.38397774610E+02  0.43400729871E+02  0.00000000000E+00 0.  1.
         11    1    3    3    0    0 -0.14775102277E+02  0.52925920648E+01 -0.25496129336E+02  0.29939401955E+02  0.51100000000E-03 0. -1.
        -11    1    3    3    0    0 -0.44406524698E+01 -0.85520938347E+00 -0.37271027748E+00  0.45375864354E+01  0.51100000000E-03 0.  1.
         12    1    3    3    0    0  0.10082967986E+01  0.43786670765E+01 -0.12528934997E+02  0.13310281739E+02  0.00000000000E+00 0. -1.
</event>
<event>
 7    1  0.1457722E-010  0.4778727E+02  0.7816164E-02  0.1312668E+00
        -11   -1    0    0    0    0  0.00000000000E+00  0.00000000000E+00  0.45593999997E+02  0.45594000000E+02  0.51100000000E-03 0.  1.
         11   -1    0    0    0    0 -0.00000000000E+00 -0.00000000000E+00 -0.45593999997E+02  0.45594000000E+02  0.51100000000E-03 0. -1.
    9900012    2    1    2    0    0 -0.26269368285E+02 -0.76293969717E+00 -0.34539273265E+02  0.47787272071E+02  0.20000004680E+02 0.  0.
        -12    1    1    2    0    0  0.26269368285E+02  0.76293969717E+00  0.34539273265E+02  0.43400727929E+02  0.00000000000E+00 0.  1.
         11    1    3    3    0    0 -0.59929242661E+01  0.39573253431E+01 -0.19398200831E+02  0.20684916265E+02  0.51100000000E-03 0. -1.
        -11    1    3    3    0    0 -0.24172067219E+01 -0.70275916510E+00  0.98856828024E+00  0.27044456523E+01  0.51100000000E-03 0.  1.
        -12    1    3    3    0    0 -0.17859237297E+02 -0.40175058752E+01 -0.16129640714E+02  0.24397910154E+02  0.00000000000E+00 0.  1.
</event>
<event>
 7    1  0.1457722E-010  0.4778727E+02  0.7816164E-02  0.1312668E+00
        -11   -1    0    0    0    0  0.00000000000E+00  0.00000000000E+00  0.45593999997E+02  0.45594000000E+02  0.51100000000E-03 0. -1.
         11   -1    0    0    0    0 -0.00000000000E+00 -0.00000000000E+00 -0.45593999997E+02  0.45594000000E+02  0.51100000000E-03 0.  1.
    9900012    2    1    2    0    0  0.99884182670E+01  0.85783725304E+01  0.41355366003E+02  0.47787271066E+02  0.20000000099E+02 0.  0.
        -12    1    1    2    0    0 -0.99884182670E+01 -0.85783725304E+01 -0.41355366003E+02  0.43400728934E+02  0.00000000000E+00 0.  1.
         11    1    3    3    0    0 -0.29577253117E+01  0.45551911065E+01  0.10003009011E+02  0.11382358919E+02  0.51100000000E-03 0. -1.
        -11    1    3    3    0    0 -0.15019690346E+01 -0.17108927267E+00 -0.12519813322E+00  0.15168577236E+01  0.51100000000E-03 0.  1.
        -12    1    3    3    0    0  0.14448112613E+02  0.41942706966E+01  0.31477555125E+02  0.34888054423E+02  0.00000000000E+00 0.  1.
</event>
<event>
 7    1  0.1457722E-010  0.4778727E+02  0.7816164E-02  0.1312668E+00
        -11   -1    0    0    0    0  0.00000000000E+00  0.00000000000E+00  0.45593999997E+02  0.45594000000E+02  0.51100000000E-03 0.  1.
         11   -1    0    0    0    0 -0.00000000000E+00 -0.00000000000E+00 -0.45593999997E+02  0.45594000000E+02  0.51100000000E-03 0. -1.
    9900012    2    1    2    0    0 -0.27571328189E+02 -0.26780865525E+02 -0.20155153761E+02  0.47787272823E+02  0.20000008107E+02 0.  0.
        -12    1    1    2    0    0  0.27571328189E+02  0.26780865525E+02  0.20155153761E+02  0.43400727177E+02  0.00000000000E+00 0.  1.
         11    1    3    3    0    0 -0.92549317598E-01  0.33309740002E-01  0.79286018088E+00  0.79893832209E+00  0.51100000000E-03 0. -1.
        -11    1    3    3    0    0 -0.34734384160E+01  0.20500432926E+01 -0.75161975749E-01  0.40339932468E+01  0.51100000000E-03 0.  1.
         12    1    3    3    0    0 -0.24005340456E+02 -0.28864218558E+02 -0.20872851966E+02  0.42954341254E+02  0.00000000000E+00 0. -1.
</event>
<event>
 7    1  0.1457722E-010  0.4778726E+02  0.7816164E-02  0.1312668E+00
        -11   -1    0    0    0    0  0.00000000000E+00  0.00000000000E+00  0.45593999997E+02  0.45594000000E+02  0.51100000000E-03 0. -1.
         11   -1    0    0    0    0 -0.00000000000E+00 -0.00000000000E+00 -0.45593999997E+02  0.45594000000E+02  0.51100000000E-03 0.  1.
    9900012    2    1    2    0    0  0.10119487313E+02  0.23211467728E+02  0.35248369661E+02  0.47787264738E+02  0.19999971244E+02 0.  0.
        -12    1    1    2    0    0 -0.10119487313E+02 -0.23211467728E+02 -0.35248369661E+02  0.43400735262E+02  0.00000000000E+00 0.  1.
         11    1    3    3    0    0 -0.20718069760E+01  0.42211729349E+01  0.59417366823E+01  0.75772633685E+01  0.51100000000E-03 0. -1.
        -11    1    3    3    0    0 -0.89756353731E+00 -0.86746394808E+00 -0.10604465938E+01  0.16378831595E+01  0.51100000000E-03 0.  1.
         12    1    3    3    0    0  0.13088857826E+02  0.19857758741E+02  0.30367079572E+02  0.38572118210E+02  0.00000000000E+00 0. -1.
</event>
<event>
 7    1  0.1457722E-010  0.4778727E+02  0.7816164E-02  0.1312668E+00
        -11   -1    0    0    0    0  0.00000000000E+00  0.00000000000E+00  0.45593999997E+02  0.45594000000E+02  0.51100000000E-03 0. -1.
         11   -1    0    0    0    0 -0.00000000000E+00 -0.00000000000E+00 -0.45593999997E+02  0.45594000000E+02  0.51100000000E-03 0.  1.
    9900012    2    1    2    0    0  0.11914982359E+02 -0.40705666019E+02 -0.92035526890E+01  0.47787269214E+02  0.19999991654E+02 0.  0.
        -12    1    1    2    0    0 -0.11914982359E+02  0.40705666019E+02  0.92035526890E+01  0.43400730786E+02  0.00000000000E+00 0.  1.
         11    1    3    3    0    0  0.31680047641E+01 -0.14548908319E+02  0.19735327853E+01  0.15020047250E+02  0.51100000000E-03 0. -1.
        -11    1    3    3    0    0  0.73488129899E+01 -0.36209324297E+01 -0.36243661033E+01  0.89583611187E+01  0.51100000000E-03 0.  1.
         12    1    3    3    0    0  0.13981646050E+01 -0.22535825270E+02 -0.75527193709E+01  0.23808860845E+02  0.00000000000E+00 0. -1.
</event>
<event>
 7    1  0.1810614E-010  0.4778726E+02  0.7816164E-02  0.1312668E+00
        -11   -1    0    0    0    0  0.00000000000E+00  0.00000000000E+00  0.45593999997E+02  0.45594000000E+02  0.51100000000E-03 0.  1.
         11   -1    0    0    0    0 -0.00000000000E+00 -0.00000000000E+00 -0.45593999997E+02  0.45594000000E+02  0.51100000000E-03 0. -1.
    9900012    2    1    2    0    0 -0.43370897219E+02 -0.14327043905E+01  0.73279254331E+00  0.47787258620E+02  0.19999943352E+02 0.  0.
        -12    1    1    2    0    0  0.43370897219E+02  0.14327043905E+01 -0.73279254331E+00  0.43400741380E+02  0.00000000000E+00 0.  1.
         11    1    3    3    0    0 -0.26906924726E+02  0.12686231033E+01 -0.48099041502E+01  0.27362879618E+02  0.51100000000E-03 0. -1.
        -11    1    3    3    0    0 -0.68061885819E+00  0.28423278766E+01  0.63690358179E+00  0.29912733445E+01  0.51100000000E-03 0.  1.
         12    1    3    3    0    0 -0.15783353634E+02 -0.55436553704E+01  0.49057931117E+01  0.17433105658E+02  0.00000000000E+00 0. -1.
</event>
<event>
 7    1  0.1457722E-010  0.4778728E+02  0.7816164E-02  0.1312668E+00
        -11   -1    0    0    0    0  0.00000000000E+00  0.00000000000E+00  0.45593999997E+02  0.45594000000E+02  0.51100000000E-03 0. -1.
         11   -1    0    0    0    0 -0.00000000000E+00 -0.00000000000E+00 -0.45593999997E+02  0.45594000000E+02  0.51100000000E-03 0.  1.
    9900012    2    1    2    0    0 -0.20168042193E+02 -0.35376673613E+02  0.15012100891E+02  0.47787284165E+02  0.20000059822E+02 0.  0.
        -12    1    1    2    0    0  0.20168042193E+02  0.35376673613E+02 -0.15012100891E+02  0.43400715835E+02  0.00000000000E+00 0.  1.
         11    1    3    3    0    0 -0.45564347353E+01 -0.13771145495E+02  0.49822843050E+01  0.15337167369E+02  0.51100000000E-03 0. -1.
        -11    1    3    3    0    0 -0.69678891151E+01 -0.13579888493E+02 -0.22442129722E+01  0.15427292125E+02  0.51100000000E-03 0.  1.
         12    1    3    3    0    0 -0.86437183429E+01 -0.80256396250E+01  0.12274029558E+02  0.17022824671E+02  0.00000000000E+00 0. -1.
</event>
<event>
 7    1  0.1457722E-010  0.4778727E+02  0.7816164E-02  0.1312668E+00
        -11   -1    0    0    0    0  0.00000000000E+00  0.00000000000E+00  0.45593999997E+02  0.45594000000E+02  0.51100000000E-03 0.  1.
         11   -1    0    0    0    0 -0.00000000000E+00 -0.00000000000E+00 -0.45593999997E+02  0.45594000000E+02  0.51100000000E-03 0. -1.
    9900012    2    1    2    0    0 -0.20100153553E+02 -0.16899209066E+02 -0.34554652112E+02  0.47787269332E+02  0.19999992192E+02 0.  0.
        -12    1    1    2    0    0  0.20100153553E+02  0.16899209066E+02  0.34554652112E+02  0.43400730668E+02  0.00000000000E+00 0.  1.
         11    1    3    3    0    0 -0.98588150697E+01 -0.54191392871E+01 -0.21901943972E+02  0.24622316203E+02  0.51100000000E-03 0. -1.
        -11    1    3    3    0    0 -0.90582651680E+01 -0.29596786951E+01 -0.10729591714E+02  0.14350470531E+02  0.51100000000E-03 0.  1.
        -12    1    3    3    0    0 -0.11830733153E+01 -0.85203910840E+01 -0.19231164264E+01  0.88144825987E+01  0.00000000000E+00 0.  1.
</event>
<event>
 7    1  0.1457722E-010  0.4778727E+02  0.7816164E-02  0.1312668E+00
        -11   -1    0    0    0    0  0.00000000000E+00  0.00000000000E+00  0.45593999997E+02  0.45594000000E+02  0.51100000000E-03 0.  1.
         11   -1    0    0    0    0 -0.00000000000E+00 -0.00000000000E+00 -0.45593999997E+02  0.45594000000E+02  0.51100000000E-03 0. -1.
    9900012    2    1    2    0    0 -0.23266352840E+02  0.36498071761E+02 -0.31923259324E+01  0.47787270033E+02  0.19999995390E+02 0.  0.
        -12    1    1    2    0    0  0.23266352840E+02 -0.36498071761E+02  0.31923259324E+01  0.43400729967E+02  0.00000000000E+00 0.  1.
         11    1    3    3    0    0 -0.10811900899E+02  0.74326942352E+01 -0.56994943570E+01  0.14304767765E+02  0.51100000000E-03 0.  1.
        -11    1    3    3    0    0 -0.63082929815E+01  0.20443414921E+02 -0.29053720826E+01  0.21590946278E+02  0.51100000000E-03 0. -1.
        -12    1    3    3    0    0 -0.61461589596E+01  0.86219626050E+01  0.54125405072E+01  0.11891555990E+02  0.00000000000E+00 0.  1.
</event>
<event>
 7    1  0.1457722E-010  0.4778727E+02  0.7816164E-02  0.1312668E+00
        -11   -1    0    0    0    0  0.00000000000E+00  0.00000000000E+00  0.45593999997E+02  0.45594000000E+02  0.51100000000E-03 0. -1.
         11   -1    0    0    0    0 -0.00000000000E+00 -0.00000000000E+00 -0.45593999997E+02  0.45594000000E+02  0.51100000000E-03 0.  1.
    9900012    2    1    2    0    0 -0.38553872430E+02 -0.12182873687E+02  0.15773385836E+02  0.47787271995E+02  0.20000004334E+02 0.  0.
        -12    1    1    2    0    0  0.38553872430E+02  0.12182873687E+02 -0.15773385836E+02  0.43400728005E+02  0.00000000000E+00 0.  1.
         11    1    3    3    0    0 -0.20497742637E+02 -0.15321146736E+02  0.62559430393E+01  0.26344483560E+02  0.51100000000E-03 0. -1.
        -11    1    3    3    0    0 -0.62836380595E+00  0.12598623631E+01  0.18134652066E+01  0.22958115260E+01  0.51100000000E-03 0.  1.
         12    1    3    3    0    0 -0.17427765988E+02  0.18784106861E+01  0.77039775905E+01  0.19146976909E+02  0.00000000000E+00 0. -1.
</event>
<event>
 7    1  0.1457722E-010  0.4778727E+02  0.7816164E-02  0.1312668E+00
        -11   -1    0    0    0    0  0.00000000000E+00  0.00000000000E+00  0.45593999997E+02  0.45594000000E+02  0.51100000000E-03 0. -1.
         11   -1    0    0    0    0 -0.00000000000E+00 -0.00000000000E+00 -0.45593999997E+02  0.45594000000E+02  0.51100000000E-03 0.  1.
    9900012    2    1    2    0    0 -0.37484642575E+02  0.72067644832E+01  0.20654003315E+02  0.47787265718E+02  0.19999975713E+02 0.  0.
        -12    1    1    2    0    0  0.37484642575E+02 -0.72067644832E+01 -0.20654003315E+02  0.43400734282E+02  0.00000000000E+00 0.  1.
         11    1    3    3    0    0 -0.24123390741E+02 -0.26040693509E+00  0.90347630945E+01  0.25761070185E+02  0.51100000000E-03 0. -1.
        -11    1    3    3    0    0 -0.80016893136E-01 -0.22119124795E+01  0.20052813660E+01  0.29866558453E+01  0.51100000000E-03 0.  1.
         12    1    3    3    0    0 -0.13281234941E+02  0.96790838978E+01  0.96139588546E+01  0.19039539687E+02  0.00000000000E+00 0. -1.
</event>
<event>
 7    1  0.1457722E-010  0.4778727E+02  0.7816164E-02  0.1312668E+00
        -11   -1    0    0    0    0  0.00000000000E+00  0.00000000000E+00  0.45593999997E+02  0.45594000000E+02  0.51100000000E-03 0.  1.
         11   -1    0    0    0    0 -0.00000000000E+00 -0.00000000000E+00 -0.45593999997E+02  0.45594000000E+02  0.51100000000E-03 0. -1.
    9900012    2    1    2    0    0 -0.19668472075E+02 -0.57084162651E+01 -0.38264720140E+02  0.47787267086E+02  0.19999981954E+02 0.  0.
        -12    1    1    2    0    0  0.19668472075E+02  0.57084162651E+01  0.38264720140E+02  0.43400732914E+02  0.00000000000E+00 0.  1.
         11    1    3    3    0    0 -0.18598700734E+02 -0.16099227471E+01 -0.21397816679E+02  0.28396656126E+02  0.51100000000E-03 0. -1.
        -11    1    3    3    0    0 -0.74842588620E+00  0.61585416121E+00  0.70238413252E+00  0.11969801108E+01  0.51100000000E-03 0.  1.
        -12    1    3    3    0    0 -0.32134545505E+00 -0.47143476793E+01 -0.17569287594E+02  0.18193630850E+02  0.00000000000E+00 0.  1.
</event>
<event>
 7    1  0.1457722E-010  0.4778726E+02  0.7816164E-02  0.1312668E+00
        -11   -1    0    0    0    0  0.00000000000E+00  0.00000000000E+00  0.45593999997E+02  0.45594000000E+02  0.51100000000E-03 0.  1.
         11   -1    0    0    0    0 -0.00000000000E+00 -0.00000000000E+00 -0.45593999997E+02  0.45594000000E+02  0.51100000000E-03 0. -1.
    9900012    2    1    2    0    0 -0.22146250865E+02  0.35381718392E+02 -0.11887028482E+02  0.47787264178E+02  0.19999968692E+02 0.  0.
        -12    1    1    2    0    0  0.22146250865E+02 -0.35381718392E+02  0.11887028482E+02  0.43400735822E+02  0.00000000000E+00 0.  1.
         11    1    3    3    0    0 -0.86893611302E+01  0.14449378657E+02 -0.21957233706E+01  0.17003256800E+02  0.51100000000E-03 0. -1.
        -11    1    3    3    0    0  0.28325857018E+01  0.67737670839E+01 -0.44091407300E+01  0.85643437871E+01  0.51100000000E-03 0.  1.
        -12    1    3    3    0    0 -0.16289475437E+02  0.14158572651E+02 -0.52821643819E+01  0.22219663591E+02  0.00000000000E+00 0.  1.
</event>
<event>
 7    1  0.1457722E-010  0.4778724E+02  0.7816164E-02  0.1312668E+00
        -11   -1    0    0    0    0  0.00000000000E+00  0.00000000000E+00  0.45593999997E+02  0.45594000000E+02  0.51100000000E-03 0.  1.
         11   -1    0    0    0    0 -0.00000000000E+00 -0.00000000000E+00 -0.45593999997E+02  0.45594000000E+02  0.51100000000E-03 0. -1.
    9900012    2    1    2    0    0  0.25530643644E+02  0.12122721058E+02 -0.32937087634E+02  0.47787241107E+02  0.19999863501E+02 0.  0.
        -12    1    1    2    0    0 -0.25530643644E+02 -0.12122721058E+02  0.32937087634E+02  0.43400758893E+02  0.00000000000E+00 0.  1.
         11    1    3    3    0    0 -0.16567242761E+01  0.28051567968E+01 -0.29537764276E+01  0.43975487976E+01  0.51100000000E-03 0.  1.
        -11    1    3    3    0    0  0.14341138287E+02  0.48969022496E+01 -0.24354275484E+02  0.28684118142E+02  0.51100000000E-03 0. -1.
        -12    1    3    3    0    0  0.12846229633E+02  0.44206620121E+01 -0.56290357226E+01  0.14705574167E+02  0.00000000000E+00 0.  1.
</event>
<event>
 7    1  0.1457722E-010  0.4778727E+02  0.7816164E-02  0.1312668E+00
        -11   -1    0    0    0    0  0.00000000000E+00  0.00000000000E+00  0.45593999997E+02  0.45594000000E+02  0.51100000000E-03 0.  1.
         11   -1    0    0    0    0 -0.00000000000E+00 -0.00000000000E+00 -0.45593999997E+02  0.45594000000E+02  0.51100000000E-03 0. -1.
    9900012    2    1    2    0    0  0.11972979083E+02  0.40870846702E+02 -0.83573401574E+01  0.47787268753E+02  0.19999989553E+02 0.  0.
        -12    1    1    2    0    0 -0.11972979083E+02 -0.40870846702E+02  0.83573401574E+01  0.43400731247E+02  0.00000000000E+00 0.  1.
         11    1    3    3    0    0  0.39982085612E+01  0.16244242481E+02  0.44195147538E+01  0.17302982298E+02  0.51100000000E-03 0. -1.
        -11    1    3    3    0    0  0.44648338347E+00  0.81777479840E+01  0.24742521245E+00  0.81936639544E+01  0.51100000000E-03 0.  1.
        -12    1    3    3    0    0  0.75282871380E+01  0.16448856237E+02 -0.13024280124E+02  0.22290622501E+02  0.00000000000E+00 0.  1.
</event>
<event>
 7    1  0.1457722E-010  0.4778727E+02  0.7816164E-02  0.1312668E+00
        -11   -1    0    0    0    0  0.00000000000E+00  0.00000000000E+00  0.45593999997E+02  0.45594000000E+02  0.51100000000E-03 0. -1.
         11   -1    0    0    0    0 -0.00000000000E+00 -0.00000000000E+00 -0.45593999997E+02  0.45594000000E+02  0.51100000000E-03 0.  1.
    9900012    2    1    2    0    0  0.27985635380E+02  0.28431653818E+02  0.17090017115E+02  0.47787269460E+02  0.19999992774E+02 0.  0.
        -12    1    1    2    0    0 -0.27985635380E+02 -0.28431653818E+02 -0.17090017115E+02  0.43400730540E+02  0.00000000000E+00 0.  1.
         11    1    3    3    0    0  0.23298225451E+02  0.22062837620E+02  0.19008788093E+02  0.37294907669E+02  0.51100000000E-03 0. -1.
        -11    1    3    3    0    0  0.63191235639E+01  0.42698252827E+01 -0.17725256777E+01  0.78297240117E+01  0.51100000000E-03 0.  1.
        -12    1    3    3    0    0 -0.16317136355E+01  0.20989909159E+01 -0.14624530024E+00  0.26626377788E+01  0.00000000000E+00 0.  1.
</event>
<event>
 7    1  0.1457722E-010  0.4778727E+02  0.7816164E-02  0.1312668E+00
        -11   -1    0    0    0    0  0.00000000000E+00  0.00000000000E+00  0.45593999997E+02  0.45594000000E+02  0.51100000000E-03 0.  1.
         11   -1    0    0    0    0 -0.00000000000E+00 -0.00000000000E+00 -0.45593999997E+02  0.45594000000E+02  0.51100000000E-03 0. -1.
    9900012    2    1    2    0    0  0.71634809456E+00 -0.12570454811E+02 -0.41534248484E+02  0.47787270906E+02  0.19999999371E+02 0.  0.
        -12    1    1    2    0    0 -0.71634809456E+00  0.12570454811E+02  0.41534248484E+02  0.43400729094E+02  0.00000000000E+00 0.  1.
         11    1    3    3    0    0  0.21690857338E+00 -0.12364490458E+02 -0.15193820136E+02  0.19590299748E+02  0.51100000000E-03 0. -1.
        -11    1    3    3    0    0  0.84389988264E+00 -0.39058155946E+01 -0.22504014544E+02  0.22856032756E+02  0.51100000000E-03 0.  1.
        -12    1    3    3    0    0 -0.34446036146E+00  0.36998512418E+01 -0.38364138034E+01  0.53409384028E+01  0.00000000000E+00 0.  1.
</event>
<event>
 7    1  0.1457722E-010  0.4778728E+02  0.7816164E-02  0.1312668E+00
        -11   -1    0    0    0    0  0.00000000000E+00  0.00000000000E+00  0.45593999997E+02  0.45594000000E+02  0.51100000000E-03 0. -1.
         11   -1    0    0    0    0 -0.00000000000E+00 -0.00000000000E+00 -0.45593999997E+02  0.45594000000E+02  0.51100000000E-03 0.  1.
    9900012    2    1    2    0    0  0.22527071178E+02  0.35412364530E+02  0.11050716180E+02  0.47787276210E+02  0.20000023552E+02 0.  0.
        -12    1    1    2    0    0 -0.22527071178E+02 -0.35412364530E+02 -0.11050716180E+02  0.43400723790E+02  0.00000000000E+00 0.  1.
         11    1    3    3    0    0  0.63472458887E+01  0.19641929477E+02  0.39376871886E+01  0.21014240519E+02  0.51100000000E-03 0. -1.
        -11    1    3    3    0    0 -0.96640974013E+00  0.59610969498E+01  0.20918467294E+01  0.63909660953E+01  0.51100000000E-03 0.  1.
        -12    1    3    3    0    0  0.17146235029E+02  0.98093381030E+01  0.50211822616E+01  0.20382069595E+02  0.00000000000E+00 0.  1.
</event>
<event>
 7    1  0.1457722E-010  0.4778727E+02  0.7816164E-02  0.1312668E+00
        -11   -1    0    0    0    0  0.00000000000E+00  0.00000000000E+00  0.45593999997E+02  0.45594000000E+02  0.51100000000E-03 0.  1.
         11   -1    0    0    0    0 -0.00000000000E+00 -0.00000000000E+00 -0.45593999997E+02  0.45594000000E+02  0.51100000000E-03 0. -1.
    9900012    2    1    2    0    0  0.16331263315E+02  0.49701445067E-01 -0.40210825172E+02  0.47787273131E+02  0.20000009515E+02 0.  0.
        -12    1    1    2    0    0 -0.16331263315E+02 -0.49701445067E-01  0.40210825172E+02  0.43400726869E+02  0.00000000000E+00 0.  1.
         11    1    3    3    0    0  0.12952980446E+02  0.29308075078E+01 -0.23404286717E+02  0.26909663173E+02  0.51100000000E-03 0. -1.
        -11    1    3    3    0    0  0.45028951853E+01 -0.60686017272E+01 -0.15518229274E+02  0.17260342756E+02  0.51100000000E-03 0.  1.
         12    1    3    3    0    0 -0.11246123156E+01  0.31874956645E+01 -0.12883091806E+01  0.36172672028E+01  0.00000000000E+00 0. -1.
</event>
<event>
 7    1  0.1457722E-010  0.4778727E+02  0.7816164E-02  0.1312668E+00
        -11   -1    0    0    0    0  0.00000000000E+00  0.00000000000E+00  0.45593999997E+02  0.45594000000E+02  0.51100000000E-03 0.  1.
         11   -1    0    0    0    0 -0.00000000000E+00 -0.00000000000E+00 -0.45593999997E+02  0.45594000000E+02  0.51100000000E-03 0. -1.
    9900012    2    1    2    0    0 -0.35900441726E+01  0.19184281532E+02 -0.38764652174E+02  0.47787270361E+02  0.19999996882E+02 0.  0.
        -12    1    1    2    0    0  0.35900441726E+01 -0.19184281532E+02  0.38764652174E+02  0.43400729639E+02  0.00000000000E+00 0.  1.
         11    1    3    3    0    0  0.49710726863E+00  0.13878515368E+02 -0.16674279652E+02  0.21700043931E+02  0.51100000000E-03 0. -1.
        -11    1    3    3    0    0  0.33424639014E+01  0.52603215085E+01 -0.78314625196E+01  0.10008738820E+02  0.51100000000E-03 0.  1.
         12    1    3    3    0    0 -0.74296153426E+01  0.45444656089E-01 -0.14258910002E+02  0.16078487610E+02  0.00000000000E+00 0. -1.
</event>
<event>
 7    1  0.1457722E-010  0.4778722E+02  0.7816164E-02  0.1312668E+00
        -11   -1    0    0    0    0  0.00000000000E+00  0.00000000000E+00  0.45593999997E+02  0.45594000000E+02  0.51100000000E-03 0. -1.
         11   -1    0    0    0    0 -0.00000000000E+00 -0.00000000000E+00 -0.45593999997E+02  0.45594000000E+02  0.51100000000E-03 0.  1.
    9900012    2    1    2    0    0  0.24222746199E+02  0.26415144572E+02  0.24477060180E+02  0.47787219233E+02  0.19999763768E+02 0.  0.
        -12    1    1    2    0    0 -0.24222746199E+02 -0.26415144572E+02 -0.24477060180E+02  0.43400780767E+02  0.00000000000E+00 0.  1.
         11    1    3    3    0    0 -0.11657369261E+01 -0.33535480980E+00  0.61358189753E+00  0.13593706026E+01  0.51100000000E-03 0. -1.
        -11    1    3    3    0    0  0.20696412241E+02  0.19506204052E+02  0.24815496244E+02  0.37744434428E+02  0.51100000000E-03 0.  1.
        -12    1    3    3    0    0  0.46920708839E+01  0.72442953299E+01 -0.95201796246E+00  0.86834142022E+01  0.00000000000E+00 0.  1.
</event>
<event>
 7    1  0.1457722E-010  0.4778727E+02  0.7816164E-02  0.1312668E+00
        -11   -1    0    0    0    0  0.00000000000E+00  0.00000000000E+00  0.45593999997E+02  0.45594000000E+02  0.51100000000E-03 0.  1.
         11   -1    0    0    0    0 -0.00000000000E+00 -0.00000000000E+00 -0.45593999997E+02  0.45594000000E+02  0.51100000000E-03 0. -1.
    9900012    2    1    2    0    0 -0.24657741192E+02 -0.78104087570E+01 -0.34851351159E+02  0.47787270015E+02  0.19999995306E+02 0.  0.
        -12    1    1    2    0    0  0.24657741192E+02  0.78104087570E+01  0.34851351159E+02  0.43400729985E+02  0.00000000000E+00 0.  1.
         11    1    3    3    0    0 -0.13875347394E+02 -0.23169374304E+01 -0.15109972755E+02  0.20644726719E+02  0.51100000000E-03 0. -1.
        -11    1    3    3    0    0 -0.21089997118E+01  0.45901652080E+01 -0.76498724728E+01  0.91672267089E+01  0.51100000000E-03 0.  1.
         12    1    3    3    0    0 -0.86733940862E+01 -0.10083636535E+02 -0.12091505931E+02  0.17975316587E+02  0.00000000000E+00 0. -1.
</event>
<event>
 7    1  0.1457722E-010  0.4778728E+02  0.7816164E-02  0.1312668E+00
        -11   -1    0    0    0    0  0.00000000000E+00  0.00000000000E+00  0.45593999997E+02  0.45594000000E+02  0.51100000000E-03 0.  1.
         11   -1    0    0    0    0 -0.00000000000E+00 -0.00000000000E+00 -0.45593999997E+02  0.45594000000E+02  0.51100000000E-03 0. -1.
    9900012    2    1    2    0    0  0.81367349131E+01 -0.18173548727E+01 -0.42592411896E+02  0.47787276678E+02  0.20000025686E+02 0.  0.
        -12    1    1    2    0    0 -0.81367349131E+01  0.18173548727E+01  0.42592411896E+02  0.43400723322E+02  0.00000000000E+00 0.  1.
         11    1    3    3    0    0  0.29532842452E+01 -0.50296974520E+01 -0.26827071017E+02  0.27453806365E+02  0.51100000000E-03 0. -1.
        -11    1    3    3    0    0  0.36927551403E+01 -0.40069764248E+01 -0.61323219430E+01  0.82035159090E+01  0.51100000000E-03 0.  1.
        -12    1    3    3    0    0  0.14906955276E+01  0.72193190041E+01 -0.96330189357E+01  0.12129954404E+02  0.00000000000E+00 0.  1.
</event>
<event>
 7    1  0.1457722E-010  0.4778727E+02  0.7816164E-02  0.1312668E+00
        -11   -1    0    0    0    0  0.00000000000E+00  0.00000000000E+00  0.45593999997E+02  0.45594000000E+02  0.51100000000E-03 0.  1.
         11   -1    0    0    0    0 -0.00000000000E+00 -0.00000000000E+00 -0.45593999997E+02  0.45594000000E+02  0.51100000000E-03 0. -1.
    9900012    2    1    2    0    0  0.24836515510E+02 -0.10010670032E+02 -0.34154900506E+02  0.47787271368E+02  0.20000001477E+02 0.  0.
        -12    1    1    2    0    0 -0.24836515510E+02  0.10010670032E+02  0.34154900506E+02  0.43400728632E+02  0.00000000000E+00 0.  1.
         11    1    3    3    0    0  0.85897836671E+01 -0.49441898843E+01 -0.16062630719E+02  0.18874255030E+02  0.51100000000E-03 0. -1.
        -11    1    3    3    0    0 -0.16252684304E+01 -0.15873947238E+01  0.10427551910E+01  0.24997316115E+01  0.51100000000E-03 0.  1.
        -12    1    3    3    0    0  0.17872000273E+02 -0.34790854241E+01 -0.19135024978E+02  0.26413284727E+02  0.00000000000E+00 0.  1.
</event>
<event>
 7    1  0.1457722E-010  0.4778728E+02  0.7816164E-02  0.1312668E+00
        -11   -1    0    0    0    0  0.00000000000E+00  0.00000000000E+00  0.45593999997E+02  0.45594000000E+02  0.51100000000E-03 0.  1.
         11   -1    0    0    0    0 -0.00000000000E+00 -0.00000000000E+00 -0.45593999997E+02  0.45594000000E+02  0.51100000000E-03 0. -1.
    9900012    2    1    2    0    0  0.39589250727E+02  0.17158981115E+02 -0.46779385780E+01  0.47787279783E+02  0.20000039841E+02 0.  0.
        -12    1    1    2    0    0 -0.39589250727E+02 -0.17158981115E+02  0.46779385780E+01  0.43400720217E+02  0.00000000000E+00 0.  1.
         11    1    3    3    0    0  0.92690594057E+01 -0.25323746361E+01 -0.47785502018E+01  0.10731399063E+02  0.51100000000E-03 0. -1.
        -11    1    3    3    0    0  0.20981662757E+02  0.92302964006E+01  0.14509860660E+01  0.22968106246E+02  0.51100000000E-03 0.  1.
        -12    1    3    3    0    0  0.93385285644E+01  0.10461059350E+02 -0.13503744422E+01  0.14087774473E+02  0.00000000000E+00 0.  1.
</event>
<event>
 7    1  0.1457722E-010  0.4778727E+02  0.7816164E-02  0.1312668E+00
        -11   -1    0    0    0    0  0.00000000000E+00  0.00000000000E+00  0.45593999997E+02  0.45594000000E+02  0.51100000000E-03 0.  1.
         11   -1    0    0    0    0 -0.00000000000E+00 -0.00000000000E+00 -0.45593999997E+02  0.45594000000E+02  0.51100000000E-03 0. -1.
    9900012    2    1    2    0    0 -0.15626798004E+01 -0.16536810539E+02 -0.40096323618E+02  0.47787271451E+02  0.20000001852E+02 0.  0.
        -12    1    1    2    0    0  0.15626798004E+01  0.16536810539E+02  0.40096323618E+02  0.43400728549E+02  0.00000000000E+00 0.  1.
         11    1    3    3    0    0  0.41828252242E+01 -0.19963924986E+01 -0.15383812858E+02  0.16066838774E+02  0.51100000000E-03 0. -1.
        -11    1    3    3    0    0 -0.43162752700E+01 -0.29537292194E+01 -0.10498051132E+01  0.53344952474E+01  0.51100000000E-03 0.  1.
         12    1    3    3    0    0 -0.14292297546E+01 -0.11586688821E+02 -0.23662705646E+02  0.26385937430E+02  0.00000000000E+00 0. -1.
</event>
<event>
 7    1  0.1457722E-010  0.4778727E+02  0.7816164E-02  0.1312668E+00
        -11   -1    0    0    0    0  0.00000000000E+00  0.00000000000E+00  0.45593999997E+02  0.45594000000E+02  0.51100000000E-03 0.  1.
         11   -1    0    0    0    0 -0.00000000000E+00 -0.00000000000E+00 -0.45593999997E+02  0.45594000000E+02  0.51100000000E-03 0. -1.
    9900012    2    1    2    0    0  0.24603996503E+02 -0.27668391672E+02 -0.22643472112E+02  0.47787269926E+02  0.19999994900E+02 0.  0.
        -12    1    1    2    0    0 -0.24603996503E+02  0.27668391672E+02  0.22643472112E+02  0.43400730074E+02  0.00000000000E+00 0.  1.
         11    1    3    3    0    0  0.17583222038E+02 -0.22256814598E+02 -0.90073182780E+01  0.29760162569E+02  0.51100000000E-03 0. -1.
        -11    1    3    3    0    0  0.20350247543E+01  0.14945792087E+01 -0.85110240595E+00  0.26644827506E+01  0.51100000000E-03 0.  1.
         12    1    3    3    0    0  0.49857497106E+01 -0.69061562831E+01 -0.12785051428E+02  0.15362624607E+02  0.00000000000E+00 0. -1.
</event>
<event>
 7    1  0.1457722E-010  0.4778728E+02  0.7816164E-02  0.1312668E+00
        -11   -1    0    0    0    0  0.00000000000E+00  0.00000000000E+00  0.45593999997E+02  0.45594000000E+02  0.51100000000E-03 0.  1.
         11   -1    0    0    0    0 -0.00000000000E+00 -0.00000000000E+00 -0.45593999997E+02  0.45594000000E+02  0.51100000000E-03 0. -1.
    9900012    2    1    2    0    0 -0.28619008097E+02  0.27956188606E+02 -0.16823393241E+02  0.47787278047E+02  0.20000031930E+02 0.  0.
        -12    1    1    2    0    0  0.28619008097E+02 -0.27956188606E+02  0.16823393241E+02  0.43400721953E+02  0.00000000000E+00 0.  1.
         11    1    3    3    0    0  0.95575188413E+00  0.13263309774E+01  0.93707637460E+00  0.18843375278E+01  0.51100000000E-03 0. -1.
        -11    1    3    3    0    0 -0.22591869591E+02  0.11046636837E+02 -0.12145123445E+02  0.27927133415E+02  0.51100000000E-03 0.  1.
         12    1    3    3    0    0 -0.69828903904E+01  0.15583220792E+02 -0.56153461709E+01  0.17975807105E+02  0.00000000000E+00 0. -1.
</event>
<event>
 7    1  0.1457722E-010  0.4778727E+02  0.7816164E-02  0.1312668E+00
        -11   -1    0    0    0    0  0.00000000000E+00  0.00000000000E+00  0.45593999997E+02  0.45594000000E+02  0.51100000000E-03 0.  1.
         11   -1    0    0    0    0 -0.00000000000E+00 -0.00000000000E+00 -0.45593999997E+02  0.45594000000E+02  0.51100000000E-03 0. -1.
    9900012    2    1    2    0    0 -0.38544537035E+02  0.11027589918E+02 -0.16623295338E+02  0.47787273940E+02  0.20000013201E+02 0.  0.
        -12    1    1    2    0    0  0.38544537035E+02 -0.11027589918E+02  0.16623295338E+02  0.43400726060E+02  0.00000000000E+00 0.  1.
         11    1    3    3    0    0 -0.22524956093E+02  0.92872257956E+00 -0.46892255267E+01  0.23026615229E+02  0.51100000000E-03 0. -1.
        -11    1    3    3    0    0 -0.23615251612E+01  0.20858517101E+01  0.19460951650E+01  0.37033586238E+01  0.51100000000E-03 0.  1.
        -12    1    3    3    0    0 -0.13658055782E+02  0.80130156282E+01 -0.13880164976E+02  0.21057300087E+02  0.00000000000E+00 0.  1.
</event>
<event>
 7    1  0.1457722E-010  0.4778726E+02  0.7816164E-02  0.1312668E+00
        -11   -1    0    0    0    0  0.00000000000E+00  0.00000000000E+00  0.45593999997E+02  0.45594000000E+02  0.51100000000E-03 0.  1.
         11   -1    0    0    0    0 -0.00000000000E+00 -0.00000000000E+00 -0.45593999997E+02  0.45594000000E+02  0.51100000000E-03 0. -1.
    9900012    2    1    2    0    0 -0.27874628519E+02 -0.31981760469E+02 -0.91540356030E+01  0.47787259389E+02  0.19999946858E+02 0.  0.
        -12    1    1    2    0    0  0.27874628519E+02  0.31981760469E+02  0.91540356030E+01  0.43400740611E+02  0.00000000000E+00 0.  1.
         11    1    3    3    0    0 -0.93091791094E+00  0.13914358667E+00 -0.79380070600E+00  0.12312956252E+01  0.51100000000E-03 0. -1.
        -11    1    3    3    0    0 -0.15169908375E+01 -0.89387927360E+01 -0.80830879728E+01  0.12146587513E+02  0.51100000000E-03 0.  1.
         12    1    3    3    0    0 -0.25426719771E+02 -0.23182111320E+02 -0.27714692414E+00  0.34409376251E+02  0.00000000000E+00 0. -1.
</event>
<event>
 7    1  0.1457722E-010  0.4778727E+02  0.7816164E-02  0.1312668E+00
        -11   -1    0    0    0    0  0.00000000000E+00  0.00000000000E+00  0.45593999997E+02  0.45594000000E+02  0.51100000000E-03 0. -1.
         11   -1    0    0    0    0 -0.00000000000E+00 -0.00000000000E+00 -0.45593999997E+02  0.45594000000E+02  0.51100000000E-03 0.  1.
    9900012    2    1    2    0    0 -0.42958537627E+02 -0.51067013905E+01 -0.34797869113E+01  0.47787271077E+02  0.20000000147E+02 0.  0.
        -12    1    1    2    0    0  0.42958537627E+02  0.51067013905E+01  0.34797869113E+01  0.43400728923E+02  0.00000000000E+00 0.  1.
         11    1    3    3    0    0 -0.35609730349E+01 -0.37433461538E+01 -0.27517098580E+01  0.58536379105E+01  0.51100000000E-03 0. -1.
        -11    1    3    3    0    0 -0.16871364087E+02  0.20759434640E+01  0.62354144863E+01  0.18106155348E+02  0.51100000000E-03 0.  1.
         12    1    3    3    0    0 -0.22526200505E+02 -0.34392987006E+01 -0.69634915396E+01  0.23827477818E+02  0.00000000000E+00 0. -1.
</event>
<event>
 7    1  0.1457722E-010  0.4778727E+02  0.7816164E-02  0.1312668E+00
        -11   -1    0    0    0    0  0.00000000000E+00  0.00000000000E+00  0.45593999997E+02  0.45594000000E+02  0.51100000000E-03 0.  1.
         11   -1    0    0    0    0 -0.00000000000E+00 -0.00000000000E+00 -0.45593999997E+02  0.45594000000E+02  0.51100000000E-03 0. -1.
    9900012    2    1    2    0    0 -0.17023981651E+02 -0.16546021986E+02 -0.36332306269E+02  0.47787271047E+02  0.20000000013E+02 0.  0.
        -12    1    1    2    0    0  0.17023981651E+02  0.16546021986E+02  0.36332306269E+02  0.43400728953E+02  0.00000000000E+00 0.  1.
         11    1    3    3    0    0 -0.76884020636E+01 -0.83850659721E+01 -0.24363938733E+02  0.26889075263E+02  0.51100000000E-03 0. -1.
        -11    1    3    3    0    0  0.18254049625E+01 -0.53010467821E+01 -0.37195226620E+01  0.67281534880E+01  0.51100000000E-03 0.  1.
        -12    1    3    3    0    0 -0.11160984550E+02 -0.28599092319E+01 -0.82488448742E+01  0.14170042297E+02  0.00000000000E+00 0.  1.
</event>
<event>
 7    1  0.1457722E-010  0.4778727E+02  0.7816164E-02  0.1312668E+00
        -11   -1    0    0    0    0  0.00000000000E+00  0.00000000000E+00  0.45593999997E+02  0.45594000000E+02  0.51100000000E-03 0. -1.
         11   -1    0    0    0    0 -0.00000000000E+00 -0.00000000000E+00 -0.45593999997E+02  0.45594000000E+02  0.51100000000E-03 0.  1.
    9900012    2    1    2    0    0  0.22513688849E+02  0.29454840942E+02 -0.22564783208E+02  0.47787270954E+02  0.19999999586E+02 0.  0.
        -12    1    1    2    0    0 -0.22513688849E+02 -0.29454840942E+02  0.22564783208E+02  0.43400729046E+02  0.00000000000E+00 0.  1.
         11    1    3    3    0    0  0.12441601366E+02  0.16285748632E+02 -0.11057504972E+02  0.23287066572E+02  0.51100000000E-03 0. -1.
        -11    1    3    3    0    0  0.47633022314E+01  0.58201693135E+01  0.24038645698E+01  0.78956940238E+01  0.51100000000E-03 0.  1.
        -12    1    3    3    0    0  0.53087852514E+01  0.73489229963E+01 -0.13911142806E+02  0.16604510358E+02  0.00000000000E+00 0.  1.
</event>
<event>
 7    1  0.1457722E-010  0.4778727E+02  0.7816164E-02  0.1312668E+00
        -11   -1    0    0    0    0  0.00000000000E+00  0.00000000000E+00  0.45593999997E+02  0.45594000000E+02  0.51100000000E-03 0.  1.
         11   -1    0    0    0    0 -0.00000000000E+00 -0.00000000000E+00 -0.45593999997E+02  0.45594000000E+02  0.51100000000E-03 0. -1.
    9900012    2    1    2    0    0  0.18560999522E+02 -0.15512964252E+01 -0.39200843264E+02  0.47787270323E+02  0.19999996713E+02 0.  0.
        -12    1    1    2    0    0 -0.18560999522E+02  0.15512964252E+01  0.39200843264E+02  0.43400729677E+02  0.00000000000E+00 0.  1.
         11    1    3    3    0    0  0.36233816340E+01  0.47070071778E+00 -0.13123240088E+01  0.38823508595E+01  0.51100000000E-03 0. -1.
        -11    1    3    3    0    0  0.15083287150E+02 -0.51239355683E+01 -0.37540029424E+02  0.40780069597E+02  0.51100000000E-03 0.  1.
        -12    1    3    3    0    0 -0.14566926202E+00  0.31019384253E+01 -0.34848983147E+00  0.31248498669E+01  0.00000000000E+00 0.  1.
</event>
<event>
 7    1  0.1457722E-010  0.4778727E+02  0.7816164E-02  0.1312668E+00
        -11   -1    0    0    0    0  0.00000000000E+00  0.00000000000E+00  0.45593999997E+02  0.45594000000E+02  0.51100000000E-03 0.  1.
         11   -1    0    0    0    0 -0.00000000000E+00 -0.00000000000E+00 -0.45593999997E+02  0.45594000000E+02  0.51100000000E-03 0. -1.
    9900012    2    1    2    0    0 -0.22805300649E+02  0.29120333307E+02 -0.22705674817E+02  0.47787271683E+02  0.20000002911E+02 0.  0.
        -12    1    1    2    0    0  0.22805300649E+02 -0.29120333307E+02  0.22705674817E+02  0.43400728317E+02  0.00000000000E+00 0.  1.
         11    1    3    3    0    0 -0.71941072896E+01  0.19220120926E+02 -0.13186785603E+02  0.24393842315E+02  0.51100000000E-03 0. -1.
        -11    1    3    3    0    0 -0.10887195786E+02  0.60513461136E+01 -0.11533482965E+02  0.16975601652E+02  0.51100000000E-03 0.  1.
        -12    1    3    3    0    0 -0.47239975732E+01  0.38488662673E+01  0.20145937511E+01  0.64178277164E+01  0.00000000000E+00 0.  1.
</event>
<event>
 7    1  0.1457722E-010  0.4778727E+02  0.7816164E-02  0.1312668E+00
        -11   -1    0    0    0    0  0.00000000000E+00  0.00000000000E+00  0.45593999997E+02  0.45594000000E+02  0.51100000000E-03 0. -1.
         11   -1    0    0    0    0 -0.00000000000E+00 -0.00000000000E+00 -0.45593999997E+02  0.45594000000E+02  0.51100000000E-03 0.  1.
    9900012    2    1    2    0    0  0.15442183178E+02  0.14249450170E+02  0.37975193430E+02  0.47787272270E+02  0.20000005589E+02 0.  0.
        -12    1    1    2    0    0 -0.15442183178E+02 -0.14249450170E+02 -0.37975193430E+02  0.43400727730E+02  0.00000000000E+00 0.  1.
         11    1    3    3    0    0  0.11359967632E+02  0.93652538353E+01  0.15253668777E+02  0.21199793759E+02  0.51100000000E-03 0. -1.
        -11    1    3    3    0    0  0.19838582037E+01  0.88771750518E+01  0.17204885335E+02  0.19461449327E+02  0.51100000000E-03 0.  1.
        -12    1    3    3    0    0  0.20983573422E+01 -0.39929787167E+01  0.55166393181E+01  0.71260291841E+01  0.00000000000E+00 0.  1.
</event>
<event>
 7    1  0.1457722E-010  0.4778727E+02  0.7816164E-02  0.1312668E+00
        -11   -1    0    0    0    0  0.00000000000E+00  0.00000000000E+00  0.45593999997E+02  0.45594000000E+02  0.51100000000E-03 0. -1.
         11   -1    0    0    0    0 -0.00000000000E+00 -0.00000000000E+00 -0.45593999997E+02  0.45594000000E+02  0.51100000000E-03 0.  1.
    9900012    2    1    2    0    0  0.38863885134E+02 -0.45122890278E+01 -0.18784594535E+02  0.47787270608E+02  0.19999998008E+02 0.  0.
        -12    1    1    2    0    0 -0.38863885134E+02  0.45122890278E+01  0.18784594535E+02  0.43400729392E+02  0.00000000000E+00 0.  1.
         11    1    3    3    0    0  0.16937155375E+02 -0.16958243897E+01 -0.60796331839E-01  0.17021949037E+02  0.51100000000E-03 0. -1.
        -11    1    3    3    0    0  0.18047201196E+02  0.11807030939E+01 -0.10752793160E+02  0.21040867182E+02  0.51100000000E-03 0.  1.
        -12    1    3    3    0    0  0.38795285630E+01 -0.39971677321E+01 -0.79710050433E+01  0.97244543883E+01  0.00000000000E+00 0.  1.
</event>
<event>
 7    1  0.1457722E-010  0.4778726E+02  0.7816164E-02  0.1312668E+00
        -11   -1    0    0    0    0  0.00000000000E+00  0.00000000000E+00  0.45593999997E+02  0.45594000000E+02  0.51100000000E-03 0. -1.
         11   -1    0    0    0    0 -0.00000000000E+00 -0.00000000000E+00 -0.45593999997E+02  0.45594000000E+02  0.51100000000E-03 0.  1.
    9900012    2    1    2    0    0  0.21908502022E+02 -0.29246984304E+02  0.23414851547E+02  0.47787264698E+02  0.19999971066E+02 0.  0.
        -12    1    1    2    0    0 -0.21908502022E+02  0.29246984304E+02 -0.23414851547E+02  0.43400735302E+02  0.00000000000E+00 0.  1.
         11    1    3    3    0    0  0.82058719789E+01 -0.13760666400E+02  0.28116589143E+01  0.16266459382E+02  0.51100000000E-03 0. -1.
        -11    1    3    3    0    0  0.86191032831E+01 -0.14054299462E+01  0.59116528020E+01  0.10545701202E+02  0.51100000000E-03 0.  1.
         12    1    3    3    0    0  0.50835267603E+01 -0.14080887958E+02  0.14691539831E+02  0.20975104114E+02  0.00000000000E+00 0. -1.
</event>
<event>
 7    1  0.1457722E-010  0.4778727E+02  0.7816164E-02  0.1312668E+00
        -11   -1    0    0    0    0  0.00000000000E+00  0.00000000000E+00  0.45593999997E+02  0.45594000000E+02  0.51100000000E-03 0.  1.
         11   -1    0    0    0    0 -0.00000000000E+00 -0.00000000000E+00 -0.45593999997E+02  0.45594000000E+02  0.51100000000E-03 0. -1.
    9900012    2    1    2    0    0 -0.20638639416E+02 -0.14298744708E+02 -0.35400787327E+02  0.47787270967E+02  0.19999999649E+02 0.  0.
        -12    1    1    2    0    0  0.20638639416E+02  0.14298744708E+02  0.35400787327E+02  0.43400729033E+02  0.00000000000E+00 0.  1.
         11    1    3    3    0    0 -0.74031444746E+01 -0.10259788640E+02 -0.10778082105E+02  0.16620375000E+02  0.51100000000E-03 0. -1.
        -11    1    3    3    0    0  0.22392144223E+01 -0.29589264910E+00 -0.72896810241E+01  0.76315845919E+01  0.51100000000E-03 0.  1.
        -12    1    3    3    0    0 -0.15474709364E+02 -0.37430634190E+01 -0.17333024199E+02  0.23535311375E+02  0.00000000000E+00 0.  1.
</event>
<event>
 7    1  0.1457722E-010  0.4778727E+02  0.7816164E-02  0.1312668E+00
        -11   -1    0    0    0    0  0.00000000000E+00  0.00000000000E+00  0.45593999997E+02  0.45594000000E+02  0.51100000000E-03 0.  1.
         11   -1    0    0    0    0 -0.00000000000E+00 -0.00000000000E+00 -0.45593999997E+02  0.45594000000E+02  0.51100000000E-03 0. -1.
    9900012    2    1    2    0    0  0.97648153436E+01 -0.38418541757E+02 -0.17671649003E+02  0.47787272496E+02  0.20000006617E+02 0.  0.
        -12    1    1    2    0    0 -0.97648153436E+01  0.38418541757E+02  0.17671649003E+02  0.43400727504E+02  0.00000000000E+00 0.  1.
         11    1    3    3    0    0  0.79082046092E+01 -0.27483371287E+01 -0.41815198196E+01  0.93583206494E+01  0.51100000000E-03 0. -1.
        -11    1    3    3    0    0  0.35997199726E+00 -0.11156521737E+02 -0.21052751548E+01  0.11359125884E+02  0.51100000000E-03 0.  1.
         12    1    3    3    0    0  0.14966387372E+01 -0.24513682892E+02 -0.11384854028E+02  0.27069825963E+02  0.00000000000E+00 0. -1.
</event>
<event>
 7    1  0.1457722E-010  0.4778727E+02  0.7816164E-02  0.1312668E+00
        -11   -1    0    0    0    0  0.00000000000E+00  0.00000000000E+00  0.45593999997E+02  0.45594000000E+02  0.51100000000E-03 0. -1.
         11   -1    0    0    0    0 -0.00000000000E+00 -0.00000000000E+00 -0.45593999997E+02  0.45594000000E+02  0.51100000000E-03 0.  1.
    9900012    2    1    2    0    0  0.40972021426E+00  0.36646209310E+02  0.23248887367E+02  0.47787270844E+02  0.19999999088E+02 0.  0.
        -12    1    1    2    0    0 -0.40972021426E+00 -0.36646209310E+02 -0.23248887367E+02  0.43400729156E+02  0.00000000000E+00 0.  1.
         11    1    3    3    0    0  0.48773512943E+01  0.16738695014E+02  0.14882313211E+02  0.22922820795E+02  0.51100000000E-03 0. -1.
        -11    1    3    3    0    0 -0.18347324503E+01 -0.67878776460E+00  0.27301915080E+01  0.33587113489E+01  0.51100000000E-03 0.  1.
         12    1    3    3    0    0 -0.26328986298E+01  0.20586302060E+02  0.56363826482E+01  0.21505738701E+02  0.00000000000E+00 0. -1.
</event>
<event>
 7    1  0.1457722E-010  0.4778727E+02  0.7816164E-02  0.1312668E+00
        -11   -1    0    0    0    0  0.00000000000E+00  0.00000000000E+00  0.45593999997E+02  0.45594000000E+02  0.51100000000E-03 0.  1.
         11   -1    0    0    0    0 -0.00000000000E+00 -0.00000000000E+00 -0.45593999997E+02  0.45594000000E+02  0.51100000000E-03 0. -1.
    9900012    2    1    2    0    0 -0.15867158365E+01 -0.19006830198E+02 -0.38985201922E+02  0.47787271548E+02  0.20000002294E+02 0.  0.
        -12    1    1    2    0    0  0.15867158365E+01  0.19006830198E+02  0.38985201922E+02  0.43400728452E+02  0.00000000000E+00 0.  1.
         11    1    3    3    0    0  0.23348784553E+01 -0.68434672210E+01 -0.58790311339E+01  0.93192117876E+01  0.51100000000E-03 0. -1.
        -11    1    3    3    0    0 -0.92837901346E+01 -0.65101736795E+01 -0.15407363533E+02  0.19130028016E+02  0.51100000000E-03 0.  1.
        -12    1    3    3    0    0  0.53621958428E+01 -0.56531892971E+01 -0.17698807255E+02  0.19338031744E+02  0.00000000000E+00 0.  1.
</event>
<event>
 7    1  0.1457722E-010  0.4778727E+02  0.7816164E-02  0.1312668E+00
        -11   -1    0    0    0    0  0.00000000000E+00  0.00000000000E+00  0.45593999997E+02  0.45594000000E+02  0.51100000000E-03 0.  1.
         11   -1    0    0    0    0 -0.00000000000E+00 -0.00000000000E+00 -0.45593999997E+02  0.45594000000E+02  0.51100000000E-03 0. -1.
    9900012    2    1    2    0    0  0.23024689893E+02 -0.36781036483E+02  0.80144224018E+00  0.47787270753E+02  0.19999998673E+02 0.  0.
        -12    1    1    2    0    0 -0.23024689893E+02  0.36781036483E+02 -0.80144224018E+00  0.43400729247E+02  0.00000000000E+00 0.  1.
         11    1    3    3    0    0  0.13463945203E+02 -0.11903264891E+02  0.17141953388E+01  0.18052811455E+02  0.51100000000E-03 0. -1.
        -11    1    3    3    0    0  0.10010591986E+02 -0.25789804912E+02 -0.25768007621E+01  0.27784274181E+02  0.51100000000E-03 0.  1.
        -12    1    3    3    0    0 -0.44984729605E+00  0.91203332022E+00  0.16640476635E+01  0.19501851177E+01  0.00000000000E+00 0.  1.
</event>
<event>
 7    1  0.1457722E-010  0.4778726E+02  0.7816164E-02  0.1312668E+00
        -11   -1    0    0    0    0  0.00000000000E+00  0.00000000000E+00  0.45593999997E+02  0.45594000000E+02  0.51100000000E-03 0.  1.
         11   -1    0    0    0    0 -0.00000000000E+00 -0.00000000000E+00 -0.45593999997E+02  0.45594000000E+02  0.51100000000E-03 0. -1.
    9900012    2    1    2    0    0  0.41398403094E+02 -0.42963732846E+01 -0.12301943231E+02  0.47787257963E+02  0.19999940355E+02 0.  0.
        -12    1    1    2    0    0 -0.41398403094E+02  0.42963732846E+01  0.12301943231E+02  0.43400742037E+02  0.00000000000E+00 0.  1.
         11    1    3    3    0    0  0.13959392001E+02 -0.44017207992E+01 -0.97700006587E+01  0.17598087514E+02  0.51100000000E-03 0. -1.
        -11    1    3    3    0    0  0.17399414328E+02  0.55603371140E+01 -0.39113072007E+01  0.18680345073E+02  0.51100000000E-03 0.  1.
         12    1    3    3    0    0  0.10039596765E+02 -0.54549895995E+01  0.13793646280E+01  0.11508825375E+02  0.00000000000E+00 0. -1.
</event>
<event>
 7    1  0.1457722E-010  0.4778727E+02  0.7816164E-02  0.1312668E+00
        -11   -1    0    0    0    0  0.00000000000E+00  0.00000000000E+00  0.45593999997E+02  0.45594000000E+02  0.51100000000E-03 0. -1.
         11   -1    0    0    0    0 -0.00000000000E+00 -0.00000000000E+00 -0.45593999997E+02  0.45594000000E+02  0.51100000000E-03 0.  1.
    9900012    2    1    2    0    0 -0.34695523061E+02 -0.24460712312E+02  0.90286889277E+01  0.47787274303E+02  0.20000014857E+02 0.  0.
        -12    1    1    2    0    0  0.34695523061E+02  0.24460712312E+02 -0.90286889277E+01  0.43400725697E+02  0.00000000000E+00 0.  1.
         11    1    3    3    0    0 -0.22610345690E+02 -0.22349983347E+02  0.36034748691E+01  0.31995851594E+02  0.51100000000E-03 0. -1.
        -11    1    3    3    0    0 -0.76612679811E+00 -0.14554440702E+01  0.40488582738E+01  0.43701854989E+01  0.51100000000E-03 0.  1.
        -12    1    3    3    0    0 -0.11319050573E+02 -0.65528489480E+00  0.13763557848E+01  0.11421237210E+02  0.00000000000E+00 0.  1.
</event>
<event>
 7    1  0.1457722E-010  0.4778727E+02  0.7816164E-02  0.1312668E+00
        -11   -1    0    0    0    0  0.00000000000E+00  0.00000000000E+00  0.45593999997E+02  0.45594000000E+02  0.51100000000E-03 0.  1.
         11   -1    0    0    0    0 -0.00000000000E+00 -0.00000000000E+00 -0.45593999997E+02  0.45594000000E+02  0.51100000000E-03 0. -1.
    9900012    2    1    2    0    0 -0.23526928786E+02  0.32557076503E+02  0.16436044118E+02  0.47787272416E+02  0.20000006254E+02 0.  0.
        -12    1    1    2    0    0  0.23526928786E+02 -0.32557076503E+02 -0.16436044118E+02  0.43400727584E+02  0.00000000000E+00 0.  1.
         11    1    3    3    0    0 -0.13550091866E+02  0.26805390347E+02  0.61852926092E+01  0.30665808095E+02  0.51100000000E-03 0. -1.
        -11    1    3    3    0    0 -0.25893370420E+01  0.46120981999E+01  0.74552567995E+01  0.91409501875E+01  0.51100000000E-03 0.  1.
        -12    1    3    3    0    0 -0.73874998783E+01  0.11395879568E+01  0.27954947093E+01  0.79805141333E+01  0.00000000000E+00 0.  1.
</event>
<event>
 7    1  0.1937337E-010  0.4778727E+02  0.7816164E-02  0.1312668E+00
        -11   -1    0    0    0    0  0.00000000000E+00  0.00000000000E+00  0.45593999997E+02  0.45594000000E+02  0.51100000000E-03 0. -1.
         11   -1    0    0    0    0 -0.00000000000E+00 -0.00000000000E+00 -0.45593999997E+02  0.45594000000E+02  0.51100000000E-03 0.  1.
    9900012    2    1    2    0    0  0.41118996562E+02 -0.23866834186E+01  0.13680468093E+02  0.47787270245E+02  0.19999996355E+02 0.  0.
        -12    1    1    2    0    0 -0.41118996562E+02  0.23866834186E+01 -0.13680468093E+02  0.43400729755E+02  0.00000000000E+00 0.  1.
         11    1    3    3    0    0  0.21992819511E+02 -0.83358139854E+01  0.17573094045E+01  0.23585123308E+02  0.51100000000E-03 0. -1.
        -11    1    3    3    0    0  0.38366640164E+01  0.33538344114E+01  0.89828628897E+00  0.51744675621E+01  0.51100000000E-03 0.  1.
         12    1    3    3    0    0  0.15289513035E+02  0.25952961554E+01  0.11024872399E+02  0.19027679375E+02  0.00000000000E+00 0. -1.
</event>
<event>
 7    1  0.1457722E-010  0.4778727E+02  0.7816164E-02  0.1312668E+00
        -11   -1    0    0    0    0  0.00000000000E+00  0.00000000000E+00  0.45593999997E+02  0.45594000000E+02  0.51100000000E-03 0. -1.
         11   -1    0    0    0    0 -0.00000000000E+00 -0.00000000000E+00 -0.45593999997E+02  0.45594000000E+02  0.51100000000E-03 0.  1.
    9900012    2    1    2    0    0  0.35854296399E+02  0.12448727956E+02  0.21050461197E+02  0.47787270575E+02  0.19999997861E+02 0.  0.
        -12    1    1    2    0    0 -0.35854296399E+02 -0.12448727956E+02 -0.21050461197E+02  0.43400729425E+02  0.00000000000E+00 0.  1.
         11    1    3    3    0    0  0.21959221831E+02  0.13982451819E+02  0.13508099009E+02  0.29328912721E+02  0.51100000000E-03 0. -1.
        -11    1    3    3    0    0  0.80601325839E+01  0.32522238881E+01  0.64713356488E+01  0.10836091677E+02  0.51100000000E-03 0.  1.
        -12    1    3    3    0    0  0.58349419842E+01 -0.47859477511E+01  0.10710265397E+01  0.76222661777E+01  0.00000000000E+00 0.  1.
</event>
<event>
 7    1  0.1567015E-010  0.4778727E+02  0.7816164E-02  0.1312668E+00
        -11   -1    0    0    0    0  0.00000000000E+00  0.00000000000E+00  0.45593999997E+02  0.45594000000E+02  0.51100000000E-03 0. -1.
         11   -1    0    0    0    0 -0.00000000000E+00 -0.00000000000E+00 -0.45593999997E+02  0.45594000000E+02  0.51100000000E-03 0.  1.
    9900012    2    1    2    0    0 -0.16507203195E+02  0.37698301760E+02  0.13783102436E+02  0.47787266991E+02  0.19999981520E+02 0.  0.
        -12    1    1    2    0    0  0.16507203195E+02 -0.37698301760E+02 -0.13783102436E+02  0.43400733009E+02  0.00000000000E+00 0.  1.
         11    1    3    3    0    0 -0.11293576164E+02  0.30828667764E+02  0.11742831386E+02  0.34868979163E+02  0.51100000000E-03 0. -1.
        -11    1    3    3    0    0  0.23275486605E+01  0.19047306266E+01  0.24514808532E+01  0.38801082668E+01  0.51100000000E-03 0.  1.
        -12    1    3    3    0    0 -0.75411756912E+01  0.49649033697E+01 -0.41120980342E+00  0.90381795611E+01  0.00000000000E+00 0.  1.
</event>
<event>
 7    1  0.1457722E-010  0.4778733E+02  0.7816164E-02  0.1312667E+00
        -11   -1    0    0    0    0  0.00000000000E+00  0.00000000000E+00  0.45593999997E+02  0.45594000000E+02  0.51100000000E-03 0.  1.
         11   -1    0    0    0    0 -0.00000000000E+00 -0.00000000000E+00 -0.45593999997E+02  0.45594000000E+02  0.51100000000E-03 0. -1.
    9900012    2    1    2    0    0 -0.17618024382E+02 -0.37225966289E+01 -0.39488801571E+02  0.47787332283E+02  0.20000279209E+02 0.  0.
        -12    1    1    2    0    0  0.17618024382E+02  0.37225966289E+01  0.39488801571E+02  0.43400667717E+02  0.00000000000E+00 0.  1.
         11    1    3    3    0    0 -0.77519402235E+00 -0.73956406237E+01 -0.16289659784E+02  0.17906687079E+02  0.51100000000E-03 0. -1.
        -11    1    3    3    0    0 -0.25491782566E+01  0.37118622861E+01 -0.63648687605E+01  0.77966522312E+01  0.51100000000E-03 0.  1.
         12    1    3    3    0    0 -0.14293652103E+02 -0.38818291280E-01 -0.16834273026E+02  0.22083992973E+02  0.00000000000E+00 0. -1.
</event>
<event>
 7    1  0.1457722E-010  0.4778727E+02  0.7816164E-02  0.1312668E+00
        -11   -1    0    0    0    0  0.00000000000E+00  0.00000000000E+00  0.45593999997E+02  0.45594000000E+02  0.51100000000E-03 0.  1.
         11   -1    0    0    0    0 -0.00000000000E+00 -0.00000000000E+00 -0.45593999997E+02  0.45594000000E+02  0.51100000000E-03 0. -1.
    9900012    2    1    2    0    0 -0.18529069935E+02  0.25641046612E+00 -0.39245777625E+02  0.47787271430E+02  0.20000001758E+02 0.  0.
        -12    1    1    2    0    0  0.18529069935E+02 -0.25641046612E+00  0.39245777625E+02  0.43400728570E+02  0.00000000000E+00 0.  1.
         11    1    3    3    0    0 -0.33598874234E+01  0.10466061911E+01 -0.14116098132E+02  0.14548142656E+02  0.51100000000E-03 0. -1.
        -11    1    3    3    0    0  0.31667832818E+01  0.10195137311E+01 -0.36050789956E+01  0.49055600523E+01  0.51100000000E-03 0.  1.
        -12    1    3    3    0    0 -0.18335965794E+02 -0.18097094560E+01 -0.21524600498E+02  0.28333568722E+02  0.00000000000E+00 0.  1.
</event>
<event>
 7    1  0.1457722E-010  0.4778727E+02  0.7816164E-02  0.1312668E+00
        -11   -1    0    0    0    0  0.00000000000E+00  0.00000000000E+00  0.45593999997E+02  0.45594000000E+02  0.51100000000E-03 0. -1.
         11   -1    0    0    0    0 -0.00000000000E+00 -0.00000000000E+00 -0.45593999997E+02  0.45594000000E+02  0.51100000000E-03 0.  1.
    9900012    2    1    2    0    0 -0.30285135421E+02 -0.10469601879E+02  0.29271508541E+02  0.47787271858E+02  0.20000003710E+02 0.  0.
        -12    1    1    2    0    0  0.30285135421E+02  0.10469601879E+02 -0.29271508541E+02  0.43400728142E+02  0.00000000000E+00 0.  1.
         11    1    3    3    0    0 -0.11815869193E+02 -0.65419110478E-01  0.56754468652E+01  0.13108384409E+02  0.51100000000E-03 0. -1.
        -11    1    3    3    0    0  0.19971805192E+01 -0.11339898178E+01  0.50410109054E+01  0.55395355530E+01  0.51100000000E-03 0.  1.
         12    1    3    3    0    0 -0.20466446747E+02 -0.92701929503E+01  0.18555050771E+02  0.29139351896E+02  0.00000000000E+00 0. -1.
</event>
<event>
 7    1  0.1457722E-010  0.4778727E+02  0.7816164E-02  0.1312668E+00
        -11   -1    0    0    0    0  0.00000000000E+00  0.00000000000E+00  0.45593999997E+02  0.45594000000E+02  0.51100000000E-03 0.  1.
         11   -1    0    0    0    0 -0.00000000000E+00 -0.00000000000E+00 -0.45593999997E+02  0.45594000000E+02  0.51100000000E-03 0. -1.
    9900012    2    1    2    0    0  0.13010564203E+02  0.32847160696E+02 -0.25207392941E+02  0.47787269528E+02  0.19999993085E+02 0.  0.
        -12    1    1    2    0    0 -0.13010564203E+02 -0.32847160696E+02  0.25207392941E+02  0.43400730472E+02  0.00000000000E+00 0.  1.
         11    1    3    3    0    0  0.15443744908E+01 -0.61389840697E+00 -0.44328641188E+01  0.47341576208E+01  0.51100000000E-03 0. -1.
        -11    1    3    3    0    0  0.57084160548E+00  0.15172426474E+02 -0.33623860943E+01  0.15551013657E+02  0.51100000000E-03 0.  1.
         12    1    3    3    0    0  0.10895348107E+02  0.18288632629E+02 -0.17412142727E+02  0.27502098250E+02  0.00000000000E+00 0. -1.
</event>
<event>
 7    1  0.1457722E-010  0.4778727E+02  0.7816164E-02  0.1312668E+00
        -11   -1    0    0    0    0  0.00000000000E+00  0.00000000000E+00  0.45593999997E+02  0.45594000000E+02  0.51100000000E-03 0.  1.
         11   -1    0    0    0    0 -0.00000000000E+00 -0.00000000000E+00 -0.45593999997E+02  0.45594000000E+02  0.51100000000E-03 0. -1.
    9900012    2    1    2    0    0 -0.39949908082E+02  0.52451399075E+00 -0.16951497945E+02  0.47787267826E+02  0.19999985324E+02 0.  0.
        -12    1    1    2    0    0  0.39949908082E+02 -0.52451399075E+00  0.16951497945E+02  0.43400732174E+02  0.00000000000E+00 0.  1.
         11    1    3    3    0    0 -0.70069688571E+01  0.37781365531E+01 -0.62745191224E+01  0.10136149114E+02  0.51100000000E-03 0. -1.
        -11    1    3    3    0    0  0.91935716291E-01  0.15421515250E+01 -0.30362093686E+01  0.34066480729E+01  0.51100000000E-03 0.  1.
        -12    1    3    3    0    0 -0.33034874941E+02 -0.47957740873E+01 -0.76407694542E+01  0.34244470639E+02  0.00000000000E+00 0.  1.
</event>
<event>
 7    1  0.1457722E-010  0.4778727E+02  0.7816164E-02  0.1312668E+00
        -11   -1    0    0    0    0  0.00000000000E+00  0.00000000000E+00  0.45593999997E+02  0.45594000000E+02  0.51100000000E-03 0. -1.
         11   -1    0    0    0    0 -0.00000000000E+00 -0.00000000000E+00 -0.45593999997E+02  0.45594000000E+02  0.51100000000E-03 0.  1.
    9900012    2    1    2    0    0  0.16460188199E+02 -0.38991344658E+02  0.96104442844E+01  0.47787269670E+02  0.19999993734E+02 0.  0.
        -12    1    1    2    0    0 -0.16460188199E+02  0.38991344658E+02 -0.96104442844E+01  0.43400730330E+02  0.00000000000E+00 0.  1.
         11    1    3    3    0    0  0.67679936333E+01 -0.11855479033E+02  0.30090257587E+01  0.13978997003E+02  0.51100000000E-03 0. -1.
        -11    1    3    3    0    0 -0.33116715986E+01 -0.20493881420E+01 -0.18546616871E+01  0.43135751725E+01  0.51100000000E-03 0.  1.
        -12    1    3    3    0    0  0.13003866165E+02 -0.25086477483E+02  0.84560802129E+01  0.29494697495E+02  0.00000000000E+00 0.  1.
</event>
<event>
 7    1  0.1457722E-010  0.4778727E+02  0.7816164E-02  0.1312668E+00
        -11   -1    0    0    0    0  0.00000000000E+00  0.00000000000E+00  0.45593999997E+02  0.45594000000E+02  0.51100000000E-03 0.  1.
         11   -1    0    0    0    0 -0.00000000000E+00 -0.00000000000E+00 -0.45593999997E+02  0.45594000000E+02  0.51100000000E-03 0. -1.
    9900012    2    1    2    0    0  0.20023679135E+02  0.30638666055E+02 -0.23322680569E+02  0.47787274054E+02  0.20000013720E+02 0.  0.
        -12    1    1    2    0    0 -0.20023679135E+02 -0.30638666055E+02  0.23322680569E+02  0.43400725946E+02  0.00000000000E+00 0.  1.
         11    1    3    3    0    0  0.12764750142E+02  0.13162978756E+02 -0.73855707116E+01  0.19767385030E+02  0.51100000000E-03 0. -1.
        -11    1    3    3    0    0  0.98828166821E+01  0.12409067774E+02 -0.68265544273E+01  0.17270115060E+02  0.51100000000E-03 0.  1.
        -12    1    3    3    0    0 -0.26238876892E+01  0.50666195252E+01 -0.91105554302E+01  0.10749773963E+02  0.00000000000E+00 0.  1.
</event>
<event>
 7    1  0.1457722E-010  0.4778727E+02  0.7816164E-02  0.1312668E+00
        -11   -1    0    0    0    0  0.00000000000E+00  0.00000000000E+00  0.45593999997E+02  0.45594000000E+02  0.51100000000E-03 0. -1.
         11   -1    0    0    0    0 -0.00000000000E+00 -0.00000000000E+00 -0.45593999997E+02  0.45594000000E+02  0.51100000000E-03 0.  1.
    9900012    2    1    2    0    0  0.15568088285E+02  0.39763105495E+02  0.77558607129E+01  0.47787270664E+02  0.19999998266E+02 0.  0.
        -12    1    1    2    0    0 -0.15568088285E+02 -0.39763105495E+02 -0.77558607129E+01  0.43400729336E+02  0.00000000000E+00 0.  1.
         11    1    3    3    0    0  0.12893914349E+01  0.66366053085E+01 -0.43379537003E+01  0.80327394368E+01  0.51100000000E-03 0.  1.
        -11    1    3    3    0    0  0.15824463429E+02  0.26207921359E+02  0.83285287061E+01  0.31727482967E+02  0.51100000000E-03 0. -1.
         12    1    3    3    0    0 -0.15457665786E+01  0.69185788283E+01  0.37652857071E+01  0.80270482604E+01  0.00000000000E+00 0. -1.
</event>
<event>
 7    1  0.1457722E-010  0.4778726E+02  0.7816164E-02  0.1312668E+00
        -11   -1    0    0    0    0  0.00000000000E+00  0.00000000000E+00  0.45593999997E+02  0.45594000000E+02  0.51100000000E-03 0. -1.
         11   -1    0    0    0    0 -0.00000000000E+00 -0.00000000000E+00 -0.45593999997E+02  0.45594000000E+02  0.51100000000E-03 0.  1.
    9900012    2    1    2    0    0  0.22069053779E+01  0.31929854625E+02  0.29312762497E+02  0.47787261608E+02  0.19999956977E+02 0.  0.
        -12    1    1    2    0    0 -0.22069053779E+01 -0.31929854625E+02 -0.29312762497E+02  0.43400738392E+02  0.00000000000E+00 0.  1.
         11    1    3    3    0    0  0.43815088020E+01  0.21959095332E+02  0.16683149972E+02  0.27923591825E+02  0.51100000000E-03 0. -1.
        -11    1    3    3    0    0  0.96308715820E+00  0.49864707689E+01  0.13005586831E+02  0.13962009765E+02  0.51100000000E-03 0.  1.
        -12    1    3    3    0    0 -0.31376905822E+01  0.49842885246E+01 -0.37597430614E+00  0.59016600178E+01  0.00000000000E+00 0.  1.
</event>
<event>
 7    1  0.1457722E-010  0.4778726E+02  0.7816164E-02  0.1312668E+00
        -11   -1    0    0    0    0  0.00000000000E+00  0.00000000000E+00  0.45593999997E+02  0.45594000000E+02  0.51100000000E-03 0. -1.
         11   -1    0    0    0    0 -0.00000000000E+00 -0.00000000000E+00 -0.45593999997E+02  0.45594000000E+02  0.51100000000E-03 0.  1.
    9900012    2    1    2    0    0 -0.38792262368E+02  0.17765561820E+02  0.79479009784E+01  0.47787263412E+02  0.19999965203E+02 0.  0.
        -12    1    1    2    0    0  0.38792262368E+02 -0.17765561820E+02 -0.79479009784E+01  0.43400736588E+02  0.00000000000E+00 0.  1.
         11    1    3    3    0    0 -0.11586518782E+02  0.25755983958E+01  0.24933956682E+01  0.12128402484E+02  0.51100000000E-03 0. -1.
        -11    1    3    3    0    0 -0.12506581948E+02  0.72600251810E-01 -0.31304631143E+01  0.12892620462E+02  0.51100000000E-03 0.  1.
         12    1    3    3    0    0 -0.14699161638E+02  0.15117363172E+02  0.85849684245E+01  0.22766240466E+02  0.00000000000E+00 0. -1.
</event>
<event>
 7    1  0.1457722E-010  0.4778727E+02  0.7816164E-02  0.1312668E+00
        -11   -1    0    0    0    0  0.00000000000E+00  0.00000000000E+00  0.45593999997E+02  0.45594000000E+02  0.51100000000E-03 0.  1.
         11   -1    0    0    0    0 -0.00000000000E+00 -0.00000000000E+00 -0.45593999997E+02  0.45594000000E+02  0.51100000000E-03 0. -1.
    9900012    2    1    2    0    0  0.11922090414E+02 -0.45918059364E+01 -0.41477732689E+02  0.47787271542E+02  0.20000002270E+02 0.  0.
        -12    1    1    2    0    0 -0.11922090414E+02  0.45918059364E+01  0.41477732689E+02  0.43400728458E+02  0.00000000000E+00 0.  1.
         11    1    3    3    0    0  0.87433378948E+01  0.26517182961E+01 -0.20238203134E+02  0.22205009205E+02  0.51100000000E-03 0. -1.
        -11    1    3    3    0    0  0.22190706474E+01 -0.61894433133E+01 -0.22645077887E+02  0.23580352751E+02  0.51100000000E-03 0.  1.
        -12    1    3    3    0    0  0.95968187179E+00 -0.10540809192E+01  0.14055483316E+01  0.20019095863E+01  0.00000000000E+00 0.  1.
</event>
<event>
 7    1  0.1457722E-010  0.4778728E+02  0.7816164E-02  0.1312668E+00
        -11   -1    0    0    0    0  0.00000000000E+00  0.00000000000E+00  0.45593999997E+02  0.45594000000E+02  0.51100000000E-03 0.  1.
         11   -1    0    0    0    0 -0.00000000000E+00 -0.00000000000E+00 -0.45593999997E+02  0.45594000000E+02  0.51100000000E-03 0. -1.
    9900012    2    1    2    0    0  0.42625852559E+02  0.69920542940E+01  0.42154564448E+01  0.47787283385E+02  0.20000056266E+02 0.  0.
        -12    1    1    2    0    0 -0.42625852559E+02 -0.69920542940E+01 -0.42154564448E+01  0.43400716615E+02  0.00000000000E+00 0.  1.
         11    1    3    3    0    0  0.14414331646E+02  0.49167917854E+01 -0.12890135048E+00  0.15230378002E+02  0.51100000000E-03 0. -1.
        -11    1    3    3    0    0  0.18115312362E+02 -0.62582675615E+01  0.29505692453E+01  0.19391655782E+02  0.51100000000E-03 0.  1.
        -12    1    3    3    0    0  0.10096208551E+02  0.83335300700E+01  0.13937885500E+01  0.13165249601E+02  0.00000000000E+00 0.  1.
</event>
<event>
 7    1  0.1457722E-010  0.4778727E+02  0.7816164E-02  0.1312668E+00
        -11   -1    0    0    0    0  0.00000000000E+00  0.00000000000E+00  0.45593999997E+02  0.45594000000E+02  0.51100000000E-03 0.  1.
         11   -1    0    0    0    0 -0.00000000000E+00 -0.00000000000E+00 -0.45593999997E+02  0.45594000000E+02  0.51100000000E-03 0. -1.
    9900012    2    1    2    0    0 -0.22259210369E+02 -0.23461278928E+02 -0.28943381982E+02  0.47787269410E+02  0.19999992549E+02 0.  0.
        -12    1    1    2    0    0  0.22259210369E+02  0.23461278928E+02  0.28943381982E+02  0.43400730590E+02  0.00000000000E+00 0.  1.
         11    1    3    3    0    0 -0.10017659434E+01 -0.12431337429E+02 -0.14470986258E+02  0.19103694114E+02  0.51100000000E-03 0. -1.
        -11    1    3    3    0    0 -0.60384835922E+01 -0.50702502190E+01 -0.20293318967E+01  0.81418001439E+01  0.51100000000E-03 0.  1.
        -12    1    3    3    0    0 -0.15218960833E+02 -0.59596912802E+01 -0.12443063827E+02  0.20541775152E+02  0.00000000000E+00 0.  1.
</event>
<event>
 7    1  0.1457722E-010  0.4778727E+02  0.7816164E-02  0.1312668E+00
        -11   -1    0    0    0    0  0.00000000000E+00  0.00000000000E+00  0.45593999997E+02  0.45594000000E+02  0.51100000000E-03 0. -1.
         11   -1    0    0    0    0 -0.00000000000E+00 -0.00000000000E+00 -0.45593999997E+02  0.45594000000E+02  0.51100000000E-03 0.  1.
    9900012    2    1    2    0    0  0.21701368327E+02  0.35251430386E+02  0.13038807590E+02  0.47787271494E+02  0.20000002049E+02 0.  0.
        -12    1    1    2    0    0 -0.21701368327E+02 -0.35251430386E+02 -0.13038807590E+02  0.43400728506E+02  0.00000000000E+00 0.  1.
         11    1    3    3    0    0  0.12303842790E+02  0.30214645487E+02  0.81171601839E+01  0.33618412202E+02  0.51100000000E-03 0. -1.
        -11    1    3    3    0    0  0.21750050622E+01  0.21029499331E+01  0.55779862660E+01  0.63456265637E+01  0.51100000000E-03 0.  1.
        -12    1    3    3    0    0  0.72225204746E+01  0.29338349662E+01 -0.65633885978E+00  0.78232327279E+01  0.00000000000E+00 0.  1.
</event>
<event>
 7    1  0.1457722E-010  0.4778727E+02  0.7816164E-02  0.1312668E+00
        -11   -1    0    0    0    0  0.00000000000E+00  0.00000000000E+00  0.45593999997E+02  0.45594000000E+02  0.51100000000E-03 0. -1.
         11   -1    0    0    0    0 -0.00000000000E+00 -0.00000000000E+00 -0.45593999997E+02  0.45594000000E+02  0.51100000000E-03 0.  1.
    9900012    2    1    2    0    0  0.54971266628E+01 -0.25032650157E+02  0.35025294541E+02  0.47787271514E+02  0.20000002141E+02 0.  0.
        -12    1    1    2    0    0 -0.54971266628E+01  0.25032650157E+02 -0.35025294541E+02  0.43400728486E+02  0.00000000000E+00 0.  1.
         11    1    3    3    0    0  0.62669280035E+01 -0.13612700161E+02  0.17685887207E+02  0.23181255334E+02  0.51100000000E-03 0. -1.
        -11    1    3    3    0    0  0.56169348249E+01 -0.80400630109E+01  0.72526833554E+01  0.12198114041E+02  0.51100000000E-03 0.  1.
         12    1    3    3    0    0 -0.63867361656E+01 -0.33798869845E+01  0.10086723978E+02  0.12407902139E+02  0.00000000000E+00 0. -1.
</event>
<event>
 7    1  0.1457722E-010  0.4778729E+02  0.7816164E-02  0.1312668E+00
        -11   -1    0    0    0    0  0.00000000000E+00  0.00000000000E+00  0.45593999997E+02  0.45594000000E+02  0.51100000000E-03 0. -1.
         11   -1    0    0    0    0 -0.00000000000E+00 -0.00000000000E+00 -0.45593999997E+02  0.45594000000E+02  0.51100000000E-03 0.  1.
    9900012    2    1    2    0    0 -0.34900191976E+02 -0.25266388993E+02 -0.52161409739E+01  0.47787286418E+02  0.20000070095E+02 0.  0.
        -12    1    1    2    0    0  0.34900191976E+02  0.25266388993E+02  0.52161409739E+01  0.43400713582E+02  0.00000000000E+00 0.  1.
         11    1    3    3    0    0 -0.14857790928E+02 -0.14253212741E+02 -0.82877726912E+01  0.22194485827E+02  0.51100000000E-03 0. -1.
        -11    1    3    3    0    0  0.10014792430E+01  0.73502902718E+00  0.55503439682E+00  0.13606218386E+01  0.51100000000E-03 0.  1.
        -12    1    3    3    0    0 -0.21043880292E+02 -0.11748205279E+02  0.25165973204E+01  0.24232178752E+02  0.00000000000E+00 0.  1.
</event>
<event>
 7    1  0.2971591E-010  0.4778728E+02  0.7816164E-02  0.1312668E+00
        -11   -1    0    0    0    0  0.00000000000E+00  0.00000000000E+00  0.45593999997E+02  0.45594000000E+02  0.51100000000E-03 0. -1.
         11   -1    0    0    0    0 -0.00000000000E+00 -0.00000000000E+00 -0.45593999997E+02  0.45594000000E+02  0.51100000000E-03 0.  1.
    9900012    2    1    2    0    0  0.20951462192E+02  0.35969564559E+02  0.12282066733E+02  0.47787279894E+02  0.20000040347E+02 0.  0.
        -12    1    1    2    0    0 -0.20951462192E+02 -0.35969564559E+02 -0.12282066733E+02  0.43400720106E+02  0.00000000000E+00 0.  1.
         11    1    3    3    0    0  0.26000218096E+01  0.82240742812E+01  0.92358938653E+01  0.12637137609E+02  0.51100000000E-03 0. -1.
        -11    1    3    3    0    0  0.13621421153E+01  0.79406366896E+01 -0.25749298625E+01  0.84580970813E+01  0.51100000000E-03 0.  1.
         12    1    3    3    0    0  0.16989298267E+02  0.19804853588E+02  0.56211027299E+01  0.26692045204E+02  0.00000000000E+00 0. -1.
</event>
<event>
 7    1  0.1457722E-010  0.4778727E+02  0.7816164E-02  0.1312668E+00
        -11   -1    0    0    0    0  0.00000000000E+00  0.00000000000E+00  0.45593999997E+02  0.45594000000E+02  0.51100000000E-03 0.  1.
         11   -1    0    0    0    0 -0.00000000000E+00 -0.00000000000E+00 -0.45593999997E+02  0.45594000000E+02  0.51100000000E-03 0. -1.
    9900012    2    1    2    0    0  0.22355879670E+01  0.91446171329E+01 -0.42367457251E+02  0.47787270629E+02  0.19999998106E+02 0.  0.
        -12    1    1    2    0    0 -0.22355879670E+01 -0.91446171329E+01  0.42367457251E+02  0.43400729371E+02  0.00000000000E+00 0.  1.
         11    1    3    3    0    0  0.18287342593E+01  0.22616911842E+01 -0.35863246175E+01  0.46174928833E+01  0.51100000000E-03 0. -1.
        -11    1    3    3    0    0  0.63943768352E+01  0.24204107816E+01 -0.33067979471E+02  0.33767406031E+02  0.51100000000E-03 0.  1.
        -12    1    3    3    0    0 -0.59875231274E+01  0.44625151672E+01 -0.57131531618E+01  0.94023717151E+01  0.00000000000E+00 0.  1.
</event>
<event>
 7    1  0.1457722E-010  0.4778727E+02  0.7816164E-02  0.1312668E+00
        -11   -1    0    0    0    0  0.00000000000E+00  0.00000000000E+00  0.45593999997E+02  0.45594000000E+02  0.51100000000E-03 0.  1.
         11   -1    0    0    0    0 -0.00000000000E+00 -0.00000000000E+00 -0.45593999997E+02  0.45594000000E+02  0.51100000000E-03 0. -1.
    9900012    2    1    2    0    0 -0.32648676351E+01  0.30183565199E+02 -0.31014781355E+02  0.47787266927E+02  0.19999981225E+02 0.  0.
        -12    1    1    2    0    0  0.32648676351E+01 -0.30183565199E+02  0.31014781355E+02  0.43400733073E+02  0.00000000000E+00 0.  1.
         11    1    3    3    0    0 -0.30449421263E+01  0.84782355510E+01 -0.10561649668E+02  0.13881663970E+02  0.51100000000E-03 0. -1.
        -11    1    3    3    0    0 -0.13041288420E+01  0.32296500991E+01  0.25972011186E+01  0.43447492115E+01  0.51100000000E-03 0.  1.
        -12    1    3    3    0    0  0.10842033333E+01  0.18475679549E+02 -0.23050332806E+02  0.29560853745E+02  0.00000000000E+00 0.  1.
</event>
<event>
 7    1  0.1457722E-010  0.4778727E+02  0.7816164E-02  0.1312668E+00
        -11   -1    0    0    0    0  0.00000000000E+00  0.00000000000E+00  0.45593999997E+02  0.45594000000E+02  0.51100000000E-03 0.  1.
         11   -1    0    0    0    0 -0.00000000000E+00 -0.00000000000E+00 -0.45593999997E+02  0.45594000000E+02  0.51100000000E-03 0. -1.
    9900012    2    1    2    0    0  0.24990431461E+02 -0.30255548842E+02 -0.18539248573E+02  0.47787266850E+02  0.19999980877E+02 0.  0.
        -12    1    1    2    0    0 -0.24990431461E+02  0.30255548842E+02  0.18539248573E+02  0.43400733150E+02  0.00000000000E+00 0.  1.
         11    1    3    3    0    0  0.91705445611E+01 -0.67725552082E+01 -0.51135490525E+01  0.12494589860E+02  0.51100000000E-03 0. -1.
        -11    1    3    3    0    0  0.48390724209E+01 -0.43175364456E+01  0.35879455725E+01  0.74115515613E+01  0.51100000000E-03 0.  1.
         12    1    3    3    0    0  0.10980814479E+02 -0.19165457188E+02 -0.17013645093E+02  0.27881125429E+02  0.00000000000E+00 0. -1.
</event>
<event>
 7    1  0.1457722E-010  0.4778726E+02  0.7816164E-02  0.1312668E+00
        -11   -1    0    0    0    0  0.00000000000E+00  0.00000000000E+00  0.45593999997E+02  0.45594000000E+02  0.51100000000E-03 0. -1.
         11   -1    0    0    0    0 -0.00000000000E+00 -0.00000000000E+00 -0.45593999997E+02  0.45594000000E+02  0.51100000000E-03 0.  1.
    9900012    2    1    2    0    0 -0.17597717217E+02 -0.31083839999E+02  0.24652364606E+02  0.47787264511E+02  0.19999970211E+02 0.  0.
        -12    1    1    2    0    0  0.17597717217E+02  0.31083839999E+02 -0.24652364606E+02  0.43400735489E+02  0.00000000000E+00 0.  1.
         11    1    3    3    0    0  0.10974760990E+00 -0.36946936859E+01 -0.16528388293E+01  0.40490347525E+01  0.51100000000E-03 0.  1.
        -11    1    3    3    0    0 -0.38995742164E+01 -0.12807031198E+02  0.16907321469E+02  0.21565811988E+02  0.51100000000E-03 0. -1.
         12    1    3    3    0    0 -0.13807890611E+02 -0.14582115115E+02  0.93978819660E+01  0.22172417771E+02  0.00000000000E+00 0. -1.
</event>
<event>
 7    1  0.1457722E-010  0.4778728E+02  0.7816164E-02  0.1312668E+00
        -11   -1    0    0    0    0  0.00000000000E+00  0.00000000000E+00  0.45593999997E+02  0.45594000000E+02  0.51100000000E-03 0.  1.
         11   -1    0    0    0    0 -0.00000000000E+00 -0.00000000000E+00 -0.45593999997E+02  0.45594000000E+02  0.51100000000E-03 0. -1.
    9900012    2    1    2    0    0  0.10692196007E+02  0.86542101014E+01 -0.41163143113E+02  0.47787276977E+02  0.20000027050E+02 0.  0.
        -12    1    1    2    0    0 -0.10692196007E+02 -0.86542101014E+01  0.41163143113E+02  0.43400723023E+02  0.00000000000E+00 0.  1.
         11    1    3    3    0    0  0.73025292288E+01  0.18654096325E+01 -0.11945517984E+02  0.14124520749E+02  0.51100000000E-03 0. -1.
        -11    1    3    3    0    0 -0.15568627146E+01  0.56608505141E+01 -0.23558685687E+01  0.63260704255E+01  0.51100000000E-03 0.  1.
         12    1    3    3    0    0  0.49465294929E+01  0.11279499549E+01 -0.26861756561E+02  0.27336685803E+02  0.00000000000E+00 0. -1.
</event>
<event>
 7    1  0.1457722E-010  0.4778727E+02  0.7816164E-02  0.1312668E+00
        -11   -1    0    0    0    0  0.00000000000E+00  0.00000000000E+00  0.45593999997E+02  0.45594000000E+02  0.51100000000E-03 0. -1.
         11   -1    0    0    0    0 -0.00000000000E+00 -0.00000000000E+00 -0.45593999997E+02  0.45594000000E+02  0.51100000000E-03 0.  1.
    9900012    2    1    2    0    0  0.30959605790E+02 -0.17910439225E+02  0.24583382329E+02  0.47787266012E+02  0.19999977057E+02 0.  0.
        -12    1    1    2    0    0 -0.30959605790E+02  0.17910439225E+02 -0.24583382329E+02  0.43400733988E+02  0.00000000000E+00 0.  1.
         11    1    3    3    0    0  0.18161711600E+01 -0.64618546849E+01  0.65543646183E+01  0.93815638068E+01  0.51100000000E-03 0. -1.
        -11    1    3    3    0    0  0.20608837506E+02 -0.88625511319E+01  0.19048513706E+02  0.29429829605E+02  0.51100000000E-03 0.  1.
        -12    1    3    3    0    0  0.85345971246E+01 -0.25860334079E+01 -0.10194959946E+01  0.89758726010E+01  0.00000000000E+00 0.  1.
</event>
<event>
 7    1  0.1457722E-010  0.4778727E+02  0.7816164E-02  0.1312668E+00
        -11   -1    0    0    0    0  0.00000000000E+00  0.00000000000E+00  0.45593999997E+02  0.45594000000E+02  0.51100000000E-03 0.  1.
         11   -1    0    0    0    0 -0.00000000000E+00 -0.00000000000E+00 -0.45593999997E+02  0.45594000000E+02  0.51100000000E-03 0. -1.
    9900012    2    1    2    0    0  0.23580225225E+02 -0.17098271603E+02 -0.32175228741E+02  0.47787271227E+02  0.20000000832E+02 0.  0.
        -12    1    1    2    0    0 -0.23580225225E+02  0.17098271603E+02  0.32175228741E+02  0.43400728773E+02  0.00000000000E+00 0.  1.
         11    1    3    3    0    0  0.28670065631E+01 -0.56063484434E+01 -0.14249024512E+02  0.15578368635E+02  0.51100000000E-03 0.  1.
        -11    1    3    3    0    0  0.27723857519E+01 -0.12600862966E+01  0.18918796737E+01  0.35851288949E+01  0.51100000000E-03 0. -1.
         12    1    3    3    0    0  0.17940832910E+02 -0.10231836863E+02 -0.19818083903E+02  0.28623773697E+02  0.00000000000E+00 0. -1.
</event>
<event>
 7    1  0.1457722E-010  0.4778733E+02  0.7816164E-02  0.1312668E+00
        -11   -1    0    0    0    0  0.00000000000E+00  0.00000000000E+00  0.45593999997E+02  0.45594000000E+02  0.51100000000E-03 0. -1.
         11   -1    0    0    0    0 -0.00000000000E+00 -0.00000000000E+00 -0.45593999997E+02  0.45594000000E+02  0.51100000000E-03 0.  1.
    9900012    2    1    2    0    0  0.15083705404E+01  0.16583592414E+02  0.40079016758E+02  0.47787328308E+02  0.20000261085E+02 0.  0.
        -12    1    1    2    0    0 -0.15083705404E+01 -0.16583592414E+02 -0.40079016758E+02  0.43400671692E+02  0.00000000000E+00 0.  1.
         11    1    3    3    0    0 -0.95595485743E+00  0.15031993248E+02  0.36735710218E+02  0.39703741337E+02  0.51100000000E-03 0. -1.
        -11    1    3    3    0    0  0.41423859347E+01 -0.12195901865E+00  0.38539372900E+01  0.56592462511E+01  0.51100000000E-03 0.  1.
        -12    1    3    3    0    0 -0.16780605368E+01  0.16735581845E+01 -0.51063074974E+00  0.24243407196E+01  0.00000000000E+00 0.  1.
</event>
<event>
 7    1  0.1457722E-010  0.4778727E+02  0.7816164E-02  0.1312668E+00
        -11   -1    0    0    0    0  0.00000000000E+00  0.00000000000E+00  0.45593999997E+02  0.45594000000E+02  0.51100000000E-03 0.  1.
         11   -1    0    0    0    0 -0.00000000000E+00 -0.00000000000E+00 -0.45593999997E+02  0.45594000000E+02  0.51100000000E-03 0. -1.
    9900012    2    1    2    0    0 -0.33112912506E+02  0.51444015520E+01 -0.27580671634E+02  0.47787270861E+02  0.19999999164E+02 0.  0.
        -12    1    1    2    0    0  0.33112912506E+02 -0.51444015520E+01  0.27580671634E+02  0.43400729139E+02  0.00000000000E+00 0.  1.
         11    1    3    3    0    0 -0.87855436639E+01 -0.33362073205E+00 -0.13040050124E+01  0.88880543201E+01  0.51100000000E-03 0. -1.
        -11    1    3    3    0    0 -0.12406593080E+01  0.30265206078E+01 -0.10063827800E+02  0.10582045773E+02  0.51100000000E-03 0.  1.
         12    1    3    3    0    0 -0.23086709535E+02  0.24515016763E+01 -0.16212838822E+02  0.28317170767E+02  0.00000000000E+00 0. -1.
</event>
<event>
 7    1  0.1457722E-010  0.4778728E+02  0.7816164E-02  0.1312668E+00
        -11   -1    0    0    0    0  0.00000000000E+00  0.00000000000E+00  0.45593999997E+02  0.45594000000E+02  0.51100000000E-03 0.  1.
         11   -1    0    0    0    0 -0.00000000000E+00 -0.00000000000E+00 -0.45593999997E+02  0.45594000000E+02  0.51100000000E-03 0. -1.
    9900012    2    1    2    0    0  0.32660389999E+02 -0.12120517123E+02 -0.25884646030E+02  0.47787275233E+02  0.20000019095E+02 0.  0.
        -12    1    1    2    0    0 -0.32660389999E+02  0.12120517123E+02  0.25884646030E+02  0.43400724767E+02  0.00000000000E+00 0.  1.
         11    1    3    3    0    0  0.27553975317E+02 -0.41780093338E+01 -0.16452035371E+02  0.32362737615E+02  0.51100000000E-03 0. -1.
        -11    1    3    3    0    0  0.47249289727E+01 -0.77336507485E+01 -0.38858248602E+01  0.98607272959E+01  0.51100000000E-03 0.  1.
         12    1    3    3    0    0  0.38148570925E+00 -0.20885704083E+00 -0.55467857982E+01  0.55638103222E+01  0.00000000000E+00 0. -1.
</event>
<event>
 7    1  0.2000914E-010  0.4778727E+02  0.7816164E-02  0.1312668E+00
        -11   -1    0    0    0    0  0.00000000000E+00  0.00000000000E+00  0.45593999997E+02  0.45594000000E+02  0.51100000000E-03 0. -1.
         11   -1    0    0    0    0 -0.00000000000E+00 -0.00000000000E+00 -0.45593999997E+02  0.45594000000E+02  0.51100000000E-03 0.  1.
    9900012    2    1    2    0    0  0.15073370527E+02  0.39890804165E+02  0.80709585384E+01  0.47787272729E+02  0.20000007678E+02 0.  0.
        -12    1    1    2    0    0 -0.15073370527E+02 -0.39890804165E+02 -0.80709585384E+01  0.43400727271E+02  0.00000000000E+00 0.  1.
         11    1    3    3    0    0 -0.18240099814E+01  0.11687172682E+02  0.15792596270E+01  0.11933611312E+02  0.51100000000E-03 0. -1.
        -11    1    3    3    0    0  0.69700433778E+01  0.23166254815E+01 -0.14014989338E+00  0.73462848136E+01  0.51100000000E-03 0.  1.
         12    1    3    3    0    0  0.99273371301E+01  0.25887006002E+02  0.66318488049E+01  0.28507376603E+02  0.00000000000E+00 0. -1.
</event>
<event>
 7    1  0.1457722E-010  0.4778727E+02  0.7816164E-02  0.1312668E+00
        -11   -1    0    0    0    0  0.00000000000E+00  0.00000000000E+00  0.45593999997E+02  0.45594000000E+02  0.51100000000E-03 0.  1.
         11   -1    0    0    0    0 -0.00000000000E+00 -0.00000000000E+00 -0.45593999997E+02  0.45594000000E+02  0.51100000000E-03 0. -1.
    9900012    2    1    2    0    0  0.37563298331E+01 -0.12475319779E+02 -0.41399027827E+02  0.47787272789E+02  0.20000007955E+02 0.  0.
        -12    1    1    2    0    0 -0.37563298331E+01  0.12475319779E+02  0.41399027827E+02  0.43400727211E+02  0.00000000000E+00 0.  1.
         11    1    3    3    0    0  0.18009733431E+01  0.21537711818E+01 -0.22948865751E+01  0.36261191293E+01  0.51100000000E-03 0. -1.
        -11    1    3    3    0    0  0.28131179878E+01 -0.44465340968E+01 -0.19241449207E+01  0.56024666196E+01  0.51100000000E-03 0.  1.
        -12    1    3    3    0    0 -0.85776149774E+00 -0.10182556864E+02 -0.37179996331E+02  0.38558687040E+02  0.00000000000E+00 0.  1.
</event>
<event>
 7    1  0.1457722E-010  0.4778727E+02  0.7816164E-02  0.1312668E+00
        -11   -1    0    0    0    0  0.00000000000E+00  0.00000000000E+00  0.45593999997E+02  0.45594000000E+02  0.51100000000E-03 0.  1.
         11   -1    0    0    0    0 -0.00000000000E+00 -0.00000000000E+00 -0.45593999997E+02  0.45594000000E+02  0.51100000000E-03 0. -1.
    9900012    2    1    2    0    0 -0.21627667230E+02 -0.11411820293E+02 -0.35855787158E+02  0.47787272990E+02  0.20000008872E+02 0.  0.
        -12    1    1    2    0    0  0.21627667230E+02  0.11411820293E+02  0.35855787158E+02  0.43400727010E+02  0.00000000000E+00 0.  1.
         11    1    3    3    0    0 -0.11105697689E+02 -0.87081609859E+01 -0.14892899801E+02  0.20517481660E+02  0.51100000000E-03 0. -1.
        -11    1    3    3    0    0 -0.73965679686E+01  0.41591844703E+01 -0.56321206486E+01  0.10184734480E+02  0.51100000000E-03 0.  1.
         12    1    3    3    0    0 -0.31254015724E+01 -0.68628437774E+01 -0.15330766709E+02  0.17085056850E+02  0.00000000000E+00 0. -1.
</event>
<event>
 7    1  0.1457722E-010  0.4778727E+02  0.7816164E-02  0.1312668E+00
        -11   -1    0    0    0    0  0.00000000000E+00  0.00000000000E+00  0.45593999997E+02  0.45594000000E+02  0.51100000000E-03 0. -1.
         11   -1    0    0    0    0 -0.00000000000E+00 -0.00000000000E+00 -0.45593999997E+02  0.45594000000E+02  0.51100000000E-03 0.  1.
    9900012    2    1    2    0    0  0.39544146860E+02  0.52777637557E+01  0.17088851075E+02  0.47787272216E+02  0.20000005342E+02 0.  0.
        -12    1    1    2    0    0 -0.39544146860E+02 -0.52777637557E+01 -0.17088851075E+02  0.43400727784E+02  0.00000000000E+00 0.  1.
         11    1    3    3    0    0  0.46792413484E+01 -0.22614546256E+00 -0.23778797309E+01  0.52536419408E+01  0.51100000000E-03 0. -1.
        -11    1    3    3    0    0  0.15423827793E+00  0.23844555751E+01  0.34054817486E+01  0.41601350985E+01  0.51100000000E-03 0.  1.
         12    1    3    3    0    0  0.34710667233E+02  0.31194536432E+01  0.16061249057E+02  0.38373495177E+02  0.00000000000E+00 0. -1.
</event>
<event>
 7    1  0.1457722E-010  0.4778727E+02  0.7816164E-02  0.1312668E+00
        -11   -1    0    0    0    0  0.00000000000E+00  0.00000000000E+00  0.45593999997E+02  0.45594000000E+02  0.51100000000E-03 0.  1.
         11   -1    0    0    0    0 -0.00000000000E+00 -0.00000000000E+00 -0.45593999997E+02  0.45594000000E+02  0.51100000000E-03 0. -1.
    9900012    2    1    2    0    0 -0.16978119785E+01 -0.40550075082E+02 -0.15376346764E+02  0.47787271959E+02  0.20000004169E+02 0.  0.
        -12    1    1    2    0    0  0.16978119785E+01  0.40550075082E+02  0.15376346764E+02  0.43400728041E+02  0.00000000000E+00 0.  1.
         11    1    3    3    0    0 -0.13894213160E+00 -0.16464785962E+02 -0.26810118025E+01  0.16682215268E+02  0.51100000000E-03 0. -1.
        -11    1    3    3    0    0  0.56442757789E-01 -0.19413499695E+02 -0.22429290650E+01  0.19542719546E+02  0.51100000000E-03 0.  1.
        -12    1    3    3    0    0 -0.16153126046E+01 -0.46717894254E+01 -0.10452405896E+02  0.11562337145E+02  0.00000000000E+00 0.  1.
</event>
<event>
 7    1  0.1457722E-010  0.4778727E+02  0.7816164E-02  0.1312668E+00
        -11   -1    0    0    0    0  0.00000000000E+00  0.00000000000E+00  0.45593999997E+02  0.45594000000E+02  0.51100000000E-03 0.  1.
         11   -1    0    0    0    0 -0.00000000000E+00 -0.00000000000E+00 -0.45593999997E+02  0.45594000000E+02  0.51100000000E-03 0. -1.
    9900012    2    1    2    0    0  0.33646783894E+01  0.16485182796E+02 -0.40006764279E+02  0.47787268433E+02  0.19999988094E+02 0.  0.
        -12    1    1    2    0    0 -0.33646783894E+01 -0.16485182796E+02  0.40006764279E+02  0.43400731567E+02  0.00000000000E+00 0.  1.
         11    1    3    3    0    0  0.30780153537E+01  0.13657563999E+02 -0.15590791555E+02  0.20954140748E+02  0.51100000000E-03 0. -1.
        -11    1    3    3    0    0 -0.76154657653E+00 -0.16877084060E+01  0.12731288510E+00  0.18559422631E+01  0.51100000000E-03 0.  1.
         12    1    3    3    0    0  0.10482096122E+01  0.45153272025E+01 -0.24543285609E+02  0.24977185422E+02  0.00000000000E+00 0. -1.
</event>
<event>
 7    1  0.1457722E-010  0.4778727E+02  0.7816164E-02  0.1312668E+00
        -11   -1    0    0    0    0  0.00000000000E+00  0.00000000000E+00  0.45593999997E+02  0.45594000000E+02  0.51100000000E-03 0. -1.
         11   -1    0    0    0    0 -0.00000000000E+00 -0.00000000000E+00 -0.45593999997E+02  0.45594000000E+02  0.51100000000E-03 0.  1.
    9900012    2    1    2    0    0  0.82030066941E+01  0.33008358044E+02  0.26958900440E+02  0.47787270369E+02  0.19999996920E+02 0.  0.
        -12    1    1    2    0    0 -0.82030066941E+01 -0.33008358044E+02 -0.26958900440E+02  0.43400729631E+02  0.00000000000E+00 0.  1.
         11    1    3    3    0    0  0.68522744837E+01  0.16258748814E+02  0.19579347569E+02  0.26356240818E+02  0.51100000000E-03 0. -1.
        -11    1    3    3    0    0  0.18748509388E+01  0.10098435622E+01  0.50893152604E+01  0.55168813784E+01  0.51100000000E-03 0.  1.
         12    1    3    3    0    0 -0.52411872845E+00  0.15739765668E+02  0.22902376106E+01  0.15914148172E+02  0.00000000000E+00 0. -1.
</event>
<event>
 7    1  0.1457722E-010  0.4778727E+02  0.7816164E-02  0.1312668E+00
        -11   -1    0    0    0    0  0.00000000000E+00  0.00000000000E+00  0.45593999997E+02  0.45594000000E+02  0.51100000000E-03 0. -1.
         11   -1    0    0    0    0 -0.00000000000E+00 -0.00000000000E+00 -0.45593999997E+02  0.45594000000E+02  0.51100000000E-03 0.  1.
    9900012    2    1    2    0    0  0.36562817553E+02  0.15610184388E+02  0.17409939149E+02  0.47787268840E+02  0.19999989951E+02 0.  0.
        -12    1    1    2    0    0 -0.36562817553E+02 -0.15610184388E+02 -0.17409939149E+02  0.43400731160E+02  0.00000000000E+00 0.  1.
         11    1    3    3    0    0  0.21040283597E+02  0.79777049764E+01  0.55331069164E+01  0.23172237332E+02  0.51100000000E-03 0. -1.
        -11    1    3    3    0    0  0.16308309859E+02  0.98007113817E+01  0.93701228947E+01  0.21208821687E+02  0.51100000000E-03 0.  1.
        -12    1    3    3    0    0 -0.78577590325E+00 -0.21682319699E+01  0.25067093379E+01  0.34062098218E+01  0.00000000000E+00 0.  1.
</event>
<event>
 7    1  0.1457722E-010  0.4778730E+02  0.7816164E-02  0.1312668E+00
        -11   -1    0    0    0    0  0.00000000000E+00  0.00000000000E+00  0.45593999997E+02  0.45594000000E+02  0.51100000000E-03 0. -1.
         11   -1    0    0    0    0 -0.00000000000E+00 -0.00000000000E+00 -0.45593999997E+02  0.45594000000E+02  0.51100000000E-03 0.  1.
    9900012    2    1    2    0    0 -0.40701031266E+02 -0.14937720376E+02 -0.19777004582E+01  0.47787300291E+02  0.20000133345E+02 0.  0.
        -12    1    1    2    0    0  0.40701031266E+02  0.14937720376E+02  0.19777004582E+01  0.43400699709E+02  0.00000000000E+00 0.  1.
         11    1    3    3    0    0 -0.14365001939E+02 -0.11957030735E+02  0.10323636794E+01  0.18718697597E+02  0.51100000000E-03 0. -1.
        -11    1    3    3    0    0 -0.14054579536E+01  0.26137668139E+01  0.11478678620E+01  0.31819317885E+01  0.51100000000E-03 0.  1.
         12    1    3    3    0    0 -0.24930571374E+02 -0.55944564555E+01 -0.41579319995E+01  0.25886670905E+02  0.00000000000E+00 0. -1.
</event>
<event>
 7    1  0.1457722E-010  0.4778730E+02  0.7816164E-02  0.1312668E+00
        -11   -1    0    0    0    0  0.00000000000E+00  0.00000000000E+00  0.45593999997E+02  0.45594000000E+02  0.51100000000E-03 0.  1.
         11   -1    0    0    0    0 -0.00000000000E+00 -0.00000000000E+00 -0.45593999997E+02  0.45594000000E+02  0.51100000000E-03 0. -1.
    9900012    2    1    2    0    0 -0.21202672528E+01 -0.30229028514E+01 -0.43243347804E+02  0.47787301800E+02  0.20000140228E+02 0.  0.
        -12    1    1    2    0    0  0.21202672528E+01  0.30229028514E+01  0.43243347804E+02  0.43400698200E+02  0.00000000000E+00 0.  1.
         11    1    3    3    0    0 -0.67572135630E+01 -0.68055934257E+00 -0.23292607379E+02  0.24262494820E+02  0.51100000000E-03 0. -1.
        -11    1    3    3    0    0  0.59463170307E+01 -0.14263785910E+01 -0.20824371414E+02  0.21703633041E+02  0.51100000000E-03 0.  1.
        -12    1    3    3    0    0 -0.13093707205E+01 -0.91596491791E+00  0.87363098805E+00  0.18211739395E+01  0.00000000000E+00 0.  1.
</event>
<event>
 7    1  0.1457722E-010  0.4778727E+02  0.7816164E-02  0.1312668E+00
        -11   -1    0    0    0    0  0.00000000000E+00  0.00000000000E+00  0.45593999997E+02  0.45594000000E+02  0.51100000000E-03 0.  1.
         11   -1    0    0    0    0 -0.00000000000E+00 -0.00000000000E+00 -0.45593999997E+02  0.45594000000E+02  0.51100000000E-03 0. -1.
    9900012    2    1    2    0    0  0.10370819454E+02  0.41221551185E+01 -0.41941356564E+02  0.47787269023E+02  0.19999990782E+02 0.  0.
        -12    1    1    2    0    0 -0.10370819454E+02 -0.41221551185E+01  0.41941356564E+02  0.43400730977E+02  0.00000000000E+00 0.  1.
         11    1    3    3    0    0  0.12705527818E+02  0.99502548608E+00 -0.19266494709E+02  0.23100180334E+02  0.51100000000E-03 0. -1.
        -11    1    3    3    0    0  0.41174781722E+00  0.58559070313E+01 -0.14433852466E+02  0.15581953687E+02  0.51100000000E-03 0.  1.
        -12    1    3    3    0    0 -0.27464561815E+01 -0.27287773988E+01 -0.82410093886E+01  0.91051350013E+01  0.00000000000E+00 0.  1.
</event>
<event>
 7    1  0.1457722E-010  0.4778727E+02  0.7816164E-02  0.1312668E+00
        -11   -1    0    0    0    0  0.00000000000E+00  0.00000000000E+00  0.45593999997E+02  0.45594000000E+02  0.51100000000E-03 0.  1.
         11   -1    0    0    0    0 -0.00000000000E+00 -0.00000000000E+00 -0.45593999997E+02  0.45594000000E+02  0.51100000000E-03 0. -1.
    9900012    2    1    2    0    0 -0.40098871021E+02 -0.15746451129E+02 -0.52681204222E+01  0.47787271053E+02  0.20000000040E+02 0.  0.
        -12    1    1    2    0    0  0.40098871021E+02  0.15746451129E+02  0.52681204222E+01  0.43400728947E+02  0.00000000000E+00 0.  1.
         11    1    3    3    0    0 -0.98702714890E+01  0.39743765364E+01 -0.43324189440E+01  0.11488593573E+02  0.51100000000E-03 0.  1.
        -11    1    3    3    0    0 -0.16144885445E+02 -0.91715687970E+01 -0.19666260132E+01  0.18671974142E+02  0.51100000000E-03 0. -1.
        -12    1    3    3    0    0 -0.14083714087E+02 -0.10549258868E+02  0.10309245350E+01  0.17626703338E+02  0.00000000000E+00 0.  1.
</event>
<event>
 7    1  0.1457722E-010  0.4778727E+02  0.7816164E-02  0.1312668E+00
        -11   -1    0    0    0    0  0.00000000000E+00  0.00000000000E+00  0.45593999997E+02  0.45594000000E+02  0.51100000000E-03 0.  1.
         11   -1    0    0    0    0 -0.00000000000E+00 -0.00000000000E+00 -0.45593999997E+02  0.45594000000E+02  0.51100000000E-03 0. -1.
    9900012    2    1    2    0    0  0.33405034273E+02  0.27646150698E+02 -0.18485158402E+01  0.47787274500E+02  0.20000015754E+02 0.  0.
        -12    1    1    2    0    0 -0.33405034273E+02 -0.27646150698E+02  0.18485158402E+01  0.43400725500E+02  0.00000000000E+00 0.  1.
         11    1    3    3    0    0  0.11005792490E+02  0.77697168662E+01 -0.71046858178E+01  0.15230644416E+02  0.51100000000E-03 0. -1.
        -11    1    3    3    0    0  0.27900212356E+01  0.15228163521E+01  0.47228876199E+01  0.56928776440E+01  0.51100000000E-03 0.  1.
        -12    1    3    3    0    0  0.19609220547E+02  0.18353617479E+02  0.53328235777E+00  0.26863752439E+02  0.00000000000E+00 0.  1.
</event>
<event>
 7    1  0.1457722E-010  0.4778727E+02  0.7816164E-02  0.1312668E+00
        -11   -1    0    0    0    0  0.00000000000E+00  0.00000000000E+00  0.45593999997E+02  0.45594000000E+02  0.51100000000E-03 0. -1.
         11   -1    0    0    0    0 -0.00000000000E+00 -0.00000000000E+00 -0.45593999997E+02  0.45594000000E+02  0.51100000000E-03 0.  1.
    9900012    2    1    2    0    0 -0.33054775775E+02  0.28065821712E+02 -0.18206766610E+01  0.47787269437E+02  0.19999992671E+02 0.  0.
        -12    1    1    2    0    0  0.33054775775E+02 -0.28065821712E+02  0.18206766610E+01  0.43400730563E+02  0.00000000000E+00 0.  1.
         11    1    3    3    0    0 -0.10109633900E+02  0.14381698168E+02  0.25471065422E+01  0.17763042864E+02  0.51100000000E-03 0. -1.
        -11    1    3    3    0    0 -0.62383451933E+01 -0.86721641286E+00  0.25781871305E+01  0.68055906576E+01  0.51100000000E-03 0.  1.
        -12    1    3    3    0    0 -0.16706796682E+02  0.14551339957E+02 -0.69459703338E+01  0.23218635915E+02  0.00000000000E+00 0.  1.
</event>
<event>
 7    1  0.1457722E-010  0.4778727E+02  0.7816164E-02  0.1312668E+00
        -11   -1    0    0    0    0  0.00000000000E+00  0.00000000000E+00  0.45593999997E+02  0.45594000000E+02  0.51100000000E-03 0.  1.
         11   -1    0    0    0    0 -0.00000000000E+00 -0.00000000000E+00 -0.45593999997E+02  0.45594000000E+02  0.51100000000E-03 0. -1.
    9900012    2    1    2    0    0  0.28172503071E+02  0.14541346350E+02 -0.29639202250E+02  0.47787274281E+02  0.20000014757E+02 0.  0.
        -12    1    1    2    0    0 -0.28172503071E+02 -0.14541346350E+02  0.29639202250E+02  0.43400725719E+02  0.00000000000E+00 0.  1.
         11    1    3    3    0    0 -0.96673744764E+00  0.32834920155E+01  0.29980768908E+00  0.34359548920E+01  0.51100000000E-03 0. -1.
        -11    1    3    3    0    0  0.15077796480E+02  0.25139841679E+01 -0.93066607084E+01  0.17896200627E+02  0.51100000000E-03 0.  1.
        -12    1    3    3    0    0  0.14061444039E+02  0.87438701662E+01 -0.20632349230E+02  0.26455118762E+02  0.00000000000E+00 0.  1.
</event>
<event>
 7    1  0.1457722E-010  0.4778727E+02  0.7816164E-02  0.1312668E+00
        -11   -1    0    0    0    0  0.00000000000E+00  0.00000000000E+00  0.45593999997E+02  0.45594000000E+02  0.51100000000E-03 0.  1.
         11   -1    0    0    0    0 -0.00000000000E+00 -0.00000000000E+00 -0.45593999997E+02  0.45594000000E+02  0.51100000000E-03 0. -1.
    9900012    2    1    2    0    0 -0.11336902606E+02  0.12310027029E+02 -0.40044491425E+02  0.47787269365E+02  0.19999992342E+02 0.  0.
        -12    1    1    2    0    0  0.11336902606E+02 -0.12310027029E+02  0.40044491425E+02  0.43400730635E+02  0.00000000000E+00 0.  1.
         11    1    3    3    0    0 -0.33848766927E+01  0.25607040030E+01 -0.19170673795E+02  0.19634900795E+02  0.51100000000E-03 0. -1.
        -11    1    3    3    0    0  0.16124886597E+01  0.87244592203E+01 -0.71583440255E+01  0.11399920956E+02  0.51100000000E-03 0.  1.
         12    1    3    3    0    0 -0.95645145732E+01  0.10248638062E+01 -0.13715473605E+02  0.16752447614E+02  0.00000000000E+00 0. -1.
</event>
<event>
 7    1  0.1457722E-010  0.4778726E+02  0.7816164E-02  0.1312668E+00
        -11   -1    0    0    0    0  0.00000000000E+00  0.00000000000E+00  0.45593999997E+02  0.45594000000E+02  0.51100000000E-03 0.  1.
         11   -1    0    0    0    0 -0.00000000000E+00 -0.00000000000E+00 -0.45593999997E+02  0.45594000000E+02  0.51100000000E-03 0. -1.
    9900012    2    1    2    0    0  0.22002429286E+02 -0.26421726293E+02 -0.26484147383E+02  0.47787256027E+02  0.19999931531E+02 0.  0.
        -12    1    1    2    0    0 -0.22002429286E+02  0.26421726293E+02  0.26484147383E+02  0.43400743973E+02  0.00000000000E+00 0.  1.
         11    1    3    3    0    0  0.47947575138E+01 -0.10198248754E+02 -0.68337149631E+01  0.13179288210E+02  0.51100000000E-03 0. -1.
        -11    1    3    3    0    0  0.18532705063E+02 -0.90333864417E+01 -0.17342581548E+02  0.26941201951E+02  0.51100000000E-03 0.  1.
         12    1    3    3    0    0 -0.13250332908E+01 -0.71900910968E+01 -0.23078508720E+01  0.76667658664E+01  0.00000000000E+00 0. -1.
</event>
<event>
 7    1  0.1457722E-010  0.4778727E+02  0.7816164E-02  0.1312668E+00
        -11   -1    0    0    0    0  0.00000000000E+00  0.00000000000E+00  0.45593999997E+02  0.45594000000E+02  0.51100000000E-03 0.  1.
         11   -1    0    0    0    0 -0.00000000000E+00 -0.00000000000E+00 -0.45593999997E+02  0.45594000000E+02  0.51100000000E-03 0. -1.
    9900012    2    1    2    0    0 -0.14441704103E+02 -0.26255453195E+02 -0.31396042481E+02  0.47787272778E+02  0.20000007905E+02 0.  0.
        -12    1    1    2    0    0  0.14441704103E+02  0.26255453195E+02  0.31396042481E+02  0.43400727222E+02  0.00000000000E+00 0.  1.
         11    1    3    3    0    0 -0.13248499518E+02 -0.98969320371E+01 -0.15444315531E+02  0.22627392375E+02  0.51100000000E-03 0. -1.
        -11    1    3    3    0    0 -0.38790155021E+01 -0.13083167400E+02 -0.71817014449E+01  0.15420533921E+02  0.51100000000E-03 0.  1.
         12    1    3    3    0    0  0.26858109177E+01 -0.32753537579E+01 -0.87700255059E+01  0.97393464822E+01  0.00000000000E+00 0. -1.
</event>
<event>
 7    1  0.1457722E-010  0.4778727E+02  0.7816164E-02  0.1312668E+00
        -11   -1    0    0    0    0  0.00000000000E+00  0.00000000000E+00  0.45593999997E+02  0.45594000000E+02  0.51100000000E-03 0.  1.
         11   -1    0    0    0    0 -0.00000000000E+00 -0.00000000000E+00 -0.45593999997E+02  0.45594000000E+02  0.51100000000E-03 0. -1.
    9900012    2    1    2    0    0 -0.27841564683E+02 -0.21655088135E+02 -0.25288888671E+02  0.47787268943E+02  0.19999990418E+02 0.  0.
        -12    1    1    2    0    0  0.27841564683E+02  0.21655088135E+02  0.25288888671E+02  0.43400731057E+02  0.00000000000E+00 0.  1.
         11    1    3    3    0    0 -0.41277902922E+01 -0.74480853860E+01 -0.12498465405E+02  0.15123632710E+02  0.51100000000E-03 0. -1.
        -11    1    3    3    0    0 -0.17560850469E+02 -0.79025190478E+01 -0.13949140500E+02  0.23778389295E+02  0.51100000000E-03 0.  1.
         12    1    3    3    0    0 -0.61529239211E+01 -0.63044837007E+01  0.11587172346E+01  0.88852469376E+01  0.00000000000E+00 0. -1.
</event>
<event>
 7    1  0.1899707E-010  0.4778727E+02  0.7816164E-02  0.1312668E+00
        -11   -1    0    0    0    0  0.00000000000E+00  0.00000000000E+00  0.45593999997E+02  0.45594000000E+02  0.51100000000E-03 0. -1.
         11   -1    0    0    0    0 -0.00000000000E+00 -0.00000000000E+00 -0.45593999997E+02  0.45594000000E+02  0.51100000000E-03 0.  1.
    9900012    2    1    2    0    0  0.21164075780E+02 -0.35370206788E+02 -0.13588735396E+02  0.47787270035E+02  0.19999995396E+02 0.  0.
        -12    1    1    2    0    0 -0.21164075780E+02  0.35370206788E+02  0.13588735396E+02  0.43400729965E+02  0.00000000000E+00 0.  1.
         11    1    3    3    0    0  0.13066855859E+02 -0.82516585110E+01 -0.69900019953E+01  0.16961506960E+02  0.51100000000E-03 0. -1.
        -11    1    3    3    0    0 -0.15135339411E+01 -0.50426121376E+01 -0.39933016291E+01  0.66079634021E+01  0.51100000000E-03 0.  1.
         12    1    3    3    0    0  0.96107538626E+01 -0.22075936140E+02 -0.26054317717E+01  0.24217799672E+02  0.00000000000E+00 0. -1.
</event>
<event>
 7    1  0.1457722E-010  0.4778727E+02  0.7816164E-02  0.1312668E+00
        -11   -1    0    0    0    0  0.00000000000E+00  0.00000000000E+00  0.45593999997E+02  0.45594000000E+02  0.51100000000E-03 0.  1.
         11   -1    0    0    0    0 -0.00000000000E+00 -0.00000000000E+00 -0.45593999997E+02  0.45594000000E+02  0.51100000000E-03 0. -1.
    9900012    2    1    2    0    0  0.11672234671E+02  0.14954909448E+02 -0.39035024157E+02  0.47787268558E+02  0.19999988662E+02 0.  0.
        -12    1    1    2    0    0 -0.11672234671E+02 -0.14954909448E+02  0.39035024157E+02  0.43400731442E+02  0.00000000000E+00 0.  1.
         11    1    3    3    0    0  0.48642541864E+01  0.79886405530E+01 -0.11082985241E+02  0.14502134629E+02  0.51100000000E-03 0. -1.
        -11    1    3    3    0    0  0.11505870671E+02  0.66484156345E+01 -0.21911986601E+02  0.25626580876E+02  0.51100000000E-03 0.  1.
        -12    1    3    3    0    0 -0.46978901862E+01  0.31785326066E+00 -0.60400523143E+01  0.76585530524E+01  0.00000000000E+00 0.  1.
</event>
<event>
 7    1  0.1457722E-010  0.4778728E+02  0.7816164E-02  0.1312668E+00
        -11   -1    0    0    0    0  0.00000000000E+00  0.00000000000E+00  0.45593999997E+02  0.45594000000E+02  0.51100000000E-03 0.  1.
         11   -1    0    0    0    0 -0.00000000000E+00 -0.00000000000E+00 -0.45593999997E+02  0.45594000000E+02  0.51100000000E-03 0. -1.
    9900012    2    1    2    0    0 -0.18895589472E+02  0.19202812833E+01 -0.39024243696E+02  0.47787281368E+02  0.20000047071E+02 0.  0.
        -12    1    1    2    0    0  0.18895589472E+02 -0.19202812833E+01  0.39024243696E+02  0.43400718632E+02  0.00000000000E+00 0.  1.
         11    1    3    3    0    0 -0.10638834798E+02  0.69729315907E+01 -0.17375341031E+02  0.21533904825E+02  0.51100000000E-03 0. -1.
        -11    1    3    3    0    0 -0.75041943189E+01 -0.35917650444E+01 -0.22784487527E+02  0.24255856626E+02  0.51100000000E-03 0.  1.
        -12    1    3    3    0    0 -0.75256035538E+00 -0.14608852630E+01  0.11355848623E+01  0.19975199172E+01  0.00000000000E+00 0.  1.
</event>
<event>
 7    1  0.1457722E-010  0.4778727E+02  0.7816164E-02  0.1312668E+00
        -11   -1    0    0    0    0  0.00000000000E+00  0.00000000000E+00  0.45593999997E+02  0.45594000000E+02  0.51100000000E-03 0. -1.
         11   -1    0    0    0    0 -0.00000000000E+00 -0.00000000000E+00 -0.45593999997E+02  0.45594000000E+02  0.51100000000E-03 0.  1.
    9900012    2    1    2    0    0 -0.12126587812E+02  0.25587761282E+02  0.32891265070E+02  0.47787274461E+02  0.20000015578E+02 0.  0.
        -12    1    1    2    0    0  0.12126587812E+02 -0.25587761282E+02 -0.32891265070E+02  0.43400725539E+02  0.00000000000E+00 0.  1.
         11    1    3    3    0    0 -0.90019991915E+01  0.71469274293E+01  0.43840191595E+01  0.12301796022E+02  0.51100000000E-03 0. -1.
        -11    1    3    3    0    0 -0.63177037579E+01  0.13000015522E+02  0.22699471455E+02  0.26910588788E+02  0.51100000000E-03 0.  1.
        -12    1    3    3    0    0  0.31931151372E+01  0.54408183309E+01  0.58077744558E+01  0.85748896506E+01  0.00000000000E+00 0.  1.
</event>
<event>
 7    1  0.1457722E-010  0.4778727E+02  0.7816164E-02  0.1312668E+00
        -11   -1    0    0    0    0  0.00000000000E+00  0.00000000000E+00  0.45593999997E+02  0.45594000000E+02  0.51100000000E-03 0.  1.
         11   -1    0    0    0    0 -0.00000000000E+00 -0.00000000000E+00 -0.45593999997E+02  0.45594000000E+02  0.51100000000E-03 0. -1.
    9900012    2    1    2    0    0  0.18619445908E+02  0.73610535887E+01 -0.38506548895E+02  0.47787272084E+02  0.20000004739E+02 0.  0.
        -12    1    1    2    0    0 -0.18619445908E+02 -0.73610535887E+01  0.38506548895E+02  0.43400727916E+02  0.00000000000E+00 0.  1.
         11    1    3    3    0    0  0.84987619443E+01  0.10021961989E+02 -0.16186736385E+02  0.20848959489E+02  0.51100000000E-03 0. -1.
        -11    1    3    3    0    0  0.90105961106E+01 -0.10653416251E+01 -0.23119722774E+02  0.24836412310E+02  0.51100000000E-03 0.  1.
         12    1    3    3    0    0  0.11100878532E+01 -0.15955667755E+01  0.79991026409E+00  0.21019002849E+01  0.00000000000E+00 0. -1.
</event>
<event>
 7    1  0.1457722E-010  0.4778727E+02  0.7816164E-02  0.1312668E+00
        -11   -1    0    0    0    0  0.00000000000E+00  0.00000000000E+00  0.45593999997E+02  0.45594000000E+02  0.51100000000E-03 0.  1.
         11   -1    0    0    0    0 -0.00000000000E+00 -0.00000000000E+00 -0.45593999997E+02  0.45594000000E+02  0.51100000000E-03 0. -1.
    9900012    2    1    2    0    0 -0.80816639933E+01 -0.42587773909E+02  0.21427782419E+01  0.47787270996E+02  0.19999999780E+02 0.  0.
        -12    1    1    2    0    0  0.80816639933E+01  0.42587773909E+02 -0.21427782419E+01  0.43400729004E+02  0.00000000000E+00 0.  1.
         11    1    3    3    0    0 -0.26307268130E+01 -0.87170232763E+01 -0.35128953720E+01  0.97594903822E+01  0.51100000000E-03 0. -1.
        -11    1    3    3    0    0 -0.90224906496E+01 -0.21952495401E+02  0.85963096614E+01  0.25243096718E+02  0.51100000000E-03 0.  1.
        -12    1    3    3    0    0  0.35715534694E+01 -0.11918255232E+02 -0.29406360474E+01  0.12784683896E+02  0.00000000000E+00 0.  1.
</event>
<event>
 7    1  0.1457722E-010  0.4778728E+02  0.7816164E-02  0.1312668E+00
        -11   -1    0    0    0    0  0.00000000000E+00  0.00000000000E+00  0.45593999997E+02  0.45594000000E+02  0.51100000000E-03 0. -1.
         11   -1    0    0    0    0 -0.00000000000E+00 -0.00000000000E+00 -0.45593999997E+02  0.45594000000E+02  0.51100000000E-03 0.  1.
    9900012    2    1    2    0    0  0.40155918880E+02 -0.86866385715E+01  0.13988115307E+02  0.47787275575E+02  0.20000020659E+02 0.  0.
        -12    1    1    2    0    0 -0.40155918880E+02  0.86866385715E+01 -0.13988115307E+02  0.43400724425E+02  0.00000000000E+00 0.  1.
         11    1    3    3    0    0  0.29633563283E+02  0.15369194803E+01  0.95382535657E+01  0.31168709882E+02  0.51100000000E-03 0. -1.
        -11    1    3    3    0    0  0.10166407105E+02 -0.67643732381E+01  0.48060801677E+01  0.13122918333E+02  0.51100000000E-03 0.  1.
        -12    1    3    3    0    0  0.35594849137E+00 -0.34591848138E+01 -0.35621842658E+00  0.34956473609E+01  0.00000000000E+00 0.  1.
</event>
<event>
 7    1  0.1553491E-010  0.4778727E+02  0.7816164E-02  0.1312668E+00
        -11   -1    0    0    0    0  0.00000000000E+00  0.00000000000E+00  0.45593999997E+02  0.45594000000E+02  0.51100000000E-03 0.  1.
         11   -1    0    0    0    0 -0.00000000000E+00 -0.00000000000E+00 -0.45593999997E+02  0.45594000000E+02  0.51100000000E-03 0. -1.
    9900012    2    1    2    0    0  0.21264152872E+02 -0.27577443997E+02 -0.25902579617E+02  0.47787271370E+02  0.20000001486E+02 0.  0.
        -12    1    1    2    0    0 -0.21264152872E+02  0.27577443997E+02  0.25902579617E+02  0.43400728630E+02  0.00000000000E+00 0.  1.
         11    1    3    3    0    0  0.13690535429E+02 -0.17205625527E+02 -0.20028484072E+02  0.29742301266E+02  0.51100000000E-03 0. -1.
        -11    1    3    3    0    0 -0.21936972145E+01 -0.51082834775E+01 -0.38608108459E+01  0.67685100431E+01  0.51100000000E-03 0.  1.
        -12    1    3    3    0    0  0.97673146569E+01 -0.52635349929E+01 -0.20132846989E+01  0.11276460061E+02  0.00000000000E+00 0.  1.
</event>
<event>
 7    1  0.1457722E-010  0.4778727E+02  0.7816164E-02  0.1312668E+00
        -11   -1    0    0    0    0  0.00000000000E+00  0.00000000000E+00  0.45593999997E+02  0.45594000000E+02  0.51100000000E-03 0. -1.
         11   -1    0    0    0    0 -0.00000000000E+00 -0.00000000000E+00 -0.45593999997E+02  0.45594000000E+02  0.51100000000E-03 0.  1.
    9900012    2    1    2    0    0 -0.22475402104E+02 -0.31709589887E+02  0.19312723596E+02  0.47787273241E+02  0.20000010013E+02 0.  0.
        -12    1    1    2    0    0  0.22475402104E+02  0.31709589887E+02 -0.19312723596E+02  0.43400726759E+02  0.00000000000E+00 0.  1.
         11    1    3    3    0    0 -0.11743988689E+02 -0.10644140113E+02  0.72864929677E+01  0.17444539808E+02  0.51100000000E-03 0. -1.
        -11    1    3    3    0    0  0.57025380876E+00 -0.20002512150E+01  0.74198369985E+01  0.77058533386E+01  0.51100000000E-03 0.  1.
        -12    1    3    3    0    0 -0.11301667223E+02 -0.19065198559E+02  0.46063936297E+01  0.22636880094E+02  0.00000000000E+00 0.  1.
</event>
<event>
 7    1  0.1457722E-010  0.4778727E+02  0.7816164E-02  0.1312668E+00
        -11   -1    0    0    0    0  0.00000000000E+00  0.00000000000E+00  0.45593999997E+02  0.45594000000E+02  0.51100000000E-03 0.  1.
         11   -1    0    0    0    0 -0.00000000000E+00 -0.00000000000E+00 -0.45593999997E+02  0.45594000000E+02  0.51100000000E-03 0. -1.
    9900012    2    1    2    0    0 -0.30301328963E+02  0.16956673386E+02 -0.26036974320E+02  0.47787270271E+02  0.19999996474E+02 0.  0.
        -12    1    1    2    0    0  0.30301328963E+02 -0.16956673386E+02  0.26036974320E+02  0.43400729729E+02  0.00000000000E+00 0.  1.
         11    1    3    3    0    0 -0.22241977781E+02  0.50315707829E+01 -0.19530345792E+02  0.30024268303E+02  0.51100000000E-03 0. -1.
        -11    1    3    3    0    0 -0.61473610448E+01  0.40275401330E+01  0.63942648724E-02  0.73492291083E+01  0.51100000000E-03 0.  1.
        -12    1    3    3    0    0 -0.19119901373E+01  0.78975624705E+01 -0.65130227937E+01  0.10413772860E+02  0.00000000000E+00 0.  1.
</event>
<event>
 7    1  0.1457722E-010  0.4778727E+02  0.7816164E-02  0.1312668E+00
        -11   -1    0    0    0    0  0.00000000000E+00  0.00000000000E+00  0.45593999997E+02  0.45594000000E+02  0.51100000000E-03 0. -1.
         11   -1    0    0    0    0 -0.00000000000E+00 -0.00000000000E+00 -0.45593999997E+02  0.45594000000E+02  0.51100000000E-03 0.  1.
    9900012    2    1    2    0    0  0.18158380505E+02 -0.39415198570E+02  0.58194825717E+00  0.47787270459E+02  0.19999997332E+02 0.  0.
        -12    1    1    2    0    0 -0.18158380505E+02  0.39415198570E+02 -0.58194825717E+00  0.43400729541E+02  0.00000000000E+00 0.  1.
         11    1    3    3    0    0  0.12026944121E+02 -0.19054447963E+02  0.25664871678E+01  0.22678320676E+02  0.51100000000E-03 0. -1.
        -11    1    3    3    0    0  0.61176981368E+01 -0.68034672193E+01  0.43662079204E+01  0.10137907504E+02  0.51100000000E-03 0.  1.
        -12    1    3    3    0    0  0.13738247602E-01 -0.13557283388E+02 -0.63507468311E+01  0.14971042279E+02  0.00000000000E+00 0.  1.
</event>
<event>
 7    1  0.1457722E-010  0.4778728E+02  0.7816164E-02  0.1312668E+00
        -11   -1    0    0    0    0  0.00000000000E+00  0.00000000000E+00  0.45593999997E+02  0.45594000000E+02  0.51100000000E-03 0.  1.
         11   -1    0    0    0    0 -0.00000000000E+00 -0.00000000000E+00 -0.45593999997E+02  0.45594000000E+02  0.51100000000E-03 0. -1.
    9900012    2    1    2    0    0  0.39346018731E+01  0.43170456907E+02 -0.21102587838E+01  0.47787278420E+02  0.20000033630E+02 0.  0.
        -12    1    1    2    0    0 -0.39346018731E+01 -0.43170456907E+02  0.21102587838E+01  0.43400721580E+02  0.00000000000E+00 0.  1.
         11    1    3    3    0    0 -0.59666704377E+00  0.19525821550E+02 -0.21531478369E+01  0.19653238019E+02  0.51100000000E-03 0. -1.
        -11    1    3    3    0    0  0.59982712384E+01  0.28671335078E+01 -0.25983801956E+01  0.71380173930E+01  0.51100000000E-03 0.  1.
        -12    1    3    3    0    0 -0.14670023215E+01  0.20777501850E+02  0.26412692486E+01  0.20996023008E+02  0.00000000000E+00 0.  1.
</event>
<event>
 7    1  0.1457722E-010  0.4778727E+02  0.7816164E-02  0.1312668E+00
        -11   -1    0    0    0    0  0.00000000000E+00  0.00000000000E+00  0.45593999997E+02  0.45594000000E+02  0.51100000000E-03 0.  1.
         11   -1    0    0    0    0 -0.00000000000E+00 -0.00000000000E+00 -0.45593999997E+02  0.45594000000E+02  0.51100000000E-03 0. -1.
    9900012    2    1    2    0    0  0.32696261725E+02  0.28035149501E+02 -0.53486755315E+01  0.47787268805E+02  0.19999989789E+02 0.  0.
        -12    1    1    2    0    0 -0.32696261725E+02 -0.28035149501E+02  0.53486755315E+01  0.43400731195E+02  0.00000000000E+00 0.  1.
         11    1    3    3    0    0  0.35024251169E+01 -0.89239410787E+00 -0.48015234250E+01  0.60098233256E+01  0.51100000000E-03 0. -1.
        -11    1    3    3    0    0  0.12194613067E+02  0.75921546204E+01  0.13735657446E+01  0.14430387477E+02  0.51100000000E-03 0.  1.
         12    1    3    3    0    0  0.16999223541E+02  0.21335388989E+02 -0.19207178512E+01  0.27347058002E+02  0.00000000000E+00 0. -1.
</event>
<event>
 7    1  0.1457722E-010  0.4778727E+02  0.7816164E-02  0.1312668E+00
        -11   -1    0    0    0    0  0.00000000000E+00  0.00000000000E+00  0.45593999997E+02  0.45594000000E+02  0.51100000000E-03 0.  1.
         11   -1    0    0    0    0 -0.00000000000E+00 -0.00000000000E+00 -0.45593999997E+02  0.45594000000E+02  0.51100000000E-03 0. -1.
    9900012    2    1    2    0    0 -0.19665572609E+02  0.22684411731E+02 -0.31341758028E+02  0.47787273302E+02  0.20000010294E+02 0.  0.
        -12    1    1    2    0    0  0.19665572609E+02 -0.22684411731E+02  0.31341758028E+02  0.43400726698E+02  0.00000000000E+00 0.  1.
         11    1    3    3    0    0 -0.13625783582E+01  0.48477095138E+01 -0.88205649131E+01  0.10156735349E+02  0.51100000000E-03 0. -1.
        -11    1    3    3    0    0 -0.14779146865E+02  0.18377774022E+02 -0.11876863432E+02  0.26405030682E+02  0.51100000000E-03 0.  1.
        -12    1    3    3    0    0 -0.35238473858E+01 -0.54107180478E+00 -0.10644329683E+02  0.11225507271E+02  0.00000000000E+00 0.  1.
</event>
<event>
 7    1  0.1457722E-010  0.4778727E+02  0.7816164E-02  0.1312668E+00
        -11   -1    0    0    0    0  0.00000000000E+00  0.00000000000E+00  0.45593999997E+02  0.45594000000E+02  0.51100000000E-03 0.  1.
         11   -1    0    0    0    0 -0.00000000000E+00 -0.00000000000E+00 -0.45593999997E+02  0.45594000000E+02  0.51100000000E-03 0. -1.
    9900012    2    1    2    0    0  0.19075554953E+02 -0.27411655342E+02 -0.27719083336E+02  0.47787271591E+02  0.20000002494E+02 0.  0.
        -12    1    1    2    0    0 -0.19075554953E+02  0.27411655342E+02  0.27719083336E+02  0.43400728409E+02  0.00000000000E+00 0.  1.
         11    1    3    3    0    0  0.20852153191E+02 -0.14608110942E+02 -0.16903897649E+02  0.30560611152E+02  0.51100000000E-03 0.  1.
        -11    1    3    3    0    0  0.71950175547E-01 -0.98007881410E+01 -0.87601893129E+01  0.13145400035E+02  0.51100000000E-03 0. -1.
        -12    1    3    3    0    0 -0.18485484134E+01 -0.30027562596E+01 -0.20549963742E+01  0.40812604044E+01  0.00000000000E+00 0.  1.
</event>
<event>
 7    1  0.1457722E-010  0.4778727E+02  0.7816164E-02  0.1312668E+00
        -11   -1    0    0    0    0  0.00000000000E+00  0.00000000000E+00  0.45593999997E+02  0.45594000000E+02  0.51100000000E-03 0.  1.
         11   -1    0    0    0    0 -0.00000000000E+00 -0.00000000000E+00 -0.45593999997E+02  0.45594000000E+02  0.51100000000E-03 0. -1.
    9900012    2    1    2    0    0 -0.41255286101E+02 -0.15895112965E+01  0.13382748148E+02  0.47787272755E+02  0.20000007798E+02 0.  0.
        -12    1    1    2    0    0  0.41255286101E+02  0.15895112965E+01 -0.13382748148E+02  0.43400727245E+02  0.00000000000E+00 0.  1.
         11    1    3    3    0    0 -0.11434720460E+02  0.34628503473E+01  0.69416756903E+01  0.13817779350E+02  0.51100000000E-03 0. -1.
        -11    1    3    3    0    0 -0.21445245469E+02  0.98944096018E+00  0.90819284180E+01  0.23310061577E+02  0.51100000000E-03 0.  1.
        -12    1    3    3    0    0 -0.83753201718E+01 -0.60418026040E+01 -0.26408559606E+01  0.10659431828E+02  0.00000000000E+00 0.  1.
</event>
<event>
 7    1  0.1457722E-010  0.4778728E+02  0.7816164E-02  0.1312668E+00
        -11   -1    0    0    0    0  0.00000000000E+00  0.00000000000E+00  0.45593999997E+02  0.45594000000E+02  0.51100000000E-03 0.  1.
         11   -1    0    0    0    0 -0.00000000000E+00 -0.00000000000E+00 -0.45593999997E+02  0.45594000000E+02  0.51100000000E-03 0. -1.
    9900012    2    1    2    0    0 -0.39233830489E+02 -0.11427758849E+02 -0.14619703699E+02  0.47787275773E+02  0.20000021560E+02 0.  0.
        -12    1    1    2    0    0  0.39233830489E+02  0.11427758849E+02  0.14619703699E+02  0.43400724227E+02  0.00000000000E+00 0.  1.
         11    1    3    3    0    0 -0.80158409269E+01  0.12131886949E+01 -0.53803210073E+01  0.97300250245E+01  0.51100000000E-03 0. -1.
        -11    1    3    3    0    0 -0.55424788729E+00  0.24783006106E+01  0.31442970357E+00  0.25589120612E+01  0.51100000000E-03 0.  1.
         12    1    3    3    0    0 -0.30663741675E+02 -0.15119248155E+02 -0.95538123950E+01  0.35498338687E+02  0.00000000000E+00 0. -1.
</event>
<event>
 7    1  0.1457722E-010  0.4778727E+02  0.7816164E-02  0.1312668E+00
        -11   -1    0    0    0    0  0.00000000000E+00  0.00000000000E+00  0.45593999997E+02  0.45594000000E+02  0.51100000000E-03 0.  1.
         11   -1    0    0    0    0 -0.00000000000E+00 -0.00000000000E+00 -0.45593999997E+02  0.45594000000E+02  0.51100000000E-03 0. -1.
    9900012    2    1    2    0    0 -0.12326617896E+02  0.19830665499E+01 -0.41566153900E+02  0.47787271761E+02  0.20000003265E+02 0.  0.
        -12    1    1    2    0    0  0.12326617896E+02 -0.19830665499E+01  0.41566153900E+02  0.43400728239E+02  0.00000000000E+00 0.  1.
         11    1    3    3    0    0 -0.54768845073E+01  0.49490764515E+01 -0.12192002892E+02  0.14252528071E+02  0.51100000000E-03 0.  1.
        -11    1    3    3    0    0  0.15355791804E+01 -0.47597636658E+01 -0.30705682464E+01  0.58687088180E+01  0.51100000000E-03 0. -1.
         12    1    3    3    0    0 -0.83853125689E+01  0.17937537642E+01 -0.26303582761E+02  0.27666034872E+02  0.00000000000E+00 0. -1.
</event>
<event>
 7    1  0.1457722E-010  0.4778727E+02  0.7816164E-02  0.1312668E+00
        -11   -1    0    0    0    0  0.00000000000E+00  0.00000000000E+00  0.45593999997E+02  0.45594000000E+02  0.51100000000E-03 0.  1.
         11   -1    0    0    0    0 -0.00000000000E+00 -0.00000000000E+00 -0.45593999997E+02  0.45594000000E+02  0.51100000000E-03 0. -1.
    9900012    2    1    2    0    0 -0.69471523921E+01  0.28904608865E+01 -0.42743487092E+02  0.47787269830E+02  0.19999994465E+02 0.  0.
        -12    1    1    2    0    0  0.69471523921E+01 -0.28904608865E+01  0.42743487092E+02  0.43400730170E+02  0.00000000000E+00 0.  1.
         11    1    3    3    0    0 -0.55931068943E+01  0.33092257247E+01 -0.27474159502E+02  0.28232308801E+02  0.51100000000E-03 0. -1.
        -11    1    3    3    0    0 -0.49282947497E+01  0.28650330159E+01 -0.31797369619E+01  0.65274214457E+01  0.51100000000E-03 0.  1.
        -12    1    3    3    0    0  0.35742492519E+01 -0.32837978541E+01 -0.12089590628E+02  0.13027539584E+02  0.00000000000E+00 0.  1.
</event>
<event>
 7    1  0.1457722E-010  0.4778727E+02  0.7816164E-02  0.1312668E+00
        -11   -1    0    0    0    0  0.00000000000E+00  0.00000000000E+00  0.45593999997E+02  0.45594000000E+02  0.51100000000E-03 0.  1.
         11   -1    0    0    0    0 -0.00000000000E+00 -0.00000000000E+00 -0.45593999997E+02  0.45594000000E+02  0.51100000000E-03 0. -1.
    9900012    2    1    2    0    0 -0.13336012996E+02 -0.15199139389E+02 -0.38402610756E+02  0.47787267360E+02  0.19999983202E+02 0.  0.
        -12    1    1    2    0    0  0.13336012996E+02  0.15199139389E+02  0.38402610756E+02  0.43400732640E+02  0.00000000000E+00 0.  1.
         11    1    3    3    0    0 -0.46806236656E+01 -0.65890232955E+01 -0.14968916613E+02  0.17011523468E+02  0.51100000000E-03 0. -1.
        -11    1    3    3    0    0  0.30497360368E+01  0.17476301077E+01 -0.83273846997E+01  0.90388294090E+01  0.51100000000E-03 0.  1.
         12    1    3    3    0    0 -0.11705125367E+02 -0.10357746202E+02 -0.15106309443E+02  0.21736914483E+02  0.00000000000E+00 0. -1.
</event>
<event>
 7    1  0.1457722E-010  0.4778727E+02  0.7816164E-02  0.1312668E+00
        -11   -1    0    0    0    0  0.00000000000E+00  0.00000000000E+00  0.45593999997E+02  0.45594000000E+02  0.51100000000E-03 0. -1.
         11   -1    0    0    0    0 -0.00000000000E+00 -0.00000000000E+00 -0.45593999997E+02  0.45594000000E+02  0.51100000000E-03 0.  1.
    9900012    2    1    2    0    0  0.32916476397E+02 -0.17279372339E+02  0.22395353922E+02  0.47787274152E+02  0.20000014169E+02 0.  0.
        -12    1    1    2    0    0 -0.32916476397E+02  0.17279372339E+02 -0.22395353922E+02  0.43400725848E+02  0.00000000000E+00 0.  1.
         11    1    3    3    0    0  0.15882755768E+01 -0.25459642103E+01  0.59229951393E+01  0.66397608955E+01  0.51100000000E-03 0. -1.
        -11    1    3    3    0    0  0.16742776832E+02 -0.96828716999E+01  0.11139828068E+01  0.19373165419E+02  0.51100000000E-03 0.  1.
        -12    1    3    3    0    0  0.14585423989E+02 -0.50505364286E+01  0.15358375975E+02  0.21774347837E+02  0.00000000000E+00 0.  1.
</event>
<event>
 7    1  0.1457722E-010  0.4778727E+02  0.7816164E-02  0.1312668E+00
        -11   -1    0    0    0    0  0.00000000000E+00  0.00000000000E+00  0.45593999997E+02  0.45594000000E+02  0.51100000000E-03 0.  1.
         11   -1    0    0    0    0 -0.00000000000E+00 -0.00000000000E+00 -0.45593999997E+02  0.45594000000E+02  0.51100000000E-03 0. -1.
    9900012    2    1    2    0    0 -0.14321280134E+02  0.37373269683E+02 -0.16785808463E+02  0.47787265937E+02  0.19999976713E+02 0.  0.
        -12    1    1    2    0    0  0.14321280134E+02 -0.37373269683E+02  0.16785808463E+02  0.43400734063E+02  0.00000000000E+00 0.  1.
         11    1    3    3    0    0 -0.72542175402E+01  0.20809198113E+02 -0.41496283912E+01  0.22424669769E+02  0.51100000000E-03 0. -1.
        -11    1    3    3    0    0 -0.10413197742E+02  0.12428494148E+02 -0.11616387133E+02  0.19945992186E+02  0.51100000000E-03 0.  1.
        -12    1    3    3    0    0  0.33461351491E+01  0.41355774223E+01 -0.10197929391E+01  0.54166039814E+01  0.00000000000E+00 0.  1.
</event>
<event>
 7    1  0.1457722E-010  0.4778727E+02  0.7816164E-02  0.1312668E+00
        -11   -1    0    0    0    0  0.00000000000E+00  0.00000000000E+00  0.45593999997E+02  0.45594000000E+02  0.51100000000E-03 0. -1.
         11   -1    0    0    0    0 -0.00000000000E+00 -0.00000000000E+00 -0.45593999997E+02  0.45594000000E+02  0.51100000000E-03 0.  1.
    9900012    2    1    2    0    0  0.41322262216E+02  0.10394074571E+02  0.82496606678E+01  0.47787273716E+02  0.20000012181E+02 0.  0.
        -12    1    1    2    0    0 -0.41322262216E+02 -0.10394074571E+02 -0.82496606678E+01  0.43400726284E+02  0.00000000000E+00 0.  1.
         11    1    3    3    0    0  0.19524148294E+02  0.35943492713E+01  0.27047424339E+01  0.20035651854E+02  0.51100000000E-03 0. -1.
        -11    1    3    3    0    0  0.22132878280E+02  0.97674959557E+01  0.46637571455E+01  0.24637753736E+02  0.51100000000E-03 0.  1.
        -12    1    3    3    0    0 -0.33476435828E+00 -0.29677706562E+01  0.88116108841E+00  0.31138681261E+01  0.00000000000E+00 0.  1.
</event>
<event>
 7    1  0.1457722E-010  0.4778727E+02  0.7816164E-02  0.1312668E+00
        -11   -1    0    0    0    0  0.00000000000E+00  0.00000000000E+00  0.45593999997E+02  0.45594000000E+02  0.51100000000E-03 0.  1.
         11   -1    0    0    0    0 -0.00000000000E+00 -0.00000000000E+00 -0.45593999997E+02  0.45594000000E+02  0.51100000000E-03 0. -1.
    9900012    2    1    2    0    0  0.19598265309E+02  0.21105677666E+02 -0.32466619554E+02  0.47787273991E+02  0.20000013432E+02 0.  0.
        -12    1    1    2    0    0 -0.19598265309E+02 -0.21105677666E+02  0.32466619554E+02  0.43400726009E+02  0.00000000000E+00 0.  1.
         11    1    3    3    0    0  0.24211976302E+01  0.32293652994E+01 -0.16628936279E+00  0.40396349606E+01  0.51100000000E-03 0. -1.
        -11    1    3    3    0    0  0.25507546024E+01  0.73195436295E+01 -0.21188090766E+02  0.22561410828E+02  0.51100000000E-03 0.  1.
        -12    1    3    3    0    0  0.14626313076E+02  0.10556768737E+02 -0.11112239426E+02  0.21186228202E+02  0.00000000000E+00 0.  1.
</event>
<event>
 7    1  0.1457722E-010  0.4778725E+02  0.7816164E-02  0.1312668E+00
        -11   -1    0    0    0    0  0.00000000000E+00  0.00000000000E+00  0.45593999997E+02  0.45594000000E+02  0.51100000000E-03 0.  1.
         11   -1    0    0    0    0 -0.00000000000E+00 -0.00000000000E+00 -0.45593999997E+02  0.45594000000E+02  0.51100000000E-03 0. -1.
    9900012    2    1    2    0    0  0.28854742837E+02  0.27167997198E+02 -0.17689799660E+02  0.47787248071E+02  0.19999895257E+02 0.  0.
        -12    1    1    2    0    0 -0.28854742837E+02 -0.27167997198E+02  0.17689799660E+02  0.43400751929E+02  0.00000000000E+00 0.  1.
         11    1    3    3    0    0  0.15060996529E+02  0.13211586458E+02 -0.31021878342E+01  0.20273213924E+02  0.51100000000E-03 0. -1.
        -11    1    3    3    0    0  0.75914308840E+00 -0.78292644053E+00 -0.59093326189E+01  0.60091167655E+01  0.51100000000E-03 0.  1.
         12    1    3    3    0    0  0.13034603220E+02  0.14739337180E+02 -0.86782792072E+01  0.21504917382E+02  0.00000000000E+00 0. -1.
</event>
<event>
 7    1  0.1457722E-010  0.4778727E+02  0.7816164E-02  0.1312668E+00
        -11   -1    0    0    0    0  0.00000000000E+00  0.00000000000E+00  0.45593999997E+02  0.45594000000E+02  0.51100000000E-03 0. -1.
         11   -1    0    0    0    0 -0.00000000000E+00 -0.00000000000E+00 -0.45593999997E+02  0.45594000000E+02  0.51100000000E-03 0.  1.
    9900012    2    1    2    0    0 -0.53035809681E+01  0.96381790352E+00  0.43064677260E+02  0.47787270241E+02  0.19999996338E+02 0.  0.
        -12    1    1    2    0    0  0.53035809681E+01 -0.96381790352E+00 -0.43064677260E+02  0.43400729759E+02  0.00000000000E+00 0.  1.
         11    1    3    3    0    0  0.39105508146E+01  0.51824963436E+01  0.20797394554E+02  0.21787204881E+02  0.51100000000E-03 0. -1.
        -11    1    3    3    0    0 -0.37956062275E+01 -0.32589155387E+01  0.27228202330E+01  0.56956920040E+01  0.51100000000E-03 0.  1.
        -12    1    3    3    0    0 -0.54185255551E+01 -0.95976290143E+00  0.19544462473E+02  0.20304373356E+02  0.00000000000E+00 0.  1.
</event>
<event>
 7    1  0.1457722E-010  0.4778728E+02  0.7816164E-02  0.1312668E+00
        -11   -1    0    0    0    0  0.00000000000E+00  0.00000000000E+00  0.45593999997E+02  0.45594000000E+02  0.51100000000E-03 0. -1.
         11   -1    0    0    0    0 -0.00000000000E+00 -0.00000000000E+00 -0.45593999997E+02  0.45594000000E+02  0.51100000000E-03 0.  1.
    9900012    2    1    2    0    0  0.13144118576E+02 -0.36389824538E+02  0.19663053700E+02  0.47787275768E+02  0.20000021537E+02 0.  0.
        -12    1    1    2    0    0 -0.13144118576E+02  0.36389824538E+02 -0.19663053700E+02  0.43400724232E+02  0.00000000000E+00 0.  1.
         11    1    3    3    0    0  0.71742395893E+01 -0.10750384236E+02  0.98179157797E+01  0.16230586725E+02  0.51100000000E-03 0. -1.
        -11    1    3    3    0    0 -0.47540053024E+01 -0.69231605583E+01  0.23508782077E+01  0.87210863509E+01  0.51100000000E-03 0.  1.
         12    1    3    3    0    0  0.10723884289E+02 -0.18716279744E+02  0.74942597127E+01  0.22835602693E+02  0.00000000000E+00 0. -1.
</event>
<event>
 7    1  0.1457722E-010  0.4778727E+02  0.7816164E-02  0.1312668E+00
        -11   -1    0    0    0    0  0.00000000000E+00  0.00000000000E+00  0.45593999997E+02  0.45594000000E+02  0.51100000000E-03 0.  1.
         11   -1    0    0    0    0 -0.00000000000E+00 -0.00000000000E+00 -0.45593999997E+02  0.45594000000E+02  0.51100000000E-03 0. -1.
    9900012    2    1    2    0    0  0.73158791664E+01 -0.15897707984E+02 -0.39716041796E+02  0.47787272090E+02  0.20000004769E+02 0.  0.
        -12    1    1    2    0    0 -0.73158791664E+01  0.15897707984E+02  0.39716041796E+02  0.43400727910E+02  0.00000000000E+00 0.  1.
         11    1    3    3    0    0  0.10856189536E+01  0.12599750372E+01 -0.69006654826E+01  0.70982596438E+01  0.51100000000E-03 0. -1.
        -11    1    3    3    0    0  0.85201526616E+01 -0.47437155485E+01 -0.22006254539E+02  0.24070128327E+02  0.51100000000E-03 0.  1.
        -12    1    3    3    0    0 -0.22898924488E+01 -0.12413967473E+02 -0.10809121775E+02  0.16618884120E+02  0.00000000000E+00 0.  1.
</event>
<event>
 7    1  0.1457722E-010  0.4778728E+02  0.7816164E-02  0.1312668E+00
        -11   -1    0    0    0    0  0.00000000000E+00  0.00000000000E+00  0.45593999997E+02  0.45594000000E+02  0.51100000000E-03 0.  1.
         11   -1    0    0    0    0 -0.00000000000E+00 -0.00000000000E+00 -0.45593999997E+02  0.45594000000E+02  0.51100000000E-03 0. -1.
    9900012    2    1    2    0    0  0.88361313159E+01  0.41681404170E+02 -0.82586830118E+01  0.47787279783E+02  0.20000039844E+02 0.  0.
        -12    1    1    2    0    0 -0.88361313159E+01 -0.41681404170E+02  0.82586830118E+01  0.43400720217E+02  0.00000000000E+00 0.  1.
         11    1    3    3    0    0  0.29100808491E+00  0.25862559814E+02  0.11574337756E+01  0.25890081867E+02  0.51100000000E-03 0.  1.
        -11    1    3    3    0    0  0.68369775043E+01  0.13980082018E+02 -0.42163273000E+01  0.16123410644E+02  0.51100000000E-03 0. -1.
        -12    1    3    3    0    0  0.17081457266E+01  0.18387623380E+01 -0.51997894874E+01  0.57737872728E+01  0.00000000000E+00 0.  1.
</event>
<event>
 7    1  0.1457722E-010  0.4778728E+02  0.7816164E-02  0.1312668E+00
        -11   -1    0    0    0    0  0.00000000000E+00  0.00000000000E+00  0.45593999997E+02  0.45594000000E+02  0.51100000000E-03 0.  1.
         11   -1    0    0    0    0 -0.00000000000E+00 -0.00000000000E+00 -0.45593999997E+02  0.45594000000E+02  0.51100000000E-03 0. -1.
    9900012    2    1    2    0    0 -0.14981097032E+02 -0.18353573832E+02 -0.36363932766E+02  0.47787279419E+02  0.20000038184E+02 0.  0.
        -12    1    1    2    0    0  0.14981097032E+02  0.18353573832E+02  0.36363932766E+02  0.43400720581E+02  0.00000000000E+00 0.  1.
         11    1    3    3    0    0 -0.53700839763E+01 -0.10652449697E+02 -0.16801896955E+02  0.20606218188E+02  0.51100000000E-03 0. -1.
        -11    1    3    3    0    0 -0.49764001616E+01 -0.11396364864E+02 -0.10121355234E+02  0.16033824332E+02  0.51100000000E-03 0.  1.
         12    1    3    3    0    0 -0.46346128944E+01  0.36952407286E+01 -0.94406805769E+01  0.11147236899E+02  0.00000000000E+00 0. -1.
</event>
<event>
 7    1  0.1457722E-010  0.4778727E+02  0.7816164E-02  0.1312668E+00
        -11   -1    0    0    0    0  0.00000000000E+00  0.00000000000E+00  0.45593999997E+02  0.45594000000E+02  0.51100000000E-03 0.  1.
         11   -1    0    0    0    0 -0.00000000000E+00 -0.00000000000E+00 -0.45593999997E+02  0.45594000000E+02  0.51100000000E-03 0. -1.
    9900012    2    1    2    0    0  0.10839126172E+01  0.36137852806E+02 -0.24010491854E+02  0.47787274303E+02  0.20000014858E+02 0.  0.
        -12    1    1    2    0    0 -0.10839126172E+01 -0.36137852806E+02  0.24010491854E+02  0.43400725697E+02  0.00000000000E+00 0.  1.
         11    1    3    3    0    0  0.18237661138E+01  0.26790164682E+02 -0.25386555212E+02  0.36952892070E+02  0.51100000000E-03 0. -1.
        -11    1    3    3    0    0 -0.91270218938E+00 -0.24950559177E+00  0.76401210918E+00  0.12161385986E+01  0.51100000000E-03 0.  1.
        -12    1    3    3    0    0  0.17284869278E+00  0.95971937151E+01  0.61205124965E+00  0.96182436343E+01  0.00000000000E+00 0.  1.
</event>
<event>
 7    1  0.1457722E-010  0.4778727E+02  0.7816164E-02  0.1312668E+00
        -11   -1    0    0    0    0  0.00000000000E+00  0.00000000000E+00  0.45593999997E+02  0.45594000000E+02  0.51100000000E-03 0.  1.
         11   -1    0    0    0    0 -0.00000000000E+00 -0.00000000000E+00 -0.45593999997E+02  0.45594000000E+02  0.51100000000E-03 0. -1.
    9900012    2    1    2    0    0 -0.15884808276E+02  0.81206156589E+01 -0.39564526650E+02  0.47787270724E+02  0.19999998540E+02 0.  0.
        -12    1    1    2    0    0  0.15884808276E+02 -0.81206156589E+01  0.39564526650E+02  0.43400729276E+02  0.00000000000E+00 0.  1.
         11    1    3    3    0    0 -0.16711192836E+02  0.94426079845E+01 -0.21148638549E+02  0.28560317300E+02  0.51100000000E-03 0. -1.
        -11    1    3    3    0    0  0.17889119793E+01  0.51897798112E+00 -0.22179825217E+01  0.28963754837E+01  0.51100000000E-03 0.  1.
         12    1    3    3    0    0 -0.96252741889E+00 -0.18409703067E+01 -0.16197905579E+02  0.16330577940E+02  0.00000000000E+00 0. -1.
</event>
<event>
 7    1  0.1457722E-010  0.4778727E+02  0.7816164E-02  0.1312668E+00
        -11   -1    0    0    0    0  0.00000000000E+00  0.00000000000E+00  0.45593999997E+02  0.45594000000E+02  0.51100000000E-03 0. -1.
         11   -1    0    0    0    0 -0.00000000000E+00 -0.00000000000E+00 -0.45593999997E+02  0.45594000000E+02  0.51100000000E-03 0.  1.
    9900012    2    1    2    0    0 -0.94749450430E+00 -0.22100026507E+02  0.37340524451E+02  0.47787266323E+02  0.19999978474E+02 0.  0.
        -12    1    1    2    0    0  0.94749450430E+00  0.22100026507E+02 -0.37340524451E+02  0.43400733677E+02  0.00000000000E+00 0.  1.
         11    1    3    3    0    0 -0.26483410153E+01 -0.80584453844E+01  0.37307500420E+01  0.92666470896E+01  0.51100000000E-03 0. -1.
        -11    1    3    3    0    0  0.30780668391E+01  0.13526596487E+01  0.57505286842E+01  0.66612884639E+01  0.51100000000E-03 0.  1.
         12    1    3    3    0    0 -0.13772203281E+01 -0.15394240771E+02  0.27859245724E+02  0.31859330770E+02  0.00000000000E+00 0. -1.
</event>
<event>
 7    1  0.1457722E-010  0.4778726E+02  0.7816164E-02  0.1312668E+00
        -11   -1    0    0    0    0  0.00000000000E+00  0.00000000000E+00  0.45593999997E+02  0.45594000000E+02  0.51100000000E-03 0.  1.
         11   -1    0    0    0    0 -0.00000000000E+00 -0.00000000000E+00 -0.45593999997E+02  0.45594000000E+02  0.51100000000E-03 0. -1.
    9900012    2    1    2    0    0 -0.32910601104E+02  0.27477726367E+02 -0.67446893630E+01  0.47787263302E+02  0.19999964699E+02 0.  0.
        -12    1    1    2    0    0  0.32910601104E+02 -0.27477726367E+02  0.67446893630E+01  0.43400736698E+02  0.00000000000E+00 0.  1.
         11    1    3    3    0    0 -0.29863260684E+01 -0.19860709111E+00  0.16385175947E+01  0.34120856279E+01  0.51100000000E-03 0.  1.
        -11    1    3    3    0    0 -0.24094220488E+02  0.27564075442E+02 -0.10636106915E+02  0.38123962104E+02  0.51100000000E-03 0. -1.
         12    1    3    3    0    0 -0.58300545474E+01  0.11225801592E+00  0.22528999576E+01  0.62512155704E+01  0.00000000000E+00 0. -1.
</event>
<event>
 7    1  0.1457722E-010  0.4778727E+02  0.7816164E-02  0.1312668E+00
        -11   -1    0    0    0    0  0.00000000000E+00  0.00000000000E+00  0.45593999997E+02  0.45594000000E+02  0.51100000000E-03 0.  1.
         11   -1    0    0    0    0 -0.00000000000E+00 -0.00000000000E+00 -0.45593999997E+02  0.45594000000E+02  0.51100000000E-03 0. -1.
    9900012    2    1    2    0    0 -0.93531487704E+01 -0.28185314118E+02 -0.31650119685E+02  0.47787269592E+02  0.19999993379E+02 0.  0.
        -12    1    1    2    0    0  0.93531487704E+01  0.28185314118E+02  0.31650119685E+02  0.43400730408E+02  0.00000000000E+00 0.  1.
         11    1    3    3    0    0 -0.73419380197E+01 -0.47959644763E+01 -0.34590290185E+01  0.94270998274E+01  0.51100000000E-03 0. -1.
        -11    1    3    3    0    0  0.29861903431E+01 -0.82318667072E+01 -0.46386361246E+01  0.99094857388E+01  0.51100000000E-03 0.  1.
        -12    1    3    3    0    0 -0.49974010938E+01 -0.15157482935E+02 -0.23552454542E+02  0.28450684026E+02  0.00000000000E+00 0.  1.
</event>
<event>
 7    1  0.1457722E-010  0.4778727E+02  0.7816164E-02  0.1312668E+00
        -11   -1    0    0    0    0  0.00000000000E+00  0.00000000000E+00  0.45593999997E+02  0.45594000000E+02  0.51100000000E-03 0.  1.
         11   -1    0    0    0    0 -0.00000000000E+00 -0.00000000000E+00 -0.45593999997E+02  0.45594000000E+02  0.51100000000E-03 0. -1.
    9900012    2    1    2    0    0  0.10557563480E+02 -0.16060045940E+02 -0.38913186651E+02  0.47787270541E+02  0.19999997705E+02 0.  0.
        -12    1    1    2    0    0 -0.10557563480E+02  0.16060045940E+02  0.38913186651E+02  0.43400729459E+02  0.00000000000E+00 0.  1.
         11    1    3    3    0    0  0.37944866886E+01 -0.77145612083E+01 -0.32522337352E+02  0.33639485890E+02  0.51100000000E-03 0. -1.
        -11    1    3    3    0    0  0.21110051122E+01 -0.69858109091E+01 -0.56832295350E+01  0.92497024196E+01  0.51100000000E-03 0.  1.
         12    1    3    3    0    0  0.46520716793E+01 -0.13596738223E+01 -0.70761976407E+00  0.48980822312E+01  0.00000000000E+00 0. -1.
</event>
<event>
 7    1  0.1457722E-010  0.4778727E+02  0.7816164E-02  0.1312668E+00
        -11   -1    0    0    0    0  0.00000000000E+00  0.00000000000E+00  0.45593999997E+02  0.45594000000E+02  0.51100000000E-03 0.  1.
         11   -1    0    0    0    0 -0.00000000000E+00 -0.00000000000E+00 -0.45593999997E+02  0.45594000000E+02  0.51100000000E-03 0. -1.
    9900012    2    1    2    0    0 -0.37202907966E+02 -0.24835871610E+01  0.22212575120E+02  0.47787273511E+02  0.20000011245E+02 0.  0.
        -12    1    1    2    0    0  0.37202907966E+02  0.24835871610E+01 -0.22212575120E+02  0.43400726489E+02  0.00000000000E+00 0.  1.
         11    1    3    3    0    0 -0.97378084605E+01  0.24349332790E+01  0.13272347150E+02  0.16640583308E+02  0.51100000000E-03 0. -1.
        -11    1    3    3    0    0 -0.65974696001E+01 -0.60231903192E+01  0.23969567489E+01  0.92493690954E+01  0.51100000000E-03 0.  1.
        -12    1    3    3    0    0 -0.20867629906E+02  0.11046698792E+01  0.65432712210E+01  0.21897321108E+02  0.00000000000E+00 0.  1.
</event>
<event>
 7    1  0.1457722E-010  0.4778727E+02  0.7816164E-02  0.1312668E+00
        -11   -1    0    0    0    0  0.00000000000E+00  0.00000000000E+00  0.45593999997E+02  0.45594000000E+02  0.51100000000E-03 0.  1.
         11   -1    0    0    0    0 -0.00000000000E+00 -0.00000000000E+00 -0.45593999997E+02  0.45594000000E+02  0.51100000000E-03 0. -1.
    9900012    2    1    2    0    0 -0.21599660540E+02  0.37633462650E+02 -0.89477683434E+00  0.47787268761E+02  0.19999989589E+02 0.  0.
        -12    1    1    2    0    0  0.21599660540E+02 -0.37633462650E+02  0.89477683434E+00  0.43400731239E+02  0.00000000000E+00 0.  1.
         11    1    3    3    0    0 -0.12601498014E+02  0.83182221636E+01  0.31400453727E-01  0.15099389339E+02  0.51100000000E-03 0. -1.
        -11    1    3    3    0    0 -0.40267626375E+01  0.13203254449E+01 -0.29535826280E+00  0.42479775640E+01  0.51100000000E-03 0.  1.
        -12    1    3    3    0    0 -0.49713998883E+01  0.27994915042E+02 -0.63081902527E+00  0.28439901858E+02  0.00000000000E+00 0.  1.
</event>
<event>
 7    1  0.1457722E-010  0.4778727E+02  0.7816164E-02  0.1312668E+00
        -11   -1    0    0    0    0  0.00000000000E+00  0.00000000000E+00  0.45593999997E+02  0.45594000000E+02  0.51100000000E-03 0. -1.
         11   -1    0    0    0    0 -0.00000000000E+00 -0.00000000000E+00 -0.45593999997E+02  0.45594000000E+02  0.51100000000E-03 0.  1.
    9900012    2    1    2    0    0  0.23320964246E+02  0.19832418728E+02  0.30764120804E+02  0.47787270342E+02  0.19999996800E+02 0.  0.
        -12    1    1    2    0    0 -0.23320964246E+02 -0.19832418728E+02 -0.30764120804E+02  0.43400729658E+02  0.00000000000E+00 0.  1.
         11    1    3    3    0    0  0.12917885754E+02  0.56182464582E+01  0.10373350184E+02  0.17494080710E+02  0.51100000000E-03 0. -1.
        -11    1    3    3    0    0  0.82709390199E+01  0.82729469730E+01  0.34221897678E+01  0.12188579366E+02  0.51100000000E-03 0.  1.
        -12    1    3    3    0    0  0.21321394730E+01  0.59412252968E+01  0.16968580852E+02  0.18104610266E+02  0.00000000000E+00 0.  1.
</event>
<event>
 7    1  0.1457722E-010  0.4778727E+02  0.7816164E-02  0.1312668E+00
        -11   -1    0    0    0    0  0.00000000000E+00  0.00000000000E+00  0.45593999997E+02  0.45594000000E+02  0.51100000000E-03 0.  1.
         11   -1    0    0    0    0 -0.00000000000E+00 -0.00000000000E+00 -0.45593999997E+02  0.45594000000E+02  0.51100000000E-03 0. -1.
    9900012    2    1    2    0    0  0.29940880956E+02 -0.14022486332E+02 -0.28116487118E+02  0.47787270476E+02  0.19999997409E+02 0.  0.
        -12    1    1    2    0    0 -0.29940880956E+02  0.14022486332E+02  0.28116487118E+02  0.43400729524E+02  0.00000000000E+00 0.  1.
         11    1    3    3    0    0  0.23020133294E+01 -0.75927449838E+00 -0.79949222061E+01  0.83543129266E+01  0.51100000000E-03 0. -1.
        -11    1    3    3    0    0  0.10446303386E+02  0.74739903899E+00 -0.17173334914E+01  0.10612873990E+02  0.51100000000E-03 0.  1.
         12    1    3    3    0    0  0.17192564241E+02 -0.14010610872E+02 -0.18404231421E+02  0.28820083559E+02  0.00000000000E+00 0. -1.
</event>
<event>
 7    1  0.1457722E-010  0.4778726E+02  0.7816164E-02  0.1312668E+00
        -11   -1    0    0    0    0  0.00000000000E+00  0.00000000000E+00  0.45593999997E+02  0.45594000000E+02  0.51100000000E-03 0. -1.
         11   -1    0    0    0    0 -0.00000000000E+00 -0.00000000000E+00 -0.45593999997E+02  0.45594000000E+02  0.51100000000E-03 0.  1.
    9900012    2    1    2    0    0  0.18981501218E+02  0.38030952546E+02 -0.87734425528E+01  0.47787262284E+02  0.19999960058E+02 0.  0.
        -12    1    1    2    0    0 -0.18981501218E+02 -0.38030952546E+02  0.87734425528E+01  0.43400737716E+02  0.00000000000E+00 0.  1.
         11    1    3    3    0    0 -0.88370567577E+00  0.66321243632E+01 -0.92330571531E+00  0.67541470961E+01  0.51100000000E-03 0. -1.
        -11    1    3    3    0    0  0.11095417248E+02  0.46114681363E+01 -0.34847743885E+01  0.12510698425E+02  0.51100000000E-03 0.  1.
         12    1    3    3    0    0  0.87697896456E+01  0.26787360047E+02 -0.43653624490E+01  0.28522416763E+02  0.00000000000E+00 0. -1.
</event>
<event>
 7    1  0.1457722E-010  0.4778727E+02  0.7816164E-02  0.1312668E+00
        -11   -1    0    0    0    0  0.00000000000E+00  0.00000000000E+00  0.45593999997E+02  0.45594000000E+02  0.51100000000E-03 0. -1.
         11   -1    0    0    0    0 -0.00000000000E+00 -0.00000000000E+00 -0.45593999997E+02  0.45594000000E+02  0.51100000000E-03 0.  1.
    9900012    2    1    2    0    0  0.23826379630E+02 -0.18133180276E+02  0.31418387523E+02  0.47787266507E+02  0.19999979312E+02 0.  0.
        -12    1    1    2    0    0 -0.23826379630E+02  0.18133180276E+02 -0.31418387523E+02  0.43400733493E+02  0.00000000000E+00 0.  1.
         11    1    3    3    0    0  0.19363504196E+02 -0.14886073731E+02  0.21089013472E+02  0.32268978530E+02  0.51100000000E-03 0. -1.
        -11    1    3    3    0    0 -0.51557096577E+00 -0.56887004866E+01  0.34144590869E+01  0.66547470098E+01  0.51100000000E-03 0.  1.
        -12    1    3    3    0    0  0.49784463998E+01  0.24415939410E+01  0.69149149635E+01  0.88635409674E+01  0.00000000000E+00 0.  1.
</event>
<event>
 7    1  0.1457722E-010  0.4778727E+02  0.7816164E-02  0.1312668E+00
        -11   -1    0    0    0    0  0.00000000000E+00  0.00000000000E+00  0.45593999997E+02  0.45594000000E+02  0.51100000000E-03 0. -1.
         11   -1    0    0    0    0 -0.00000000000E+00 -0.00000000000E+00 -0.45593999997E+02  0.45594000000E+02  0.51100000000E-03 0.  1.
    9900012    2    1    2    0    0  0.16380573976E+02 -0.19021002765E+02  0.35404826100E+02  0.47787268887E+02  0.19999990163E+02 0.  0.
        -12    1    1    2    0    0 -0.16380573976E+02  0.19021002765E+02 -0.35404826100E+02  0.43400731113E+02  0.00000000000E+00 0.  1.
         11    1    3    3    0    0  0.94089871038E+01 -0.69845220330E+01  0.14119899382E+02  0.18348954879E+02  0.51100000000E-03 0. -1.
        -11    1    3    3    0    0  0.22224280955E+00 -0.11430347570E+02  0.19204168082E+02  0.22349548305E+02  0.51100000000E-03 0.  1.
        -12    1    3    3    0    0  0.67493440626E+01 -0.60613316158E+00  0.20807586358E+01  0.70887657025E+01  0.00000000000E+00 0.  1.
</event>
<event>
 7    1  0.1457722E-010  0.4778727E+02  0.7816164E-02  0.1312668E+00
        -11   -1    0    0    0    0  0.00000000000E+00  0.00000000000E+00  0.45593999997E+02  0.45594000000E+02  0.51100000000E-03 0.  1.
         11   -1    0    0    0    0 -0.00000000000E+00 -0.00000000000E+00 -0.45593999997E+02  0.45594000000E+02  0.51100000000E-03 0. -1.
    9900012    2    1    2    0    0 -0.26496779526E+02 -0.29216353096E+02 -0.18109347545E+02  0.47787273255E+02  0.20000010080E+02 0.  0.
        -12    1    1    2    0    0  0.26496779526E+02  0.29216353096E+02  0.18109347545E+02  0.43400726745E+02  0.00000000000E+00 0.  1.
         11    1    3    3    0    0 -0.64283218944E+01 -0.10946131547E+02 -0.82895514698E+01  0.15161061376E+02  0.51100000000E-03 0. -1.
        -11    1    3    3    0    0 -0.15578878880E+01 -0.35009012579E+00  0.33355998696E+01  0.36980811942E+01  0.51100000000E-03 0.  1.
        -12    1    3    3    0    0 -0.18510569744E+02 -0.17920131423E+02 -0.13155395945E+02  0.28928130685E+02  0.00000000000E+00 0.  1.
</event>
<event>
 7    1  0.1457722E-010  0.4778727E+02  0.7816164E-02  0.1312668E+00
        -11   -1    0    0    0    0  0.00000000000E+00  0.00000000000E+00  0.45593999997E+02  0.45594000000E+02  0.51100000000E-03 0.  1.
         11   -1    0    0    0    0 -0.00000000000E+00 -0.00000000000E+00 -0.45593999997E+02  0.45594000000E+02  0.51100000000E-03 0. -1.
    9900012    2    1    2    0    0  0.23084373665E+02  0.24931153639E+02 -0.27003198156E+02  0.47787269131E+02  0.19999991276E+02 0.  0.
        -12    1    1    2    0    0 -0.23084373665E+02 -0.24931153639E+02  0.27003198156E+02  0.43400730869E+02  0.00000000000E+00 0.  1.
         11    1    3    3    0    0  0.33288260749E+01  0.38446768038E+01 -0.10623928461E+02  0.11778390339E+02  0.51100000000E-03 0. -1.
        -11    1    3    3    0    0  0.23669127493E+01  0.79801948542E+01  0.67405576657E+00  0.83510560596E+01  0.51100000000E-03 0.  1.
         12    1    3    3    0    0  0.17388634841E+02  0.13106281981E+02 -0.17053325462E+02  0.27657822733E+02  0.00000000000E+00 0. -1.
</event>
<event>
 7    1  0.1457722E-010  0.4778728E+02  0.7816164E-02  0.1312668E+00
        -11   -1    0    0    0    0  0.00000000000E+00  0.00000000000E+00  0.45593999997E+02  0.45594000000E+02  0.51100000000E-03 0.  1.
         11   -1    0    0    0    0 -0.00000000000E+00 -0.00000000000E+00 -0.45593999997E+02  0.45594000000E+02  0.51100000000E-03 0. -1.
    9900012    2    1    2    0    0 -0.17732812905E+02 -0.86497879911E+01 -0.38656838799E+02  0.47787277982E+02  0.20000031630E+02 0.  0.
        -12    1    1    2    0    0  0.17732812905E+02  0.86497879911E+01  0.38656838799E+02  0.43400722018E+02  0.00000000000E+00 0.  1.
         11    1    3    3    0    0 -0.10990782081E+02 -0.15545891614E+01 -0.80058747233E+01  0.13686053798E+02  0.51100000000E-03 0.  1.
        -11    1    3    3    0    0 -0.26182341086E+01 -0.82299979029E+01 -0.10974301360E+02  0.13965074505E+02  0.51100000000E-03 0. -1.
        -12    1    3    3    0    0 -0.41237967157E+01  0.11347990732E+01 -0.19676662715E+02  0.20136149679E+02  0.00000000000E+00 0.  1.
</event>
<event>
 7    1  0.1457722E-010  0.4778727E+02  0.7816164E-02  0.1312668E+00
        -11   -1    0    0    0    0  0.00000000000E+00  0.00000000000E+00  0.45593999997E+02  0.45594000000E+02  0.51100000000E-03 0. -1.
         11   -1    0    0    0    0 -0.00000000000E+00 -0.00000000000E+00 -0.45593999997E+02  0.45594000000E+02  0.51100000000E-03 0.  1.
    9900012    2    1    2    0    0 -0.32131388951E+01 -0.30136764164E+02  0.31065643992E+02  0.47787273596E+02  0.20000011633E+02 0.  0.
        -12    1    1    2    0    0  0.32131388951E+01  0.30136764164E+02 -0.31065643992E+02  0.43400726404E+02  0.00000000000E+00 0.  1.
         11    1    3    3    0    0  0.53779693640E+01 -0.16788509857E+02  0.15730705184E+02  0.23626927510E+02  0.51100000000E-03 0. -1.
        -11    1    3    3    0    0 -0.48841445289E+01 -0.13446127656E+02  0.14479737957E+02  0.20354754439E+02  0.51100000000E-03 0.  1.
         12    1    3    3    0    0 -0.37069637302E+01  0.97873349407E-01  0.85520085109E+00  0.38055916472E+01  0.00000000000E+00 0. -1.
</event>
<event>
 7    1  0.1457722E-010  0.4778727E+02  0.7816164E-02  0.1312668E+00
        -11   -1    0    0    0    0  0.00000000000E+00  0.00000000000E+00  0.45593999997E+02  0.45594000000E+02  0.51100000000E-03 0.  1.
         11   -1    0    0    0    0 -0.00000000000E+00 -0.00000000000E+00 -0.45593999997E+02  0.45594000000E+02  0.51100000000E-03 0. -1.
    9900012    2    1    2    0    0  0.15997740381E+02 -0.26780288634E+02 -0.30174683991E+02  0.47787272926E+02  0.20000008577E+02 0.  0.
        -12    1    1    2    0    0 -0.15997740381E+02  0.26780288634E+02  0.30174683991E+02  0.43400727074E+02  0.00000000000E+00 0.  1.
         11    1    3    3    0    0  0.29068308973E+01 -0.33943563955E+01 -0.11655258855E+02  0.12482643167E+02  0.51100000000E-03 0. -1.
        -11    1    3    3    0    0  0.13479537771E+02 -0.10297468663E+02 -0.10541684236E+02  0.19971552423E+02  0.51100000000E-03 0.  1.
        -12    1    3    3    0    0 -0.38862828688E+00 -0.13088463576E+02 -0.79777408997E+01  0.15333077336E+02  0.00000000000E+00 0.  1.
</event>
<event>
 7    1  0.1457722E-010  0.4778728E+02  0.7816164E-02  0.1312668E+00
        -11   -1    0    0    0    0  0.00000000000E+00  0.00000000000E+00  0.45593999997E+02  0.45594000000E+02  0.51100000000E-03 0. -1.
         11   -1    0    0    0    0 -0.00000000000E+00 -0.00000000000E+00 -0.45593999997E+02  0.45594000000E+02  0.51100000000E-03 0.  1.
    9900012    2    1    2    0    0 -0.10132479312E+02  0.41728973575E+02  0.62966740704E+01  0.47787280225E+02  0.20000041858E+02 0.  0.
        -12    1    1    2    0    0  0.10132479312E+02 -0.41728973575E+02 -0.62966740704E+01  0.43400719775E+02  0.00000000000E+00 0.  1.
         11    1    3    3    0    0 -0.34997243029E+01  0.27835133554E+01  0.25589170728E+01  0.51520941027E+01  0.51100000000E-03 0. -1.
        -11    1    3    3    0    0 -0.10047731086E+02  0.33956687516E+02 -0.21375061902E+00  0.35412698522E+02  0.51100000000E-03 0.  1.
        -12    1    3    3    0    0  0.34149760767E+01  0.49887727038E+01  0.39515076166E+01  0.72224876005E+01  0.00000000000E+00 0.  1.
</event>
<event>
 7    1  0.1457722E-010  0.4778727E+02  0.7816164E-02  0.1312668E+00
        -11   -1    0    0    0    0  0.00000000000E+00  0.00000000000E+00  0.45593999997E+02  0.45594000000E+02  0.51100000000E-03 0.  1.
         11   -1    0    0    0    0 -0.00000000000E+00 -0.00000000000E+00 -0.45593999997E+02  0.45594000000E+02  0.51100000000E-03 0. -1.
    9900012    2    1    2    0    0 -0.22864936529E+02  0.34065669975E+02 -0.14154444168E+02  0.47787268635E+02  0.19999989012E+02 0.  0.
        -12    1    1    2    0    0  0.22864936529E+02 -0.34065669975E+02  0.14154444168E+02  0.43400731365E+02  0.00000000000E+00 0.  1.
         11    1    3    3    0    0  0.19820583004E+01  0.15776798401E+01 -0.20556416384E+01  0.32624057980E+01  0.51100000000E-03 0. -1.
        -11    1    3    3    0    0 -0.10114337151E+02  0.14157204737E+02  0.13189507348E+01  0.17448951065E+02  0.51100000000E-03 0.  1.
         12    1    3    3    0    0 -0.14732657678E+02  0.18330785399E+02 -0.13417753264E+02  0.27075911772E+02  0.00000000000E+00 0. -1.
</event>
<event>
 7    1  0.1457722E-010  0.4778727E+02  0.7816164E-02  0.1312668E+00
        -11   -1    0    0    0    0  0.00000000000E+00  0.00000000000E+00  0.45593999997E+02  0.45594000000E+02  0.51100000000E-03 0.  1.
         11   -1    0    0    0    0 -0.00000000000E+00 -0.00000000000E+00 -0.45593999997E+02  0.45594000000E+02  0.51100000000E-03 0. -1.
    9900012    2    1    2    0    0  0.22737158748E+02 -0.25608179271E+02 -0.26662072974E+02  0.47787269951E+02  0.19999995017E+02 0.  0.
        -12    1    1    2    0    0 -0.22737158748E+02  0.25608179271E+02  0.26662072974E+02  0.43400730049E+02  0.00000000000E+00 0.  1.
         11    1    3    3    0    0  0.21240668118E+02 -0.16439151166E+02 -0.21100099636E+02  0.34155905464E+02  0.51100000000E-03 0. -1.
        -11    1    3    3    0    0  0.66029366206E+00 -0.65359468505E+01 -0.77120239160E+01  0.10130641742E+02  0.51100000000E-03 0.  1.
         12    1    3    3    0    0  0.83619696714E+00 -0.26330812538E+01  0.21500505775E+01  0.35007227458E+01  0.00000000000E+00 0. -1.
</event>
<event>
 7    1  0.1457722E-010  0.4778727E+02  0.7816164E-02  0.1312668E+00
        -11   -1    0    0    0    0  0.00000000000E+00  0.00000000000E+00  0.45593999997E+02  0.45594000000E+02  0.51100000000E-03 0.  1.
         11   -1    0    0    0    0 -0.00000000000E+00 -0.00000000000E+00 -0.45593999997E+02  0.45594000000E+02  0.51100000000E-03 0. -1.
    9900012    2    1    2    0    0 -0.32471264137E+02  0.28279905543E+02 -0.54302165741E+01  0.47787270695E+02  0.19999998407E+02 0.  0.
        -12    1    1    2    0    0  0.32471264137E+02 -0.28279905543E+02  0.54302165741E+01  0.43400729305E+02  0.00000000000E+00 0.  1.
         11    1    3    3    0    0 -0.17996829751E+02  0.83888894467E+01 -0.51135591823E+01  0.20503849273E+02  0.51100000000E-03 0. -1.
        -11    1    3    3    0    0  0.25430123369E+00  0.78987262604E+00  0.28387944355E+01  0.29575871908E+01  0.51100000000E-03 0.  1.
         12    1    3    3    0    0 -0.14728735620E+02  0.19101143470E+02 -0.31554518274E+01  0.24325834232E+02  0.00000000000E+00 0. -1.
</event>
<event>
 7    1  0.1457722E-010  0.4778728E+02  0.7816164E-02  0.1312668E+00
        -11   -1    0    0    0    0  0.00000000000E+00  0.00000000000E+00  0.45593999997E+02  0.45594000000E+02  0.51100000000E-03 0.  1.
         11   -1    0    0    0    0 -0.00000000000E+00 -0.00000000000E+00 -0.45593999997E+02  0.45594000000E+02  0.51100000000E-03 0. -1.
    9900012    2    1    2    0    0  0.27469320246E+02 -0.32409645107E+02 -0.88698441551E+01  0.47787276664E+02  0.20000025623E+02 0.  0.
        -12    1    1    2    0    0 -0.27469320246E+02  0.32409645107E+02  0.88698441551E+01  0.43400723336E+02  0.00000000000E+00 0.  1.
         11    1    3    3    0    0  0.14146158934E+02 -0.17112201466E+02 -0.10565213529E+02  0.24587903302E+02  0.51100000000E-03 0. -1.
        -11    1    3    3    0    0 -0.12481859721E+01  0.44456498096E+00 -0.88589232954E+00  0.15938669091E+01  0.51100000000E-03 0.  1.
        -12    1    3    3    0    0  0.14571347284E+02 -0.15742008622E+02  0.25812617038E+01  0.21605506453E+02  0.00000000000E+00 0.  1.
</event>
<event>
 7    1  0.1457722E-010  0.4778727E+02  0.7816164E-02  0.1312668E+00
        -11   -1    0    0    0    0  0.00000000000E+00  0.00000000000E+00  0.45593999997E+02  0.45594000000E+02  0.51100000000E-03 0.  1.
         11   -1    0    0    0    0 -0.00000000000E+00 -0.00000000000E+00 -0.45593999997E+02  0.45594000000E+02  0.51100000000E-03 0. -1.
    9900012    2    1    2    0    0 -0.41472296749E+02 -0.12665723443E+02 -0.18030691107E+01  0.47787274128E+02  0.20000014059E+02 0.  0.
        -12    1    1    2    0    0  0.41472296749E+02  0.12665723443E+02  0.18030691107E+01  0.43400725872E+02  0.00000000000E+00 0.  1.
         11    1    3    3    0    0 -0.57453660452E+01 -0.60732591876E+01 -0.26697072911E+01  0.87761634804E+01  0.51100000000E-03 0. -1.
        -11    1    3    3    0    0 -0.16906029282E+02  0.36691342778E+01 -0.18707604303E+01  0.17400463134E+02  0.51100000000E-03 0.  1.
         12    1    3    3    0    0 -0.18820901423E+02 -0.10261598533E+02  0.27373986107E+01  0.21610647514E+02  0.00000000000E+00 0. -1.
</event>
<event>
 7    1  0.1674813E-010  0.4778728E+02  0.7816164E-02  0.1312668E+00
        -11   -1    0    0    0    0  0.00000000000E+00  0.00000000000E+00  0.45593999997E+02  0.45594000000E+02  0.51100000000E-03 0. -1.
         11   -1    0    0    0    0 -0.00000000000E+00 -0.00000000000E+00 -0.45593999997E+02  0.45594000000E+02  0.51100000000E-03 0.  1.
    9900012    2    1    2    0    0  0.35505355234E+02  0.24924176188E+02  0.13334318823E+01  0.47787275933E+02  0.20000022289E+02 0.  0.
        -12    1    1    2    0    0 -0.35505355234E+02 -0.24924176188E+02 -0.13334318823E+01  0.43400724067E+02  0.00000000000E+00 0.  1.
         11    1    3    3    0    0  0.14816491245E+02  0.79685332998E+01  0.17951752047E+00  0.16824332455E+02  0.51100000000E-03 0. -1.
        -11    1    3    3    0    0  0.38100070856E+01  0.12642958006E+02  0.26846496827E+01  0.13474712810E+02  0.51100000000E-03 0.  1.
        -12    1    3    3    0    0  0.16878856903E+02  0.43126848823E+01 -0.15307353208E+01  0.17488230667E+02  0.00000000000E+00 0.  1.
</event>
<event>
 7    1  0.1457722E-010  0.4778728E+02  0.7816164E-02  0.1312668E+00
        -11   -1    0    0    0    0  0.00000000000E+00  0.00000000000E+00  0.45593999997E+02  0.45594000000E+02  0.51100000000E-03 0. -1.
         11   -1    0    0    0    0 -0.00000000000E+00 -0.00000000000E+00 -0.45593999997E+02  0.45594000000E+02  0.51100000000E-03 0.  1.
    9900012    2    1    2    0    0  0.29773618681E+02  0.25571604175E+02  0.18526933739E+02  0.47787279001E+02  0.20000036276E+02 0.  0.
        -12    1    1    2    0    0 -0.29773618681E+02 -0.25571604175E+02 -0.18526933739E+02  0.43400720999E+02  0.00000000000E+00 0.  1.
         11    1    3    3    0    0  0.12323101028E+02  0.14174887848E+02  0.48951139163E+01  0.19410007856E+02  0.51100000000E-03 0. -1.
        -11    1    3    3    0    0  0.59415725580E+01  0.11701090896E+02  0.52408094304E+01  0.14130955253E+02  0.51100000000E-03 0.  1.
         12    1    3    3    0    0  0.11508945096E+02 -0.30437456883E+00  0.83910103920E+01  0.14246315892E+02  0.00000000000E+00 0. -1.
</event>
<event>
 7    1  0.1457722E-010  0.4778728E+02  0.7816164E-02  0.1312668E+00
        -11   -1    0    0    0    0  0.00000000000E+00  0.00000000000E+00  0.45593999997E+02  0.45594000000E+02  0.51100000000E-03 0.  1.
         11   -1    0    0    0    0 -0.00000000000E+00 -0.00000000000E+00 -0.45593999997E+02  0.45594000000E+02  0.51100000000E-03 0. -1.
    9900012    2    1    2    0    0  0.13049502096E+02  0.24007613759E+02 -0.33718948227E+02  0.47787280041E+02  0.20000041021E+02 0.  0.
        -12    1    1    2    0    0 -0.13049502096E+02 -0.24007613759E+02  0.33718948227E+02  0.43400719959E+02  0.00000000000E+00 0.  1.
         11    1    3    3    0    0  0.31969724526E-01  0.10986407283E+02 -0.13265133078E+02  0.17223992652E+02  0.51100000000E-03 0. -1.
        -11    1    3    3    0    0  0.13108573036E+02  0.11622728667E+02 -0.22228196809E+02  0.28302212676E+02  0.51100000000E-03 0.  1.
         12    1    3    3    0    0 -0.91040664459E-01  0.13984778087E+01  0.17743816595E+01  0.22610747130E+01  0.00000000000E+00 0. -1.
</event>
<event>
 7    1  0.1457722E-010  0.4778727E+02  0.7816164E-02  0.1312668E+00
        -11   -1    0    0    0    0  0.00000000000E+00  0.00000000000E+00  0.45593999997E+02  0.45594000000E+02  0.51100000000E-03 0.  1.
         11   -1    0    0    0    0 -0.00000000000E+00 -0.00000000000E+00 -0.45593999997E+02  0.45594000000E+02  0.51100000000E-03 0. -1.
    9900012    2    1    2    0    0  0.20346194886E+01  0.24026161500E+02 -0.36086383528E+02  0.47787272022E+02  0.20000004458E+02 0.  0.
        -12    1    1    2    0    0 -0.20346194886E+01 -0.24026161500E+02  0.36086383528E+02  0.43400727978E+02  0.00000000000E+00 0.  1.
         11    1    3    3    0    0  0.27314638189E+00  0.56171921217E+01  0.70456093471E+00  0.56677916907E+01  0.51100000000E-03 0.  1.
        -11    1    3    3    0    0  0.41079453176E+01  0.11501790541E+02 -0.16294815302E+02  0.20363875034E+02  0.51100000000E-03 0. -1.
        -12    1    3    3    0    0 -0.23464722109E+01  0.69071788368E+01 -0.20496129160E+02  0.21755605298E+02  0.00000000000E+00 0.  1.
</event>
<event>
 7    1  0.1457722E-010  0.4778727E+02  0.7816164E-02  0.1312668E+00
        -11   -1    0    0    0    0  0.00000000000E+00  0.00000000000E+00  0.45593999997E+02  0.45594000000E+02  0.51100000000E-03 0. -1.
         11   -1    0    0    0    0 -0.00000000000E+00 -0.00000000000E+00 -0.45593999997E+02  0.45594000000E+02  0.51100000000E-03 0.  1.
    9900012    2    1    2    0    0 -0.28613088846E+02  0.31828703571E+02 -0.72005518880E+01  0.47787272220E+02  0.20000005361E+02 0.  0.
        -12    1    1    2    0    0  0.28613088846E+02 -0.31828703571E+02  0.72005518880E+01  0.43400727780E+02  0.00000000000E+00 0.  1.
         11    1    3    3    0    0 -0.39029691020E+01  0.14686624209E+02  0.17442841495E+01  0.15296163765E+02  0.51100000000E-03 0.  1.
        -11    1    3    3    0    0 -0.22596244785E+01  0.46750188740E+01  0.29184008393E+00  0.52006610303E+01  0.51100000000E-03 0. -1.
        -12    1    3    3    0    0 -0.22450495265E+02  0.12467060488E+02 -0.92366761214E+01  0.27290447425E+02  0.00000000000E+00 0.  1.
</event>
<event>
 7    1  0.1457722E-010  0.4778728E+02  0.7816164E-02  0.1312668E+00
        -11   -1    0    0    0    0  0.00000000000E+00  0.00000000000E+00  0.45593999997E+02  0.45594000000E+02  0.51100000000E-03 0.  1.
         11   -1    0    0    0    0 -0.00000000000E+00 -0.00000000000E+00 -0.45593999997E+02  0.45594000000E+02  0.51100000000E-03 0. -1.
    9900012    2    1    2    0    0 -0.25064077280E+00 -0.36839872109E+02 -0.22943050414E+02  0.47787279267E+02  0.20000037491E+02 0.  0.
        -12    1    1    2    0    0  0.25064077280E+00  0.36839872109E+02  0.22943050414E+02  0.43400720733E+02  0.00000000000E+00 0.  1.
         11    1    3    3    0    0  0.38021624432E+01 -0.14820036388E+02 -0.79338554185E+01  0.17234731789E+02  0.51100000000E-03 0. -1.
        -11    1    3    3    0    0 -0.69879289141E+01 -0.18635611334E+02 -0.16477379135E+02  0.25838366507E+02  0.51100000000E-03 0.  1.
        -12    1    3    3    0    0  0.29351256981E+01 -0.33842243865E+01  0.14681841393E+01  0.47141809712E+01  0.00000000000E+00 0.  1.
</event>
<event>
 7    1  0.1457722E-010  0.4778726E+02  0.7816164E-02  0.1312668E+00
        -11   -1    0    0    0    0  0.00000000000E+00  0.00000000000E+00  0.45593999997E+02  0.45594000000E+02  0.51100000000E-03 0.  1.
         11   -1    0    0    0    0 -0.00000000000E+00 -0.00000000000E+00 -0.45593999997E+02  0.45594000000E+02  0.51100000000E-03 0. -1.
    9900012    2    1    2    0    0 -0.37847746093E+02  0.13418220177E+02 -0.16465825653E+02  0.47787263468E+02  0.19999965457E+02 0.  0.
        -12    1    1    2    0    0  0.37847746093E+02 -0.13418220177E+02  0.16465825653E+02  0.43400736532E+02  0.00000000000E+00 0.  1.
         11    1    3    3    0    0 -0.15491219977E+02  0.43773700776E+01 -0.24733229542E+01  0.16286699846E+02  0.51100000000E-03 0. -1.
        -11    1    3    3    0    0 -0.55782996525E+01  0.18588425859E+01 -0.11715610241E+02  0.13108327367E+02  0.51100000000E-03 0.  1.
        -12    1    3    3    0    0 -0.16778226464E+02  0.71820075140E+01 -0.22768924571E+01  0.18392236255E+02  0.00000000000E+00 0.  1.
</event>
<event>
 7    1  0.1457722E-010  0.4778727E+02  0.7816164E-02  0.1312668E+00
        -11   -1    0    0    0    0  0.00000000000E+00  0.00000000000E+00  0.45593999997E+02  0.45594000000E+02  0.51100000000E-03 0.  1.
         11   -1    0    0    0    0 -0.00000000000E+00 -0.00000000000E+00 -0.45593999997E+02  0.45594000000E+02  0.51100000000E-03 0. -1.
    9900012    2    1    2    0    0 -0.17000448844E+02  0.13162146210E+02 -0.37701011884E+02  0.47787266702E+02  0.19999980199E+02 0.  0.
        -12    1    1    2    0    0  0.17000448844E+02 -0.13162146210E+02  0.37701011884E+02  0.43400733298E+02  0.00000000000E+00 0.  1.
         11    1    3    3    0    0 -0.90088752602E+01  0.65580862283E+01 -0.27155679872E+02  0.29353011396E+02  0.51100000000E-03 0. -1.
        -11    1    3    3    0    0 -0.91103046480E+01  0.77066454836E+00 -0.57523048360E+01  0.10801878809E+02  0.51100000000E-03 0.  1.
        -12    1    3    3    0    0  0.11187310641E+01  0.58333954328E+01 -0.47930271762E+01  0.76323764963E+01  0.00000000000E+00 0.  1.
</event>
<event>
 7    1  0.1457722E-010  0.4778727E+02  0.7816164E-02  0.1312668E+00
        -11   -1    0    0    0    0  0.00000000000E+00  0.00000000000E+00  0.45593999997E+02  0.45594000000E+02  0.51100000000E-03 0. -1.
         11   -1    0    0    0    0 -0.00000000000E+00 -0.00000000000E+00 -0.45593999997E+02  0.45594000000E+02  0.51100000000E-03 0.  1.
    9900012    2    1    2    0    0 -0.25589411918E+02 -0.22777575846E+02  0.26645589660E+02  0.47787269452E+02  0.19999992741E+02 0.  0.
        -12    1    1    2    0    0  0.25589411918E+02  0.22777575846E+02 -0.26645589660E+02  0.43400730548E+02  0.00000000000E+00 0.  1.
         11    1    3    3    0    0  0.30692106240E+00  0.75618278259E+00  0.40427147842E+00  0.91074070328E+00  0.51100000000E-03 0. -1.
        -11    1    3    3    0    0 -0.26103433666E+01  0.26742037717E+01  0.18659827114E+01  0.41769785783E+01  0.51100000000E-03 0.  1.
         12    1    3    3    0    0 -0.23285989614E+02 -0.26207962400E+02  0.24375335471E+02  0.42699550171E+02  0.00000000000E+00 0. -1.
</event>
<event>
 7    1  0.1457722E-010  0.4778727E+02  0.7816164E-02  0.1312668E+00
        -11   -1    0    0    0    0  0.00000000000E+00  0.00000000000E+00  0.45593999997E+02  0.45594000000E+02  0.51100000000E-03 0.  1.
         11   -1    0    0    0    0 -0.00000000000E+00 -0.00000000000E+00 -0.45593999997E+02  0.45594000000E+02  0.51100000000E-03 0. -1.
    9900012    2    1    2    0    0 -0.25260856880E+02  0.23015071058E+02 -0.26754794938E+02  0.47787269150E+02  0.19999991363E+02 0.  0.
        -12    1    1    2    0    0  0.25260856880E+02 -0.23015071058E+02  0.26754794938E+02  0.43400730850E+02  0.00000000000E+00 0.  1.
         11    1    3    3    0    0 -0.94422903676E+00  0.91551887752E+01 -0.16778318871E+01  0.93554353232E+01  0.51100000000E-03 0.  1.
        -11    1    3    3    0    0 -0.11877144180E+02  0.80830053162E+01 -0.17899160158E+02  0.22951720272E+02  0.51100000000E-03 0. -1.
        -12    1    3    3    0    0 -0.12439483664E+02  0.57768769667E+01 -0.71778028930E+01  0.15480113555E+02  0.00000000000E+00 0.  1.
</event>
<event>
 7    1  0.1457722E-010  0.4778726E+02  0.7816164E-02  0.1312668E+00
        -11   -1    0    0    0    0  0.00000000000E+00  0.00000000000E+00  0.45593999997E+02  0.45594000000E+02  0.51100000000E-03 0. -1.
         11   -1    0    0    0    0 -0.00000000000E+00 -0.00000000000E+00 -0.45593999997E+02  0.45594000000E+02  0.51100000000E-03 0.  1.
    9900012    2    1    2    0    0 -0.30527607151E+00 -0.26570574070E+02  0.34315234357E+02  0.47787263729E+02  0.19999966645E+02 0.  0.
        -12    1    1    2    0    0  0.30527607151E+00  0.26570574070E+02 -0.34315234357E+02  0.43400736271E+02  0.00000000000E+00 0.  1.
         11    1    3    3    0    0  0.29673869076E+01 -0.10778682349E+02  0.96248386583E+01  0.14752047238E+02  0.51100000000E-03 0. -1.
        -11    1    3    3    0    0  0.41787955577E+01 -0.53034038698E+00  0.19214294536E+01  0.46298471514E+01  0.51100000000E-03 0.  1.
         12    1    3    3    0    0 -0.74514585368E+01 -0.15261551334E+02  0.22768966246E+02  0.28405369340E+02  0.00000000000E+00 0. -1.
</event>
<event>
 7    1  0.1457722E-010  0.4778727E+02  0.7816164E-02  0.1312668E+00
        -11   -1    0    0    0    0  0.00000000000E+00  0.00000000000E+00  0.45593999997E+02  0.45594000000E+02  0.51100000000E-03 0. -1.
         11   -1    0    0    0    0 -0.00000000000E+00 -0.00000000000E+00 -0.45593999997E+02  0.45594000000E+02  0.51100000000E-03 0.  1.
    9900012    2    1    2    0    0 -0.72663210841E+00 -0.92114714419E+01  0.42405706470E+02  0.47787272568E+02  0.20000006948E+02 0.  0.
        -12    1    1    2    0    0  0.72663210841E+00  0.92114714419E+01 -0.42405706470E+02  0.43400727432E+02  0.00000000000E+00 0.  1.
         11    1    3    3    0    0  0.71273246441E+01  0.37995883987E+00  0.21677880490E+02  0.22822656026E+02  0.51100000000E-03 0. -1.
        -11    1    3    3    0    0 -0.14723534147E+01 -0.62655085046E+01  0.73162035280E+01  0.97442934954E+01  0.51100000000E-03 0.  1.
         12    1    3    3    0    0 -0.63816033378E+01 -0.33259217771E+01  0.13411622452E+02  0.15220323046E+02  0.00000000000E+00 0. -1.
</event>
<event>
 7    1  0.1457722E-010  0.4778727E+02  0.7816164E-02  0.1312668E+00
        -11   -1    0    0    0    0  0.00000000000E+00  0.00000000000E+00  0.45593999997E+02  0.45594000000E+02  0.51100000000E-03 0.  1.
         11   -1    0    0    0    0 -0.00000000000E+00 -0.00000000000E+00 -0.45593999997E+02  0.45594000000E+02  0.51100000000E-03 0. -1.
    9900012    2    1    2    0    0 -0.15182905322E+02 -0.32874685694E+02 -0.23923997858E+02  0.47787271354E+02  0.20000001412E+02 0.  0.
        -12    1    1    2    0    0  0.15182905322E+02  0.32874685694E+02  0.23923997858E+02  0.43400728646E+02  0.00000000000E+00 0.  1.
         11    1    3    3    0    0  0.59640296090E+00 -0.10583918214E+02 -0.73509276449E+01  0.12900044913E+02  0.51100000000E-03 0. -1.
        -11    1    3    3    0    0 -0.39961800967E+01  0.10659963598E+01 -0.43815096066E+01  0.60252328003E+01  0.51100000000E-03 0.  1.
        -12    1    3    3    0    0 -0.11783128186E+02 -0.23356763839E+02 -0.12191560607E+02  0.28861993641E+02  0.00000000000E+00 0.  1.
</event>
<event>
 7    1  0.1457722E-010  0.4778727E+02  0.7816164E-02  0.1312668E+00
        -11   -1    0    0    0    0  0.00000000000E+00  0.00000000000E+00  0.45593999997E+02  0.45594000000E+02  0.51100000000E-03 0.  1.
         11   -1    0    0    0    0 -0.00000000000E+00 -0.00000000000E+00 -0.45593999997E+02  0.45594000000E+02  0.51100000000E-03 0. -1.
    9900012    2    1    2    0    0  0.54520172121E+01 -0.28630362191E+02 -0.32158994131E+02  0.47787273803E+02  0.20000012578E+02 0.  0.
        -12    1    1    2    0    0 -0.54520172121E+01  0.28630362191E+02  0.32158994131E+02  0.43400726197E+02  0.00000000000E+00 0.  1.
         11    1    3    3    0    0 -0.23878490603E+00  0.14238584795E+01 -0.84672313009E+00  0.16737178738E+01  0.51100000000E-03 0. -1.
        -11    1    3    3    0    0  0.29567160730E+01 -0.30419998569E+02 -0.25993654801E+02  0.40122170592E+02  0.51100000000E-03 0.  1.
        -12    1    3    3    0    0  0.27340860451E+01  0.36577789786E+00 -0.53186162000E+01  0.59913853369E+01  0.00000000000E+00 0.  1.
</event>
<event>
 7    1  0.1457722E-010  0.4778727E+02  0.7816164E-02  0.1312668E+00
        -11   -1    0    0    0    0  0.00000000000E+00  0.00000000000E+00  0.45593999997E+02  0.45594000000E+02  0.51100000000E-03 0. -1.
         11   -1    0    0    0    0 -0.00000000000E+00 -0.00000000000E+00 -0.45593999997E+02  0.45594000000E+02  0.51100000000E-03 0.  1.
    9900012    2    1    2    0    0  0.28766447080E+01  0.43300335355E+02  0.65509751400E+00  0.47787270981E+02  0.19999999711E+02 0.  0.
        -12    1    1    2    0    0 -0.28766447080E+01 -0.43300335355E+02 -0.65509751400E+00  0.43400729019E+02  0.00000000000E+00 0.  1.
         11    1    3    3    0    0  0.79674709526E+00  0.29143359552E+02 -0.37042639292E+01  0.29388633575E+02  0.51100000000E-03 0. -1.
        -11    1    3    3    0    0 -0.34916584758E+01  0.87097553190E+01  0.49038407160E+01  0.10587689581E+02  0.51100000000E-03 0.  1.
        -12    1    3    3    0    0  0.55715560886E+01  0.54472204838E+01 -0.54447927278E+00  0.78109478250E+01  0.00000000000E+00 0.  1.
</event>
<event>
 7    1  0.1457722E-010  0.4778727E+02  0.7816164E-02  0.1312668E+00
        -11   -1    0    0    0    0  0.00000000000E+00  0.00000000000E+00  0.45593999997E+02  0.45594000000E+02  0.51100000000E-03 0.  1.
         11   -1    0    0    0    0 -0.00000000000E+00 -0.00000000000E+00 -0.45593999997E+02  0.45594000000E+02  0.51100000000E-03 0. -1.
    9900012    2    1    2    0    0  0.24836397588E+02  0.30080660038E+02 -0.19024464527E+02  0.47787274154E+02  0.20000014175E+02 0.  0.
        -12    1    1    2    0    0 -0.24836397588E+02 -0.30080660038E+02  0.19024464527E+02  0.43400725846E+02  0.00000000000E+00 0.  1.
         11    1    3    3    0    0  0.11361137079E+02  0.23062580696E+02 -0.10590350670E+02  0.27804920278E+02  0.51100000000E-03 0. -1.
        -11    1    3    3    0    0  0.33964802725E+01  0.50996981152E+01  0.79977829805E+00  0.61792106855E+01  0.51100000000E-03 0.  1.
        -12    1    3    3    0    0  0.10078780237E+02  0.19183812263E+01 -0.92338921548E+01  0.13803143190E+02  0.00000000000E+00 0.  1.
</event>
<event>
 7    1  0.1457722E-010  0.4778727E+02  0.7816164E-02  0.1312668E+00
        -11   -1    0    0    0    0  0.00000000000E+00  0.00000000000E+00  0.45593999997E+02  0.45594000000E+02  0.51100000000E-03 0.  1.
         11   -1    0    0    0    0 -0.00000000000E+00 -0.00000000000E+00 -0.45593999997E+02  0.45594000000E+02  0.51100000000E-03 0. -1.
    9900012    2    1    2    0    0  0.83062725877E+01 -0.13464793809E+02 -0.40414457882E+02  0.47787271406E+02  0.20000001649E+02 0.  0.
        -12    1    1    2    0    0 -0.83062725877E+01  0.13464793809E+02  0.40414457882E+02  0.43400728594E+02  0.00000000000E+00 0.  1.
         11    1    3    3    0    0  0.33499964279E+01 -0.79845082292E+01 -0.16175644826E+02  0.18347379473E+02  0.51100000000E-03 0. -1.
        -11    1    3    3    0    0 -0.26636967045E+01 -0.77401699160E+01 -0.16114427096E+02  0.18074298641E+02  0.51100000000E-03 0.  1.
         12    1    3    3    0    0  0.76199728643E+01  0.22598843359E+01 -0.81243859587E+01  0.11365593292E+02  0.00000000000E+00 0. -1.
</event>
<event>
 7    1  0.1457722E-010  0.4778727E+02  0.7816164E-02  0.1312668E+00
        -11   -1    0    0    0    0  0.00000000000E+00  0.00000000000E+00  0.45593999997E+02  0.45594000000E+02  0.51100000000E-03 0.  1.
         11   -1    0    0    0    0 -0.00000000000E+00 -0.00000000000E+00 -0.45593999997E+02  0.45594000000E+02  0.51100000000E-03 0. -1.
    9900012    2    1    2    0    0 -0.18569349060E+02 -0.19390768041E+02 -0.34099863274E+02  0.47787270916E+02  0.19999999415E+02 0.  0.
        -12    1    1    2    0    0  0.18569349060E+02  0.19390768041E+02  0.34099863274E+02  0.43400729084E+02  0.00000000000E+00 0.  1.
         11    1    3    3    0    0  0.10814059752E+01 -0.13000005174E+01  0.18055777375E-02  0.16909889857E+01  0.51100000000E-03 0. -1.
        -11    1    3    3    0    0 -0.35047518514E+01  0.28377480063E+01 -0.61429644678E+01  0.76205060200E+01  0.51100000000E-03 0.  1.
         12    1    3    3    0    0 -0.16146003184E+02 -0.20928515530E+02 -0.27958704384E+02  0.38475775910E+02  0.00000000000E+00 0. -1.
</event>
<event>
 7    1  0.1457722E-010  0.4778727E+02  0.7816164E-02  0.1312668E+00
        -11   -1    0    0    0    0  0.00000000000E+00  0.00000000000E+00  0.45593999997E+02  0.45594000000E+02  0.51100000000E-03 0. -1.
         11   -1    0    0    0    0 -0.00000000000E+00 -0.00000000000E+00 -0.45593999997E+02  0.45594000000E+02  0.51100000000E-03 0.  1.
    9900012    2    1    2    0    0  0.26696683207E+02 -0.52686777684E+01  0.33810527779E+02  0.47787266730E+02  0.19999980329E+02 0.  0.
        -12    1    1    2    0    0 -0.26696683207E+02  0.52686777684E+01 -0.33810527779E+02  0.43400733270E+02  0.00000000000E+00 0.  1.
         11    1    3    3    0    0  0.93143149997E+01 -0.13220463414E+00  0.61203816866E+01  0.11145986463E+02  0.51100000000E-03 0. -1.
        -11    1    3    3    0    0 -0.26637701630E+01  0.45747232428E+00  0.12097707785E+01  0.29611649745E+01  0.51100000000E-03 0.  1.
         12    1    3    3    0    0  0.20046138370E+02 -0.55939454586E+01  0.26480375314E+02  0.33680115293E+02  0.00000000000E+00 0. -1.
</event>
<event>
 7    1  0.1457722E-010  0.4778727E+02  0.7816164E-02  0.1312668E+00
        -11   -1    0    0    0    0  0.00000000000E+00  0.00000000000E+00  0.45593999997E+02  0.45594000000E+02  0.51100000000E-03 0. -1.
         11   -1    0    0    0    0 -0.00000000000E+00 -0.00000000000E+00 -0.45593999997E+02  0.45594000000E+02  0.51100000000E-03 0.  1.
    9900012    2    1    2    0    0 -0.20418859831E+02  0.22642107491E+02  0.30887354120E+02  0.47787268290E+02  0.19999987442E+02 0.  0.
        -12    1    1    2    0    0  0.20418859831E+02 -0.22642107491E+02 -0.30887354120E+02  0.43400731710E+02  0.00000000000E+00 0.  1.
         11    1    3    3    0    0 -0.48925374880E+01  0.29973413103E+00  0.42247317309E+01  0.64710989855E+01  0.51100000000E-03 0. -1.
        -11    1    3    3    0    0 -0.19819062554E+01  0.12789415148E+02  0.19163120052E+02  0.23124062416E+02  0.51100000000E-03 0.  1.
        -12    1    3    3    0    0 -0.13544416088E+02  0.95529582121E+01  0.74995023373E+01  0.18192106889E+02  0.00000000000E+00 0.  1.
</event>
<event>
 7    1  0.1457722E-010  0.4778727E+02  0.7816164E-02  0.1312668E+00
        -11   -1    0    0    0    0  0.00000000000E+00  0.00000000000E+00  0.45593999997E+02  0.45594000000E+02  0.51100000000E-03 0.  1.
         11   -1    0    0    0    0 -0.00000000000E+00 -0.00000000000E+00 -0.45593999997E+02  0.45594000000E+02  0.51100000000E-03 0. -1.
    9900012    2    1    2    0    0  0.21818486071E+02 -0.34923395281E+01 -0.37354789191E+02  0.47787273678E+02  0.20000012007E+02 0.  0.
        -12    1    1    2    0    0 -0.21818486071E+02  0.34923395281E+01  0.37354789191E+02  0.43400726322E+02  0.00000000000E+00 0.  1.
         11    1    3    3    0    0  0.71803362550E+01 -0.29378406951E+01 -0.29418996101E+02  0.30424750920E+02  0.51100000000E-03 0. -1.
        -11    1    3    3    0    0  0.85159180377E+01 -0.54045175390E+00 -0.72590604972E+01  0.11202986552E+02  0.51100000000E-03 0.  1.
        -12    1    3    3    0    0  0.61222317783E+01 -0.14047079083E-01 -0.67673259217E+00  0.61595362057E+01  0.00000000000E+00 0.  1.
</event>
<event>
 7    1  0.1457722E-010  0.4778726E+02  0.7816164E-02  0.1312668E+00
        -11   -1    0    0    0    0  0.00000000000E+00  0.00000000000E+00  0.45593999997E+02  0.45594000000E+02  0.51100000000E-03 0.  1.
         11   -1    0    0    0    0 -0.00000000000E+00 -0.00000000000E+00 -0.45593999997E+02  0.45594000000E+02  0.51100000000E-03 0. -1.
    9900012    2    1    2    0    0  0.26559094619E+02 -0.32256439482E+02  0.11737146233E+02  0.47787262716E+02  0.19999962029E+02 0.  0.
        -12    1    1    2    0    0 -0.26559094619E+02  0.32256439482E+02 -0.11737146233E+02  0.43400737284E+02  0.00000000000E+00 0.  1.
         11    1    3    3    0    0  0.15233067407E+02 -0.76338853776E+01  0.69492561993E+01  0.18401486640E+02  0.51100000000E-03 0. -1.
        -11    1    3    3    0    0  0.62986527630E+01 -0.89065791590E+01 -0.27424734131E+01  0.11248170501E+02  0.51100000000E-03 0.  1.
         12    1    3    3    0    0  0.50273744490E+01 -0.15715974946E+02  0.75303634469E+01  0.18137605575E+02  0.00000000000E+00 0. -1.
</event>
<event>
 7    1  0.1457722E-010  0.4778728E+02  0.7816164E-02  0.1312668E+00
        -11   -1    0    0    0    0  0.00000000000E+00  0.00000000000E+00  0.45593999997E+02  0.45594000000E+02  0.51100000000E-03 0. -1.
         11   -1    0    0    0    0 -0.00000000000E+00 -0.00000000000E+00 -0.45593999997E+02  0.45594000000E+02  0.51100000000E-03 0.  1.
    9900012    2    1    2    0    0 -0.21083574199E+02 -0.52922404441E+01  0.37564573159E+02  0.47787284953E+02  0.20000063416E+02 0.  0.
        -12    1    1    2    0    0  0.21083574199E+02  0.52922404441E+01 -0.37564573159E+02  0.43400715047E+02  0.00000000000E+00 0.  1.
         11    1    3    3    0    0  0.18499439964E+01  0.18277541027E+01 -0.56467862354E+00  0.26611726849E+01  0.51100000000E-03 0. -1.
        -11    1    3    3    0    0 -0.35453348990E+01 -0.11463415694E+01  0.44010750269E+01  0.57665379730E+01  0.51100000000E-03 0.  1.
         12    1    3    3    0    0 -0.19388183296E+02 -0.59736529773E+01  0.33728176756E+02  0.39359574295E+02  0.00000000000E+00 0. -1.
</event>
<event>
 7    1  0.1457722E-010  0.4778727E+02  0.7816164E-02  0.1312668E+00
        -11   -1    0    0    0    0  0.00000000000E+00  0.00000000000E+00  0.45593999997E+02  0.45594000000E+02  0.51100000000E-03 0.  1.
         11   -1    0    0    0    0 -0.00000000000E+00 -0.00000000000E+00 -0.45593999997E+02  0.45594000000E+02  0.51100000000E-03 0. -1.
    9900012    2    1    2    0    0 -0.15818027726E+02  0.10074690933E+02 -0.39139674029E+02  0.47787268651E+02  0.19999989087E+02 0.  0.
        -12    1    1    2    0    0  0.15818027726E+02 -0.10074690933E+02  0.39139674029E+02  0.43400731349E+02  0.00000000000E+00 0.  1.
         11    1    3    3    0    0  0.13677158384E+01  0.60456821297E+01 -0.94883127565E+01  0.11333534235E+02  0.51100000000E-03 0. -1.
        -11    1    3    3    0    0 -0.57527534632E+01 -0.37490252842E+01 -0.13832819808E+02  0.15443324354E+02  0.51100000000E-03 0.  1.
        -12    1    3    3    0    0 -0.11432990101E+02  0.77780340876E+01 -0.15818541465E+02  0.21010410062E+02  0.00000000000E+00 0.  1.
</event>
<event>
 7    1  0.1457722E-010  0.4778728E+02  0.7816164E-02  0.1312668E+00
        -11   -1    0    0    0    0  0.00000000000E+00  0.00000000000E+00  0.45593999997E+02  0.45594000000E+02  0.51100000000E-03 0.  1.
         11   -1    0    0    0    0 -0.00000000000E+00 -0.00000000000E+00 -0.45593999997E+02  0.45594000000E+02  0.51100000000E-03 0. -1.
    9900012    2    1    2    0    0  0.27994641205E+02  0.31483926360E+02 -0.10425186313E+02  0.47787284972E+02  0.20000063503E+02 0.  0.
        -12    1    1    2    0    0 -0.27994641205E+02 -0.31483926360E+02  0.10425186313E+02  0.43400715028E+02  0.00000000000E+00 0.  1.
         11    1    3    3    0    0  0.10083120265E+02  0.96721584798E+01 -0.10096499035E+02  0.17238307834E+02  0.51100000000E-03 0. -1.
        -11    1    3    3    0    0  0.23798583317E+01  0.11761766611E+02 -0.96134670231E+00  0.12038565829E+02  0.51100000000E-03 0.  1.
         12    1    3    3    0    0  0.15531662608E+02  0.10050001270E+02  0.63265942442E+00  0.18510411309E+02  0.00000000000E+00 0. -1.
</event>
<event>
 7    1  0.1457722E-010  0.4778727E+02  0.7816164E-02  0.1312668E+00
        -11   -1    0    0    0    0  0.00000000000E+00  0.00000000000E+00  0.45593999997E+02  0.45594000000E+02  0.51100000000E-03 0.  1.
         11   -1    0    0    0    0 -0.00000000000E+00 -0.00000000000E+00 -0.45593999997E+02  0.45594000000E+02  0.51100000000E-03 0. -1.
    9900012    2    1    2    0    0  0.41800906400E+02 -0.11330409512E+02 -0.28159081210E+01  0.47787270812E+02  0.19999998939E+02 0.  0.
        -12    1    1    2    0    0 -0.41800906400E+02  0.11330409512E+02  0.28159081210E+01  0.43400729188E+02  0.00000000000E+00 0.  1.
         11    1    3    3    0    0  0.28965172264E+02 -0.52166977859E+01 -0.27581449412E+01  0.29560150606E+02  0.51100000000E-03 0. -1.
        -11    1    3    3    0    0  0.96557438249E+01 -0.94499203596E+01 -0.90547834625E+00  0.13540837305E+02  0.51100000000E-03 0.  1.
        -12    1    3    3    0    0  0.31799903108E+01  0.33362086338E+01  0.84771516649E+00  0.46862829010E+01  0.00000000000E+00 0.  1.
</event>
<event>
 7    1  0.1457722E-010  0.4778727E+02  0.7816164E-02  0.1312668E+00
        -11   -1    0    0    0    0  0.00000000000E+00  0.00000000000E+00  0.45593999997E+02  0.45594000000E+02  0.51100000000E-03 0.  1.
         11   -1    0    0    0    0 -0.00000000000E+00 -0.00000000000E+00 -0.45593999997E+02  0.45594000000E+02  0.51100000000E-03 0. -1.
    9900012    2    1    2    0    0 -0.15279730715E+02  0.39230882167E+02 -0.10539979097E+02  0.47787269066E+02  0.19999990977E+02 0.  0.
        -12    1    1    2    0    0  0.15279730715E+02 -0.39230882167E+02  0.10539979097E+02  0.43400730934E+02  0.00000000000E+00 0.  1.
         11    1    3    3    0    0 -0.65693871846E+01  0.11506630569E+02 -0.98821663057E+01  0.16529265143E+02  0.51100000000E-03 0. -1.
        -11    1    3    3    0    0  0.21146059331E+01  0.16329931491E+01 -0.13674943347E+01  0.30013773328E+01  0.51100000000E-03 0.  1.
        -12    1    3    3    0    0 -0.10824949463E+02  0.26091258449E+02  0.70968154332E+00  0.28256626589E+02  0.00000000000E+00 0.  1.
</event>
<event>
 7    1  0.1457722E-010  0.4778727E+02  0.7816164E-02  0.1312668E+00
        -11   -1    0    0    0    0  0.00000000000E+00  0.00000000000E+00  0.45593999997E+02  0.45594000000E+02  0.51100000000E-03 0. -1.
         11   -1    0    0    0    0 -0.00000000000E+00 -0.00000000000E+00 -0.45593999997E+02  0.45594000000E+02  0.51100000000E-03 0.  1.
    9900012    2    1    2    0    0  0.40869210979E+02  0.14596488291E+02 -0.52291914595E+00  0.47787270503E+02  0.19999997530E+02 0.  0.
        -12    1    1    2    0    0 -0.40869210979E+02 -0.14596488291E+02  0.52291914595E+00  0.43400729497E+02  0.00000000000E+00 0.  1.
         11    1    3    3    0    0  0.35116075513E+02  0.15275388069E+02 -0.59458336807E+01  0.38753440860E+02  0.51100000000E-03 0. -1.
        -11    1    3    3    0    0  0.12782643220E+01 -0.19390546201E+01  0.74577009306E+00  0.24392756690E+01  0.51100000000E-03 0.  1.
        -12    1    3    3    0    0  0.44748711436E+01  0.12601548422E+01  0.46771444417E+01  0.65945539733E+01  0.00000000000E+00 0.  1.
</event>
<event>
 7    1  0.1457722E-010  0.4778727E+02  0.7816164E-02  0.1312668E+00
        -11   -1    0    0    0    0  0.00000000000E+00  0.00000000000E+00  0.45593999997E+02  0.45594000000E+02  0.51100000000E-03 0.  1.
         11   -1    0    0    0    0 -0.00000000000E+00 -0.00000000000E+00 -0.45593999997E+02  0.45594000000E+02  0.51100000000E-03 0. -1.
    9900012    2    1    2    0    0  0.57384270641E+01  0.40772267276E+02 -0.13722834185E+02  0.47787268416E+02  0.19999988014E+02 0.  0.
        -12    1    1    2    0    0 -0.57384270641E+01 -0.40772267276E+02  0.13722834185E+02  0.43400731584E+02  0.00000000000E+00 0.  1.
         11    1    3    3    0    0 -0.68862025336E+01  0.18333733631E+02 -0.47516608087E+01  0.20152514853E+02  0.51100000000E-03 0. -1.
        -11    1    3    3    0    0 -0.37575166958E+00  0.64964467516E+00 -0.10536094434E+00  0.75784478019E+00  0.51100000000E-03 0.  1.
        -12    1    3    3    0    0  0.13000381267E+02  0.21788888970E+02 -0.88658124317E+01  0.26876908783E+02  0.00000000000E+00 0.  1.
</event>
<event>
 7    1  0.1457722E-010  0.4778727E+02  0.7816164E-02  0.1312668E+00
        -11   -1    0    0    0    0  0.00000000000E+00  0.00000000000E+00  0.45593999997E+02  0.45594000000E+02  0.51100000000E-03 0.  1.
         11   -1    0    0    0    0 -0.00000000000E+00 -0.00000000000E+00 -0.45593999997E+02  0.45594000000E+02  0.51100000000E-03 0. -1.
    9900012    2    1    2    0    0  0.71723956953E+01 -0.37285570391E+02 -0.21022993376E+02  0.47787271091E+02  0.20000000210E+02 0.  0.
        -12    1    1    2    0    0 -0.71723956953E+01  0.37285570391E+02  0.21022993376E+02  0.43400728909E+02  0.00000000000E+00 0.  1.
         11    1    3    3    0    0  0.58467390508E+01 -0.74598127494E+01 -0.46000100826E+01  0.10535333730E+02  0.51100000000E-03 0. -1.
        -11    1    3    3    0    0 -0.40417152403E+01 -0.10665261201E+01 -0.21224207240E+01  0.46880283745E+01  0.51100000000E-03 0.  1.
         12    1    3    3    0    0  0.53673718849E+01 -0.28759231521E+02 -0.14300562570E+02  0.32563908986E+02  0.00000000000E+00 0. -1.
</event>
<event>
 7    1  0.1457722E-010  0.4778727E+02  0.7816164E-02  0.1312668E+00
        -11   -1    0    0    0    0  0.00000000000E+00  0.00000000000E+00  0.45593999997E+02  0.45594000000E+02  0.51100000000E-03 0.  1.
         11   -1    0    0    0    0 -0.00000000000E+00 -0.00000000000E+00 -0.45593999997E+02  0.45594000000E+02  0.51100000000E-03 0. -1.
    9900012    2    1    2    0    0 -0.40424486057E+02  0.34427812355E+01 -0.15415300314E+02  0.47787270750E+02  0.19999998659E+02 0.  0.
        -12    1    1    2    0    0  0.40424486057E+02 -0.34427812355E+01  0.15415300314E+02  0.43400729250E+02  0.00000000000E+00 0.  1.
         11    1    3    3    0    0 -0.71642668562E+01  0.85069688955E+01 -0.94873172115E+00  0.11162227892E+02  0.51100000000E-03 0.  1.
        -11    1    3    3    0    0 -0.16482810945E+02 -0.22747553431E+01 -0.72033751871E+01  0.18131359102E+02  0.51100000000E-03 0. -1.
        -12    1    3    3    0    0 -0.16777408256E+02 -0.27894323169E+01 -0.72631934060E+01  0.18493683757E+02  0.00000000000E+00 0.  1.
</event>
<event>
 7    1  0.1457722E-010  0.4778727E+02  0.7816164E-02  0.1312668E+00
        -11   -1    0    0    0    0  0.00000000000E+00  0.00000000000E+00  0.45593999997E+02  0.45594000000E+02  0.51100000000E-03 0. -1.
         11   -1    0    0    0    0 -0.00000000000E+00 -0.00000000000E+00 -0.45593999997E+02  0.45594000000E+02  0.51100000000E-03 0.  1.
    9900012    2    1    2    0    0 -0.27957920452E+02 -0.61676443243E+01  0.32618063019E+02  0.47787272038E+02  0.20000004531E+02 0.  0.
        -12    1    1    2    0    0  0.27957920452E+02  0.61676443243E+01 -0.32618063019E+02  0.43400727962E+02  0.00000000000E+00 0.  1.
         11    1    3    3    0    0 -0.12616819757E+02 -0.37695982176E+01  0.69603565724E+01  0.14894313525E+02  0.51100000000E-03 0. -1.
        -11    1    3    3    0    0 -0.10449324072E+02  0.50434123539E+01  0.13121386191E+02  0.17515569005E+02  0.51100000000E-03 0.  1.
        -12    1    3    3    0    0 -0.48917766237E+01 -0.74414584606E+01  0.12536320255E+02  0.15377389508E+02  0.00000000000E+00 0.  1.
</event>
<event>
 7    1  0.1457722E-010  0.4778727E+02  0.7816164E-02  0.1312668E+00
        -11   -1    0    0    0    0  0.00000000000E+00  0.00000000000E+00  0.45593999997E+02  0.45594000000E+02  0.51100000000E-03 0. -1.
         11   -1    0    0    0    0 -0.00000000000E+00 -0.00000000000E+00 -0.45593999997E+02  0.45594000000E+02  0.51100000000E-03 0.  1.
    9900012    2    1    2    0    0 -0.20229400421E+02 -0.17958550542E+02  0.33939429099E+02  0.47787273894E+02  0.20000012991E+02 0.  0.
        -12    1    1    2    0    0  0.20229400421E+02  0.17958550542E+02 -0.33939429099E+02  0.43400726106E+02  0.00000000000E+00 0.  1.
         11    1    3    3    0    0 -0.15821492386E+02 -0.59443615819E+01  0.13376501263E+02  0.21554253460E+02  0.51100000000E-03 0. -1.
        -11    1    3    3    0    0  0.25377506645E+01 -0.15232440564E+00  0.33210562603E+01  0.41824390139E+01  0.51100000000E-03 0.  1.
        -12    1    3    3    0    0 -0.69456586998E+01 -0.11861864554E+02  0.17241871576E+02  0.22050581419E+02  0.00000000000E+00 0.  1.
</event>
<event>
 7    1  0.1457722E-010  0.4778727E+02  0.7816164E-02  0.1312668E+00
        -11   -1    0    0    0    0  0.00000000000E+00  0.00000000000E+00  0.45593999997E+02  0.45594000000E+02  0.51100000000E-03 0.  1.
         11   -1    0    0    0    0 -0.00000000000E+00 -0.00000000000E+00 -0.45593999997E+02  0.45594000000E+02  0.51100000000E-03 0. -1.
    9900012    2    1    2    0    0 -0.46508717131E+01  0.83271970756E+01 -0.42339704776E+02  0.47787269368E+02  0.19999992357E+02 0.  0.
        -12    1    1    2    0    0  0.46508717131E+01 -0.83271970756E+01  0.42339704776E+02  0.43400730632E+02  0.00000000000E+00 0.  1.
         11    1    3    3    0    0 -0.71988321511E+01  0.57476418409E+01 -0.22842504139E+02  0.24630033834E+02  0.51100000000E-03 0. -1.
        -11    1    3    3    0    0 -0.23051287306E+01 -0.14981315841E+01 -0.10045746426E+00  0.27510195694E+01  0.51100000000E-03 0.  1.
        -12    1    3    3    0    0  0.48530891685E+01  0.40776868189E+01 -0.19396743173E+02  0.20406215964E+02  0.00000000000E+00 0.  1.
</event>
<event>
 7    1  0.1457722E-010  0.4778727E+02  0.7816164E-02  0.1312668E+00
        -11   -1    0    0    0    0  0.00000000000E+00  0.00000000000E+00  0.45593999997E+02  0.45594000000E+02  0.51100000000E-03 0. -1.
         11   -1    0    0    0    0 -0.00000000000E+00 -0.00000000000E+00 -0.45593999997E+02  0.45594000000E+02  0.51100000000E-03 0.  1.
    9900012    2    1    2    0    0  0.20249235470E+02 -0.47890625405E+01  0.38087484060E+02  0.47787273058E+02  0.20000009179E+02 0.  0.
        -12    1    1    2    0    0 -0.20249235470E+02  0.47890625405E+01 -0.38087484060E+02  0.43400726942E+02  0.00000000000E+00 0.  1.
         11    1    3    3    0    0  0.76656915239E+01 -0.17153490672E+01  0.11559867631E+02  0.13976258042E+02  0.51100000000E-03 0. -1.
        -11    1    3    3    0    0  0.85296935597E+00  0.56959108700E+01  0.42819070695E+01  0.71767461830E+01  0.51100000000E-03 0.  1.
         12    1    3    3    0    0  0.11730574590E+02 -0.87696243433E+01  0.22245709359E+02  0.26634268832E+02  0.00000000000E+00 0. -1.
</event>
<event>
 7    1  0.1457722E-010  0.4778727E+02  0.7816164E-02  0.1312668E+00
        -11   -1    0    0    0    0  0.00000000000E+00  0.00000000000E+00  0.45593999997E+02  0.45594000000E+02  0.51100000000E-03 0.  1.
         11   -1    0    0    0    0 -0.00000000000E+00 -0.00000000000E+00 -0.45593999997E+02  0.45594000000E+02  0.51100000000E-03 0. -1.
    9900012    2    1    2    0    0  0.31883194538E+02  0.23630687985E+02 -0.17569173941E+02  0.47787269804E+02  0.19999994345E+02 0.  0.
        -12    1    1    2    0    0 -0.31883194538E+02 -0.23630687985E+02  0.17569173941E+02  0.43400730196E+02  0.00000000000E+00 0.  1.
         11    1    3    3    0    0  0.50792798271E+01  0.67983138005E+01 -0.10068846131E+02  0.13168060479E+02  0.51100000000E-03 0. -1.
        -11    1    3    3    0    0  0.24818250974E+02  0.15645963394E+02 -0.10202926295E+02  0.31061897192E+02  0.51100000000E-03 0.  1.
        -12    1    3    3    0    0  0.19856637366E+01  0.11864107900E+01  0.27025984856E+01  0.35573121330E+01  0.00000000000E+00 0.  1.
</event>
<event>
 7    1  0.1457722E-010  0.4778727E+02  0.7816164E-02  0.1312668E+00
        -11   -1    0    0    0    0  0.00000000000E+00  0.00000000000E+00  0.45593999997E+02  0.45594000000E+02  0.51100000000E-03 0. -1.
         11   -1    0    0    0    0 -0.00000000000E+00 -0.00000000000E+00 -0.45593999997E+02  0.45594000000E+02  0.51100000000E-03 0.  1.
    9900012    2    1    2    0    0  0.30768117010E+02  0.25295215349E+02 -0.17236536483E+02  0.47787272658E+02  0.20000007355E+02 0.  0.
        -12    1    1    2    0    0 -0.30768117010E+02 -0.25295215349E+02  0.17236536483E+02  0.43400727342E+02  0.00000000000E+00 0.  1.
         11    1    3    3    0    0  0.12088078289E+01  0.22892679983E+01 -0.15538198778E+01  0.30193245617E+01  0.51100000000E-03 0. -1.
        -11    1    3    3    0    0  0.94642891262E+00  0.53919693888E+01  0.30830407735E+01  0.62828498509E+01  0.51100000000E-03 0.  1.
         12    1    3    3    0    0  0.28612880269E+02  0.17613977962E+02 -0.18765757379E+02  0.38485098245E+02  0.00000000000E+00 0. -1.
</event>
<event>
 7    1  0.1457722E-010  0.4778728E+02  0.7816164E-02  0.1312668E+00
        -11   -1    0    0    0    0  0.00000000000E+00  0.00000000000E+00  0.45593999997E+02  0.45594000000E+02  0.51100000000E-03 0. -1.
         11   -1    0    0    0    0 -0.00000000000E+00 -0.00000000000E+00 -0.45593999997E+02  0.45594000000E+02  0.51100000000E-03 0.  1.
    9900012    2    1    2    0    0 -0.37487859976E+02 -0.66046062166E+00  0.21859709529E+02  0.47787277028E+02  0.20000027279E+02 0.  0.
        -12    1    1    2    0    0  0.37487859976E+02  0.66046062166E+00 -0.21859709529E+02  0.43400722972E+02  0.00000000000E+00 0.  1.
         11    1    3    3    0    0 -0.25866617667E+01  0.83782477529E+00 -0.18798169492E+01  0.33055228744E+01  0.51100000000E-03 0.  1.
        -11    1    3    3    0    0 -0.28430829104E+02 -0.30799405157E+01  0.24655317846E+02  0.37758214675E+02  0.51100000000E-03 0. -1.
         12    1    3    3    0    0 -0.64703691057E+01  0.15816551188E+01 -0.91579136798E+00  0.67235394777E+01  0.00000000000E+00 0. -1.
</event>
<event>
 7    1  0.1457722E-010  0.4778726E+02  0.7816164E-02  0.1312668E+00
        -11   -1    0    0    0    0  0.00000000000E+00  0.00000000000E+00  0.45593999997E+02  0.45594000000E+02  0.51100000000E-03 0.  1.
         11   -1    0    0    0    0 -0.00000000000E+00 -0.00000000000E+00 -0.45593999997E+02  0.45594000000E+02  0.51100000000E-03 0. -1.
    9900012    2    1    2    0    0 -0.15439128340E+02  0.39143223593E+02 -0.10633237631E+02  0.47787258305E+02  0.19999941915E+02 0.  0.
        -12    1    1    2    0    0  0.15439128340E+02 -0.39143223593E+02  0.10633237631E+02  0.43400741695E+02  0.00000000000E+00 0.  1.
         11    1    3    3    0    0 -0.45247420960E+01  0.10761690825E+02 -0.92230255289E+01  0.14877885623E+02  0.51100000000E-03 0. -1.
        -11    1    3    3    0    0 -0.11795638757E+02  0.13430793016E+02 -0.10015515758E+00  0.17875495127E+02  0.51100000000E-03 0.  1.
        -12    1    3    3    0    0  0.88125251269E+00  0.14950739752E+02 -0.13100569443E+01  0.15033877554E+02  0.00000000000E+00 0.  1.
</event>
<event>
 7    1  0.1457722E-010  0.4778727E+02  0.7816164E-02  0.1312668E+00
        -11   -1    0    0    0    0  0.00000000000E+00  0.00000000000E+00  0.45593999997E+02  0.45594000000E+02  0.51100000000E-03 0.  1.
         11   -1    0    0    0    0 -0.00000000000E+00 -0.00000000000E+00 -0.45593999997E+02  0.45594000000E+02  0.51100000000E-03 0. -1.
    9900012    2    1    2    0    0  0.29848214768E+02  0.18601959814E+02 -0.25429795173E+02  0.47787270556E+02  0.19999997772E+02 0.  0.
        -12    1    1    2    0    0 -0.29848214768E+02 -0.18601959814E+02  0.25429795173E+02  0.43400729444E+02  0.00000000000E+00 0.  1.
         11    1    3    3    0    0  0.23824052862E+02  0.16172221828E+02 -0.12388653846E+02  0.31346530876E+02  0.51100000000E-03 0. -1.
        -11    1    3    3    0    0  0.20767840889E+01  0.27463292388E+01 -0.74525658712E+00  0.35228914377E+01  0.51100000000E-03 0.  1.
        -12    1    3    3    0    0  0.39473778173E+01 -0.31659125258E+00 -0.12295884740E+02  0.12917848242E+02  0.00000000000E+00 0.  1.
</event>
<event>
 7    1  0.1457722E-010  0.4778727E+02  0.7816164E-02  0.1312668E+00
        -11   -1    0    0    0    0  0.00000000000E+00  0.00000000000E+00  0.45593999997E+02  0.45594000000E+02  0.51100000000E-03 0.  1.
         11   -1    0    0    0    0 -0.00000000000E+00 -0.00000000000E+00 -0.45593999997E+02  0.45594000000E+02  0.51100000000E-03 0. -1.
    9900012    2    1    2    0    0  0.11686908815E+02  0.23439857394E+02 -0.34606536737E+02  0.47787272619E+02  0.20000007177E+02 0.  0.
        -12    1    1    2    0    0 -0.11686908815E+02 -0.23439857394E+02  0.34606536737E+02  0.43400727381E+02  0.00000000000E+00 0.  1.
         11    1    3    3    0    0  0.28286868757E+01  0.22059653154E+02 -0.17395309355E+02  0.28235200629E+02  0.51100000000E-03 0. -1.
        -11    1    3    3    0    0  0.46420613242E+01  0.95991947341E+00 -0.65974802533E+01  0.81238491300E+01  0.51100000000E-03 0.  1.
         12    1    3    3    0    0  0.42161606154E+01  0.42028476635E+00 -0.10613747129E+02  0.11428222860E+02  0.00000000000E+00 0. -1.
</event>
<event>
 7    1  0.1457722E-010  0.4778727E+02  0.7816164E-02  0.1312668E+00
        -11   -1    0    0    0    0  0.00000000000E+00  0.00000000000E+00  0.45593999997E+02  0.45594000000E+02  0.51100000000E-03 0.  1.
         11   -1    0    0    0    0 -0.00000000000E+00 -0.00000000000E+00 -0.45593999997E+02  0.45594000000E+02  0.51100000000E-03 0. -1.
    9900012    2    1    2    0    0  0.33661222011E+02  0.27348773103E+02  0.16095046164E+01  0.47787265414E+02  0.19999974328E+02 0.  0.
        -12    1    1    2    0    0 -0.33661222011E+02 -0.27348773103E+02 -0.16095046164E+01  0.43400734586E+02  0.00000000000E+00 0.  1.
         11    1    3    3    0    0  0.29638282941E+02  0.18794273808E+02  0.83384533842E+00  0.35104812234E+02  0.51100000000E-03 0. -1.
        -11    1    3    3    0    0  0.19485442222E+01  0.27111052636E+01  0.43822514040E+01  0.55091781570E+01  0.51100000000E-03 0.  1.
        -12    1    3    3    0    0  0.20743948472E+01  0.58433940318E+01 -0.36065921261E+01  0.71732750231E+01  0.00000000000E+00 0.  1.
</event>
<event>
 7    1  0.1457722E-010  0.4778729E+02  0.7816164E-02  0.1312668E+00
        -11   -1    0    0    0    0  0.00000000000E+00  0.00000000000E+00  0.45593999997E+02  0.45594000000E+02  0.51100000000E-03 0. -1.
         11   -1    0    0    0    0 -0.00000000000E+00 -0.00000000000E+00 -0.45593999997E+02  0.45594000000E+02  0.51100000000E-03 0.  1.
    9900012    2    1    2    0    0 -0.29055612467E+01 -0.10945537805E+01  0.43289502694E+02  0.47787292890E+02  0.20000099604E+02 0.  0.
        -12    1    1    2    0    0  0.29055612467E+01  0.10945537805E+01 -0.43289502694E+02  0.43400707110E+02  0.00000000000E+00 0.  1.
         11    1    3    3    0    0 -0.38545384165E+01  0.35486569470E+01  0.28784108659E+01  0.59779329124E+01  0.51100000000E-03 0. -1.
        -11    1    3    3    0    0 -0.18175250122E+01  0.10337702801E+01  0.25892145981E+02  0.25976437437E+02  0.51100000000E-03 0.  1.
        -12    1    3    3    0    0  0.27665021819E+01 -0.56769810075E+01  0.14518945846E+02  0.15832922541E+02  0.00000000000E+00 0.  1.
</event>
<event>
 7    1  0.1457722E-010  0.4778727E+02  0.7816164E-02  0.1312668E+00
        -11   -1    0    0    0    0  0.00000000000E+00  0.00000000000E+00  0.45593999997E+02  0.45594000000E+02  0.51100000000E-03 0.  1.
         11   -1    0    0    0    0 -0.00000000000E+00 -0.00000000000E+00 -0.45593999997E+02  0.45594000000E+02  0.51100000000E-03 0. -1.
    9900012    2    1    2    0    0 -0.59772875053E+01  0.42021306864E+02 -0.90611972634E+01  0.47787268528E+02  0.19999988527E+02 0.  0.
        -12    1    1    2    0    0  0.59772875053E+01 -0.42021306864E+02  0.90611972634E+01  0.43400731472E+02  0.00000000000E+00 0.  1.
         11    1    3    3    0    0  0.31679686824E+01  0.11720560941E+02 -0.58739490438E+01  0.13487433113E+02  0.51100000000E-03 0. -1.
        -11    1    3    3    0    0 -0.15470871835E+01  0.22188919817E+02  0.13752180823E+01  0.22285261193E+02  0.51100000000E-03 0.  1.
         12    1    3    3    0    0 -0.75981690042E+01  0.81118261054E+01 -0.45624663019E+01  0.12014574222E+02  0.00000000000E+00 0. -1.
</event>
<event>
 7    1  0.1457722E-010  0.4778730E+02  0.7816164E-02  0.1312668E+00
        -11   -1    0    0    0    0  0.00000000000E+00  0.00000000000E+00  0.45593999997E+02  0.45594000000E+02  0.51100000000E-03 0. -1.
         11   -1    0    0    0    0 -0.00000000000E+00 -0.00000000000E+00 -0.45593999997E+02  0.45594000000E+02  0.51100000000E-03 0.  1.
    9900012    2    1    2    0    0 -0.41687596646E+02 -0.17517921631E+01 -0.11945543666E+02  0.47787302962E+02  0.20000145523E+02 0.  0.
        -12    1    1    2    0    0  0.41687596646E+02  0.17517921631E+01  0.11945543666E+02  0.43400697038E+02  0.00000000000E+00 0.  1.
         11    1    3    3    0    0 -0.24334080452E+02 -0.11714074548E+01 -0.13059140729E+02  0.27641650162E+02  0.51100000000E-03 0. -1.
        -11    1    3    3    0    0 -0.53031047554E+01  0.18910337864E+01 -0.39136620773E+01  0.68567980825E+01  0.51100000000E-03 0.  1.
         12    1    3    3    0    0 -0.12050411439E+02 -0.24714184946E+01  0.50272591398E+01  0.13288854717E+02  0.00000000000E+00 0. -1.
</event>
<event>
 7    1  0.1457722E-010  0.4778727E+02  0.7816164E-02  0.1312668E+00
        -11   -1    0    0    0    0  0.00000000000E+00  0.00000000000E+00  0.45593999997E+02  0.45594000000E+02  0.51100000000E-03 0.  1.
         11   -1    0    0    0    0 -0.00000000000E+00 -0.00000000000E+00 -0.45593999997E+02  0.45594000000E+02  0.51100000000E-03 0. -1.
    9900012    2    1    2    0    0 -0.34681653170E+02  0.20159816705E+02 -0.16564654087E+02  0.47787273725E+02  0.20000012221E+02 0.  0.
        -12    1    1    2    0    0  0.34681653170E+02 -0.20159816705E+02  0.16564654087E+02  0.43400726275E+02  0.00000000000E+00 0.  1.
         11    1    3    3    0    0 -0.15278582993E+02  0.46215107155E+01 -0.13279828104E+02  0.20764086647E+02  0.51100000000E-03 0. -1.
        -11    1    3    3    0    0 -0.10747085612E+02  0.27419086061E+01  0.55106099112E+00  0.11105025008E+02  0.51100000000E-03 0.  1.
        -12    1    3    3    0    0 -0.86559845649E+01  0.12796397384E+02 -0.38358869748E+01  0.15918162070E+02  0.00000000000E+00 0.  1.
</event>
<event>
 7    1  0.1457722E-010  0.4778727E+02  0.7816164E-02  0.1312668E+00
        -11   -1    0    0    0    0  0.00000000000E+00  0.00000000000E+00  0.45593999997E+02  0.45594000000E+02  0.51100000000E-03 0.  1.
         11   -1    0    0    0    0 -0.00000000000E+00 -0.00000000000E+00 -0.45593999997E+02  0.45594000000E+02  0.51100000000E-03 0. -1.
    9900012    2    1    2    0    0  0.30800257870E+02  0.25424101110E+01 -0.30471352118E+02  0.47787273809E+02  0.20000012603E+02 0.  0.
        -12    1    1    2    0    0 -0.30800257870E+02 -0.25424101110E+01  0.30471352118E+02  0.43400726191E+02  0.00000000000E+00 0.  1.
         11    1    3    3    0    0  0.24479177001E+02 -0.98611489291E-01 -0.17508525719E+02  0.30096317117E+02  0.51100000000E-03 0. -1.
        -11    1    3    3    0    0  0.61600043215E+01 -0.12199468257E+01 -0.12243873750E+02  0.13760318607E+02  0.51100000000E-03 0.  1.
        -12    1    3    3    0    0  0.16107654762E+00  0.38609684259E+01 -0.71895264837E+00  0.39306380844E+01  0.00000000000E+00 0.  1.
</event>
<event>
 7    1  0.1457722E-010  0.4778728E+02  0.7816164E-02  0.1312668E+00
        -11   -1    0    0    0    0  0.00000000000E+00  0.00000000000E+00  0.45593999997E+02  0.45594000000E+02  0.51100000000E-03 0. -1.
         11   -1    0    0    0    0 -0.00000000000E+00 -0.00000000000E+00 -0.45593999997E+02  0.45594000000E+02  0.51100000000E-03 0.  1.
    9900012    2    1    2    0    0  0.37335281073E+02  0.22041542669E+02  0.19671576518E+01  0.47787279669E+02  0.20000039321E+02 0.  0.
        -12    1    1    2    0    0 -0.37335281073E+02 -0.22041542669E+02 -0.19671576518E+01  0.43400720331E+02  0.00000000000E+00 0.  1.
         11    1    3    3    0    0  0.60778073944E+01  0.78055869011E+00 -0.38479378325E+01  0.72357197580E+01  0.51100000000E-03 0. -1.
        -11    1    3    3    0    0 -0.52008949202E+00  0.87330789190E+00 -0.17706288400E+01  0.20416381912E+01  0.51100000000E-03 0.  1.
         12    1    3    3    0    0  0.31777563171E+02  0.20387676087E+02  0.75857243242E+01  0.38509921719E+02  0.00000000000E+00 0. -1.
</event>
<event>
 7    1  0.1457722E-010  0.4778728E+02  0.7816164E-02  0.1312668E+00
        -11   -1    0    0    0    0  0.00000000000E+00  0.00000000000E+00  0.45593999997E+02  0.45594000000E+02  0.51100000000E-03 0.  1.
         11   -1    0    0    0    0 -0.00000000000E+00 -0.00000000000E+00 -0.45593999997E+02  0.45594000000E+02  0.51100000000E-03 0. -1.
    9900012    2    1    2    0    0 -0.12191862993E+02  0.39538217429E+02 -0.13103845130E+02  0.47787275146E+02  0.20000018699E+02 0.  0.
        -12    1    1    2    0    0  0.12191862993E+02 -0.39538217429E+02  0.13103845130E+02  0.43400724854E+02  0.00000000000E+00 0.  1.
         11    1    3    3    0    0 -0.68340697236E+01  0.96312194767E+01 -0.49365253625E+01  0.12799772674E+02  0.51100000000E-03 0. -1.
        -11    1    3    3    0    0  0.41910369391E+01  0.35832359638E+01  0.82836300544E+00  0.55758906129E+01  0.51100000000E-03 0.  1.
         12    1    3    3    0    0 -0.95488302086E+01  0.26323761988E+02 -0.89956827730E+01  0.29411611859E+02  0.00000000000E+00 0. -1.
</event>
<event>
 7    1  0.1457722E-010  0.4778727E+02  0.7816164E-02  0.1312668E+00
        -11   -1    0    0    0    0  0.00000000000E+00  0.00000000000E+00  0.45593999997E+02  0.45594000000E+02  0.51100000000E-03 0.  1.
         11   -1    0    0    0    0 -0.00000000000E+00 -0.00000000000E+00 -0.45593999997E+02  0.45594000000E+02  0.51100000000E-03 0. -1.
    9900012    2    1    2    0    0 -0.23597512860E+02  0.12021443644E+02 -0.34384092467E+02  0.47787268034E+02  0.19999986273E+02 0.  0.
        -12    1    1    2    0    0  0.23597512860E+02 -0.12021443644E+02  0.34384092467E+02  0.43400731966E+02  0.00000000000E+00 0.  1.
         11    1    3    3    0    0 -0.23086937313E+01  0.70315130508E+01 -0.73502243354E+01  0.10430629922E+02  0.51100000000E-03 0.  1.
        -11    1    3    3    0    0 -0.10032709380E+02  0.15339359549E+01 -0.29837318964E+01  0.10578793566E+02  0.51100000000E-03 0. -1.
        -12    1    3    3    0    0 -0.11256109748E+02  0.34559946385E+01 -0.24050136235E+02  0.26777844546E+02  0.00000000000E+00 0.  1.
</event>
<event>
 7    1  0.1457722E-010  0.4778727E+02  0.7816164E-02  0.1312668E+00
        -11   -1    0    0    0    0  0.00000000000E+00  0.00000000000E+00  0.45593999997E+02  0.45594000000E+02  0.51100000000E-03 0.  1.
         11   -1    0    0    0    0 -0.00000000000E+00 -0.00000000000E+00 -0.45593999997E+02  0.45594000000E+02  0.51100000000E-03 0. -1.
    9900012    2    1    2    0    0  0.10012472678E+02 -0.42105613468E+02  0.32389625601E+01  0.47787272205E+02  0.20000005291E+02 0.  0.
        -12    1    1    2    0    0 -0.10012472678E+02  0.42105613468E+02 -0.32389625601E+01  0.43400727795E+02  0.00000000000E+00 0.  1.
         11    1    3    3    0    0 -0.86148276214E+00 -0.73002367680E+01  0.74017462724E+01  0.10431752372E+02  0.51100000000E-03 0.  1.
        -11    1    3    3    0    0  0.21412421625E+01 -0.60849153944E+01 -0.34789214920E+01  0.73289841291E+01  0.51100000000E-03 0. -1.
        -12    1    3    3    0    0  0.87327132778E+01 -0.28720461306E+02 -0.68386222031E+00  0.30026535703E+02  0.00000000000E+00 0.  1.
</event>
<event>
 7    1  0.1457722E-010  0.4778727E+02  0.7816164E-02  0.1312668E+00
        -11   -1    0    0    0    0  0.00000000000E+00  0.00000000000E+00  0.45593999997E+02  0.45594000000E+02  0.51100000000E-03 0.  1.
         11   -1    0    0    0    0 -0.00000000000E+00 -0.00000000000E+00 -0.45593999997E+02  0.45594000000E+02  0.51100000000E-03 0. -1.
    9900012    2    1    2    0    0 -0.26530837433E+02  0.21865103602E+02 -0.26488775452E+02  0.47787270566E+02  0.19999997820E+02 0.  0.
        -12    1    1    2    0    0  0.26530837433E+02 -0.21865103602E+02  0.26488775452E+02  0.43400729434E+02  0.00000000000E+00 0.  1.
         11    1    3    3    0    0 -0.16377209911E+02  0.20541319263E+02 -0.19890617962E+02  0.32951410967E+02  0.51100000000E-03 0. -1.
        -11    1    3    3    0    0 -0.10584319704E+02  0.32229529983E+01 -0.44206709361E+01  0.11914595311E+02  0.51100000000E-03 0.  1.
        -12    1    3    3    0    0  0.43069218245E+00 -0.18991686591E+01 -0.21774865543E+01  0.29212642889E+01  0.00000000000E+00 0.  1.
</event>
<event>
 7    1  0.1457722E-010  0.4778728E+02  0.7816164E-02  0.1312668E+00
        -11   -1    0    0    0    0  0.00000000000E+00  0.00000000000E+00  0.45593999997E+02  0.45594000000E+02  0.51100000000E-03 0.  1.
         11   -1    0    0    0    0 -0.00000000000E+00 -0.00000000000E+00 -0.45593999997E+02  0.45594000000E+02  0.51100000000E-03 0. -1.
    9900012    2    1    2    0    0 -0.22235167894E+01 -0.42695545781E+02  0.74678827986E+01  0.47787275007E+02  0.20000018066E+02 0.  0.
        -12    1    1    2    0    0  0.22235167894E+01  0.42695545781E+02 -0.74678827986E+01  0.43400724993E+02  0.00000000000E+00 0.  1.
         11    1    3    3    0    0 -0.43995179892E+01 -0.23878832903E+01  0.38278278714E+01  0.63015880236E+01  0.51100000000E-03 0.  1.
        -11    1    3    3    0    0  0.10860332661E+01 -0.15933705021E+02 -0.28867226835E+01  0.16229466783E+02  0.51100000000E-03 0. -1.
        -12    1    3    3    0    0  0.10899679337E+01 -0.24373957469E+02  0.65267776108E+01  0.25256220200E+02  0.00000000000E+00 0.  1.
</event>
<event>
 7    1  0.1457722E-010  0.4778727E+02  0.7816164E-02  0.1312668E+00
        -11   -1    0    0    0    0  0.00000000000E+00  0.00000000000E+00  0.45593999997E+02  0.45594000000E+02  0.51100000000E-03 0. -1.
         11   -1    0    0    0    0 -0.00000000000E+00 -0.00000000000E+00 -0.45593999997E+02  0.45594000000E+02  0.51100000000E-03 0.  1.
    9900012    2    1    2    0    0  0.13706910616E+02  0.37976794528E+02 -0.15921896720E+02  0.47787272858E+02  0.20000008269E+02 0.  0.
        -12    1    1    2    0    0 -0.13706910616E+02 -0.37976794528E+02  0.15921896720E+02  0.43400727142E+02  0.00000000000E+00 0.  1.
         11    1    3    3    0    0  0.36395059695E+01  0.41914691451E+01 -0.60478729047E+01  0.82092133745E+01  0.51100000000E-03 0.  1.
        -11    1    3    3    0    0  0.43284722362E+01  0.30435151505E+02 -0.45776190663E+01  0.31080359001E+02  0.51100000000E-03 0. -1.
         12    1    3    3    0    0  0.57389324100E+01  0.33501738779E+01 -0.52964047494E+01  0.84977004823E+01  0.00000000000E+00 0. -1.
</event>
<event>
 7    1  0.1480168E-010  0.4778731E+02  0.7816164E-02  0.1312668E+00
        -11   -1    0    0    0    0  0.00000000000E+00  0.00000000000E+00  0.45593999997E+02  0.45594000000E+02  0.51100000000E-03 0. -1.
         11   -1    0    0    0    0 -0.00000000000E+00 -0.00000000000E+00 -0.45593999997E+02  0.45594000000E+02  0.51100000000E-03 0.  1.
    9900012    2    1    2    0    0  0.34645360711E+02  0.22735720252E+02 -0.12899842948E+02  0.47787309426E+02  0.20000174997E+02 0.  0.
        -12    1    1    2    0    0 -0.34645360711E+02 -0.22735720252E+02  0.12899842948E+02  0.43400690574E+02  0.00000000000E+00 0.  1.
         11    1    3    3    0    0  0.20042221034E+02  0.15593821701E+02 -0.31221019562E+01  0.25585257866E+02  0.51100000000E-03 0. -1.
        -11    1    3    3    0    0  0.13093223737E+02  0.93547361468E+00 -0.43761641828E+01  0.13836850506E+02  0.51100000000E-03 0.  1.
         12    1    3    3    0    0  0.15099159402E+01  0.62064249372E+01 -0.54015768092E+01  0.83652010539E+01  0.00000000000E+00 0. -1.
</event>
<event>
 7    1  0.1457722E-010  0.4778728E+02  0.7816164E-02  0.1312668E+00
        -11   -1    0    0    0    0  0.00000000000E+00  0.00000000000E+00  0.45593999997E+02  0.45594000000E+02  0.51100000000E-03 0.  1.
         11   -1    0    0    0    0 -0.00000000000E+00 -0.00000000000E+00 -0.45593999997E+02  0.45594000000E+02  0.51100000000E-03 0. -1.
    9900012    2    1    2    0    0  0.22696048463E+01 -0.15351345866E+02 -0.40531567524E+02  0.47787275444E+02  0.20000020058E+02 0.  0.
        -12    1    1    2    0    0 -0.22696048463E+01  0.15351345866E+02  0.40531567524E+02  0.43400724556E+02  0.00000000000E+00 0.  1.
         11    1    3    3    0    0 -0.46529674859E+00 -0.49865064474E+01 -0.46297009703E+01  0.68202550502E+01  0.51100000000E-03 0. -1.
        -11    1    3    3    0    0  0.11389833546E+01 -0.19192286739E+01 -0.30984375435E+02  0.31064646194E+02  0.51100000000E-03 0.  1.
        -12    1    3    3    0    0  0.15959182403E+01 -0.84456107448E+01 -0.49174911184E+01  0.99023741992E+01  0.00000000000E+00 0.  1.
</event>
<event>
 7    1  0.1457722E-010  0.4778727E+02  0.7816164E-02  0.1312668E+00
        -11   -1    0    0    0    0  0.00000000000E+00  0.00000000000E+00  0.45593999997E+02  0.45594000000E+02  0.51100000000E-03 0.  1.
         11   -1    0    0    0    0 -0.00000000000E+00 -0.00000000000E+00 -0.45593999997E+02  0.45594000000E+02  0.51100000000E-03 0. -1.
    9900012    2    1    2    0    0  0.13718220745E+02 -0.40993657858E+02  0.38669764959E+01  0.47787273367E+02  0.20000010591E+02 0.  0.
        -12    1    1    2    0    0 -0.13718220745E+02  0.40993657858E+02 -0.38669764959E+01  0.43400726633E+02  0.00000000000E+00 0.  1.
         11    1    3    3    0    0  0.18148707309E+01 -0.15552560608E+02  0.69966746011E+01  0.17150199794E+02  0.51100000000E-03 0. -1.
        -11    1    3    3    0    0  0.52597830191E+01 -0.51829944314E+01  0.36876725730E+01  0.82539492336E+01  0.51100000000E-03 0.  1.
         12    1    3    3    0    0  0.66435669952E+01 -0.20258102819E+02 -0.68173706782E+01  0.22383124340E+02  0.00000000000E+00 0. -1.
</event>
<event>
 7    1  0.1457722E-010  0.4778727E+02  0.7816164E-02  0.1312668E+00
        -11   -1    0    0    0    0  0.00000000000E+00  0.00000000000E+00  0.45593999997E+02  0.45594000000E+02  0.51100000000E-03 0.  1.
         11   -1    0    0    0    0 -0.00000000000E+00 -0.00000000000E+00 -0.45593999997E+02  0.45594000000E+02  0.51100000000E-03 0. -1.
    9900012    2    1    2    0    0  0.73969688389E+01  0.34076411120E+02 -0.25840012573E+02  0.47787271981E+02  0.20000004269E+02 0.  0.
        -12    1    1    2    0    0 -0.73969688389E+01 -0.34076411120E+02  0.25840012573E+02  0.43400728019E+02  0.00000000000E+00 0.  1.
         11    1    3    3    0    0 -0.34038450910E+01  0.12586848771E+02 -0.11740125452E+02  0.17545525620E+02  0.51100000000E-03 0. -1.
        -11    1    3    3    0    0  0.44832281762E+01  0.17651595046E+01 -0.66904764864E+01  0.82448528691E+01  0.51100000000E-03 0.  1.
        -12    1    3    3    0    0  0.63175857536E+01  0.19724402845E+02 -0.74094106343E+01  0.21996893492E+02  0.00000000000E+00 0.  1.
</event>
<event>
 7    1  0.1457722E-010  0.4778727E+02  0.7816164E-02  0.1312668E+00
        -11   -1    0    0    0    0  0.00000000000E+00  0.00000000000E+00  0.45593999997E+02  0.45594000000E+02  0.51100000000E-03 0.  1.
         11   -1    0    0    0    0 -0.00000000000E+00 -0.00000000000E+00 -0.45593999997E+02  0.45594000000E+02  0.51100000000E-03 0. -1.
    9900012    2    1    2    0    0  0.54107863471E+01  0.19835294189E+02 -0.38221822163E+02  0.47787271965E+02  0.20000004198E+02 0.  0.
        -12    1    1    2    0    0 -0.54107863471E+01 -0.19835294189E+02  0.38221822163E+02  0.43400728035E+02  0.00000000000E+00 0.  1.
         11    1    3    3    0    0 -0.14889437182E+01  0.77380950864E+01 -0.24854884315E+02  0.26074131693E+02  0.51100000000E-03 0. -1.
        -11    1    3    3    0    0  0.84521773840E+01  0.87563047863E+01 -0.13301029598E+02  0.18028576335E+02  0.51100000000E-03 0.  1.
        -12    1    3    3    0    0 -0.15524473188E+01  0.33408943165E+01 -0.65908250401E-01  0.36845639374E+01  0.00000000000E+00 0.  1.
</event>
<event>
 7    1  0.1457722E-010  0.4778727E+02  0.7816164E-02  0.1312668E+00
        -11   -1    0    0    0    0  0.00000000000E+00  0.00000000000E+00  0.45593999997E+02  0.45594000000E+02  0.51100000000E-03 0.  1.
         11   -1    0    0    0    0 -0.00000000000E+00 -0.00000000000E+00 -0.45593999997E+02  0.45594000000E+02  0.51100000000E-03 0. -1.
    9900012    2    1    2    0    0 -0.13652558107E+02 -0.35892097518E+02 -0.20223457876E+02  0.47787271255E+02  0.20000000961E+02 0.  0.
        -12    1    1    2    0    0  0.13652558107E+02  0.35892097518E+02  0.20223457876E+02  0.43400728745E+02  0.00000000000E+00 0.  1.
         11    1    3    3    0    0  0.18151819817E+01 -0.11297659080E+02 -0.80619458039E+01  0.13997391068E+02  0.51100000000E-03 0. -1.
        -11    1    3    3    0    0 -0.62412443590E+01 -0.19903152878E+02 -0.10336941885E+02  0.23279626145E+02  0.51100000000E-03 0.  1.
        -12    1    3    3    0    0 -0.92264957299E+01 -0.46912855598E+01 -0.18245701868E+01  0.10510254042E+02  0.00000000000E+00 0.  1.
</event>
<event>
 7    1  0.1457722E-010  0.4778731E+02  0.7816164E-02  0.1312668E+00
        -11   -1    0    0    0    0  0.00000000000E+00  0.00000000000E+00  0.45593999997E+02  0.45594000000E+02  0.51100000000E-03 0. -1.
         11   -1    0    0    0    0 -0.00000000000E+00 -0.00000000000E+00 -0.45593999997E+02  0.45594000000E+02  0.51100000000E-03 0.  1.
    9900012    2    1    2    0    0 -0.15005399514E+02  0.83785615197E+01  0.39852947192E+02  0.47787312130E+02  0.20000187324E+02 0.  0.
        -12    1    1    2    0    0  0.15005399514E+02 -0.83785615197E+01 -0.39852947192E+02  0.43400687870E+02  0.00000000000E+00 0.  1.
         11    1    3    3    0    0 -0.97390788770E+01 -0.56906504608E+00  0.18719740146E+02  0.21109290935E+02  0.51100000000E-03 0. -1.
        -11    1    3    3    0    0  0.32800798460E+01 -0.59698219933E+00  0.58679042365E+01  0.67488970901E+01  0.51100000000E-03 0.  1.
        -12    1    3    3    0    0 -0.85464004835E+01  0.95446087651E+01  0.15265302810E+02  0.19929124104E+02  0.00000000000E+00 0.  1.
</event>
<event>
 7    1  0.1457722E-010  0.4778727E+02  0.7816164E-02  0.1312668E+00
        -11   -1    0    0    0    0  0.00000000000E+00  0.00000000000E+00  0.45593999997E+02  0.45594000000E+02  0.51100000000E-03 0.  1.
         11   -1    0    0    0    0 -0.00000000000E+00 -0.00000000000E+00 -0.45593999997E+02  0.45594000000E+02  0.51100000000E-03 0. -1.
    9900012    2    1    2    0    0 -0.14163627778E+02  0.36285857068E+02 -0.19140303932E+02  0.47787274089E+02  0.20000013881E+02 0.  0.
        -12    1    1    2    0    0  0.14163627778E+02 -0.36285857068E+02  0.19140303932E+02  0.43400725911E+02  0.00000000000E+00 0.  1.
         11    1    3    3    0    0 -0.65260635620E+01  0.17439708318E+01 -0.32946251566E+01  0.75156832730E+01  0.51100000000E-03 0.  1.
        -11    1    3    3    0    0 -0.55209265200E+01  0.19005742947E+02 -0.30324054458E+01  0.20022346957E+02  0.51100000000E-03 0. -1.
         12    1    3    3    0    0 -0.21166376964E+01  0.15536143289E+02 -0.12813273330E+02  0.20249243859E+02  0.00000000000E+00 0. -1.
</event>
<event>
 7    1  0.1457722E-010  0.4778727E+02  0.7816164E-02  0.1312668E+00
        -11   -1    0    0    0    0  0.00000000000E+00  0.00000000000E+00  0.45593999997E+02  0.45594000000E+02  0.51100000000E-03 0.  1.
         11   -1    0    0    0    0 -0.00000000000E+00 -0.00000000000E+00 -0.45593999997E+02  0.45594000000E+02  0.51100000000E-03 0. -1.
    9900012    2    1    2    0    0  0.26251909178E+01 -0.36876246117E+02 -0.22734860534E+02  0.47787273756E+02  0.20000012363E+02 0.  0.
        -12    1    1    2    0    0 -0.26251909178E+01  0.36876246117E+02  0.22734860534E+02  0.43400726244E+02  0.00000000000E+00 0.  1.
         11    1    3    3    0    0  0.32675216815E+01 -0.15324556396E+02 -0.95075800358E+01  0.18327924189E+02  0.51100000000E-03 0. -1.
        -11    1    3    3    0    0 -0.67454501682E+01 -0.10853013594E+02 -0.22795415122E+01  0.12980189205E+02  0.51100000000E-03 0.  1.
        -12    1    3    3    0    0  0.61031194044E+01 -0.10698676128E+02 -0.10947738986E+02  0.16479160362E+02  0.00000000000E+00 0.  1.
</event>
<event>
 7    1  0.1457722E-010  0.4778727E+02  0.7816164E-02  0.1312668E+00
        -11   -1    0    0    0    0  0.00000000000E+00  0.00000000000E+00  0.45593999997E+02  0.45594000000E+02  0.51100000000E-03 0. -1.
         11   -1    0    0    0    0 -0.00000000000E+00 -0.00000000000E+00 -0.45593999997E+02  0.45594000000E+02  0.51100000000E-03 0.  1.
    9900012    2    1    2    0    0 -0.23397204747E+02 -0.17506636994E+02  0.32089123119E+02  0.47787270152E+02  0.19999995931E+02 0.  0.
        -12    1    1    2    0    0  0.23397204747E+02  0.17506636994E+02 -0.32089123119E+02  0.43400729848E+02  0.00000000000E+00 0.  1.
         11    1    3    3    0    0 -0.17366350111E+02 -0.91774740893E+01  0.14315548726E+02  0.24305371473E+02  0.51100000000E-03 0. -1.
        -11    1    3    3    0    0 -0.10802603436E+01  0.17678228554E+01 -0.40047532523E+00  0.21101044536E+01  0.51100000000E-03 0.  1.
        -12    1    3    3    0    0 -0.49505942926E+01 -0.10096985760E+02  0.18174049717E+02  0.21371794226E+02  0.00000000000E+00 0.  1.
</event>
<event>
 7    1  0.1457722E-010  0.4778727E+02  0.7816164E-02  0.1312668E+00
        -11   -1    0    0    0    0  0.00000000000E+00  0.00000000000E+00  0.45593999997E+02  0.45594000000E+02  0.51100000000E-03 0.  1.
         11   -1    0    0    0    0 -0.00000000000E+00 -0.00000000000E+00 -0.45593999997E+02  0.45594000000E+02  0.51100000000E-03 0. -1.
    9900012    2    1    2    0    0 -0.19768885482E+02 -0.35610102286E+02 -0.14991161713E+02  0.47787272500E+02  0.20000006637E+02 0.  0.
        -12    1    1    2    0    0  0.19768885482E+02  0.35610102286E+02  0.14991161713E+02  0.43400727500E+02  0.00000000000E+00 0.  1.
         11    1    3    3    0    0 -0.84220285233E+01 -0.11230058077E+02 -0.11120374885E+01  0.14081242718E+02  0.51100000000E-03 0.  1.
        -11    1    3    3    0    0  0.34520661111E+01 -0.24329257940E+01 -0.14752045610E+01  0.44734904842E+01  0.51100000000E-03 0. -1.
         12    1    3    3    0    0 -0.14798923070E+02 -0.21947118415E+02 -0.12403919664E+02  0.29232539297E+02  0.00000000000E+00 0. -1.
</event>
<event>
 7    1  0.1457722E-010  0.4778733E+02  0.7816164E-02  0.1312667E+00
        -11   -1    0    0    0    0  0.00000000000E+00  0.00000000000E+00  0.45593999997E+02  0.45594000000E+02  0.51100000000E-03 0.  1.
         11   -1    0    0    0    0 -0.00000000000E+00 -0.00000000000E+00 -0.45593999997E+02  0.45594000000E+02  0.51100000000E-03 0. -1.
    9900012    2    1    2    0    0 -0.19654023441E+02  0.19050978167E+02 -0.33680819017E+02  0.47787332077E+02  0.20000278268E+02 0.  0.
        -12    1    1    2    0    0  0.19654023441E+02 -0.19050978167E+02  0.33680819017E+02  0.43400667923E+02  0.00000000000E+00 0.  1.
         11    1    3    3    0    0 -0.65819049517E+01  0.16569905239E+02 -0.16432667719E+02  0.24246975090E+02  0.51100000000E-03 0. -1.
        -11    1    3    3    0    0  0.36738820162E+00  0.22150227382E+01 -0.10146994071E+01  0.24639226793E+01  0.51100000000E-03 0.  1.
        -12    1    3    3    0    0 -0.13439506691E+02  0.26605019018E+00 -0.16233451891E+02  0.21076434307E+02  0.00000000000E+00 0.  1.
</event>
<event>
 7    1  0.2191500E-010  0.4778727E+02  0.7816164E-02  0.1312668E+00
        -11   -1    0    0    0    0  0.00000000000E+00  0.00000000000E+00  0.45593999997E+02  0.45594000000E+02  0.51100000000E-03 0.  1.
         11   -1    0    0    0    0 -0.00000000000E+00 -0.00000000000E+00 -0.45593999997E+02  0.45594000000E+02  0.51100000000E-03 0. -1.
    9900012    2    1    2    0    0  0.40875281900E+02 -0.13644846158E+02  0.51625997915E+01  0.47787274963E+02  0.20000017868E+02 0.  0.
        -12    1    1    2    0    0 -0.40875281900E+02  0.13644846158E+02 -0.51625997915E+01  0.43400725037E+02  0.00000000000E+00 0.  1.
         11    1    3    3    0    0  0.42330098531E+02 -0.13517585940E+02  0.48342497571E+01  0.44698236456E+02  0.51100000000E-03 0. -1.
        -11    1    3    3    0    0 -0.49527713733E-02  0.90545245447E+00  0.84189036122E+00  0.12363851822E+01  0.51100000000E-03 0.  1.
         12    1    3    3    0    0 -0.14498638597E+01 -0.10327126727E+01 -0.51354032688E+00  0.18526533252E+01  0.00000000000E+00 0. -1.
</event>
<event>
 7    1  0.1457722E-010  0.4778727E+02  0.7816164E-02  0.1312668E+00
        -11   -1    0    0    0    0  0.00000000000E+00  0.00000000000E+00  0.45593999997E+02  0.45594000000E+02  0.51100000000E-03 0.  1.
         11   -1    0    0    0    0 -0.00000000000E+00 -0.00000000000E+00 -0.45593999997E+02  0.45594000000E+02  0.51100000000E-03 0. -1.
    9900012    2    1    2    0    0  0.17569079326E+01 -0.16346421413E+02 -0.40166294678E+02  0.47787269054E+02  0.19999990923E+02 0.  0.
        -12    1    1    2    0    0 -0.17569079326E+01  0.16346421413E+02  0.40166294678E+02  0.43400730946E+02  0.00000000000E+00 0.  1.
         11    1    3    3    0    0  0.56856534554E+00 -0.15731377206E+02 -0.22414842264E+02  0.27390229085E+02  0.51100000000E-03 0.  1.
        -11    1    3    3    0    0 -0.20187634304E+01 -0.11440359935E+01 -0.16870509955E+02  0.17029337349E+02  0.51100000000E-03 0. -1.
        -12    1    3    3    0    0  0.32071060175E+01  0.52899178644E+00 -0.88094245942E+00  0.33677026197E+01  0.00000000000E+00 0.  1.
</event>
<event>
 7    1  0.1457722E-010  0.4778726E+02  0.7816164E-02  0.1312668E+00
        -11   -1    0    0    0    0  0.00000000000E+00  0.00000000000E+00  0.45593999997E+02  0.45594000000E+02  0.51100000000E-03 0.  1.
         11   -1    0    0    0    0 -0.00000000000E+00 -0.00000000000E+00 -0.45593999997E+02  0.45594000000E+02  0.51100000000E-03 0. -1.
    9900012    2    1    2    0    0  0.11144231495E+02  0.24909877677E+01 -0.41871532201E+02  0.47787261244E+02  0.19999955316E+02 0.  0.
        -12    1    1    2    0    0 -0.11144231495E+02 -0.24909877677E+01  0.41871532201E+02  0.43400738756E+02  0.00000000000E+00 0.  1.
         11    1    3    3    0    0 -0.86362825014E+00  0.25334803223E+01 -0.14407739029E+02  0.14654259466E+02  0.51100000000E-03 0.  1.
        -11    1    3    3    0    0  0.13889124857E+02  0.13242029603E+01 -0.27467309456E+02  0.30807700203E+02  0.51100000000E-03 0. -1.
         12    1    3    3    0    0 -0.18812651122E+01 -0.13666955149E+01  0.35162835501E-02  0.23253015756E+01  0.00000000000E+00 0. -1.
</event>
<event>
 7    1  0.1457722E-010  0.4778727E+02  0.7816164E-02  0.1312668E+00
        -11   -1    0    0    0    0  0.00000000000E+00  0.00000000000E+00  0.45593999997E+02  0.45594000000E+02  0.51100000000E-03 0. -1.
         11   -1    0    0    0    0 -0.00000000000E+00 -0.00000000000E+00 -0.45593999997E+02  0.45594000000E+02  0.51100000000E-03 0.  1.
    9900012    2    1    2    0    0 -0.27422683248E+02  0.24861396370E+02 -0.22661217586E+02  0.47787269955E+02  0.19999995033E+02 0.  0.
        -12    1    1    2    0    0  0.27422683248E+02 -0.24861396370E+02  0.22661217586E+02  0.43400730045E+02  0.00000000000E+00 0.  1.
         11    1    3    3    0    0 -0.60976099083E+00 -0.16222228289E+01 -0.16329748598E+01  0.23811809100E+01  0.51100000000E-03 0. -1.
        -11    1    3    3    0    0 -0.16552575902E+01  0.96819835770E+01 -0.34105573439E+01  0.10397720199E+02  0.51100000000E-03 0.  1.
         12    1    3    3    0    0 -0.25157664667E+02  0.16801635622E+02 -0.17617685382E+02  0.35008368846E+02  0.00000000000E+00 0. -1.
</event>
<event>
 7    1  0.1457722E-010  0.4778727E+02  0.7816164E-02  0.1312668E+00
        -11   -1    0    0    0    0  0.00000000000E+00  0.00000000000E+00  0.45593999997E+02  0.45594000000E+02  0.51100000000E-03 0.  1.
         11   -1    0    0    0    0 -0.00000000000E+00 -0.00000000000E+00 -0.45593999997E+02  0.45594000000E+02  0.51100000000E-03 0. -1.
    9900012    2    1    2    0    0 -0.37068219132E+02  0.11651898989E+02  0.19333998755E+02  0.47787272730E+02  0.20000007687E+02 0.  0.
        -12    1    1    2    0    0  0.37068219132E+02 -0.11651898989E+02 -0.19333998755E+02  0.43400727270E+02  0.00000000000E+00 0.  1.
         11    1    3    3    0    0 -0.15667496510E+01 -0.29308948970E+01 -0.10612409664E-01  0.33233961922E+01  0.51100000000E-03 0. -1.
        -11    1    3    3    0    0 -0.27292922544E+01 -0.18442335693E+01  0.24168856967E+01  0.40855318381E+01  0.51100000000E-03 0.  1.
         12    1    3    3    0    0 -0.32772177227E+02  0.16427027456E+02  0.16927725468E+02  0.40378344700E+02  0.00000000000E+00 0. -1.
</event>
<event>
 7    1  0.1457722E-010  0.4778727E+02  0.7816164E-02  0.1312668E+00
        -11   -1    0    0    0    0  0.00000000000E+00  0.00000000000E+00  0.45593999997E+02  0.45594000000E+02  0.51100000000E-03 0. -1.
         11   -1    0    0    0    0 -0.00000000000E+00 -0.00000000000E+00 -0.45593999997E+02  0.45594000000E+02  0.51100000000E-03 0.  1.
    9900012    2    1    2    0    0  0.14599092952E+01  0.17798921919E+02  0.39556165715E+02  0.47787271864E+02  0.20000003737E+02 0.  0.
        -12    1    1    2    0    0 -0.14599092952E+01 -0.17798921919E+02 -0.39556165715E+02  0.43400728136E+02  0.00000000000E+00 0.  1.
         11    1    3    3    0    0  0.41792321135E+01  0.53105202856E+01  0.17279645987E+02  0.18554076977E+02  0.51100000000E-03 0. -1.
        -11    1    3    3    0    0 -0.31512744813E+00 -0.14749631792E+01 -0.11215082304E+01  0.18795219234E+01  0.51100000000E-03 0.  1.
         12    1    3    3    0    0 -0.24041953702E+01  0.13963364812E+02  0.23398027958E+02  0.27353672964E+02  0.00000000000E+00 0. -1.
</event>
<event>
 7    1  0.1457722E-010  0.4778727E+02  0.7816164E-02  0.1312668E+00
        -11   -1    0    0    0    0  0.00000000000E+00  0.00000000000E+00  0.45593999997E+02  0.45594000000E+02  0.51100000000E-03 0.  1.
         11   -1    0    0    0    0 -0.00000000000E+00 -0.00000000000E+00 -0.45593999997E+02  0.45594000000E+02  0.51100000000E-03 0. -1.
    9900012    2    1    2    0    0 -0.19838789833E+02  0.62701919124E+01 -0.38088459719E+02  0.47787266683E+02  0.19999980117E+02 0.  0.
        -12    1    1    2    0    0  0.19838789833E+02 -0.62701919124E+01  0.38088459719E+02  0.43400733317E+02  0.00000000000E+00 0.  1.
         11    1    3    3    0    0 -0.38860950839E+01  0.23915952715E+01 -0.21875649042E+02  0.22346487067E+02  0.51100000000E-03 0. -1.
        -11    1    3    3    0    0 -0.73471208952E+01 -0.36112782441E+01 -0.63666496219E+01  0.10370908527E+02  0.51100000000E-03 0.  1.
         12    1    3    3    0    0 -0.86055738540E+01  0.74898748850E+01 -0.98461610547E+01  0.15069871090E+02  0.00000000000E+00 0. -1.
</event>
<event>
 7    1  0.1578053E-010  0.4778727E+02  0.7816164E-02  0.1312668E+00
        -11   -1    0    0    0    0  0.00000000000E+00  0.00000000000E+00  0.45593999997E+02  0.45594000000E+02  0.51100000000E-03 0. -1.
         11   -1    0    0    0    0 -0.00000000000E+00 -0.00000000000E+00 -0.45593999997E+02  0.45594000000E+02  0.51100000000E-03 0.  1.
    9900012    2    1    2    0    0 -0.17796427274E+02  0.39458879748E+02 -0.31475694223E+01  0.47787271804E+02  0.20000003463E+02 0.  0.
        -12    1    1    2    0    0  0.17796427274E+02 -0.39458879748E+02  0.31475694223E+01  0.43400728196E+02  0.00000000000E+00 0.  1.
         11    1    3    3    0    0 -0.91328306165E+01  0.22173702084E+02  0.50744483273E+00  0.23986228542E+02  0.51100000000E-03 0. -1.
        -11    1    3    3    0    0 -0.90842434098E+01  0.42180808904E+01  0.64943643897E+00  0.10036804904E+02  0.51100000000E-03 0.  1.
        -12    1    3    3    0    0  0.42064675271E+00  0.13067096774E+02 -0.43044506940E+01  0.13764238358E+02  0.00000000000E+00 0.  1.
</event>
<event>
 7    1  0.1457722E-010  0.4778727E+02  0.7816164E-02  0.1312668E+00
        -11   -1    0    0    0    0  0.00000000000E+00  0.00000000000E+00  0.45593999997E+02  0.45594000000E+02  0.51100000000E-03 0.  1.
         11   -1    0    0    0    0 -0.00000000000E+00 -0.00000000000E+00 -0.45593999997E+02  0.45594000000E+02  0.51100000000E-03 0. -1.
    9900012    2    1    2    0    0  0.92603757916E+01  0.25546310476E+02 -0.33841612280E+02  0.47787271199E+02  0.20000000705E+02 0.  0.
        -12    1    1    2    0    0 -0.92603757916E+01 -0.25546310476E+02  0.33841612280E+02  0.43400728801E+02  0.00000000000E+00 0.  1.
         11    1    3    3    0    0  0.24902271799E+01  0.81031980845E+01 -0.17506458682E+02  0.19450942045E+02  0.51100000000E-03 0. -1.
        -11    1    3    3    0    0  0.10213624279E+02  0.16076465371E+02 -0.15455875130E+02  0.24528655406E+02  0.51100000000E-03 0.  1.
         12    1    3    3    0    0 -0.34434756669E+01  0.13666470202E+01 -0.87927846823E+00  0.38076737480E+01  0.00000000000E+00 0. -1.
</event>
<event>
 7    1  0.1457722E-010  0.4778727E+02  0.7816164E-02  0.1312668E+00
        -11   -1    0    0    0    0  0.00000000000E+00  0.00000000000E+00  0.45593999997E+02  0.45594000000E+02  0.51100000000E-03 0.  1.
         11   -1    0    0    0    0 -0.00000000000E+00 -0.00000000000E+00 -0.45593999997E+02  0.45594000000E+02  0.51100000000E-03 0. -1.
    9900012    2    1    2    0    0 -0.31863400953E+02  0.29070386921E+02 -0.48228234093E+01  0.47787270263E+02  0.19999996439E+02 0.  0.
        -12    1    1    2    0    0  0.31863400953E+02 -0.29070386921E+02  0.48228234093E+01  0.43400729737E+02  0.00000000000E+00 0.  1.
         11    1    3    3    0    0 -0.74354909322E+01  0.21975932656E+01 -0.63795525316E+01  0.10040648999E+02  0.51100000000E-03 0. -1.
        -11    1    3    3    0    0 -0.19492169651E+02  0.20010080919E+02 -0.30819900486E+01  0.28104211055E+02  0.51100000000E-03 0.  1.
        -12    1    3    3    0    0 -0.49357403703E+01  0.68627127362E+01  0.46387191709E+01  0.96424102095E+01  0.00000000000E+00 0.  1.
</event>
<event>
 7    1  0.1457722E-010  0.4778727E+02  0.7816164E-02  0.1312668E+00
        -11   -1    0    0    0    0  0.00000000000E+00  0.00000000000E+00  0.45593999997E+02  0.45594000000E+02  0.51100000000E-03 0. -1.
         11   -1    0    0    0    0 -0.00000000000E+00 -0.00000000000E+00 -0.45593999997E+02  0.45594000000E+02  0.51100000000E-03 0.  1.
    9900012    2    1    2    0    0  0.88211950596E+00  0.91392230491E+00  0.43382138222E+02  0.47787270680E+02  0.19999998340E+02 0.  0.
        -12    1    1    2    0    0 -0.88211950596E+00 -0.91392230491E+00 -0.43382138222E+02  0.43400729320E+02  0.00000000000E+00 0.  1.
         11    1    3    3    0    0 -0.41260761109E+00  0.56247681116E+01  0.85480156793E+01  0.10240939101E+02  0.51100000000E-03 0. -1.
        -11    1    3    3    0    0 -0.50084670300E+01 -0.57350108695E+01  0.19687136488E+02  0.21108255139E+02  0.51100000000E-03 0.  1.
         12    1    3    3    0    0  0.63031941470E+01  0.10241650627E+01  0.15146986054E+02  0.16438076441E+02  0.00000000000E+00 0. -1.
</event>
<event>
 7    1  0.1457722E-010  0.4778727E+02  0.7816164E-02  0.1312668E+00
        -11   -1    0    0    0    0  0.00000000000E+00  0.00000000000E+00  0.45593999997E+02  0.45594000000E+02  0.51100000000E-03 0.  1.
         11   -1    0    0    0    0 -0.00000000000E+00 -0.00000000000E+00 -0.45593999997E+02  0.45594000000E+02  0.51100000000E-03 0. -1.
    9900012    2    1    2    0    0  0.29759558125E+02  0.31366153618E+02  0.37624719327E+01  0.47787273191E+02  0.20000009785E+02 0.  0.
        -12    1    1    2    0    0 -0.29759558125E+02 -0.31366153618E+02 -0.37624719327E+01  0.43400726809E+02  0.00000000000E+00 0.  1.
         11    1    3    3    0    0  0.18318958579E+02  0.20713851643E+02  0.70016826135E+01  0.28524926871E+02  0.51100000000E-03 0. -1.
        -11    1    3    3    0    0  0.85526682128E+01  0.91629490105E+00  0.44368450219E-02  0.86016132121E+01  0.51100000000E-03 0.  1.
        -12    1    3    3    0    0  0.28879313330E+01  0.97360070736E+01 -0.32436475258E+01  0.10660733108E+02  0.00000000000E+00 0.  1.
</event>
<event>
 7    1  0.1457722E-010  0.4778727E+02  0.7816164E-02  0.1312668E+00
        -11   -1    0    0    0    0  0.00000000000E+00  0.00000000000E+00  0.45593999997E+02  0.45594000000E+02  0.51100000000E-03 0.  1.
         11   -1    0    0    0    0 -0.00000000000E+00 -0.00000000000E+00 -0.45593999997E+02  0.45594000000E+02  0.51100000000E-03 0. -1.
    9900012    2    1    2    0    0  0.42472516279E+02  0.65930099176E+01  0.60200222583E+01  0.47787273199E+02  0.20000009823E+02 0.  0.
        -12    1    1    2    0    0 -0.42472516279E+02 -0.65930099176E+01 -0.60200222583E+01  0.43400726801E+02  0.00000000000E+00 0.  1.
         11    1    3    3    0    0  0.75114380185E+01  0.84037396033E+01  0.36235380609E+01  0.11839534145E+02  0.51100000000E-03 0. -1.
        -11    1    3    3    0    0  0.50156993117E+01 -0.30423200340E+01 -0.15796379801E+00  0.58683816847E+01  0.51100000000E-03 0.  1.
         12    1    3    3    0    0  0.29945378949E+02  0.12315903482E+01  0.25544479953E+01  0.30079357369E+02  0.00000000000E+00 0. -1.
</event>
<event>
 7    1  0.1457722E-010  0.4778727E+02  0.7816164E-02  0.1312668E+00
        -11   -1    0    0    0    0  0.00000000000E+00  0.00000000000E+00  0.45593999997E+02  0.45594000000E+02  0.51100000000E-03 0.  1.
         11   -1    0    0    0    0 -0.00000000000E+00 -0.00000000000E+00 -0.45593999997E+02  0.45594000000E+02  0.51100000000E-03 0. -1.
    9900012    2    1    2    0    0  0.30120877789E+02  0.26032632864E+02  0.17281724703E+02  0.47787271189E+02  0.20000000659E+02 0.  0.
        -12    1    1    2    0    0 -0.30120877789E+02 -0.26032632864E+02 -0.17281724703E+02  0.43400728811E+02  0.00000000000E+00 0.  1.
         11    1    3    3    0    0  0.97240319424E+01  0.24286521290E+01  0.56040006766E+01  0.11483029749E+02  0.51100000000E-03 0. -1.
        -11    1    3    3    0    0  0.51489953078E+00  0.10558285443E+02  0.42245702494E+01  0.11383738712E+02  0.51100000000E-03 0.  1.
         12    1    3    3    0    0  0.19881946316E+02  0.13045695292E+02  0.74531537770E+01  0.24920502727E+02  0.00000000000E+00 0. -1.
</event>
<event>
 7    1  0.1457722E-010  0.4778726E+02  0.7816164E-02  0.1312668E+00
        -11   -1    0    0    0    0  0.00000000000E+00  0.00000000000E+00  0.45593999997E+02  0.45594000000E+02  0.51100000000E-03 0. -1.
         11   -1    0    0    0    0 -0.00000000000E+00 -0.00000000000E+00 -0.45593999997E+02  0.45594000000E+02  0.51100000000E-03 0.  1.
    9900012    2    1    2    0    0  0.29619663012E+02  0.31218022687E+02 -0.56333543722E+01  0.47787262000E+02  0.19999958765E+02 0.  0.
        -12    1    1    2    0    0 -0.29619663012E+02 -0.31218022687E+02  0.56333543722E+01  0.43400738000E+02  0.00000000000E+00 0.  1.
         11    1    3    3    0    0  0.26850855274E+02  0.27497282197E+02 -0.85991643910E+00  0.38442273784E+02  0.51100000000E-03 0. -1.
        -11    1    3    3    0    0  0.46098958295E+01  0.95736392315E+00 -0.29625970038E+01  0.55627930492E+01  0.51100000000E-03 0.  1.
        -12    1    3    3    0    0 -0.18410880914E+01  0.27633765667E+01 -0.18108409293E+01  0.37821951669E+01  0.00000000000E+00 0.  1.
</event>
<event>
 7    1  0.1457722E-010  0.4778727E+02  0.7816164E-02  0.1312668E+00
        -11   -1    0    0    0    0  0.00000000000E+00  0.00000000000E+00  0.45593999997E+02  0.45594000000E+02  0.51100000000E-03 0. -1.
         11   -1    0    0    0    0 -0.00000000000E+00 -0.00000000000E+00 -0.45593999997E+02  0.45594000000E+02  0.51100000000E-03 0.  1.
    9900012    2    1    2    0    0  0.30110916331E+01 -0.37572103281E+02  0.21514956368E+02  0.47787274599E+02  0.20000016208E+02 0.  0.
        -12    1    1    2    0    0 -0.30110916331E+01  0.37572103281E+02 -0.21514956368E+02  0.43400725401E+02  0.00000000000E+00 0.  1.
         11    1    3    3    0    0  0.31203860535E+01 -0.90093765061E+01  0.13417136453E+01  0.96283887499E+01  0.51100000000E-03 0. -1.
        -11    1    3    3    0    0 -0.34840503019E+00  0.78012147237E+00 -0.14675704547E+01  0.16981574949E+01  0.51100000000E-03 0.  1.
         12    1    3    3    0    0  0.23911060979E+00 -0.29342848248E+02  0.21640813177E+02  0.36460728354E+02  0.00000000000E+00 0. -1.
</event>
<event>
 7    1  0.1457722E-010  0.4778727E+02  0.7816164E-02  0.1312668E+00
        -11   -1    0    0    0    0  0.00000000000E+00  0.00000000000E+00  0.45593999997E+02  0.45594000000E+02  0.51100000000E-03 0. -1.
         11   -1    0    0    0    0 -0.00000000000E+00 -0.00000000000E+00 -0.45593999997E+02  0.45594000000E+02  0.51100000000E-03 0.  1.
    9900012    2    1    2    0    0 -0.15410693238E+02  0.39190663166E+02 -0.10498847333E+02  0.47787270274E+02  0.19999996486E+02 0.  0.
        -12    1    1    2    0    0  0.15410693238E+02 -0.39190663166E+02  0.10498847333E+02  0.43400729726E+02  0.00000000000E+00 0.  1.
         11    1    3    3    0    0 -0.18427416614E+02  0.33460867256E+02 -0.47291275646E+01  0.38491089467E+02  0.51100000000E-03 0. -1.
        -11    1    3    3    0    0  0.51385085910E+00 -0.40346866193E+00 -0.67415523804E+00  0.93878390094E+00  0.51100000000E-03 0.  1.
         12    1    3    3    0    0  0.25028725176E+01  0.61332645719E+01 -0.50955645305E+01  0.83573969053E+01  0.00000000000E+00 0. -1.
</event>
<event>
 7    1  0.1457722E-010  0.4778723E+02  0.7816164E-02  0.1312668E+00
        -11   -1    0    0    0    0  0.00000000000E+00  0.00000000000E+00  0.45593999997E+02  0.45594000000E+02  0.51100000000E-03 0. -1.
         11   -1    0    0    0    0 -0.00000000000E+00 -0.00000000000E+00 -0.45593999997E+02  0.45594000000E+02  0.51100000000E-03 0.  1.
    9900012    2    1    2    0    0 -0.13036359579E+02 -0.72731436120E+01  0.40752691387E+02  0.47787226454E+02  0.19999796695E+02 0.  0.
        -12    1    1    2    0    0  0.13036359579E+02  0.72731436120E+01 -0.40752691387E+02  0.43400773546E+02  0.00000000000E+00 0.  1.
         11    1    3    3    0    0 -0.11906026919E+02 -0.14942058106E+01  0.29619509211E+02  0.31957807406E+02  0.51100000000E-03 0. -1.
        -11    1    3    3    0    0  0.29020852425E+01 -0.16931427546E-01  0.72194209417E+01  0.77809012602E+01  0.51100000000E-03 0.  1.
        -12    1    3    3    0    0 -0.40324179027E+01 -0.57620063738E+01  0.39137612342E+01  0.80485177885E+01  0.00000000000E+00 0.  1.
</event>
<event>
 7    1  0.1457722E-010  0.4778727E+02  0.7816164E-02  0.1312668E+00
        -11   -1    0    0    0    0  0.00000000000E+00  0.00000000000E+00  0.45593999997E+02  0.45594000000E+02  0.51100000000E-03 0. -1.
         11   -1    0    0    0    0 -0.00000000000E+00 -0.00000000000E+00 -0.45593999997E+02  0.45594000000E+02  0.51100000000E-03 0.  1.
    9900012    2    1    2    0    0  0.18872737057E+02  0.38512831554E+02  0.66486791142E+01  0.47787270371E+02  0.19999996931E+02 0.  0.
        -12    1    1    2    0    0 -0.18872737057E+02 -0.38512831554E+02 -0.66486791142E+01  0.43400729629E+02  0.00000000000E+00 0.  1.
         11    1    3    3    0    0  0.67747848716E+00  0.17510264641E+02  0.35092500284E+01  0.17871294887E+02  0.51100000000E-03 0. -1.
        -11    1    3    3    0    0  0.17988951171E+01  0.44952050982E+01 -0.31969409564E+01  0.58020103634E+01  0.51100000000E-03 0.  1.
         12    1    3    3    0    0  0.16396363453E+02  0.16507361814E+02  0.63363700423E+01  0.24113965121E+02  0.00000000000E+00 0. -1.
</event>
<event>
 7    1  0.1457722E-010  0.4778727E+02  0.7816164E-02  0.1312668E+00
        -11   -1    0    0    0    0  0.00000000000E+00  0.00000000000E+00  0.45593999997E+02  0.45594000000E+02  0.51100000000E-03 0.  1.
         11   -1    0    0    0    0 -0.00000000000E+00 -0.00000000000E+00 -0.45593999997E+02  0.45594000000E+02  0.51100000000E-03 0. -1.
    9900012    2    1    2    0    0 -0.25527666345E+02  0.35098514745E+02 -0.23600757714E+00  0.47787272058E+02  0.20000004619E+02 0.  0.
        -12    1    1    2    0    0  0.25527666345E+02 -0.35098514745E+02  0.23600757714E+00  0.43400727942E+02  0.00000000000E+00 0.  1.
         11    1    3    3    0    0 -0.12627649749E+02  0.16552243229E+02  0.61392652834E+01  0.21705411136E+02  0.51100000000E-03 0. -1.
        -11    1    3    3    0    0 -0.73534362001E+00 -0.13842983635E+01 -0.16174912530E+01  0.22523965932E+01  0.51100000000E-03 0.  1.
         12    1    3    3    0    0 -0.12164672976E+02  0.19930569880E+02 -0.47577816075E+01  0.23829464328E+02  0.00000000000E+00 0. -1.
</event>
<event>
 7    1  0.1457722E-010  0.4778727E+02  0.7816164E-02  0.1312668E+00
        -11   -1    0    0    0    0  0.00000000000E+00  0.00000000000E+00  0.45593999997E+02  0.45594000000E+02  0.51100000000E-03 0. -1.
         11   -1    0    0    0    0 -0.00000000000E+00 -0.00000000000E+00 -0.45593999997E+02  0.45594000000E+02  0.51100000000E-03 0.  1.
    9900012    2    1    2    0    0 -0.35835381343E+02  0.19367906994E+02  0.14977750680E+02  0.47787269675E+02  0.19999993756E+02 0.  0.
        -12    1    1    2    0    0  0.35835381343E+02 -0.19367906994E+02 -0.14977750680E+02  0.43400730325E+02  0.00000000000E+00 0.  1.
         11    1    3    3    0    0 -0.15931110131E+02  0.58222047188E+01 -0.71773260309E-01  0.16961824474E+02  0.51100000000E-03 0. -1.
        -11    1    3    3    0    0 -0.17352096695E+01 -0.11378514469E+01  0.49647190521E+01  0.53809008577E+01  0.51100000000E-03 0.  1.
        -12    1    3    3    0    0 -0.18169061542E+02  0.14683553722E+02  0.10084804888E+02  0.25444544344E+02  0.00000000000E+00 0.  1.
</event>
<event>
 7    1  0.1457722E-010  0.4778727E+02  0.7816164E-02  0.1312668E+00
        -11   -1    0    0    0    0  0.00000000000E+00  0.00000000000E+00  0.45593999997E+02  0.45594000000E+02  0.51100000000E-03 0. -1.
         11   -1    0    0    0    0 -0.00000000000E+00 -0.00000000000E+00 -0.45593999997E+02  0.45594000000E+02  0.51100000000E-03 0.  1.
    9900012    2    1    2    0    0  0.35171184916E+02  0.76471654175E+01  0.24251437691E+02  0.47787267087E+02  0.19999981956E+02 0.  0.
        -12    1    1    2    0    0 -0.35171184916E+02 -0.76471654175E+01 -0.24251437691E+02  0.43400732913E+02  0.00000000000E+00 0.  1.
         11    1    3    3    0    0  0.25606752612E+02  0.82004618000E+01  0.72210916309E+01  0.27840573228E+02  0.51100000000E-03 0.  1.
        -11    1    3    3    0    0  0.34752314562E+01  0.16082691230E+01  0.76693651030E+01  0.85722181838E+01  0.51100000000E-03 0. -1.
        -12    1    3    3    0    0  0.60892008472E+01 -0.21615655055E+01  0.93609809573E+01  0.11374475675E+02  0.00000000000E+00 0.  1.
</event>
<event>
 7    1  0.1457722E-010  0.4778727E+02  0.7816164E-02  0.1312668E+00
        -11   -1    0    0    0    0  0.00000000000E+00  0.00000000000E+00  0.45593999997E+02  0.45594000000E+02  0.51100000000E-03 0.  1.
         11   -1    0    0    0    0 -0.00000000000E+00 -0.00000000000E+00 -0.45593999997E+02  0.45594000000E+02  0.51100000000E-03 0. -1.
    9900012    2    1    2    0    0 -0.16639259516E+02 -0.12049655626E+02 -0.38230409590E+02  0.47787269875E+02  0.19999994669E+02 0.  0.
        -12    1    1    2    0    0  0.16639259516E+02  0.12049655626E+02  0.38230409590E+02  0.43400730125E+02  0.00000000000E+00 0.  1.
         11    1    3    3    0    0 -0.57497469043E+01 -0.58355094385E+01 -0.65656241165E+01  0.10498579912E+02  0.51100000000E-03 0. -1.
        -11    1    3    3    0    0 -0.54301235744E+01  0.30783944305E+00 -0.27090934343E+02  0.27631498892E+02  0.51100000000E-03 0.  1.
        -12    1    3    3    0    0 -0.54593890373E+01 -0.65219856307E+01 -0.45738511301E+01  0.96571910714E+01  0.00000000000E+00 0.  1.
</event>
<event>
 7    1  0.1457722E-010  0.4778728E+02  0.7816164E-02  0.1312668E+00
        -11   -1    0    0    0    0  0.00000000000E+00  0.00000000000E+00  0.45593999997E+02  0.45594000000E+02  0.51100000000E-03 0. -1.
         11   -1    0    0    0    0 -0.00000000000E+00 -0.00000000000E+00 -0.45593999997E+02  0.45594000000E+02  0.51100000000E-03 0.  1.
    9900012    2    1    2    0    0 -0.86899399714E+01  0.79722202681E+01  0.41767827797E+02  0.47787276601E+02  0.20000025333E+02 0.  0.
        -12    1    1    2    0    0  0.86899399714E+01 -0.79722202681E+01 -0.41767827797E+02  0.43400723399E+02  0.00000000000E+00 0.  1.
         11    1    3    3    0    0 -0.92444473932E+01 -0.16126902604E+01  0.18025282298E+02  0.20321697263E+02  0.51100000000E-03 0. -1.
        -11    1    3    3    0    0  0.34697506542E+01 -0.31630123778E+00  0.61961191955E+01  0.71085237161E+01  0.51100000000E-03 0.  1.
         12    1    3    3    0    0 -0.29152432324E+01  0.99012117663E+01  0.17546426304E+02  0.20357055621E+02  0.00000000000E+00 0. -1.
</event>
<event>
 7    1  0.1457722E-010  0.4778727E+02  0.7816164E-02  0.1312668E+00
        -11   -1    0    0    0    0  0.00000000000E+00  0.00000000000E+00  0.45593999997E+02  0.45594000000E+02  0.51100000000E-03 0.  1.
         11   -1    0    0    0    0 -0.00000000000E+00 -0.00000000000E+00 -0.45593999997E+02  0.45594000000E+02  0.51100000000E-03 0. -1.
    9900012    2    1    2    0    0  0.27320302087E+02  0.23538968695E+02 -0.24148319080E+02  0.47787271115E+02  0.20000000321E+02 0.  0.
        -12    1    1    2    0    0 -0.27320302087E+02 -0.23538968695E+02  0.24148319080E+02  0.43400728885E+02  0.00000000000E+00 0.  1.
         11    1    3    3    0    0  0.12555973936E+02  0.38616483923E+01 -0.10894806467E+02  0.17066388546E+02  0.51100000000E-03 0. -1.
        -11    1    3    3    0    0  0.12223549289E+02  0.15042111005E+02 -0.15654994050E+02  0.24915037621E+02  0.51100000000E-03 0.  1.
        -12    1    3    3    0    0  0.25407788620E+01  0.46352092977E+01  0.24014814367E+01  0.58058449472E+01  0.00000000000E+00 0.  1.
</event>
<event>
 7    1  0.1457722E-010  0.4778729E+02  0.7816164E-02  0.1312668E+00
        -11   -1    0    0    0    0  0.00000000000E+00  0.00000000000E+00  0.45593999997E+02  0.45594000000E+02  0.51100000000E-03 0.  1.
         11   -1    0    0    0    0 -0.00000000000E+00 -0.00000000000E+00 -0.45593999997E+02  0.45594000000E+02  0.51100000000E-03 0. -1.
    9900012    2    1    2    0    0 -0.10680263873E+02  0.15513961650E+02 -0.39100780045E+02  0.47787285230E+02  0.20000064675E+02 0.  0.
        -12    1    1    2    0    0  0.10680263873E+02 -0.15513961650E+02  0.39100780045E+02  0.43400714770E+02  0.00000000000E+00 0.  1.
         11    1    3    3    0    0 -0.76114315765E+00  0.40677700933E+01 -0.22486544283E+02  0.22864180862E+02  0.51100000000E-03 0. -1.
        -11    1    3    3    0    0 -0.32624553484E+01 -0.15150903841E+01 -0.14080757296E+01  0.38628734504E+01  0.51100000000E-03 0.  1.
         12    1    3    3    0    0 -0.66566653673E+01  0.12961281941E+02 -0.15206160032E+02  0.21060230917E+02  0.00000000000E+00 0. -1.
</event>
<event>
 7    1  0.1457722E-010  0.4778727E+02  0.7816164E-02  0.1312668E+00
        -11   -1    0    0    0    0  0.00000000000E+00  0.00000000000E+00  0.45593999997E+02  0.45594000000E+02  0.51100000000E-03 0.  1.
         11   -1    0    0    0    0 -0.00000000000E+00 -0.00000000000E+00 -0.45593999997E+02  0.45594000000E+02  0.51100000000E-03 0. -1.
    9900012    2    1    2    0    0  0.30898309203E+02 -0.15122922377E+02 -0.26461575969E+02  0.47787270794E+02  0.19999998859E+02 0.  0.
        -12    1    1    2    0    0 -0.30898309203E+02  0.15122922377E+02  0.26461575969E+02  0.43400729206E+02  0.00000000000E+00 0.  1.
         11    1    3    3    0    0  0.26348442985E+02 -0.11528602967E+02 -0.13508953439E+02  0.31774847874E+02  0.51100000000E-03 0. -1.
        -11    1    3    3    0    0 -0.17331307592E+01 -0.98379346908E+00 -0.93237226256E+00  0.22002068347E+01  0.51100000000E-03 0.  1.
        -12    1    3    3    0    0  0.62829969768E+01 -0.26105259405E+01 -0.12020250268E+02  0.13812216086E+02  0.00000000000E+00 0.  1.
</event>
<event>
 7    1  0.1457722E-010  0.4778727E+02  0.7816164E-02  0.1312668E+00
        -11   -1    0    0    0    0  0.00000000000E+00  0.00000000000E+00  0.45593999997E+02  0.45594000000E+02  0.51100000000E-03 0. -1.
         11   -1    0    0    0    0 -0.00000000000E+00 -0.00000000000E+00 -0.45593999997E+02  0.45594000000E+02  0.51100000000E-03 0.  1.
    9900012    2    1    2    0    0 -0.39422354951E+02  0.16682989310E+02 -0.71539657204E+01  0.47787269272E+02  0.19999991918E+02 0.  0.
        -12    1    1    2    0    0  0.39422354951E+02 -0.16682989310E+02  0.71539657204E+01  0.43400730728E+02  0.00000000000E+00 0.  1.
         11    1    3    3    0    0 -0.11765670119E+02 -0.11220140074E+01 -0.62336410017E+01  0.13362192529E+02  0.51100000000E-03 0.  1.
        -11    1    3    3    0    0 -0.12125020703E+01  0.45230008318E+01  0.93306440904E+00  0.47747572973E+01  0.51100000000E-03 0. -1.
         12    1    3    3    0    0 -0.26444182761E+02  0.13282002486E+02 -0.18533891278E+01  0.29650319445E+02  0.00000000000E+00 0. -1.
</event>
<event>
 7    1  0.1457722E-010  0.4778727E+02  0.7816164E-02  0.1312668E+00
        -11   -1    0    0    0    0  0.00000000000E+00  0.00000000000E+00  0.45593999997E+02  0.45594000000E+02  0.51100000000E-03 0.  1.
         11   -1    0    0    0    0 -0.00000000000E+00 -0.00000000000E+00 -0.45593999997E+02  0.45594000000E+02  0.51100000000E-03 0. -1.
    9900012    2    1    2    0    0 -0.11357552046E+02 -0.37782495727E+02  0.18086245064E+02  0.47787271523E+02  0.20000002183E+02 0.  0.
        -12    1    1    2    0    0  0.11357552046E+02  0.37782495727E+02 -0.18086245064E+02  0.43400728477E+02  0.00000000000E+00 0.  1.
         11    1    3    3    0    0  0.46075244639E+01 -0.13805954333E+02  0.43749477947E+01  0.15197823041E+02  0.51100000000E-03 0. -1.
        -11    1    3    3    0    0 -0.60523079935E+01 -0.14631335813E+02  0.87517055224E+01  0.18091400430E+02  0.51100000000E-03 0.  1.
         12    1    3    3    0    0 -0.99127685166E+01 -0.93452055808E+01  0.49595917467E+01  0.14498048052E+02  0.00000000000E+00 0. -1.
</event>
<event>
 7    1  0.1457722E-010  0.4778727E+02  0.7816164E-02  0.1312668E+00
        -11   -1    0    0    0    0  0.00000000000E+00  0.00000000000E+00  0.45593999997E+02  0.45594000000E+02  0.51100000000E-03 0.  1.
         11   -1    0    0    0    0 -0.00000000000E+00 -0.00000000000E+00 -0.45593999997E+02  0.45594000000E+02  0.51100000000E-03 0. -1.
    9900012    2    1    2    0    0 -0.30886401069E+02  0.21789959225E+02 -0.21327239997E+02  0.47787271205E+02  0.20000000734E+02 0.  0.
        -12    1    1    2    0    0  0.30886401069E+02 -0.21789959225E+02  0.21327239997E+02  0.43400728795E+02  0.00000000000E+00 0.  1.
         11    1    3    3    0    0 -0.23763838275E+02  0.22254569443E+02 -0.19262269088E+02  0.37828836637E+02  0.51100000000E-03 0. -1.
        -11    1    3    3    0    0 -0.60454284967E+01  0.19661917835E+01 -0.31402867921E+01  0.70904525409E+01  0.51100000000E-03 0.  1.
         12    1    3    3    0    0 -0.10771342970E+01 -0.24308020008E+01  0.10753158833E+01  0.28679820274E+01  0.00000000000E+00 0. -1.
</event>
<event>
 7    1  0.1457722E-010  0.4778727E+02  0.7816164E-02  0.1312668E+00
        -11   -1    0    0    0    0  0.00000000000E+00  0.00000000000E+00  0.45593999997E+02  0.45594000000E+02  0.51100000000E-03 0.  1.
         11   -1    0    0    0    0 -0.00000000000E+00 -0.00000000000E+00 -0.45593999997E+02  0.45594000000E+02  0.51100000000E-03 0. -1.
    9900012    2    1    2    0    0  0.29096252377E+02  0.21064967891E+02 -0.24357717065E+02  0.47787272411E+02  0.20000006231E+02 0.  0.
        -12    1    1    2    0    0 -0.29096252377E+02 -0.21064967891E+02  0.24357717065E+02  0.43400727589E+02  0.00000000000E+00 0.  1.
         11    1    3    3    0    0  0.13342405933E+01  0.27547860108E+01  0.31342048185E-01  0.30610499034E+01  0.51100000000E-03 0. -1.
        -11    1    3    3    0    0  0.17350731979E+02  0.15928749761E+02 -0.74545172999E+01  0.24705116830E+02  0.51100000000E-03 0.  1.
         12    1    3    3    0    0  0.10411279805E+02  0.23814321184E+01 -0.16934541813E+02  0.20021105677E+02  0.00000000000E+00 0. -1.
</event>
<event>
 7    1  0.1457722E-010  0.4778727E+02  0.7816164E-02  0.1312668E+00
        -11   -1    0    0    0    0  0.00000000000E+00  0.00000000000E+00  0.45593999997E+02  0.45594000000E+02  0.51100000000E-03 0.  1.
         11   -1    0    0    0    0 -0.00000000000E+00 -0.00000000000E+00 -0.45593999997E+02  0.45594000000E+02  0.51100000000E-03 0. -1.
    9900012    2    1    2    0    0  0.22304039996E+02  0.26708525476E+02 -0.25938539779E+02  0.47787269832E+02  0.19999994471E+02 0.  0.
        -12    1    1    2    0    0 -0.22304039996E+02 -0.26708525476E+02  0.25938539779E+02  0.43400730168E+02  0.00000000000E+00 0.  1.
         11    1    3    3    0    0  0.85569733487E+01  0.79925934671E+01 -0.14866681619E+02  0.18924100133E+02  0.51100000000E-03 0. -1.
        -11    1    3    3    0    0 -0.22292460942E+01  0.18324079516E+01  0.44900284935E+00  0.29204213514E+01  0.51100000000E-03 0.  1.
         12    1    3    3    0    0  0.15976312741E+02  0.16883524057E+02 -0.11520861010E+02  0.25942748347E+02  0.00000000000E+00 0. -1.
</event>
<event>
 7    1  0.1457722E-010  0.4778728E+02  0.7816164E-02  0.1312668E+00
        -11   -1    0    0    0    0  0.00000000000E+00  0.00000000000E+00  0.45593999997E+02  0.45594000000E+02  0.51100000000E-03 0.  1.
         11   -1    0    0    0    0 -0.00000000000E+00 -0.00000000000E+00 -0.45593999997E+02  0.45594000000E+02  0.51100000000E-03 0. -1.
    9900012    2    1    2    0    0 -0.25774814720E+01 -0.28985460817E+01 -0.43227049939E+02  0.47787276197E+02  0.20000023494E+02 0.  0.
        -12    1    1    2    0    0  0.25774814720E+01  0.28985460817E+01  0.43227049939E+02  0.43400723803E+02  0.00000000000E+00 0.  1.
         11    1    3    3    0    0  0.16237091310E+01  0.57849118344E+01 -0.12388292264E+02  0.13768493808E+02  0.51100000000E-03 0. -1.
        -11    1    3    3    0    0 -0.40287598832E+00  0.80227801196E+00  0.51987905714E+00  0.10374167753E+01  0.51100000000E-03 0.  1.
         12    1    3    3    0    0 -0.37983146147E+01 -0.94857359281E+01 -0.31358636733E+02  0.32981365614E+02  0.00000000000E+00 0. -1.
</event>
<event>
 7    1  0.1457722E-010  0.4778727E+02  0.7816164E-02  0.1312668E+00
        -11   -1    0    0    0    0  0.00000000000E+00  0.00000000000E+00  0.45593999997E+02  0.45594000000E+02  0.51100000000E-03 0.  1.
         11   -1    0    0    0    0 -0.00000000000E+00 -0.00000000000E+00 -0.45593999997E+02  0.45594000000E+02  0.51100000000E-03 0. -1.
    9900012    2    1    2    0    0 -0.34209147185E+02  0.72136370595E+00 -0.26699012331E+02  0.47787269866E+02  0.19999994626E+02 0.  0.
        -12    1    1    2    0    0  0.34209147185E+02 -0.72136370595E+00  0.26699012331E+02  0.43400730134E+02  0.00000000000E+00 0.  1.
         11    1    3    3    0    0 -0.19946667087E+01 -0.23471990824E+01 -0.46244502007E+01  0.55563997994E+01  0.51100000000E-03 0. -1.
        -11    1    3    3    0    0 -0.78081488883E+01 -0.58011376504E+01 -0.85559253292E+01  0.12954699750E+02  0.51100000000E-03 0.  1.
         12    1    3    3    0    0 -0.24406331588E+02  0.88697004388E+01 -0.13518636801E+02  0.29276170317E+02  0.00000000000E+00 0. -1.
</event>
<event>
 7    1  0.1457722E-010  0.4778727E+02  0.7816164E-02  0.1312668E+00
        -11   -1    0    0    0    0  0.00000000000E+00  0.00000000000E+00  0.45593999997E+02  0.45594000000E+02  0.51100000000E-03 0. -1.
         11   -1    0    0    0    0 -0.00000000000E+00 -0.00000000000E+00 -0.45593999997E+02  0.45594000000E+02  0.51100000000E-03 0.  1.
    9900012    2    1    2    0    0 -0.25049862821E+01 -0.25890680887E+02 -0.34742211942E+02  0.47787267245E+02  0.19999982675E+02 0.  0.
        -12    1    1    2    0    0  0.25049862821E+01  0.25890680887E+02  0.34742211942E+02  0.43400732755E+02  0.00000000000E+00 0.  1.
         11    1    3    3    0    0 -0.40311899466E+01 -0.11033446701E+01 -0.43701186267E+01  0.60469660921E+01  0.51100000000E-03 0. -1.
        -11    1    3    3    0    0  0.79065182187E+00 -0.23649824126E+01 -0.13345185725E+02  0.13576164937E+02  0.51100000000E-03 0.  1.
        -12    1    3    3    0    0  0.73555184270E+00 -0.22422353805E+02 -0.17026907591E+02  0.28164136215E+02  0.00000000000E+00 0.  1.
</event>
<event>
 7    1  0.1457722E-010  0.4778727E+02  0.7816164E-02  0.1312668E+00
        -11   -1    0    0    0    0  0.00000000000E+00  0.00000000000E+00  0.45593999997E+02  0.45594000000E+02  0.51100000000E-03 0.  1.
         11   -1    0    0    0    0 -0.00000000000E+00 -0.00000000000E+00 -0.45593999997E+02  0.45594000000E+02  0.51100000000E-03 0. -1.
    9900012    2    1    2    0    0 -0.34825797897E+02 -0.17776822742E+02 -0.18835379048E+02  0.47787272704E+02  0.20000007566E+02 0.  0.
        -12    1    1    2    0    0  0.34825797897E+02  0.17776822742E+02  0.18835379048E+02  0.43400727296E+02  0.00000000000E+00 0.  1.
         11    1    3    3    0    0 -0.32390214522E+02 -0.18013237924E+02 -0.10642871436E+02  0.38559998054E+02  0.51100000000E-03 0. -1.
        -11    1    3    3    0    0  0.81642928509E+00  0.21484224834E+00 -0.85590035191E+00  0.12021978384E+01  0.51100000000E-03 0.  1.
         12    1    3    3    0    0 -0.32520126601E+01  0.21572933998E-01 -0.73366072602E+01  0.80250768111E+01  0.00000000000E+00 0. -1.
</event>
<event>
 7    1  0.1457722E-010  0.4778728E+02  0.7816164E-02  0.1312668E+00
        -11   -1    0    0    0    0  0.00000000000E+00  0.00000000000E+00  0.45593999997E+02  0.45594000000E+02  0.51100000000E-03 0.  1.
         11   -1    0    0    0    0 -0.00000000000E+00 -0.00000000000E+00 -0.45593999997E+02  0.45594000000E+02  0.51100000000E-03 0. -1.
    9900012    2    1    2    0    0  0.11153030183E+02 -0.34563556603E+02 -0.23761172629E+02  0.47787275905E+02  0.20000022161E+02 0.  0.
        -12    1    1    2    0    0 -0.11153030183E+02  0.34563556603E+02  0.23761172629E+02  0.43400724095E+02  0.00000000000E+00 0.  1.
         11    1    3    3    0    0  0.68237449100E+01 -0.18361471419E+02 -0.72796912645E+01  0.20897392958E+02  0.51100000000E-03 0. -1.
        -11    1    3    3    0    0  0.79771824264E+01 -0.98511855048E+01 -0.14586327907E+02  0.19324654133E+02  0.51100000000E-03 0.  1.
         12    1    3    3    0    0 -0.36478971536E+01 -0.63508996787E+01 -0.18951534576E+01  0.75652288135E+01  0.00000000000E+00 0. -1.
</event>
<event>
 7    1  0.1457722E-010  0.4778727E+02  0.7816164E-02  0.1312668E+00
        -11   -1    0    0    0    0  0.00000000000E+00  0.00000000000E+00  0.45593999997E+02  0.45594000000E+02  0.51100000000E-03 0. -1.
         11   -1    0    0    0    0 -0.00000000000E+00 -0.00000000000E+00 -0.45593999997E+02  0.45594000000E+02  0.51100000000E-03 0.  1.
    9900012    2    1    2    0    0  0.13760431525E+02 -0.40153941004E+02 -0.90517796553E+01  0.47787272254E+02  0.20000005517E+02 0.  0.
        -12    1    1    2    0    0 -0.13760431525E+02  0.40153941004E+02  0.90517796553E+01  0.43400727746E+02  0.00000000000E+00 0.  1.
         11    1    3    3    0    0  0.41300058781E+01 -0.37838936369E+01 -0.43761372259E+01  0.71081204893E+01  0.51100000000E-03 0. -1.
        -11    1    3    3    0    0 -0.31245688483E+01 -0.71777305676E+01 -0.40542819265E+01  0.88158918317E+01  0.51100000000E-03 0.  1.
         12    1    3    3    0    0  0.12754994495E+02 -0.29192316800E+02 -0.62136050290E+00  0.31863259933E+02  0.00000000000E+00 0. -1.
</event>
<event>
 7    1  0.1457722E-010  0.4778727E+02  0.7816164E-02  0.1312668E+00
        -11   -1    0    0    0    0  0.00000000000E+00  0.00000000000E+00  0.45593999997E+02  0.45594000000E+02  0.51100000000E-03 0.  1.
         11   -1    0    0    0    0 -0.00000000000E+00 -0.00000000000E+00 -0.45593999997E+02  0.45594000000E+02  0.51100000000E-03 0. -1.
    9900012    2    1    2    0    0 -0.37375289575E+02  0.15192320091E+02 -0.15997002489E+02  0.47787274785E+02  0.20000017054E+02 0.  0.
        -12    1    1    2    0    0  0.37375289575E+02 -0.15192320091E+02  0.15997002489E+02  0.43400725215E+02  0.00000000000E+00 0.  1.
         11    1    3    3    0    0 -0.12557275619E+02  0.58835627294E+01  0.94286227702E+00  0.13899297496E+02  0.51100000000E-03 0. -1.
        -11    1    3    3    0    0 -0.77960076449E+01 -0.10954447307E+01 -0.24855046598E+00  0.78765164859E+01  0.51100000000E-03 0.  1.
         12    1    3    3    0    0 -0.17022006312E+02  0.10404202092E+02 -0.16691314300E+02  0.26011460803E+02  0.00000000000E+00 0. -1.
</event>
<event>
 7    1  0.1457722E-010  0.4778727E+02  0.7816164E-02  0.1312668E+00
        -11   -1    0    0    0    0  0.00000000000E+00  0.00000000000E+00  0.45593999997E+02  0.45594000000E+02  0.51100000000E-03 0.  1.
         11   -1    0    0    0    0 -0.00000000000E+00 -0.00000000000E+00 -0.45593999997E+02  0.45594000000E+02  0.51100000000E-03 0. -1.
    9900012    2    1    2    0    0 -0.12393976242E+02 -0.28733564769E+02  0.30073161112E+02  0.47787269468E+02  0.19999992814E+02 0.  0.
        -12    1    1    2    0    0  0.12393976242E+02  0.28733564769E+02 -0.30073161112E+02  0.43400730532E+02  0.00000000000E+00 0.  1.
         11    1    3    3    0    0 -0.54083347348E+01 -0.24065361478E+02  0.15703266969E+02  0.29240114593E+02  0.51100000000E-03 0. -1.
        -11    1    3    3    0    0  0.68696293818E+00 -0.37040112100E+01  0.30965446908E+01  0.48764952994E+01  0.51100000000E-03 0.  1.
        -12    1    3    3    0    0 -0.76726044458E+01 -0.96419208043E+00  0.11273349452E+02  0.13670659575E+02  0.00000000000E+00 0.  1.
</event>
<event>
 7    1  0.1457722E-010  0.4778728E+02  0.7816164E-02  0.1312668E+00
        -11   -1    0    0    0    0  0.00000000000E+00  0.00000000000E+00  0.45593999997E+02  0.45594000000E+02  0.51100000000E-03 0.  1.
         11   -1    0    0    0    0 -0.00000000000E+00 -0.00000000000E+00 -0.45593999997E+02  0.45594000000E+02  0.51100000000E-03 0. -1.
    9900012    2    1    2    0    0 -0.21102142611E+00  0.30715710254E+02 -0.30661434138E+02  0.47787275008E+02  0.20000018073E+02 0.  0.
        -12    1    1    2    0    0  0.21102142611E+00 -0.30715710254E+02  0.30661434138E+02  0.43400724992E+02  0.00000000000E+00 0.  1.
         11    1    3    3    0    0 -0.17823871283E+00  0.71225203723E+00 -0.48052422392E+00  0.87748264608E+00  0.51100000000E-03 0.  1.
        -11    1    3    3    0    0  0.48020087358E+01 -0.67478157961E+00 -0.43603124982E+01  0.65212685439E+01  0.51100000000E-03 0. -1.
         12    1    3    3    0    0 -0.48347914491E+01  0.30678239796E+02 -0.25820597415E+02  0.40388523818E+02  0.00000000000E+00 0. -1.
</event>
<event>
 7    1  0.1457722E-010  0.4778728E+02  0.7816164E-02  0.1312668E+00
        -11   -1    0    0    0    0  0.00000000000E+00  0.00000000000E+00  0.45593999997E+02  0.45594000000E+02  0.51100000000E-03 0. -1.
         11   -1    0    0    0    0 -0.00000000000E+00 -0.00000000000E+00 -0.45593999997E+02  0.45594000000E+02  0.51100000000E-03 0.  1.
    9900012    2    1    2    0    0 -0.77143804151E+01 -0.31295209808E+02  0.29064083592E+02  0.47787276767E+02  0.20000026091E+02 0.  0.
        -12    1    1    2    0    0  0.77143804151E+01  0.31295209808E+02 -0.29064083592E+02  0.43400723233E+02  0.00000000000E+00 0.  1.
         11    1    3    3    0    0  0.50434783779E+00 -0.42428313252E+01  0.71910795462E-02  0.42727083177E+01  0.51100000000E-03 0. -1.
        -11    1    3    3    0    0 -0.20571969038E+01 -0.10369270475E+02  0.21949194441E+02  0.24362285733E+02  0.51100000000E-03 0.  1.
         12    1    3    3    0    0 -0.61615313491E+01 -0.16683108007E+02  0.71076980721E+01  0.19152282716E+02  0.00000000000E+00 0. -1.
</event>
<event>
 7    1  0.1499048E-010  0.4778727E+02  0.7816164E-02  0.1312668E+00
        -11   -1    0    0    0    0  0.00000000000E+00  0.00000000000E+00  0.45593999997E+02  0.45594000000E+02  0.51100000000E-03 0.  1.
         11   -1    0    0    0    0 -0.00000000000E+00 -0.00000000000E+00 -0.45593999997E+02  0.45594000000E+02  0.51100000000E-03 0. -1.
    9900012    2    1    2    0    0 -0.15472221402E+02  0.40284284353E+02  0.46270998183E+01  0.47787271277E+02  0.20000001059E+02 0.  0.
        -12    1    1    2    0    0  0.15472221402E+02 -0.40284284353E+02 -0.46270998183E+01  0.43400728723E+02  0.00000000000E+00 0.  1.
         11    1    3    3    0    0 -0.73188376234E+01  0.33621350629E+02  0.55520804087E+01  0.34853783143E+02  0.51100000000E-03 0. -1.
        -11    1    3    3    0    0 -0.11002522718E+00  0.69718359254E+00 -0.26757893842E+01  0.27673127041E+01  0.51100000000E-03 0.  1.
        -12    1    3    3    0    0 -0.80433585516E+01  0.59657501320E+01  0.17508087938E+01  0.10166175429E+02  0.00000000000E+00 0.  1.
</event>
<event>
 7    1  0.1457722E-010  0.4778727E+02  0.7816164E-02  0.1312668E+00
        -11   -1    0    0    0    0  0.00000000000E+00  0.00000000000E+00  0.45593999997E+02  0.45594000000E+02  0.51100000000E-03 0.  1.
         11   -1    0    0    0    0 -0.00000000000E+00 -0.00000000000E+00 -0.45593999997E+02  0.45594000000E+02  0.51100000000E-03 0. -1.
    9900012    2    1    2    0    0  0.35521009901E+02 -0.18882323446E+02 -0.16289230194E+02  0.47787270704E+02  0.19999998450E+02 0.  0.
        -12    1    1    2    0    0 -0.35521009901E+02  0.18882323446E+02  0.16289230194E+02  0.43400729296E+02  0.00000000000E+00 0.  1.
         11    1    3    3    0    0  0.17253106453E+02 -0.64896646689E+01 -0.16339131864E+02  0.24632349870E+02  0.51100000000E-03 0. -1.
        -11    1    3    3    0    0  0.13091695634E+02 -0.92275531359E+01 -0.31071578292E+01  0.16315473070E+02  0.51100000000E-03 0.  1.
        -12    1    3    3    0    0  0.51762078139E+01 -0.31651056408E+01  0.31570594988E+01  0.68394477649E+01  0.00000000000E+00 0.  1.
</event>
<event>
 7    1  0.1457722E-010  0.4778727E+02  0.7816164E-02  0.1312668E+00
        -11   -1    0    0    0    0  0.00000000000E+00  0.00000000000E+00  0.45593999997E+02  0.45594000000E+02  0.51100000000E-03 0. -1.
         11   -1    0    0    0    0 -0.00000000000E+00 -0.00000000000E+00 -0.45593999997E+02  0.45594000000E+02  0.51100000000E-03 0.  1.
    9900012    2    1    2    0    0  0.17290031466E+02  0.19764104842E+02  0.34555149534E+02  0.47787269734E+02  0.19999994027E+02 0.  0.
        -12    1    1    2    0    0 -0.17290031466E+02 -0.19764104842E+02 -0.34555149534E+02  0.43400730266E+02  0.00000000000E+00 0.  1.
         11    1    3    3    0    0 -0.12444502317E+00  0.52531410092E+01  0.56684107794E+01  0.77292857400E+01  0.51100000000E-03 0.  1.
        -11    1    3    3    0    0  0.13761871769E+02  0.26375922715E+01  0.91433690242E+01  0.16731622903E+02  0.51100000000E-03 0. -1.
         12    1    3    3    0    0  0.36526047192E+01  0.11873371561E+02  0.19743369730E+02  0.23326361091E+02  0.00000000000E+00 0. -1.
</event>
<event>
 7    1  0.1457722E-010  0.4778727E+02  0.7816164E-02  0.1312668E+00
        -11   -1    0    0    0    0  0.00000000000E+00  0.00000000000E+00  0.45593999997E+02  0.45594000000E+02  0.51100000000E-03 0. -1.
         11   -1    0    0    0    0 -0.00000000000E+00 -0.00000000000E+00 -0.45593999997E+02  0.45594000000E+02  0.51100000000E-03 0.  1.
    9900012    2    1    2    0    0  0.13175945079E+02 -0.31130290343E+02  0.27219900189E+02  0.47787268764E+02  0.19999989602E+02 0.  0.
        -12    1    1    2    0    0 -0.13175945079E+02  0.31130290343E+02 -0.27219900189E+02  0.43400731236E+02  0.00000000000E+00 0.  1.
         11    1    3    3    0    0 -0.13347450298E+00 -0.11417644595E+02  0.56567484535E+00  0.11432428081E+02  0.51100000000E-03 0.  1.
        -11    1    3    3    0    0  0.25461488665E+01 -0.75423224918E+01  0.54742914481E+01  0.96611267325E+01  0.51100000000E-03 0. -1.
        -12    1    3    3    0    0  0.10763270715E+02 -0.12170323256E+02  0.21179933895E+02  0.26693713950E+02  0.00000000000E+00 0.  1.
</event>
<event>
 7    1  0.1457722E-010  0.4778726E+02  0.7816164E-02  0.1312668E+00
        -11   -1    0    0    0    0  0.00000000000E+00  0.00000000000E+00  0.45593999997E+02  0.45594000000E+02  0.51100000000E-03 0. -1.
         11   -1    0    0    0    0 -0.00000000000E+00 -0.00000000000E+00 -0.45593999997E+02  0.45594000000E+02  0.51100000000E-03 0.  1.
    9900012    2    1    2    0    0  0.75562486108E+01  0.41646181028E+02 -0.95980900482E+01  0.47787255538E+02  0.19999929302E+02 0.  0.
        -12    1    1    2    0    0 -0.75562486108E+01 -0.41646181028E+02  0.95980900482E+01  0.43400744462E+02  0.00000000000E+00 0.  1.
         11    1    3    3    0    0 -0.34539468740E+01  0.31826220823E+01 -0.49405039326E+00  0.47225965717E+01  0.51100000000E-03 0. -1.
        -11    1    3    3    0    0  0.31379613386E+01  0.12571958989E+01  0.13245169620E+01  0.36306594903E+01  0.51100000000E-03 0.  1.
        -12    1    3    3    0    0  0.78722341462E+01  0.37206363046E+02 -0.10428556617E+02  0.39433999476E+02  0.00000000000E+00 0.  1.
</event>
<event>
 7    1  0.1457722E-010  0.4778728E+02  0.7816164E-02  0.1312668E+00
        -11   -1    0    0    0    0  0.00000000000E+00  0.00000000000E+00  0.45593999997E+02  0.45594000000E+02  0.51100000000E-03 0.  1.
         11   -1    0    0    0    0 -0.00000000000E+00 -0.00000000000E+00 -0.45593999997E+02  0.45594000000E+02  0.51100000000E-03 0. -1.
    9900012    2    1    2    0    0 -0.25084885161E+02 -0.18017575618E+02 -0.30491605300E+02  0.47787280092E+02  0.20000041253E+02 0.  0.
        -12    1    1    2    0    0  0.25084885161E+02  0.18017575618E+02  0.30491605300E+02  0.43400719908E+02  0.00000000000E+00 0.  1.
         11    1    3    3    0    0  0.12790393709E+01 -0.33774743258E+01 -0.34595973222E+00  0.36280797857E+01  0.51100000000E-03 0. -1.
        -11    1    3    3    0    0  0.47359791796E+00  0.10511704876E+01 -0.14441060335E+01  0.18478898449E+01  0.51100000000E-03 0.  1.
        -12    1    3    3    0    0 -0.26837522450E+02 -0.15691271780E+02 -0.28701539535E+02  0.42311310462E+02  0.00000000000E+00 0.  1.
</event>
<event>
 7    1  0.1457722E-010  0.4778727E+02  0.7816164E-02  0.1312668E+00
        -11   -1    0    0    0    0  0.00000000000E+00  0.00000000000E+00  0.45593999997E+02  0.45594000000E+02  0.51100000000E-03 0. -1.
         11   -1    0    0    0    0 -0.00000000000E+00 -0.00000000000E+00 -0.45593999997E+02  0.45594000000E+02  0.51100000000E-03 0.  1.
    9900012    2    1    2    0    0 -0.36060405249E+02  0.22422957803E+02  0.89711520469E+01  0.47787269218E+02  0.19999991673E+02 0.  0.
        -12    1    1    2    0    0  0.36060405249E+02 -0.22422957803E+02 -0.89711520469E+01  0.43400730782E+02  0.00000000000E+00 0.  1.
         11    1    3    3    0    0 -0.29027484110E+02  0.11462958949E+02  0.43102002214E+01  0.31505112090E+02  0.51100000000E-03 0. -1.
        -11    1    3    3    0    0 -0.80696831161E+01  0.66034157217E+01  0.54014415634E+01  0.11743102487E+02  0.51100000000E-03 0.  1.
        -12    1    3    3    0    0  0.10367619768E+01  0.43565831320E+01 -0.74048973785E+00  0.45390546411E+01  0.00000000000E+00 0.  1.
</event>
<event>
 7    1  0.1457722E-010  0.4778727E+02  0.7816164E-02  0.1312668E+00
        -11   -1    0    0    0    0  0.00000000000E+00  0.00000000000E+00  0.45593999997E+02  0.45594000000E+02  0.51100000000E-03 0.  1.
         11   -1    0    0    0    0 -0.00000000000E+00 -0.00000000000E+00 -0.45593999997E+02  0.45594000000E+02  0.51100000000E-03 0. -1.
    9900012    2    1    2    0    0  0.22259275624E+02 -0.30262935649E+02 -0.21732521286E+02  0.47787272969E+02  0.20000008774E+02 0.  0.
        -12    1    1    2    0    0 -0.22259275624E+02  0.30262935649E+02  0.21732521286E+02  0.43400727031E+02  0.00000000000E+00 0.  1.
         11    1    3    3    0    0  0.17413891487E+02 -0.16253752075E+02 -0.16378695048E+02  0.28908298548E+02  0.51100000000E-03 0. -1.
        -11    1    3    3    0    0  0.79892156271E+01 -0.88199842208E+01 -0.24385578091E+01  0.12147685065E+02  0.51100000000E-03 0.  1.
        -12    1    3    3    0    0 -0.31438314906E+01 -0.51891993531E+01 -0.29152684296E+01  0.67312893552E+01  0.00000000000E+00 0.  1.
</event>
<event>
 7    1  0.1457722E-010  0.4778728E+02  0.7816164E-02  0.1312668E+00
        -11   -1    0    0    0    0  0.00000000000E+00  0.00000000000E+00  0.45593999997E+02  0.45594000000E+02  0.51100000000E-03 0.  1.
         11   -1    0    0    0    0 -0.00000000000E+00 -0.00000000000E+00 -0.45593999997E+02  0.45594000000E+02  0.51100000000E-03 0. -1.
    9900012    2    1    2    0    0  0.15129601351E+02  0.48863516733E+01 -0.40383673610E+02  0.47787281527E+02  0.20000047793E+02 0.  0.
        -12    1    1    2    0    0 -0.15129601351E+02 -0.48863516733E+01  0.40383673610E+02  0.43400718473E+02  0.00000000000E+00 0.  1.
         11    1    3    3    0    0  0.29148789969E+01  0.41817430500E+01 -0.24438471451E+02  0.24964422317E+02  0.51100000000E-03 0. -1.
        -11    1    3    3    0    0  0.77530742623E+01 -0.35383392953E+01 -0.13956200888E+02  0.16352539527E+02  0.51100000000E-03 0.  1.
         12    1    3    3    0    0  0.44616480920E+01  0.42429479187E+01 -0.19890012706E+01  0.64703196824E+01  0.00000000000E+00 0. -1.
</event>
<event>
 7    1  0.1457722E-010  0.4778724E+02  0.7816164E-02  0.1312668E+00
        -11   -1    0    0    0    0  0.00000000000E+00  0.00000000000E+00  0.45593999997E+02  0.45594000000E+02  0.51100000000E-03 0.  1.
         11   -1    0    0    0    0 -0.00000000000E+00 -0.00000000000E+00 -0.45593999997E+02  0.45594000000E+02  0.51100000000E-03 0. -1.
    9900012    2    1    2    0    0 -0.15597561029E+02  0.88480369038E+01 -0.39522834838E+02  0.47787238017E+02  0.19999849413E+02 0.  0.
        -12    1    1    2    0    0  0.15597561029E+02 -0.88480369038E+01  0.39522834838E+02  0.43400761983E+02  0.00000000000E+00 0.  1.
         11    1    3    3    0    0  0.28141976756E+01  0.14704867508E+01 -0.59172701960E+01  0.67153649696E+01  0.51100000000E-03 0. -1.
        -11    1    3    3    0    0 -0.96189052232E+01 -0.22039620427E+01 -0.95850841025E+01  0.13756984549E+02  0.51100000000E-03 0.  1.
         12    1    3    3    0    0 -0.87928534815E+01  0.95815121956E+01 -0.24020480539E+02  0.27314888498E+02  0.00000000000E+00 0. -1.
</event>
<event>
 7    1  0.1457722E-010  0.4778727E+02  0.7816164E-02  0.1312668E+00
        -11   -1    0    0    0    0  0.00000000000E+00  0.00000000000E+00  0.45593999997E+02  0.45594000000E+02  0.51100000000E-03 0.  1.
         11   -1    0    0    0    0 -0.00000000000E+00 -0.00000000000E+00 -0.45593999997E+02  0.45594000000E+02  0.51100000000E-03 0. -1.
    9900012    2    1    2    0    0 -0.39756686900E+02  0.17406688788E+02 -0.19060590672E+00  0.47787270762E+02  0.19999998711E+02 0.  0.
        -12    1    1    2    0    0  0.39756686900E+02 -0.17406688788E+02  0.19060590672E+00  0.43400729238E+02  0.00000000000E+00 0.  1.
         11    1    3    3    0    0 -0.12909714819E+02  0.12559036912E+02  0.12846583767E+01  0.18056591380E+02  0.51100000000E-03 0. -1.
        -11    1    3    3    0    0 -0.59013622651E+01 -0.14865946955E+01  0.38607504246E+01  0.72070406184E+01  0.51100000000E-03 0.  1.
         12    1    3    3    0    0 -0.20945609815E+02  0.63342465718E+01 -0.53360147080E+01  0.22523638763E+02  0.00000000000E+00 0. -1.
</event>
<event>
 7    1  0.1457722E-010  0.4778727E+02  0.7816164E-02  0.1312668E+00
        -11   -1    0    0    0    0  0.00000000000E+00  0.00000000000E+00  0.45593999997E+02  0.45594000000E+02  0.51100000000E-03 0.  1.
         11   -1    0    0    0    0 -0.00000000000E+00 -0.00000000000E+00 -0.45593999997E+02  0.45594000000E+02  0.51100000000E-03 0. -1.
    9900012    2    1    2    0    0 -0.32210636846E+01  0.37281333071E+02 -0.21985230014E+02  0.47787269757E+02  0.19999994132E+02 0.  0.
        -12    1    1    2    0    0  0.32210636846E+01 -0.37281333071E+02  0.21985230014E+02  0.43400730243E+02  0.00000000000E+00 0.  1.
         11    1    3    3    0    0 -0.18508589032E+01  0.17927492400E+02 -0.42973791461E+01  0.18528036330E+02  0.51100000000E-03 0. -1.
        -11    1    3    3    0    0 -0.42765426041E+01  0.13213403350E+01 -0.63230844792E+01  0.77470093919E+01  0.51100000000E-03 0.  1.
        -12    1    3    3    0    0  0.29063378227E+01  0.18032500336E+02 -0.11364766388E+02  0.21512224036E+02  0.00000000000E+00 0.  1.
</event>
<event>
 7    1  0.1457722E-010  0.4778727E+02  0.7816164E-02  0.1312668E+00
        -11   -1    0    0    0    0  0.00000000000E+00  0.00000000000E+00  0.45593999997E+02  0.45594000000E+02  0.51100000000E-03 0. -1.
         11   -1    0    0    0    0 -0.00000000000E+00 -0.00000000000E+00 -0.45593999997E+02  0.45594000000E+02  0.51100000000E-03 0.  1.
    9900012    2    1    2    0    0  0.34517524736E+02  0.23465256120E+02  0.11897292600E+02  0.47787270399E+02  0.19999997059E+02 0.  0.
        -12    1    1    2    0    0 -0.34517524736E+02 -0.23465256120E+02 -0.11897292600E+02  0.43400729601E+02  0.00000000000E+00 0.  1.
         11    1    3    3    0    0  0.63452402138E+01  0.19093907267E+01  0.64862793396E+01  0.92725221084E+01  0.51100000000E-03 0. -1.
        -11    1    3    3    0    0  0.22800437117E+02  0.18675045036E+02 -0.12330910281E+01  0.29498097457E+02  0.51100000000E-03 0.  1.
        -12    1    3    3    0    0  0.53718474047E+01  0.28808203570E+01  0.66441042881E+01  0.90166508338E+01  0.00000000000E+00 0.  1.
</event>
<event>
 7    1  0.1457722E-010  0.4778727E+02  0.7816164E-02  0.1312668E+00
        -11   -1    0    0    0    0  0.00000000000E+00  0.00000000000E+00  0.45593999997E+02  0.45594000000E+02  0.51100000000E-03 0.  1.
         11   -1    0    0    0    0 -0.00000000000E+00 -0.00000000000E+00 -0.45593999997E+02  0.45594000000E+02  0.51100000000E-03 0. -1.
    9900012    2    1    2    0    0  0.30311814615E+02  0.23499850032E+02 -0.20311924972E+02  0.47787270134E+02  0.19999995851E+02 0.  0.
        -12    1    1    2    0    0 -0.30311814615E+02 -0.23499850032E+02  0.20311924972E+02  0.43400729866E+02  0.00000000000E+00 0.  1.
         11    1    3    3    0    0  0.93633783299E+01 -0.34784316845E+00 -0.10864980815E+02  0.14347182894E+02  0.51100000000E-03 0.  1.
        -11    1    3    3    0    0  0.11919710777E+02  0.10965875388E+02 -0.31741094375E+01  0.16504693242E+02  0.51100000000E-03 0. -1.
         12    1    3    3    0    0  0.90287255079E+01  0.12881817812E+02 -0.62728347194E+01  0.16935393998E+02  0.00000000000E+00 0. -1.
</event>
<event>
 7    1  0.1457722E-010  0.4778728E+02  0.7816164E-02  0.1312668E+00
        -11   -1    0    0    0    0  0.00000000000E+00  0.00000000000E+00  0.45593999997E+02  0.45594000000E+02  0.51100000000E-03 0. -1.
         11   -1    0    0    0    0 -0.00000000000E+00 -0.00000000000E+00 -0.45593999997E+02  0.45594000000E+02  0.51100000000E-03 0.  1.
    9900012    2    1    2    0    0  0.15995340024E+02 -0.24050705095E+02  0.32393444774E+02  0.47787279011E+02  0.20000036321E+02 0.  0.
        -12    1    1    2    0    0 -0.15995340024E+02  0.24050705095E+02 -0.32393444774E+02  0.43400720989E+02  0.00000000000E+00 0.  1.
         11    1    3    3    0    0  0.23259089000E+01 -0.10628005420E+02  0.71191892200E+01  0.13001815520E+02  0.51100000000E-03 0. -1.
        -11    1    3    3    0    0  0.78703917081E+01 -0.14786385249E+02  0.13217785786E+02  0.21337528341E+02  0.51100000000E-03 0.  1.
        -12    1    3    3    0    0  0.57990394154E+01  0.13636855737E+01  0.12056469769E+02  0.13447935149E+02  0.00000000000E+00 0.  1.
</event>
<event>
 7    1  0.1457722E-010  0.4778727E+02  0.7816164E-02  0.1312668E+00
        -11   -1    0    0    0    0  0.00000000000E+00  0.00000000000E+00  0.45593999997E+02  0.45594000000E+02  0.51100000000E-03 0. -1.
         11   -1    0    0    0    0 -0.00000000000E+00 -0.00000000000E+00 -0.45593999997E+02  0.45594000000E+02  0.51100000000E-03 0.  1.
    9900012    2    1    2    0    0  0.11466801470E+02  0.11136241842E+02  0.40349968683E+02  0.47787269694E+02  0.19999993845E+02 0.  0.
        -12    1    1    2    0    0 -0.11466801470E+02 -0.11136241842E+02 -0.40349968683E+02  0.43400730306E+02  0.00000000000E+00 0.  1.
         11    1    3    3    0    0  0.13612276587E+02  0.23526147720E+01  0.21289754967E+02  0.25378781235E+02  0.51100000000E-03 0. -1.
        -11    1    3    3    0    0 -0.26772864127E+01 -0.27929069410E+00  0.48140041692E+01  0.55154784226E+01  0.51100000000E-03 0.  1.
        -12    1    3    3    0    0  0.53181129587E+00  0.90629177640E+01  0.14246209547E+02  0.16893010037E+02  0.00000000000E+00 0.  1.
</event>
<event>
 7    1  0.1457722E-010  0.4778727E+02  0.7816164E-02  0.1312668E+00
        -11   -1    0    0    0    0  0.00000000000E+00  0.00000000000E+00  0.45593999997E+02  0.45594000000E+02  0.51100000000E-03 0. -1.
         11   -1    0    0    0    0 -0.00000000000E+00 -0.00000000000E+00 -0.45593999997E+02  0.45594000000E+02  0.51100000000E-03 0.  1.
    9900012    2    1    2    0    0  0.34765358085E+02 -0.18184620223E+02  0.18555668575E+02  0.47787269917E+02  0.19999994861E+02 0.  0.
        -12    1    1    2    0    0 -0.34765358085E+02  0.18184620223E+02 -0.18555668575E+02  0.43400730083E+02  0.00000000000E+00 0.  1.
         11    1    3    3    0    0  0.15981586283E+02 -0.10112625929E+02  0.95858166656E+01  0.21202928682E+02  0.51100000000E-03 0. -1.
        -11    1    3    3    0    0  0.16809640747E+02 -0.10450682201E+02  0.11227926306E+02  0.22756254303E+02  0.51100000000E-03 0.  1.
        -12    1    3    3    0    0  0.19741310547E+01  0.23786879071E+01 -0.22580743960E+01  0.38280869319E+01  0.00000000000E+00 0.  1.
</event>
<event>
 7    1  0.1457722E-010  0.4778727E+02  0.7816164E-02  0.1312668E+00
        -11   -1    0    0    0    0  0.00000000000E+00  0.00000000000E+00  0.45593999997E+02  0.45594000000E+02  0.51100000000E-03 0.  1.
         11   -1    0    0    0    0 -0.00000000000E+00 -0.00000000000E+00 -0.45593999997E+02  0.45594000000E+02  0.51100000000E-03 0. -1.
    9900012    2    1    2    0    0 -0.40070664054E+02 -0.62451249717E+01  0.15458446086E+02  0.47787271216E+02  0.20000000781E+02 0.  0.
        -12    1    1    2    0    0  0.40070664054E+02  0.62451249717E+01 -0.15458446086E+02  0.43400728784E+02  0.00000000000E+00 0.  1.
         11    1    3    3    0    0 -0.27472862725E+02 -0.10238130036E+02  0.45304811404E+01  0.29666525792E+02  0.51100000000E-03 0. -1.
        -11    1    3    3    0    0 -0.11150019135E+01  0.95718983576E+00  0.42454493723E+01  0.44925808043E+01  0.51100000000E-03 0.  1.
         12    1    3    3    0    0 -0.11482799415E+02  0.30358152284E+01  0.66825155729E+01  0.13628164619E+02  0.00000000000E+00 0. -1.
</event>
<event>
 7    1  0.1457722E-010  0.4778727E+02  0.7816164E-02  0.1312668E+00
        -11   -1    0    0    0    0  0.00000000000E+00  0.00000000000E+00  0.45593999997E+02  0.45594000000E+02  0.51100000000E-03 0. -1.
         11   -1    0    0    0    0 -0.00000000000E+00 -0.00000000000E+00 -0.45593999997E+02  0.45594000000E+02  0.51100000000E-03 0.  1.
    9900012    2    1    2    0    0 -0.14065222467E+02 -0.36736792183E+02  0.18335774405E+02  0.47787274131E+02  0.20000014074E+02 0.  0.
        -12    1    1    2    0    0  0.14065222467E+02  0.36736792183E+02 -0.18335774405E+02  0.43400725869E+02  0.00000000000E+00 0.  1.
         11    1    3    3    0    0 -0.51590842445E+00 -0.84673664833E+01  0.10364793015E+02  0.13393707148E+02  0.51100000000E-03 0. -1.
        -11    1    3    3    0    0 -0.10446736187E+02 -0.28378746317E+02  0.63841961825E+01  0.30907046133E+02  0.51100000000E-03 0.  1.
         12    1    3    3    0    0 -0.31025778551E+01  0.10932061780E+00  0.15867852077E+01  0.34865208503E+01  0.00000000000E+00 0. -1.
</event>
<event>
 7    1  0.1457722E-010  0.4778727E+02  0.7816164E-02  0.1312668E+00
        -11   -1    0    0    0    0  0.00000000000E+00  0.00000000000E+00  0.45593999997E+02  0.45594000000E+02  0.51100000000E-03 0.  1.
         11   -1    0    0    0    0 -0.00000000000E+00 -0.00000000000E+00 -0.45593999997E+02  0.45594000000E+02  0.51100000000E-03 0. -1.
    9900012    2    1    2    0    0  0.37328118863E+02  0.16329905036E+02 -0.14952221682E+02  0.47787272015E+02  0.20000004427E+02 0.  0.
        -12    1    1    2    0    0 -0.37328118863E+02 -0.16329905036E+02  0.14952221682E+02  0.43400727985E+02  0.00000000000E+00 0.  1.
         11    1    3    3    0    0  0.62236791081E+01 -0.61491971502E-01 -0.66130571514E+01  0.90813263378E+01  0.51100000000E-03 0. -1.
        -11    1    3    3    0    0  0.10416714489E+02  0.13267564535E+02 -0.33657953332E+01  0.17200720564E+02  0.51100000000E-03 0.  1.
         12    1    3    3    0    0  0.20687725267E+02  0.31238324726E+01 -0.49733691974E+01  0.21505225114E+02  0.00000000000E+00 0. -1.
</event>
<event>
 7    1  0.1457722E-010  0.4778728E+02  0.7816164E-02  0.1312668E+00
        -11   -1    0    0    0    0  0.00000000000E+00  0.00000000000E+00  0.45593999997E+02  0.45594000000E+02  0.51100000000E-03 0.  1.
         11   -1    0    0    0    0 -0.00000000000E+00 -0.00000000000E+00 -0.45593999997E+02  0.45594000000E+02  0.51100000000E-03 0. -1.
    9900012    2    1    2    0    0 -0.28179993700E+02 -0.14156379232E+02 -0.29817904262E+02  0.47787279586E+02  0.20000038942E+02 0.  0.
        -12    1    1    2    0    0  0.28179993700E+02  0.14156379232E+02  0.29817904262E+02  0.43400720414E+02  0.00000000000E+00 0.  1.
         11    1    3    3    0    0 -0.25723632051E+02 -0.13601779005E+02 -0.30049900854E+02  0.41829537167E+02  0.51100000000E-03 0. -1.
        -11    1    3    3    0    0 -0.17302601173E+01 -0.27856231609E+01  0.10959183686E+01  0.34575329066E+01  0.51100000000E-03 0.  1.
        -12    1    3    3    0    0 -0.72610153209E+00  0.22310229344E+01 -0.86392177722E+00  0.25002095124E+01  0.00000000000E+00 0.  1.
</event>
<event>
 7    1  0.1457722E-010  0.4778731E+02  0.7816164E-02  0.1312668E+00
        -11   -1    0    0    0    0  0.00000000000E+00  0.00000000000E+00  0.45593999997E+02  0.45594000000E+02  0.51100000000E-03 0.  1.
         11   -1    0    0    0    0 -0.00000000000E+00 -0.00000000000E+00 -0.45593999997E+02  0.45594000000E+02  0.51100000000E-03 0. -1.
    9900012    2    1    2    0    0  0.13212186348E+02  0.16310991848E+00 -0.41340437980E+02  0.47787305474E+02  0.20000156978E+02 0.  0.
        -12    1    1    2    0    0 -0.13212186348E+02 -0.16310991848E+00  0.41340437980E+02  0.43400694526E+02  0.00000000000E+00 0.  1.
         11    1    3    3    0    0  0.77183389280E+01 -0.41900148551E+01 -0.32351199538E+02  0.33522068733E+02  0.51100000000E-03 0. -1.
        -11    1    3    3    0    0 -0.15256985842E+01 -0.80367428299E+00  0.32816375960E-01  0.17247393132E+01  0.51100000000E-03 0.  1.
        -12    1    3    3    0    0  0.70195460043E+01  0.51567990566E+01 -0.90220548179E+01  0.12540497428E+02  0.00000000000E+00 0.  1.
</event>
<event>
 7    1  0.1560398E-010  0.4778726E+02  0.7816164E-02  0.1312668E+00
        -11   -1    0    0    0    0  0.00000000000E+00  0.00000000000E+00  0.45593999997E+02  0.45594000000E+02  0.51100000000E-03 0. -1.
         11   -1    0    0    0    0 -0.00000000000E+00 -0.00000000000E+00 -0.45593999997E+02  0.45594000000E+02  0.51100000000E-03 0.  1.
    9900012    2    1    2    0    0 -0.15121207804E+02  0.34146992387E+02  0.22112352972E+02  0.47787260738E+02  0.19999953009E+02 0.  0.
        -12    1    1    2    0    0  0.15121207804E+02 -0.34146992387E+02 -0.22112352972E+02  0.43400739262E+02  0.00000000000E+00 0.  1.
         11    1    3    3    0    0 -0.82880559325E+01  0.26425044808E+02  0.10683678517E+02  0.29683595657E+02  0.51100000000E-03 0. -1.
        -11    1    3    3    0    0  0.19168478235E+01  0.15484311412E+00  0.12095951518E+00  0.19268921697E+01  0.51100000000E-03 0.  1.
        -12    1    3    3    0    0 -0.87499996954E+01  0.75671044649E+01  0.11307714940E+02  0.16176772911E+02  0.00000000000E+00 0.  1.
</event>
<event>
 7    1  0.1457722E-010  0.4778727E+02  0.7816164E-02  0.1312668E+00
        -11   -1    0    0    0    0  0.00000000000E+00  0.00000000000E+00  0.45593999997E+02  0.45594000000E+02  0.51100000000E-03 0. -1.
         11   -1    0    0    0    0 -0.00000000000E+00 -0.00000000000E+00 -0.45593999997E+02  0.45594000000E+02  0.51100000000E-03 0.  1.
    9900012    2    1    2    0    0  0.17776517731E+02  0.36836272456E+02 -0.14515766983E+02  0.47787273714E+02  0.20000012170E+02 0.  0.
        -12    1    1    2    0    0 -0.17776517731E+02 -0.36836272456E+02  0.14515766983E+02  0.43400726286E+02  0.00000000000E+00 0.  1.
         11    1    3    3    0    0  0.30672389908E+01  0.12022758013E+02 -0.64113330396E+01  0.13966383099E+02  0.51100000000E-03 0. -1.
        -11    1    3    3    0    0  0.16525697117E+02  0.16410649945E+02 -0.22036495665E+01  0.23393677960E+02  0.51100000000E-03 0.  1.
        -12    1    3    3    0    0 -0.18164183760E+01  0.84028644979E+01 -0.59007843773E+01  0.10427212655E+02  0.00000000000E+00 0.  1.
</event>
<event>
 7    1  0.1457722E-010  0.4778728E+02  0.7816164E-02  0.1312668E+00
        -11   -1    0    0    0    0  0.00000000000E+00  0.00000000000E+00  0.45593999997E+02  0.45594000000E+02  0.51100000000E-03 0.  1.
         11   -1    0    0    0    0 -0.00000000000E+00 -0.00000000000E+00 -0.45593999997E+02  0.45594000000E+02  0.51100000000E-03 0. -1.
    9900012    2    1    2    0    0 -0.15386791785E+02  0.40115631706E+02  0.61323417552E+01  0.47787275536E+02  0.20000020481E+02 0.  0.
        -12    1    1    2    0    0  0.15386791785E+02 -0.40115631706E+02 -0.61323417552E+01  0.43400724464E+02  0.00000000000E+00 0.  1.
         11    1    3    3    0    0 -0.51906225886E+01  0.87513012648E+01 -0.41368614442E+01  0.10983690616E+02  0.51100000000E-03 0. -1.
        -11    1    3    3    0    0 -0.21526419076E+01  0.74300946124E+01  0.84984416836E+01  0.11491896468E+02  0.51100000000E-03 0.  1.
         12    1    3    3    0    0 -0.80435272885E+01  0.23934235828E+02  0.17707615158E+01  0.25311688452E+02  0.00000000000E+00 0. -1.
</event>
<event>
 7    1  0.1457722E-010  0.4778727E+02  0.7816164E-02  0.1312668E+00
        -11   -1    0    0    0    0  0.00000000000E+00  0.00000000000E+00  0.45593999997E+02  0.45594000000E+02  0.51100000000E-03 0.  1.
         11   -1    0    0    0    0 -0.00000000000E+00 -0.00000000000E+00 -0.45593999997E+02  0.45594000000E+02  0.51100000000E-03 0. -1.
    9900012    2    1    2    0    0  0.59170230027E+01 -0.41762130809E+02 -0.10224317284E+02  0.47787269651E+02  0.19999993646E+02 0.  0.
        -12    1    1    2    0    0 -0.59170230027E+01  0.41762130809E+02  0.10224317284E+02  0.43400730349E+02  0.00000000000E+00 0.  1.
         11    1    3    3    0    0 -0.38478009502E+01 -0.23729076574E+02 -0.79722743765E+01  0.25326504026E+02  0.51100000000E-03 0. -1.
        -11    1    3    3    0    0  0.65888440406E+01 -0.17794155311E+02 -0.88686191636E+00  0.18995561411E+02  0.51100000000E-03 0.  1.
        -12    1    3    3    0    0  0.31759799123E+01 -0.23889892442E+00 -0.13651809914E+01  0.34652042132E+01  0.00000000000E+00 0.  1.
</event>
<event>
 7    1  0.1457722E-010  0.4778728E+02  0.7816164E-02  0.1312668E+00
        -11   -1    0    0    0    0  0.00000000000E+00  0.00000000000E+00  0.45593999997E+02  0.45594000000E+02  0.51100000000E-03 0.  1.
         11   -1    0    0    0    0 -0.00000000000E+00 -0.00000000000E+00 -0.45593999997E+02  0.45594000000E+02  0.51100000000E-03 0. -1.
    9900012    2    1    2    0    0 -0.24713483241E+02 -0.13523662646E+02 -0.33014802866E+02  0.47787275196E+02  0.20000018927E+02 0.  0.
        -12    1    1    2    0    0  0.24713483241E+02  0.13523662646E+02  0.33014802866E+02  0.43400724804E+02  0.00000000000E+00 0.  1.
         11    1    3    3    0    0 -0.16853047376E+02 -0.84017210469E+01 -0.27906956013E+02  0.33666189517E+02  0.51100000000E-03 0. -1.
        -11    1    3    3    0    0 -0.98368074396E+01 -0.33320344283E+01 -0.32919521577E+01  0.10895053158E+02  0.51100000000E-03 0.  1.
        -12    1    3    3    0    0  0.19763715753E+01 -0.17899071704E+01 -0.18158946958E+01  0.32260325213E+01  0.00000000000E+00 0.  1.
</event>
<event>
 7    1  0.1457722E-010  0.4778727E+02  0.7816164E-02  0.1312668E+00
        -11   -1    0    0    0    0  0.00000000000E+00  0.00000000000E+00  0.45593999997E+02  0.45594000000E+02  0.51100000000E-03 0.  1.
         11   -1    0    0    0    0 -0.00000000000E+00 -0.00000000000E+00 -0.45593999997E+02  0.45594000000E+02  0.51100000000E-03 0. -1.
    9900012    2    1    2    0    0  0.10901501212E+01  0.18295918478E+02 -0.39340744340E+02  0.47787271602E+02  0.20000002542E+02 0.  0.
        -12    1    1    2    0    0 -0.10901501212E+01 -0.18295918478E+02  0.39340744340E+02  0.43400728398E+02  0.00000000000E+00 0.  1.
         11    1    3    3    0    0 -0.39996654890E+01  0.59852882663E+01 -0.10434142585E+02  0.12676447901E+02  0.51100000000E-03 0. -1.
        -11    1    3    3    0    0  0.69244205864E+01  0.12043501988E+02 -0.12775220096E+02  0.18873255929E+02  0.51100000000E-03 0.  1.
        -12    1    3    3    0    0 -0.18346049763E+01  0.26712822424E+00 -0.16131381659E+02  0.16237567772E+02  0.00000000000E+00 0.  1.
</event>
<event>
 7    1  0.1457722E-010  0.4778727E+02  0.7816164E-02  0.1312668E+00
        -11   -1    0    0    0    0  0.00000000000E+00  0.00000000000E+00  0.45593999997E+02  0.45594000000E+02  0.51100000000E-03 0.  1.
         11   -1    0    0    0    0 -0.00000000000E+00 -0.00000000000E+00 -0.45593999997E+02  0.45594000000E+02  0.51100000000E-03 0. -1.
    9900012    2    1    2    0    0 -0.15055810153E+02 -0.13411776721E+02 -0.38432669532E+02  0.47787271187E+02  0.20000000649E+02 0.  0.
        -12    1    1    2    0    0  0.15055810153E+02  0.13411776721E+02  0.38432669532E+02  0.43400728813E+02  0.00000000000E+00 0.  1.
         11    1    3    3    0    0 -0.53618118391E+01  0.51480673995E+00 -0.18422213475E+01  0.56927877118E+01  0.51100000000E-03 0.  1.
        -11    1    3    3    0    0 -0.25676105366E+00  0.14531705431E-01  0.93286538391E+00  0.96766497030E+00  0.51100000000E-03 0. -1.
         12    1    3    3    0    0 -0.94372372606E+01 -0.13941115166E+02 -0.37523313568E+02  0.41126818505E+02  0.00000000000E+00 0. -1.
</event>
<event>
 7    1  0.1457722E-010  0.4778727E+02  0.7816164E-02  0.1312668E+00
        -11   -1    0    0    0    0  0.00000000000E+00  0.00000000000E+00  0.45593999997E+02  0.45594000000E+02  0.51100000000E-03 0.  1.
         11   -1    0    0    0    0 -0.00000000000E+00 -0.00000000000E+00 -0.45593999997E+02  0.45594000000E+02  0.51100000000E-03 0. -1.
    9900012    2    1    2    0    0  0.15011405697E+02 -0.39115029174E+02  0.11326748568E+02  0.47787273723E+02  0.20000012212E+02 0.  0.
        -12    1    1    2    0    0 -0.15011405697E+02  0.39115029174E+02 -0.11326748568E+02  0.43400726277E+02  0.00000000000E+00 0.  1.
         11    1    3    3    0    0  0.26453320472E+01 -0.10689300382E+02  0.30756036935E+01  0.11433208764E+02  0.51100000000E-03 0. -1.
        -11    1    3    3    0    0  0.13688159310E+02 -0.24573160133E+02  0.12219023882E+02  0.30667742810E+02  0.51100000000E-03 0.  1.
         12    1    3    3    0    0 -0.13220856600E+01 -0.38525686582E+01 -0.39678790070E+01  0.56863221482E+01  0.00000000000E+00 0. -1.
</event>
<event>
 7    1  0.1457722E-010  0.4778727E+02  0.7816164E-02  0.1312668E+00
        -11   -1    0    0    0    0  0.00000000000E+00  0.00000000000E+00  0.45593999997E+02  0.45594000000E+02  0.51100000000E-03 0.  1.
         11   -1    0    0    0    0 -0.00000000000E+00 -0.00000000000E+00 -0.45593999997E+02  0.45594000000E+02  0.51100000000E-03 0. -1.
    9900012    2    1    2    0    0  0.25359701464E+02 -0.27931138161E+02 -0.21456008102E+02  0.47787271654E+02  0.20000002777E+02 0.  0.
        -12    1    1    2    0    0 -0.25359701464E+02  0.27931138161E+02  0.21456008102E+02  0.43400728346E+02  0.00000000000E+00 0.  1.
         11    1    3    3    0    0  0.61503200472E+01 -0.58551538420E+01  0.35777940790E+01  0.92146553885E+01  0.51100000000E-03 0.  1.
        -11    1    3    3    0    0  0.91319175194E+01 -0.92066905205E+01 -0.10175833858E+02  0.16483405682E+02  0.51100000000E-03 0. -1.
        -12    1    3    3    0    0  0.10077463898E+02 -0.12869293799E+02 -0.14857968323E+02  0.22089210583E+02  0.00000000000E+00 0.  1.
</event>
<event>
 7    1  0.1457722E-010  0.4778728E+02  0.7816164E-02  0.1312668E+00
        -11   -1    0    0    0    0  0.00000000000E+00  0.00000000000E+00  0.45593999997E+02  0.45594000000E+02  0.51100000000E-03 0.  1.
         11   -1    0    0    0    0 -0.00000000000E+00 -0.00000000000E+00 -0.45593999997E+02  0.45594000000E+02  0.51100000000E-03 0. -1.
    9900012    2    1    2    0    0 -0.10772889021E+02 -0.37529685122E+02 -0.18949661977E+02  0.47787284658E+02  0.20000062068E+02 0.  0.
        -12    1    1    2    0    0  0.10772889021E+02  0.37529685122E+02  0.18949661977E+02  0.43400715342E+02  0.00000000000E+00 0.  1.
         11    1    3    3    0    0 -0.37208605778E+01 -0.24503913675E+02 -0.16782262317E+02  0.29932105131E+02  0.51100000000E-03 0. -1.
        -11    1    3    3    0    0 -0.64922856170E+01 -0.44177581952E+01 -0.43225246381E+01  0.89638484766E+01  0.51100000000E-03 0.  1.
        -12    1    3    3    0    0 -0.55974282591E+00 -0.86080132517E+01  0.21551249785E+01  0.88913310503E+01  0.00000000000E+00 0.  1.
</event>
<event>
 7    1  0.1457722E-010  0.4778727E+02  0.7816164E-02  0.1312668E+00
        -11   -1    0    0    0    0  0.00000000000E+00  0.00000000000E+00  0.45593999997E+02  0.45594000000E+02  0.51100000000E-03 0. -1.
         11   -1    0    0    0    0 -0.00000000000E+00 -0.00000000000E+00 -0.45593999997E+02  0.45594000000E+02  0.51100000000E-03 0.  1.
    9900012    2    1    2    0    0 -0.13320800645E+02 -0.40612409132E+02 -0.75373586762E+01  0.47787270960E+02  0.19999999617E+02 0.  0.
        -12    1    1    2    0    0  0.13320800645E+02  0.40612409132E+02  0.75373586762E+01  0.43400729040E+02  0.00000000000E+00 0.  1.
         11    1    3    3    0    0 -0.10532226514E+02 -0.15895465172E+02 -0.83733504324E+01  0.20825623787E+02  0.51100000000E-03 0. -1.
        -11    1    3    3    0    0  0.34388926385E+01 -0.40303647906E+01 -0.46795925683E+00  0.53187225018E+01  0.51100000000E-03 0.  1.
         12    1    3    3    0    0 -0.62274667700E+01 -0.20686579169E+02  0.13039510130E+01  0.21642924672E+02  0.00000000000E+00 0. -1.
</event>
<event>
 7    1  0.1457722E-010  0.4778727E+02  0.7816164E-02  0.1312668E+00
        -11   -1    0    0    0    0  0.00000000000E+00  0.00000000000E+00  0.45593999997E+02  0.45594000000E+02  0.51100000000E-03 0.  1.
         11   -1    0    0    0    0 -0.00000000000E+00 -0.00000000000E+00 -0.45593999997E+02  0.45594000000E+02  0.51100000000E-03 0. -1.
    9900012    2    1    2    0    0  0.35808952478E+02  0.14832165756E+02 -0.19528162181E+02  0.47787270320E+02  0.19999996697E+02 0.  0.
        -12    1    1    2    0    0 -0.35808952478E+02 -0.14832165756E+02  0.19528162181E+02  0.43400729680E+02  0.00000000000E+00 0.  1.
         11    1    3    3    0    0  0.13441356111E+02  0.98341463410E+01 -0.86148255964E+01  0.18750885544E+02  0.51100000000E-03 0. -1.
        -11    1    3    3    0    0  0.14371603943E+02 -0.22685889078E+01 -0.10986323568E+02  0.18231533159E+02  0.51100000000E-03 0.  1.
         12    1    3    3    0    0  0.79959924244E+01  0.72666083231E+01  0.72986983727E-01  0.10804851617E+02  0.00000000000E+00 0. -1.
</event>
<event>
 7    1  0.1457722E-010  0.4778727E+02  0.7816164E-02  0.1312668E+00
        -11   -1    0    0    0    0  0.00000000000E+00  0.00000000000E+00  0.45593999997E+02  0.45594000000E+02  0.51100000000E-03 0.  1.
         11   -1    0    0    0    0 -0.00000000000E+00 -0.00000000000E+00 -0.45593999997E+02  0.45594000000E+02  0.51100000000E-03 0. -1.
    9900012    2    1    2    0    0  0.37201828140E+02  0.14994444144E+02 -0.16577511843E+02  0.47787271078E+02  0.20000000151E+02 0.  0.
        -12    1    1    2    0    0 -0.37201828140E+02 -0.14994444144E+02  0.16577511843E+02  0.43400728922E+02  0.00000000000E+00 0.  1.
         11    1    3    3    0    0  0.14904737927E+02  0.51785974145E+01 -0.10367133526E+02  0.18879791886E+02  0.51100000000E-03 0. -1.
        -11    1    3    3    0    0  0.22307651460E+02  0.11914300641E+02 -0.75801282641E+01  0.26401519240E+02  0.51100000000E-03 0.  1.
        -12    1    3    3    0    0 -0.10561247324E-01 -0.20984539120E+01  0.13697499471E+01  0.25059599514E+01  0.00000000000E+00 0.  1.
</event>
<event>
 7    1  0.1457722E-010  0.4778727E+02  0.7816164E-02  0.1312668E+00
        -11   -1    0    0    0    0  0.00000000000E+00  0.00000000000E+00  0.45593999997E+02  0.45594000000E+02  0.51100000000E-03 0.  1.
         11   -1    0    0    0    0 -0.00000000000E+00 -0.00000000000E+00 -0.45593999997E+02  0.45594000000E+02  0.51100000000E-03 0. -1.
    9900012    2    1    2    0    0 -0.13461999424E+01  0.38273562806E+02 -0.20419241374E+02  0.47787270946E+02  0.19999999550E+02 0.  0.
        -12    1    1    2    0    0  0.13461999424E+01 -0.38273562806E+02  0.20419241374E+02  0.43400729054E+02  0.00000000000E+00 0.  1.
         11    1    3    3    0    0  0.46186121709E+01  0.49291482364E+01  0.17927630681E+01  0.69887109256E+01  0.51100000000E-03 0. -1.
        -11    1    3    3    0    0 -0.30413113495E+00  0.11060792876E+02 -0.91336821322E+01  0.14347744922E+02  0.51100000000E-03 0.  1.
         12    1    3    3    0    0 -0.56606809784E+01  0.22283621694E+02 -0.13078322310E+02  0.26450815099E+02  0.00000000000E+00 0. -1.
</event>
<event>
 7    1  0.1457722E-010  0.4778728E+02  0.7816164E-02  0.1312668E+00
        -11   -1    0    0    0    0  0.00000000000E+00  0.00000000000E+00  0.45593999997E+02  0.45594000000E+02  0.51100000000E-03 0. -1.
         11   -1    0    0    0    0 -0.00000000000E+00 -0.00000000000E+00 -0.45593999997E+02  0.45594000000E+02  0.51100000000E-03 0.  1.
    9900012    2    1    2    0    0 -0.38624956237E+02 -0.14939542175E+02  0.12982510261E+02  0.47787277225E+02  0.20000028180E+02 0.  0.
        -12    1    1    2    0    0  0.38624956237E+02  0.14939542175E+02 -0.12982510261E+02  0.43400722775E+02  0.00000000000E+00 0.  1.
         11    1    3    3    0    0 -0.89303938964E+01 -0.94033146829E+01  0.46083974460E+01  0.13762688308E+02  0.51100000000E-03 0. -1.
        -11    1    3    3    0    0 -0.27689954941E+02 -0.76346280455E+01  0.43311149438E+01  0.29047886445E+02  0.51100000000E-03 0.  1.
        -12    1    3    3    0    0 -0.20046073999E+01  0.20984005532E+01  0.40429978715E+01  0.49767024723E+01  0.00000000000E+00 0.  1.
</event>
<event>
 7    1  0.1457722E-010  0.4778729E+02  0.7816164E-02  0.1312668E+00
        -11   -1    0    0    0    0  0.00000000000E+00  0.00000000000E+00  0.45593999997E+02  0.45594000000E+02  0.51100000000E-03 0. -1.
         11   -1    0    0    0    0 -0.00000000000E+00 -0.00000000000E+00 -0.45593999997E+02  0.45594000000E+02  0.51100000000E-03 0.  1.
    9900012    2    1    2    0    0  0.71178364680E+01 -0.22756874273E+02  0.36264074272E+02  0.47787285657E+02  0.20000066626E+02 0.  0.
        -12    1    1    2    0    0 -0.71178364680E+01  0.22756874273E+02 -0.36264074272E+02  0.43400714343E+02  0.00000000000E+00 0.  1.
         11    1    3    3    0    0  0.79610518674E+01 -0.86669736484E+01  0.12741424149E+02  0.17344701458E+02  0.51100000000E-03 0. -1.
        -11    1    3    3    0    0 -0.28969662878E+01  0.31806259639E+00  0.16137290783E+00  0.29188386328E+01  0.51100000000E-03 0.  1.
         12    1    3    3    0    0  0.20537508884E+01 -0.14407963221E+02  0.23361277216E+02  0.27523745567E+02  0.00000000000E+00 0. -1.
</event>
<event>
 7    1  0.1457722E-010  0.4778732E+02  0.7816164E-02  0.1312668E+00
        -11   -1    0    0    0    0  0.00000000000E+00  0.00000000000E+00  0.45593999997E+02  0.45594000000E+02  0.51100000000E-03 0.  1.
         11   -1    0    0    0    0 -0.00000000000E+00 -0.00000000000E+00 -0.45593999997E+02  0.45594000000E+02  0.51100000000E-03 0. -1.
    9900012    2    1    2    0    0  0.13506074961E+02 -0.24900337691E+02 -0.32881272144E+02  0.47787321022E+02  0.20000227864E+02 0.  0.
        -12    1    1    2    0    0 -0.13506074961E+02  0.24900337691E+02  0.32881272144E+02  0.43400678978E+02  0.00000000000E+00 0.  1.
         11    1    3    3    0    0  0.23163284858E+00  0.24493596061E+00 -0.37935642428E+00  0.50750266906E+00  0.51100000000E-03 0.  1.
        -11    1    3    3    0    0  0.11658566026E+02 -0.28316697287E+02 -0.27623434168E+02  0.41240897451E+02  0.51100000000E-03 0. -1.
         12    1    3    3    0    0  0.16158760867E+01  0.31714236359E+01 -0.48784815521E+01  0.60389209020E+01  0.00000000000E+00 0. -1.
</event>
<event>
 7    1  0.1457722E-010  0.4778727E+02  0.7816164E-02  0.1312668E+00
        -11   -1    0    0    0    0  0.00000000000E+00  0.00000000000E+00  0.45593999997E+02  0.45594000000E+02  0.51100000000E-03 0.  1.
         11   -1    0    0    0    0 -0.00000000000E+00 -0.00000000000E+00 -0.45593999997E+02  0.45594000000E+02  0.51100000000E-03 0. -1.
    9900012    2    1    2    0    0  0.79696606251E+01 -0.41266373253E+02  0.10825634506E+02  0.47787269426E+02  0.19999992620E+02 0.  0.
        -12    1    1    2    0    0 -0.79696606251E+01  0.41266373253E+02 -0.10825634506E+02  0.43400730574E+02  0.00000000000E+00 0.  1.
         11    1    3    3    0    0 -0.20729740610E+01 -0.22054750393E+01 -0.17184144579E+01  0.34805588800E+01  0.51100000000E-03 0. -1.
        -11    1    3    3    0    0 -0.14452606178E+01 -0.62698964821E+00  0.24989134266E+01  0.29540587075E+01  0.51100000000E-03 0.  1.
         12    1    3    3    0    0  0.11487895304E+02 -0.38433908565E+02  0.10045135537E+02  0.41352651838E+02  0.00000000000E+00 0. -1.
</event>
<event>
 7    1  0.1457722E-010  0.4778727E+02  0.7816164E-02  0.1312668E+00
        -11   -1    0    0    0    0  0.00000000000E+00  0.00000000000E+00  0.45593999997E+02  0.45594000000E+02  0.51100000000E-03 0.  1.
         11   -1    0    0    0    0 -0.00000000000E+00 -0.00000000000E+00 -0.45593999997E+02  0.45594000000E+02  0.51100000000E-03 0. -1.
    9900012    2    1    2    0    0 -0.35852448307E+02  0.16543348154E+02 -0.18015080593E+02  0.47787267903E+02  0.19999985678E+02 0.  0.
        -12    1    1    2    0    0  0.35852448307E+02 -0.16543348154E+02  0.18015080593E+02  0.43400732097E+02  0.00000000000E+00 0.  1.
         11    1    3    3    0    0 -0.30429768681E+01 -0.13146030629E+01  0.39811482628E+00  0.33386202403E+01  0.51100000000E-03 0. -1.
        -11    1    3    3    0    0 -0.11175067542E+02 -0.69867343502E+00 -0.14766861505E+01  0.11293842632E+02  0.51100000000E-03 0.  1.
         12    1    3    3    0    0 -0.21634403897E+02  0.18556624652E+02 -0.16936509268E+02  0.33154805031E+02  0.00000000000E+00 0. -1.
</event>
<event>
 7    1  0.1457722E-010  0.4778727E+02  0.7816164E-02  0.1312668E+00
        -11   -1    0    0    0    0  0.00000000000E+00  0.00000000000E+00  0.45593999997E+02  0.45594000000E+02  0.51100000000E-03 0.  1.
         11   -1    0    0    0    0 -0.00000000000E+00 -0.00000000000E+00 -0.45593999997E+02  0.45594000000E+02  0.51100000000E-03 0. -1.
    9900012    2    1    2    0    0  0.22780367265E+02  0.27806706953E+02 -0.24320062743E+02  0.47787268023E+02  0.19999986226E+02 0.  0.
        -12    1    1    2    0    0 -0.22780367265E+02 -0.27806706953E+02  0.24320062743E+02  0.43400731977E+02  0.00000000000E+00 0.  1.
         11    1    3    3    0    0  0.42437002383E+01  0.15072728291E+02 -0.67273653724E+01  0.17042698582E+02  0.51100000000E-03 0. -1.
        -11    1    3    3    0    0  0.10601054820E+02  0.60042668905E+01 -0.25392466238E+01  0.12445133903E+02  0.51100000000E-03 0.  1.
         12    1    3    3    0    0  0.79356122065E+01  0.67297117708E+01 -0.15053450747E+02  0.18299435538E+02  0.00000000000E+00 0. -1.
</event>
<event>
 7    1  0.1457722E-010  0.4778727E+02  0.7816164E-02  0.1312668E+00
        -11   -1    0    0    0    0  0.00000000000E+00  0.00000000000E+00  0.45593999997E+02  0.45594000000E+02  0.51100000000E-03 0. -1.
         11   -1    0    0    0    0 -0.00000000000E+00 -0.00000000000E+00 -0.45593999997E+02  0.45594000000E+02  0.51100000000E-03 0.  1.
    9900012    2    1    2    0    0  0.24627656792E+02 -0.66249781731E+01 -0.35117114494E+02  0.47787267918E+02  0.19999985745E+02 0.  0.
        -12    1    1    2    0    0 -0.24627656792E+02  0.66249781731E+01  0.35117114494E+02  0.43400732082E+02  0.00000000000E+00 0.  1.
         11    1    3    3    0    0  0.61039038006E+01 -0.91578985709E+01 -0.45285109203E+01  0.11900931025E+02  0.51100000000E-03 0. -1.
        -11    1    3    3    0    0  0.64836948166E+01  0.95255898472E+00 -0.92828125860E+01  0.11362934342E+02  0.51100000000E-03 0.  1.
         12    1    3    3    0    0  0.12040058175E+02  0.15803614130E+01 -0.21305790988E+02  0.24523402551E+02  0.00000000000E+00 0. -1.
</event>
<event>
 7    1  0.1457722E-010  0.4778727E+02  0.7816164E-02  0.1312668E+00
        -11   -1    0    0    0    0  0.00000000000E+00  0.00000000000E+00  0.45593999997E+02  0.45594000000E+02  0.51100000000E-03 0. -1.
         11   -1    0    0    0    0 -0.00000000000E+00 -0.00000000000E+00 -0.45593999997E+02  0.45594000000E+02  0.51100000000E-03 0.  1.
    9900012    2    1    2    0    0 -0.12495538740E+02  0.35124753913E+02  0.22220181091E+02  0.47787271048E+02  0.20000000017E+02 0.  0.
        -12    1    1    2    0    0  0.12495538740E+02 -0.35124753913E+02 -0.22220181091E+02  0.43400728952E+02  0.00000000000E+00 0.  1.
         11    1    3    3    0    0 -0.78755111046E+01  0.99883400850E+01  0.64110728062E+01  0.14244032701E+02  0.51100000000E-03 0. -1.
        -11    1    3    3    0    0  0.11301655042E+01 -0.58392220941E-02 -0.19326187401E+01  0.22388219266E+01  0.51100000000E-03 0.  1.
         12    1    3    3    0    0 -0.57501931396E+01  0.25142253050E+02  0.17741727025E+02  0.31304416420E+02  0.00000000000E+00 0. -1.
</event>
<event>
 7    1  0.1457722E-010  0.4778728E+02  0.7816164E-02  0.1312668E+00
        -11   -1    0    0    0    0  0.00000000000E+00  0.00000000000E+00  0.45593999997E+02  0.45594000000E+02  0.51100000000E-03 0. -1.
         11   -1    0    0    0    0 -0.00000000000E+00 -0.00000000000E+00 -0.45593999997E+02  0.45594000000E+02  0.51100000000E-03 0.  1.
    9900012    2    1    2    0    0 -0.10306042260E+02 -0.17078442467E+02  0.38545230899E+02  0.47787279623E+02  0.20000039114E+02 0.  0.
        -12    1    1    2    0    0  0.10306042260E+02  0.17078442467E+02 -0.38545230899E+02  0.43400720377E+02  0.00000000000E+00 0.  1.
         11    1    3    3    0    0 -0.30646939016E+01 -0.93690304523E+01  0.70251975824E+01  0.12104729723E+02  0.51100000000E-03 0.  1.
        -11    1    3    3    0    0 -0.59148468778E+01 -0.98988330885E+01  0.30993343425E+02  0.33069013397E+02  0.51100000000E-03 0. -1.
         12    1    3    3    0    0 -0.13265014802E+01  0.21894210735E+01  0.52668989101E+00  0.26135365035E+01  0.00000000000E+00 0. -1.
</event>
<event>
 7    1  0.1457722E-010  0.4778726E+02  0.7816164E-02  0.1312668E+00
        -11   -1    0    0    0    0  0.00000000000E+00  0.00000000000E+00  0.45593999997E+02  0.45594000000E+02  0.51100000000E-03 0. -1.
         11   -1    0    0    0    0 -0.00000000000E+00 -0.00000000000E+00 -0.45593999997E+02  0.45594000000E+02  0.51100000000E-03 0.  1.
    9900012    2    1    2    0    0  0.24763066300E+02 -0.34148062883E+02  0.10213941124E+02  0.47787259862E+02  0.19999949015E+02 0.  0.
        -12    1    1    2    0    0 -0.24763066300E+02  0.34148062883E+02 -0.10213941124E+02  0.43400740138E+02  0.00000000000E+00 0.  1.
         11    1    3    3    0    0  0.56078256425E+01 -0.10342236894E+02  0.76537857374E+01  0.14035312920E+02  0.51100000000E-03 0. -1.
        -11    1    3    3    0    0 -0.51518856696E+00 -0.58481976913E+01  0.39584056031E+01  0.70806645645E+01  0.51100000000E-03 0.  1.
        -12    1    3    3    0    0  0.19670429224E+02 -0.17957628299E+02 -0.13982502165E+01  0.26671282377E+02  0.00000000000E+00 0.  1.
</event>
<event>
 7    1  0.1457722E-010  0.4778727E+02  0.7816164E-02  0.1312668E+00
        -11   -1    0    0    0    0  0.00000000000E+00  0.00000000000E+00  0.45593999997E+02  0.45594000000E+02  0.51100000000E-03 0.  1.
         11   -1    0    0    0    0 -0.00000000000E+00 -0.00000000000E+00 -0.45593999997E+02  0.45594000000E+02  0.51100000000E-03 0. -1.
    9900012    2    1    2    0    0 -0.13362910271E+02 -0.68389982919E+01 -0.40722032692E+02  0.47787271721E+02  0.20000003085E+02 0.  0.
        -12    1    1    2    0    0  0.13362910271E+02  0.68389982919E+01  0.40722032692E+02  0.43400728279E+02  0.00000000000E+00 0.  1.
         11    1    3    3    0    0 -0.82263160334E+01 -0.25231406372E+01 -0.13999028815E+02  0.16432021244E+02  0.51100000000E-03 0. -1.
        -11    1    3    3    0    0 -0.10591865612E+01  0.50292199211E+01 -0.42196038812E+01  0.66498110020E+01  0.51100000000E-03 0.  1.
        -12    1    3    3    0    0 -0.40774076768E+01 -0.93450775758E+01 -0.22503399996E+02  0.24705439475E+02  0.00000000000E+00 0.  1.
</event>
<event>
 7    1  0.1457722E-010  0.4778726E+02  0.7816164E-02  0.1312668E+00
        -11   -1    0    0    0    0  0.00000000000E+00  0.00000000000E+00  0.45593999997E+02  0.45594000000E+02  0.51100000000E-03 0. -1.
         11   -1    0    0    0    0 -0.00000000000E+00 -0.00000000000E+00 -0.45593999997E+02  0.45594000000E+02  0.51100000000E-03 0.  1.
    9900012    2    1    2    0    0  0.67953494707E+01  0.34175212969E+02  0.25874738440E+02  0.47787262158E+02  0.19999959484E+02 0.  0.
        -12    1    1    2    0    0 -0.67953494707E+01 -0.34175212969E+02 -0.25874738440E+02  0.43400737842E+02  0.00000000000E+00 0.  1.
         11    1    3    3    0    0  0.58453987715E+01  0.39968856734E+01  0.11329387410E+02  0.13360344353E+02  0.51100000000E-03 0. -1.
        -11    1    3    3    0    0  0.29860167680E+01  0.18386561511E+02  0.12102698863E+02  0.22213897910E+02  0.51100000000E-03 0.  1.
        -12    1    3    3    0    0 -0.20360660689E+01  0.11791765784E+02  0.24426521670E+01  0.12213019895E+02  0.00000000000E+00 0.  1.
</event>
<event>
 7    1  0.1457722E-010  0.4778726E+02  0.7816164E-02  0.1312668E+00
        -11   -1    0    0    0    0  0.00000000000E+00  0.00000000000E+00  0.45593999997E+02  0.45594000000E+02  0.51100000000E-03 0.  1.
         11   -1    0    0    0    0 -0.00000000000E+00 -0.00000000000E+00 -0.45593999997E+02  0.45594000000E+02  0.51100000000E-03 0. -1.
    9900012    2    1    2    0    0 -0.29570238842E+02  0.82002392654E+01 -0.30691706614E+02  0.47787264936E+02  0.19999972151E+02 0.  0.
        -12    1    1    2    0    0  0.29570238842E+02 -0.82002392654E+01  0.30691706614E+02  0.43400735064E+02  0.00000000000E+00 0.  1.
         11    1    3    3    0    0 -0.86808375561E+01 -0.16615146004E+01 -0.10256861966E+02  0.13539600773E+02  0.51100000000E-03 0. -1.
        -11    1    3    3    0    0  0.10647760830E+01  0.46576920670E+01 -0.23113078646E+01  0.53075406549E+01  0.51100000000E-03 0.  1.
        -12    1    3    3    0    0 -0.21954177369E+02  0.52040617989E+01 -0.18123536783E+02  0.28940123509E+02  0.00000000000E+00 0.  1.
</event>
<event>
 7    1  0.1457722E-010  0.4778727E+02  0.7816164E-02  0.1312668E+00
        -11   -1    0    0    0    0  0.00000000000E+00  0.00000000000E+00  0.45593999997E+02  0.45594000000E+02  0.51100000000E-03 0.  1.
         11   -1    0    0    0    0 -0.00000000000E+00 -0.00000000000E+00 -0.45593999997E+02  0.45594000000E+02  0.51100000000E-03 0. -1.
    9900012    2    1    2    0    0 -0.42977913070E+02 -0.54262351390E+01  0.26604616308E+01  0.47787273097E+02  0.20000009358E+02 0.  0.
        -12    1    1    2    0    0  0.42977913070E+02  0.54262351390E+01 -0.26604616308E+01  0.43400726903E+02  0.00000000000E+00 0.  1.
         11    1    3    3    0    0 -0.72908286510E+01 -0.35337607979E+01 -0.26861598549E+01  0.85357543792E+01  0.51100000000E-03 0. -1.
        -11    1    3    3    0    0 -0.13401809972E+02 -0.13417097808E+01 -0.53916594731E+01  0.14507883643E+02  0.51100000000E-03 0.  1.
         12    1    3    3    0    0 -0.22285274446E+02 -0.55076456033E+00  0.10738280959E+02  0.24743635075E+02  0.00000000000E+00 0. -1.
</event>
<event>
 7    1  0.1457722E-010  0.4778727E+02  0.7816164E-02  0.1312668E+00
        -11   -1    0    0    0    0  0.00000000000E+00  0.00000000000E+00  0.45593999997E+02  0.45594000000E+02  0.51100000000E-03 0. -1.
         11   -1    0    0    0    0 -0.00000000000E+00 -0.00000000000E+00 -0.45593999997E+02  0.45594000000E+02  0.51100000000E-03 0.  1.
    9900012    2    1    2    0    0 -0.40765922726E+02  0.77384832113E+01 -0.12723159482E+02  0.47787269991E+02  0.19999995196E+02 0.  0.
        -12    1    1    2    0    0  0.40765922726E+02 -0.77384832113E+01  0.12723159482E+02  0.43400730009E+02  0.00000000000E+00 0.  1.
         11    1    3    3    0    0 -0.28891161705E+02  0.11282378282E+02 -0.58285748302E+01  0.31558890493E+02  0.51100000000E-03 0. -1.
        -11    1    3    3    0    0 -0.10300271657E+02 -0.10958083910E+01 -0.80276281914E+01  0.13104930632E+02  0.51100000000E-03 0.  1.
        -12    1    3    3    0    0 -0.15744893649E+01 -0.24480866799E+01  0.11330435402E+01  0.31234488656E+01  0.00000000000E+00 0.  1.
</event>
<event>
 7    1  0.1457722E-010  0.4778727E+02  0.7816164E-02  0.1312668E+00
        -11   -1    0    0    0    0  0.00000000000E+00  0.00000000000E+00  0.45593999997E+02  0.45594000000E+02  0.51100000000E-03 0.  1.
         11   -1    0    0    0    0 -0.00000000000E+00 -0.00000000000E+00 -0.45593999997E+02  0.45594000000E+02  0.51100000000E-03 0. -1.
    9900012    2    1    2    0    0  0.13745278156E+02  0.66614243538E+01 -0.40624080156E+02  0.47787272650E+02  0.20000007320E+02 0.  0.
        -12    1    1    2    0    0 -0.13745278156E+02 -0.66614243538E+01  0.40624080156E+02  0.43400727350E+02  0.00000000000E+00 0.  1.
         11    1    3    3    0    0  0.13719578131E+02  0.40988887000E+01 -0.18531942193E+02  0.23419235564E+02  0.51100000000E-03 0. -1.
        -11    1    3    3    0    0  0.13125085776E+01  0.62433452670E+01 -0.14033466692E+02  0.15415583886E+02  0.51100000000E-03 0.  1.
        -12    1    3    3    0    0 -0.12868085524E+01 -0.36808096132E+01 -0.80586712704E+01  0.89524532003E+01  0.00000000000E+00 0.  1.
</event>
<event>
 7    1  0.1457722E-010  0.4778725E+02  0.7816164E-02  0.1312668E+00
        -11   -1    0    0    0    0  0.00000000000E+00  0.00000000000E+00  0.45593999997E+02  0.45594000000E+02  0.51100000000E-03 0. -1.
         11   -1    0    0    0    0 -0.00000000000E+00 -0.00000000000E+00 -0.45593999997E+02  0.45594000000E+02  0.51100000000E-03 0.  1.
    9900012    2    1    2    0    0 -0.97145750635E+01 -0.93147445649E+01  0.41261217755E+02  0.47787245104E+02  0.19999881725E+02 0.  0.
        -12    1    1    2    0    0  0.97145750635E+01  0.93147445649E+01 -0.41261217755E+02  0.43400754896E+02  0.00000000000E+00 0.  1.
         11    1    3    3    0    0 -0.13533722393E+02 -0.63281210282E+01  0.35448328699E+02  0.38468048630E+02  0.51100000000E-03 0. -1.
        -11    1    3    3    0    0  0.20392342768E+01 -0.21405102793E+01  0.65727228165E+01  0.72070067417E+01  0.51100000000E-03 0.  1.
        -12    1    3    3    0    0  0.17799130530E+01 -0.84611325742E+00 -0.75983376063E+00  0.21121897321E+01  0.00000000000E+00 0.  1.
</event>
<event>
 7    1  0.1457722E-010  0.4778727E+02  0.7816164E-02  0.1312668E+00
        -11   -1    0    0    0    0  0.00000000000E+00  0.00000000000E+00  0.45593999997E+02  0.45594000000E+02  0.51100000000E-03 0.  1.
         11   -1    0    0    0    0 -0.00000000000E+00 -0.00000000000E+00 -0.45593999997E+02  0.45594000000E+02  0.51100000000E-03 0. -1.
    9900012    2    1    2    0    0 -0.37011156224E+02  0.19302914688E+02 -0.11882556005E+02  0.47787270309E+02  0.19999996647E+02 0.  0.
        -12    1    1    2    0    0  0.37011156224E+02 -0.19302914688E+02  0.11882556005E+02  0.43400729691E+02  0.00000000000E+00 0.  1.
         11    1    3    3    0    0 -0.26391470793E+02  0.22310794882E+02 -0.55978136404E+01  0.35008810558E+02  0.51100000000E-03 0. -1.
        -11    1    3    3    0    0 -0.24855996380E+01 -0.12683170837E+01 -0.18957640943E+01  0.33735375420E+01  0.51100000000E-03 0.  1.
         12    1    3    3    0    0 -0.81340857934E+01 -0.17395631100E+01 -0.43889782701E+01  0.94049222093E+01  0.00000000000E+00 0. -1.
</event>
<event>
 7    1  0.1457722E-010  0.4778727E+02  0.7816164E-02  0.1312668E+00
        -11   -1    0    0    0    0  0.00000000000E+00  0.00000000000E+00  0.45593999997E+02  0.45594000000E+02  0.51100000000E-03 0.  1.
         11   -1    0    0    0    0 -0.00000000000E+00 -0.00000000000E+00 -0.45593999997E+02  0.45594000000E+02  0.51100000000E-03 0. -1.
    9900012    2    1    2    0    0  0.26254388109E+02 -0.11359312263E+02 -0.32638883009E+02  0.47787267816E+02  0.19999985278E+02 0.  0.
        -12    1    1    2    0    0 -0.26254388109E+02  0.11359312263E+02  0.32638883009E+02  0.43400732184E+02  0.00000000000E+00 0.  1.
         11    1    3    3    0    0  0.17571915969E+02 -0.36277183304E+00 -0.80402057102E+01  0.19327409096E+02  0.51100000000E-03 0. -1.
        -11    1    3    3    0    0  0.11307940865E+01 -0.34716624726E+01 -0.61094794428E+01  0.71173643235E+01  0.51100000000E-03 0.  1.
         12    1    3    3    0    0  0.75516780534E+01 -0.75248779575E+01 -0.18489197856E+02  0.21342494396E+02  0.00000000000E+00 0. -1.
</event>
<event>
 7    1  0.1457722E-010  0.4778727E+02  0.7816164E-02  0.1312668E+00
        -11   -1    0    0    0    0  0.00000000000E+00  0.00000000000E+00  0.45593999997E+02  0.45594000000E+02  0.51100000000E-03 0.  1.
         11   -1    0    0    0    0 -0.00000000000E+00 -0.00000000000E+00 -0.45593999997E+02  0.45594000000E+02  0.51100000000E-03 0. -1.
    9900012    2    1    2    0    0  0.21649554140E+01  0.24696683958E+02 -0.35623164415E+02  0.47787273354E+02  0.20000010532E+02 0.  0.
        -12    1    1    2    0    0 -0.21649554140E+01 -0.24696683958E+02  0.35623164415E+02  0.43400726646E+02  0.00000000000E+00 0.  1.
         11    1    3    3    0    0  0.27166889618E+01  0.52908715086E+01 -0.16055330138E+02  0.17121546260E+02  0.51100000000E-03 0. -1.
        -11    1    3    3    0    0 -0.31673673484E+01 -0.10905575803E+00 -0.41286048954E+00  0.31960230166E+01  0.51100000000E-03 0.  1.
         12    1    3    3    0    0  0.26156338006E+01  0.19514868207E+02 -0.19154973787E+02  0.27469704078E+02  0.00000000000E+00 0. -1.
</event>
<event>
 7    1  0.1457722E-010  0.4778727E+02  0.7816164E-02  0.1312668E+00
        -11   -1    0    0    0    0  0.00000000000E+00  0.00000000000E+00  0.45593999997E+02  0.45594000000E+02  0.51100000000E-03 0.  1.
         11   -1    0    0    0    0 -0.00000000000E+00 -0.00000000000E+00 -0.45593999997E+02  0.45594000000E+02  0.51100000000E-03 0. -1.
    9900012    2    1    2    0    0  0.34575726068E+02  0.15830347563E+02 -0.20917516529E+02  0.47787271494E+02  0.20000002051E+02 0.  0.
        -12    1    1    2    0    0 -0.34575726068E+02 -0.15830347563E+02  0.20917516529E+02  0.43400728506E+02  0.00000000000E+00 0.  1.
         11    1    3    3    0    0  0.13158702278E+02 -0.68491173711E+00 -0.31329120359E+01  0.13543843170E+02  0.51100000000E-03 0. -1.
        -11    1    3    3    0    0  0.23991398487E+01  0.64755473334E+01 -0.10304539247E+01  0.69821501582E+01  0.51100000000E-03 0.  1.
        -12    1    3    3    0    0  0.19017883941E+02  0.10039711967E+02 -0.16754150568E+02  0.27261278166E+02  0.00000000000E+00 0.  1.
</event>
<event>
 7    1  0.1457722E-010  0.4778727E+02  0.7816164E-02  0.1312668E+00
        -11   -1    0    0    0    0  0.00000000000E+00  0.00000000000E+00  0.45593999997E+02  0.45594000000E+02  0.51100000000E-03 0.  1.
         11   -1    0    0    0    0 -0.00000000000E+00 -0.00000000000E+00 -0.45593999997E+02  0.45594000000E+02  0.51100000000E-03 0. -1.
    9900012    2    1    2    0    0  0.10725989873E+02 -0.26581251965E+02 -0.32588550462E+02  0.47787269177E+02  0.19999991486E+02 0.  0.
        -12    1    1    2    0    0 -0.10725989873E+02  0.26581251965E+02  0.32588550462E+02  0.43400730823E+02  0.00000000000E+00 0.  1.
         11    1    3    3    0    0  0.66140836117E+01 -0.72323021287E+01 -0.17184839817E+02  0.19783099249E+02  0.51100000000E-03 0. -1.
        -11    1    3    3    0    0  0.67042221229E+01 -0.68774083226E+01 -0.26152834724E+01  0.99541472468E+01  0.51100000000E-03 0.  1.
        -12    1    3    3    0    0 -0.25923158616E+01 -0.12471541514E+02 -0.12788427172E+02  0.18050022681E+02  0.00000000000E+00 0.  1.
</event>
<event>
 7    1  0.1457722E-010  0.4778727E+02  0.7816164E-02  0.1312668E+00
        -11   -1    0    0    0    0  0.00000000000E+00  0.00000000000E+00  0.45593999997E+02  0.45594000000E+02  0.51100000000E-03 0.  1.
         11   -1    0    0    0    0 -0.00000000000E+00 -0.00000000000E+00 -0.45593999997E+02  0.45594000000E+02  0.51100000000E-03 0. -1.
    9900012    2    1    2    0    0  0.27314823909E+02 -0.20074009654E+02 -0.27102720858E+02  0.47787274814E+02  0.20000017188E+02 0.  0.
        -12    1    1    2    0    0 -0.27314823909E+02  0.20074009654E+02  0.27102720858E+02  0.43400725186E+02  0.00000000000E+00 0.  1.
         11    1    3    3    0    0  0.65805066958E+01 -0.41522199506E+01 -0.89157527102E+01  0.11833623517E+02  0.51100000000E-03 0. -1.
        -11    1    3    3    0    0  0.23130073789E+02 -0.13568303544E+02 -0.13066375823E+02  0.29830007575E+02  0.51100000000E-03 0.  1.
        -12    1    3    3    0    0 -0.23957565760E+01 -0.23534861593E+01 -0.51205923252E+01  0.61236437220E+01  0.00000000000E+00 0.  1.
</event>
<event>
 7    1  0.1457722E-010  0.4778727E+02  0.7816164E-02  0.1312668E+00
        -11   -1    0    0    0    0  0.00000000000E+00  0.00000000000E+00  0.45593999997E+02  0.45594000000E+02  0.51100000000E-03 0. -1.
         11   -1    0    0    0    0 -0.00000000000E+00 -0.00000000000E+00 -0.45593999997E+02  0.45594000000E+02  0.51100000000E-03 0.  1.
    9900012    2    1    2    0    0 -0.35149179716E+00  0.42859324161E+02  0.68248117972E+01  0.47787271088E+02  0.20000000197E+02 0.  0.
        -12    1    1    2    0    0  0.35149179716E+00 -0.42859324161E+02 -0.68248117972E+01  0.43400728912E+02  0.00000000000E+00 0.  1.
         11    1    3    3    0    0  0.93359724531E+00  0.34452101214E+02  0.12527650446E+02  0.36670981822E+02  0.51100000000E-03 0. -1.
        -11    1    3    3    0    0 -0.24367753805E+01  0.25280970115E+01 -0.16236567534E+01  0.38685152537E+01  0.51100000000E-03 0.  1.
        -12    1    3    3    0    0  0.11516863380E+01  0.58791259362E+01 -0.40791818950E+01  0.72477740119E+01  0.00000000000E+00 0.  1.
</event>
<event>
 7    1  0.1457722E-010  0.4778721E+02  0.7816164E-02  0.1312668E+00
        -11   -1    0    0    0    0  0.00000000000E+00  0.00000000000E+00  0.45593999997E+02  0.45594000000E+02  0.51100000000E-03 0.  1.
         11   -1    0    0    0    0 -0.00000000000E+00 -0.00000000000E+00 -0.45593999997E+02  0.45594000000E+02  0.51100000000E-03 0. -1.
    9900012    2    1    2    0    0 -0.28862901964E+02 -0.96353253163E+01 -0.30947086567E+02  0.47787207717E+02  0.19999711265E+02 0.  0.
        -12    1    1    2    0    0  0.28862901964E+02  0.96353253163E+01  0.30947086567E+02  0.43400792283E+02  0.00000000000E+00 0.  1.
         11    1    3    3    0    0 -0.16572020340E+02 -0.94107469685E+01 -0.21115083969E+02  0.28443642312E+02  0.51100000000E-03 0. -1.
        -11    1    3    3    0    0 -0.84069141099E+01 -0.55063592420E+01 -0.51920594055E+01  0.11311661155E+02  0.51100000000E-03 0.  1.
         12    1    3    3    0    0 -0.38839675142E+01  0.52817808942E+01 -0.46399431924E+01  0.80319042509E+01  0.00000000000E+00 0. -1.
</event>
<event>
 7    1  0.1457722E-010  0.4778727E+02  0.7816164E-02  0.1312668E+00
        -11   -1    0    0    0    0  0.00000000000E+00  0.00000000000E+00  0.45593999997E+02  0.45594000000E+02  0.51100000000E-03 0.  1.
         11   -1    0    0    0    0 -0.00000000000E+00 -0.00000000000E+00 -0.45593999997E+02  0.45594000000E+02  0.51100000000E-03 0. -1.
    9900012    2    1    2    0    0  0.33020247137E+02  0.15229566487E+02 -0.23692756269E+02  0.47787272863E+02  0.20000008292E+02 0.  0.
        -12    1    1    2    0    0 -0.33020247137E+02 -0.15229566487E+02  0.23692756269E+02  0.43400727137E+02  0.00000000000E+00 0.  1.
         11    1    3    3    0    0  0.78538102160E+01  0.56172380873E+01 -0.19736661152E+01  0.98555089586E+01  0.51100000000E-03 0. -1.
        -11    1    3    3    0    0  0.16546363513E+02  0.12043954074E+02 -0.89554787076E+01  0.22339193682E+02  0.51100000000E-03 0.  1.
         12    1    3    3    0    0  0.86200734084E+01 -0.24316256739E+01 -0.12763611446E+02  0.15592570222E+02  0.00000000000E+00 0. -1.
</event>
<event>
 7    1  0.1457722E-010  0.4778727E+02  0.7816164E-02  0.1312668E+00
        -11   -1    0    0    0    0  0.00000000000E+00  0.00000000000E+00  0.45593999997E+02  0.45594000000E+02  0.51100000000E-03 0.  1.
         11   -1    0    0    0    0 -0.00000000000E+00 -0.00000000000E+00 -0.45593999997E+02  0.45594000000E+02  0.51100000000E-03 0. -1.
    9900012    2    1    2    0    0  0.30147078304E+01 -0.16948474996E+01 -0.43262714806E+02  0.47787268857E+02  0.19999990027E+02 0.  0.
        -12    1    1    2    0    0 -0.30147078304E+01  0.16948474996E+01  0.43262714806E+02  0.43400731143E+02  0.00000000000E+00 0.  1.
         11    1    3    3    0    0  0.70490478068E+01 -0.34295524104E+01 -0.13851578615E+02  0.15915939655E+02  0.51100000000E-03 0.  1.
        -11    1    3    3    0    0 -0.22105814071E+01 -0.27107037744E+00 -0.29051371738E+02  0.29136615271E+02  0.51100000000E-03 0. -1.
         12    1    3    3    0    0 -0.18237585693E+01  0.20057752882E+01 -0.35976445361E+00  0.27347139317E+01  0.00000000000E+00 0. -1.
</event>
<event>
 7    1  0.1457722E-010  0.4778727E+02  0.7816164E-02  0.1312668E+00
        -11   -1    0    0    0    0  0.00000000000E+00  0.00000000000E+00  0.45593999997E+02  0.45594000000E+02  0.51100000000E-03 0.  1.
         11   -1    0    0    0    0 -0.00000000000E+00 -0.00000000000E+00 -0.45593999997E+02  0.45594000000E+02  0.51100000000E-03 0. -1.
    9900012    2    1    2    0    0  0.14452938515E+02  0.28006705114E+02 -0.29838907011E+02  0.47787270344E+02  0.19999996805E+02 0.  0.
        -12    1    1    2    0    0 -0.14452938515E+02 -0.28006705114E+02  0.29838907011E+02  0.43400729656E+02  0.00000000000E+00 0.  1.
         11    1    3    3    0    0  0.23150965944E+01  0.15239237079E+02 -0.70741562910E+01  0.16959885214E+02  0.51100000000E-03 0. -1.
        -11    1    3    3    0    0  0.89165036683E+01  0.28052925415E+01 -0.61508668534E+01  0.11189587446E+02  0.51100000000E-03 0.  1.
         12    1    3    3    0    0  0.32213382523E+01  0.99621754941E+01 -0.16613883867E+02  0.19637797683E+02  0.00000000000E+00 0. -1.
</event>
<event>
 7    1  0.1457722E-010  0.4778723E+02  0.7816164E-02  0.1312668E+00
        -11   -1    0    0    0    0  0.00000000000E+00  0.00000000000E+00  0.45593999997E+02  0.45594000000E+02  0.51100000000E-03 0. -1.
         11   -1    0    0    0    0 -0.00000000000E+00 -0.00000000000E+00 -0.45593999997E+02  0.45594000000E+02  0.51100000000E-03 0.  1.
    9900012    2    1    2    0    0 -0.18578161680E+02 -0.16914955916E+02  0.35388743020E+02  0.47787228606E+02  0.19999806507E+02 0.  0.
        -12    1    1    2    0    0  0.18578161680E+02  0.16914955916E+02 -0.35388743020E+02  0.43400771394E+02  0.00000000000E+00 0.  1.
         11    1    3    3    0    0 -0.72037264031E+00 -0.24471062461E+01  0.31506885447E+01  0.40538998862E+01  0.51100000000E-03 0. -1.
        -11    1    3    3    0    0 -0.10397649989E+02 -0.36698296657E+01  0.27753904639E+02  0.29863991663E+02  0.51100000000E-03 0.  1.
        -12    1    3    3    0    0 -0.74601390507E+01 -0.10798020004E+02  0.44841498365E+01  0.13869337057E+02  0.00000000000E+00 0.  1.
</event>
<event>
 7    1  0.1457722E-010  0.4778727E+02  0.7816164E-02  0.1312668E+00
        -11   -1    0    0    0    0  0.00000000000E+00  0.00000000000E+00  0.45593999997E+02  0.45594000000E+02  0.51100000000E-03 0. -1.
         11   -1    0    0    0    0 -0.00000000000E+00 -0.00000000000E+00 -0.45593999997E+02  0.45594000000E+02  0.51100000000E-03 0.  1.
    9900012    2    1    2    0    0  0.40121698679E+02  0.71238259055E+00  0.16533747821E+02  0.47787274075E+02  0.20000013816E+02 0.  0.
        -12    1    1    2    0    0 -0.40121698679E+02 -0.71238259055E+00 -0.16533747821E+02  0.43400725925E+02  0.00000000000E+00 0.  1.
         11    1    3    3    0    0  0.17784980573E+02 -0.13705845506E+01  0.15781035441E+02  0.23816488319E+02  0.51100000000E-03 0. -1.
        -11    1    3    3    0    0  0.10227896976E+02 -0.19231318618E+01  0.33925949465E+01  0.10946141486E+02  0.51100000000E-03 0.  1.
        -12    1    3    3    0    0  0.12108821130E+02  0.40060990029E+01 -0.26398825666E+01  0.13024644270E+02  0.00000000000E+00 0.  1.
</event>
<event>
 7    1  0.1457722E-010  0.4778727E+02  0.7816164E-02  0.1312668E+00
        -11   -1    0    0    0    0  0.00000000000E+00  0.00000000000E+00  0.45593999997E+02  0.45594000000E+02  0.51100000000E-03 0.  1.
         11   -1    0    0    0    0 -0.00000000000E+00 -0.00000000000E+00 -0.45593999997E+02  0.45594000000E+02  0.51100000000E-03 0. -1.
    9900012    2    1    2    0    0  0.25891636578E+02  0.31970979848E+02 -0.13823990508E+02  0.47787272924E+02  0.20000008571E+02 0.  0.
        -12    1    1    2    0    0 -0.25891636578E+02 -0.31970979848E+02  0.13823990508E+02  0.43400727076E+02  0.00000000000E+00 0.  1.
         11    1    3    3    0    0  0.15419944922E+02  0.20893740482E+02 -0.12242397442E+02  0.28708872985E+02  0.51100000000E-03 0. -1.
        -11    1    3    3    0    0  0.61834436513E+01  0.73866997587E+01 -0.64676177456E+01  0.11602947396E+02  0.51100000000E-03 0.  1.
         12    1    3    3    0    0  0.42882480054E+01  0.36905396072E+01  0.48860246795E+01  0.74754525427E+01  0.00000000000E+00 0. -1.
</event>
<event>
 7    1  0.1594169E-010  0.4778727E+02  0.7816164E-02  0.1312668E+00
        -11   -1    0    0    0    0  0.00000000000E+00  0.00000000000E+00  0.45593999997E+02  0.45594000000E+02  0.51100000000E-03 0.  1.
         11   -1    0    0    0    0 -0.00000000000E+00 -0.00000000000E+00 -0.45593999997E+02  0.45594000000E+02  0.51100000000E-03 0. -1.
    9900012    2    1    2    0    0  0.22420194275E+02  0.47162763411E+01 -0.36860752237E+02  0.47787269254E+02  0.19999991835E+02 0.  0.
        -12    1    1    2    0    0 -0.22420194275E+02 -0.47162763411E+01  0.36860752237E+02  0.43400730746E+02  0.00000000000E+00 0.  1.
         11    1    3    3    0    0  0.16846805472E+02  0.24816271627E+01 -0.29385475235E+02  0.33962913347E+02  0.51100000000E-03 0. -1.
        -11    1    3    3    0    0 -0.17935604802E+01 -0.74252261969E+00 -0.52131515480E+01  0.55628363593E+01  0.51100000000E-03 0.  1.
        -12    1    3    3    0    0  0.73669492834E+01  0.29771717980E+01 -0.22621254541E+01  0.82615195472E+01  0.00000000000E+00 0.  1.
</event>
<event>
 7    1  0.1457722E-010  0.4778724E+02  0.7816164E-02  0.1312668E+00
        -11   -1    0    0    0    0  0.00000000000E+00  0.00000000000E+00  0.45593999997E+02  0.45594000000E+02  0.51100000000E-03 0.  1.
         11   -1    0    0    0    0 -0.00000000000E+00 -0.00000000000E+00 -0.45593999997E+02  0.45594000000E+02  0.51100000000E-03 0. -1.
    9900012    2    1    2    0    0 -0.71604250609E+01  0.22670022701E+02 -0.36310114510E+02  0.47787239269E+02  0.19999855121E+02 0.  0.
        -12    1    1    2    0    0  0.71604250609E+01 -0.22670022701E+02  0.36310114510E+02  0.43400760731E+02  0.00000000000E+00 0.  1.
         11    1    3    3    0    0 -0.51238768417E+01  0.18602185341E+02 -0.33296633252E+02  0.38483258692E+02  0.51100000000E-03 0. -1.
        -11    1    3    3    0    0  0.27044611067E+01  0.27501373962E+01 -0.16702017373E+01  0.42032058813E+01  0.51100000000E-03 0.  1.
        -12    1    3    3    0    0 -0.47410093259E+01  0.13176999637E+01 -0.13432795208E+01  0.51007746954E+01  0.00000000000E+00 0.  1.
</event>
<event>
 7    1  0.1457722E-010  0.4778727E+02  0.7816164E-02  0.1312668E+00
        -11   -1    0    0    0    0  0.00000000000E+00  0.00000000000E+00  0.45593999997E+02  0.45594000000E+02  0.51100000000E-03 0.  1.
         11   -1    0    0    0    0 -0.00000000000E+00 -0.00000000000E+00 -0.45593999997E+02  0.45594000000E+02  0.51100000000E-03 0. -1.
    9900012    2    1    2    0    0  0.21595908303E+01 -0.33682777444E+02 -0.27284239912E+02  0.47787273318E+02  0.20000010368E+02 0.  0.
        -12    1    1    2    0    0 -0.21595908303E+01  0.33682777444E+02  0.27284239912E+02  0.43400726682E+02  0.00000000000E+00 0.  1.
         11    1    3    3    0    0 -0.38097630389E+01 -0.13518440066E+02 -0.14682559398E+02  0.20318466157E+02  0.51100000000E-03 0. -1.
        -11    1    3    3    0    0  0.36105015068E+01 -0.51902317222E+00 -0.51818404997E+01  0.63369217613E+01  0.51100000000E-03 0.  1.
         12    1    3    3    0    0  0.23588523624E+01 -0.19645314206E+02 -0.74198400141E+01  0.21131885400E+02  0.00000000000E+00 0. -1.
</event>
<event>
 7    1  0.1457722E-010  0.4778727E+02  0.7816164E-02  0.1312668E+00
        -11   -1    0    0    0    0  0.00000000000E+00  0.00000000000E+00  0.45593999997E+02  0.45594000000E+02  0.51100000000E-03 0.  1.
         11   -1    0    0    0    0 -0.00000000000E+00 -0.00000000000E+00 -0.45593999997E+02  0.45594000000E+02  0.51100000000E-03 0. -1.
    9900012    2    1    2    0    0 -0.15271948842E+02  0.40476603092E+02  0.34692816714E+01  0.47787265736E+02  0.19999975797E+02 0.  0.
        -12    1    1    2    0    0  0.15271948842E+02 -0.40476603092E+02 -0.34692816714E+01  0.43400734264E+02  0.00000000000E+00 0.  1.
         11    1    3    3    0    0 -0.34896111809E+00  0.22509359091E+00 -0.87504178044E+00  0.96857594707E+00  0.51100000000E-03 0.  1.
        -11    1    3    3    0    0  0.49331414389E+00  0.99974754662E+01 -0.55575508187E+01  0.11448984492E+02  0.51100000000E-03 0. -1.
         12    1    3    3    0    0 -0.15416301868E+02  0.30254034035E+02  0.99018742705E+01  0.35369705297E+02  0.00000000000E+00 0. -1.
</event>
<event>
 7    1  0.1457722E-010  0.4778727E+02  0.7816164E-02  0.1312668E+00
        -11   -1    0    0    0    0  0.00000000000E+00  0.00000000000E+00  0.45593999997E+02  0.45594000000E+02  0.51100000000E-03 0. -1.
         11   -1    0    0    0    0 -0.00000000000E+00 -0.00000000000E+00 -0.45593999997E+02  0.45594000000E+02  0.51100000000E-03 0.  1.
    9900012    2    1    2    0    0 -0.31554633535E+02  0.29527979960E+02  0.40033818988E+01  0.47787267694E+02  0.19999984725E+02 0.  0.
        -12    1    1    2    0    0  0.31554633535E+02 -0.29527979960E+02 -0.40033818988E+01  0.43400732306E+02  0.00000000000E+00 0.  1.
         11    1    3    3    0    0 -0.86129546145E+01  0.17410520639E+01 -0.20682500881E+01  0.90272868665E+01  0.51100000000E-03 0. -1.
        -11    1    3    3    0    0 -0.44425056289E+01  0.27365138414E+00  0.31996238463E+01  0.54816361027E+01  0.51100000000E-03 0.  1.
         12    1    3    3    0    0 -0.18499173292E+02  0.27513276512E+02  0.28720081406E+01  0.33278344725E+02  0.00000000000E+00 0. -1.
</event>
<event>
 7    1  0.1457722E-010  0.4778726E+02  0.7816164E-02  0.1312668E+00
        -11   -1    0    0    0    0  0.00000000000E+00  0.00000000000E+00  0.45593999997E+02  0.45594000000E+02  0.51100000000E-03 0.  1.
         11   -1    0    0    0    0 -0.00000000000E+00 -0.00000000000E+00 -0.45593999997E+02  0.45594000000E+02  0.51100000000E-03 0. -1.
    9900012    2    1    2    0    0 -0.31669907678E+02  0.67151408929E+01  0.28905855030E+02  0.47787255484E+02  0.19999929053E+02 0.  0.
        -12    1    1    2    0    0  0.31669907678E+02 -0.67151408929E+01 -0.28905855030E+02  0.43400744516E+02  0.00000000000E+00 0.  1.
         11    1    3    3    0    0 -0.85321543998E+01  0.21041415049E+01 -0.49204976298E+00  0.88015443761E+01  0.51100000000E-03 0. -1.
        -11    1    3    3    0    0 -0.39802045579E+01  0.45057774396E+01  0.10354124443E+02  0.11972967548E+02  0.51100000000E-03 0.  1.
         12    1    3    3    0    0 -0.19157548720E+02  0.10522194846E+00  0.19043780350E+02  0.27012743560E+02  0.00000000000E+00 0. -1.
</event>
<event>
 7    1  0.1457722E-010  0.4778727E+02  0.7816164E-02  0.1312668E+00
        -11   -1    0    0    0    0  0.00000000000E+00  0.00000000000E+00  0.45593999997E+02  0.45594000000E+02  0.51100000000E-03 0.  1.
         11   -1    0    0    0    0 -0.00000000000E+00 -0.00000000000E+00 -0.45593999997E+02  0.45594000000E+02  0.51100000000E-03 0. -1.
    9900012    2    1    2    0    0 -0.39967453588E+02 -0.13204291019E+02  0.10576987284E+02  0.47787270656E+02  0.19999998230E+02 0.  0.
        -12    1    1    2    0    0  0.39967453588E+02  0.13204291019E+02 -0.10576987284E+02  0.43400729344E+02  0.00000000000E+00 0.  1.
         11    1    3    3    0    0  0.68561384040E+00  0.14575224560E+01 -0.17120395615E+00  0.16197990936E+01  0.51100000000E-03 0. -1.
        -11    1    3    3    0    0 -0.16774112336E+02 -0.90983701355E+01  0.10211406725E+02  0.21643105400E+02  0.51100000000E-03 0.  1.
         12    1    3    3    0    0 -0.23878955092E+02 -0.55634433390E+01  0.53678451427E+00  0.24524366162E+02  0.00000000000E+00 0. -1.
</event>
<event>
 7    1  0.1457722E-010  0.4778727E+02  0.7816164E-02  0.1312668E+00
        -11   -1    0    0    0    0  0.00000000000E+00  0.00000000000E+00  0.45593999997E+02  0.45594000000E+02  0.51100000000E-03 0.  1.
         11   -1    0    0    0    0 -0.00000000000E+00 -0.00000000000E+00 -0.45593999997E+02  0.45594000000E+02  0.51100000000E-03 0. -1.
    9900012    2    1    2    0    0  0.10568374294E+01 -0.27454591489E+01 -0.43300908380E+02  0.47787272843E+02  0.20000008199E+02 0.  0.
        -12    1    1    2    0    0 -0.10568374294E+01  0.27454591489E+01  0.43300908380E+02  0.43400727157E+02  0.00000000000E+00 0.  1.
         11    1    3    3    0    0 -0.40345476259E+01  0.47275400011E+01 -0.14291639384E+02  0.15584548937E+02  0.51100000000E-03 0. -1.
        -11    1    3    3    0    0 -0.24683846139E+01  0.96359057111E+00 -0.52243561563E+01  0.58579285502E+01  0.51100000000E-03 0.  1.
         12    1    3    3    0    0  0.75597696692E+01 -0.84365897211E+01 -0.23784912839E+02  0.26344795356E+02  0.00000000000E+00 0. -1.
</event>
<event>
 7    1  0.1457722E-010  0.4778727E+02  0.7816164E-02  0.1312668E+00
        -11   -1    0    0    0    0  0.00000000000E+00  0.00000000000E+00  0.45593999997E+02  0.45594000000E+02  0.51100000000E-03 0.  1.
         11   -1    0    0    0    0 -0.00000000000E+00 -0.00000000000E+00 -0.45593999997E+02  0.45594000000E+02  0.51100000000E-03 0. -1.
    9900012    2    1    2    0    0 -0.38763125731E+02 -0.47806675078E+01 -0.18925873525E+02  0.47787269741E+02  0.19999994058E+02 0.  0.
        -12    1    1    2    0    0  0.38763125731E+02  0.47806675078E+01  0.18925873525E+02  0.43400730259E+02  0.00000000000E+00 0.  1.
         11    1    3    3    0    0 -0.63391681686E+01 -0.79210025987E+00 -0.56324948507E+01  0.85168934709E+01  0.51100000000E-03 0. -1.
        -11    1    3    3    0    0 -0.23424558043E+02 -0.10522641392E+02 -0.76237245207E+01  0.26787255873E+02  0.51100000000E-03 0.  1.
        -12    1    3    3    0    0 -0.89993995200E+01  0.65340741437E+01 -0.56696541541E+01  0.12483120398E+02  0.00000000000E+00 0.  1.
</event>
<event>
 7    1  0.1457722E-010  0.4778727E+02  0.7816164E-02  0.1312668E+00
        -11   -1    0    0    0    0  0.00000000000E+00  0.00000000000E+00  0.45593999997E+02  0.45594000000E+02  0.51100000000E-03 0. -1.
         11   -1    0    0    0    0 -0.00000000000E+00 -0.00000000000E+00 -0.45593999997E+02  0.45594000000E+02  0.51100000000E-03 0.  1.
    9900012    2    1    2    0    0 -0.40601920746E+02 -0.68028231170E+01  0.13741500384E+02  0.47787271856E+02  0.20000003701E+02 0.  0.
        -12    1    1    2    0    0  0.40601920746E+02  0.68028231170E+01 -0.13741500384E+02  0.43400728144E+02  0.00000000000E+00 0.  1.
         11    1    3    3    0    0 -0.58614543571E+01  0.27952888194E+01  0.29472138786E+01  0.71313642925E+01  0.51100000000E-03 0. -1.
        -11    1    3    3    0    0 -0.13577429696E+01  0.13965310823E+01  0.45627363899E+01  0.49610814003E+01  0.51100000000E-03 0.  1.
         12    1    3    3    0    0 -0.33382723419E+02 -0.10994643019E+02  0.62315501154E+01  0.35694826163E+02  0.00000000000E+00 0. -1.
</event>
<event>
 7    1  0.1457722E-010  0.4778727E+02  0.7816164E-02  0.1312668E+00
        -11   -1    0    0    0    0  0.00000000000E+00  0.00000000000E+00  0.45593999997E+02  0.45594000000E+02  0.51100000000E-03 0.  1.
         11   -1    0    0    0    0 -0.00000000000E+00 -0.00000000000E+00 -0.45593999997E+02  0.45594000000E+02  0.51100000000E-03 0. -1.
    9900012    2    1    2    0    0  0.29440513174E+02  0.73081392612E+01 -0.31039826476E+02  0.47787267943E+02  0.19999985860E+02 0.  0.
        -12    1    1    2    0    0 -0.29440513174E+02 -0.73081392612E+01  0.31039826476E+02  0.43400732057E+02  0.00000000000E+00 0.  1.
         11    1    3    3    0    0  0.10900365483E+02 -0.11501863526E+01 -0.12265215246E+02  0.16449206716E+02  0.51100000000E-03 0. -1.
        -11    1    3    3    0    0  0.52709975892E+01 -0.40942316986E+01 -0.35517332431E+01  0.75604866298E+01  0.51100000000E-03 0.  1.
        -12    1    3    3    0    0  0.13269150102E+02  0.12552557312E+02 -0.15222877987E+02  0.23777574597E+02  0.00000000000E+00 0.  1.
</event>
<event>
 7    1  0.1457722E-010  0.4778727E+02  0.7816164E-02  0.1312668E+00
        -11   -1    0    0    0    0  0.00000000000E+00  0.00000000000E+00  0.45593999997E+02  0.45594000000E+02  0.51100000000E-03 0.  1.
         11   -1    0    0    0    0 -0.00000000000E+00 -0.00000000000E+00 -0.45593999997E+02  0.45594000000E+02  0.51100000000E-03 0. -1.
    9900012    2    1    2    0    0 -0.33801954478E+02  0.26310814709E+02 -0.69851284696E+01  0.47787272852E+02  0.20000008242E+02 0.  0.
        -12    1    1    2    0    0  0.33801954478E+02 -0.26310814709E+02  0.69851284696E+01  0.43400727148E+02  0.00000000000E+00 0.  1.
         11    1    3    3    0    0 -0.18762323498E+01  0.11056736847E+01  0.14257953334E+01  0.26030087824E+01  0.51100000000E-03 0. -1.
        -11    1    3    3    0    0 -0.15962346442E+02  0.40968585716E+01  0.22895681498E+01  0.16637994971E+02  0.51100000000E-03 0.  1.
         12    1    3    3    0    0 -0.15963375687E+02  0.21108282453E+02 -0.10700491953E+02  0.28546269099E+02  0.00000000000E+00 0. -1.
</event>
<event>
 7    1  0.1457722E-010  0.4778727E+02  0.7816164E-02  0.1312668E+00
        -11   -1    0    0    0    0  0.00000000000E+00  0.00000000000E+00  0.45593999997E+02  0.45594000000E+02  0.51100000000E-03 0.  1.
         11   -1    0    0    0    0 -0.00000000000E+00 -0.00000000000E+00 -0.45593999997E+02  0.45594000000E+02  0.51100000000E-03 0. -1.
    9900012    2    1    2    0    0 -0.37826264056E+02  0.20123411209E+02 -0.69170437175E+01  0.47787269304E+02  0.19999992065E+02 0.  0.
        -12    1    1    2    0    0  0.37826264056E+02 -0.20123411209E+02  0.69170437175E+01  0.43400730696E+02  0.00000000000E+00 0.  1.
         11    1    3    3    0    0 -0.75124778071E+00  0.14058442253E+01  0.53868554526E+00  0.16825437859E+01  0.51100000000E-03 0. -1.
        -11    1    3    3    0    0 -0.37869428932E+02  0.17872747873E+02 -0.35441567830E+01  0.42024871347E+02  0.51100000000E-03 0.  1.
        -12    1    3    3    0    0  0.79441265589E+00  0.84481911027E+00 -0.39115724797E+01  0.40798541715E+01  0.00000000000E+00 0.  1.
</event>
<event>
 7    1  0.1457722E-010  0.4778727E+02  0.7816164E-02  0.1312668E+00
        -11   -1    0    0    0    0  0.00000000000E+00  0.00000000000E+00  0.45593999997E+02  0.45594000000E+02  0.51100000000E-03 0. -1.
         11   -1    0    0    0    0 -0.00000000000E+00 -0.00000000000E+00 -0.45593999997E+02  0.45594000000E+02  0.51100000000E-03 0.  1.
    9900012    2    1    2    0    0 -0.10679305593E+02  0.23283572330E+02  0.35034995138E+02  0.47787271980E+02  0.20000004264E+02 0.  0.
        -12    1    1    2    0    0  0.10679305593E+02 -0.23283572330E+02 -0.35034995138E+02  0.43400728020E+02  0.00000000000E+00 0.  1.
         11    1    3    3    0    0 -0.62891027979E+01  0.13101452214E+02  0.30514447122E+02  0.33798407471E+02  0.51100000000E-03 0. -1.
        -11    1    3    3    0    0 -0.20808328170E+01 -0.55717395526E-01 -0.79031731613E+00  0.22265604330E+01  0.51100000000E-03 0.  1.
        -12    1    3    3    0    0 -0.23093699777E+01  0.10237837511E+02  0.53108653317E+01  0.11762304076E+02  0.00000000000E+00 0.  1.
</event>
<event>
 7    1  0.1457722E-010  0.4778727E+02  0.7816164E-02  0.1312668E+00
        -11   -1    0    0    0    0  0.00000000000E+00  0.00000000000E+00  0.45593999997E+02  0.45594000000E+02  0.51100000000E-03 0. -1.
         11   -1    0    0    0    0 -0.00000000000E+00 -0.00000000000E+00 -0.45593999997E+02  0.45594000000E+02  0.51100000000E-03 0.  1.
    9900012    2    1    2    0    0 -0.96728290650E+01  0.39116120456E+02  0.16124165089E+02  0.47787271879E+02  0.20000003805E+02 0.  0.
        -12    1    1    2    0    0  0.96728290650E+01 -0.39116120456E+02 -0.16124165089E+02  0.43400728121E+02  0.00000000000E+00 0.  1.
         11    1    3    3    0    0 -0.44826284170E+01  0.64273313510E+01 -0.56857690956E+00  0.78567057845E+01  0.51100000000E-03 0. -1.
        -11    1    3    3    0    0 -0.47777735245E+01  0.62852000617E+01 -0.12657843221E+01  0.79958157732E+01  0.51100000000E-03 0.  1.
         12    1    3    3    0    0 -0.41242712355E+00  0.26403589043E+02  0.17958526321E+02  0.31934750321E+02  0.00000000000E+00 0. -1.
</event>
<event>
 7    1  0.1457722E-010  0.4778728E+02  0.7816164E-02  0.1312668E+00
        -11   -1    0    0    0    0  0.00000000000E+00  0.00000000000E+00  0.45593999997E+02  0.45594000000E+02  0.51100000000E-03 0.  1.
         11   -1    0    0    0    0 -0.00000000000E+00 -0.00000000000E+00 -0.45593999997E+02  0.45594000000E+02  0.51100000000E-03 0. -1.
    9900012    2    1    2    0    0  0.34443449110E+01  0.15113715840E+02 -0.40538061780E+02  0.47787281443E+02  0.20000047412E+02 0.  0.
        -12    1    1    2    0    0 -0.34443449110E+01 -0.15113715840E+02  0.40538061780E+02  0.43400718557E+02  0.00000000000E+00 0.  1.
         11    1    3    3    0    0  0.44626984385E+01  0.30727964776E+01 -0.16609302252E+02  0.17470737738E+02  0.51100000000E-03 0. -1.
        -11    1    3    3    0    0  0.15090593184E-01  0.15244345089E+02 -0.19344803426E+02  0.24629488520E+02  0.51100000000E-03 0.  1.
        -12    1    3    3    0    0 -0.10334441208E+01 -0.32034257264E+01 -0.45839561024E+01  0.56870551855E+01  0.00000000000E+00 0.  1.
</event>
<event>
 7    1  0.1457722E-010  0.4778727E+02  0.7816164E-02  0.1312668E+00
        -11   -1    0    0    0    0  0.00000000000E+00  0.00000000000E+00  0.45593999997E+02  0.45594000000E+02  0.51100000000E-03 0.  1.
         11   -1    0    0    0    0 -0.00000000000E+00 -0.00000000000E+00 -0.45593999997E+02  0.45594000000E+02  0.51100000000E-03 0. -1.
    9900012    2    1    2    0    0  0.16447111590E+02 -0.16592975183E+02 -0.36575801510E+02  0.47787267735E+02  0.19999984910E+02 0.  0.
        -12    1    1    2    0    0 -0.16447111590E+02  0.16592975183E+02  0.36575801510E+02  0.43400732265E+02  0.00000000000E+00 0.  1.
         11    1    3    3    0    0  0.92482654275E+01  0.45968428557E+00 -0.15703129666E+02  0.18229920587E+02  0.51100000000E-03 0. -1.
        -11    1    3    3    0    0  0.81617480758E+01 -0.98232223305E+01 -0.90018878886E+01  0.15625102061E+02  0.51100000000E-03 0.  1.
        -12    1    3    3    0    0 -0.96290191328E+00 -0.72294371381E+01 -0.11870783955E+02  0.13932245086E+02  0.00000000000E+00 0.  1.
</event>
<event>
 7    1  0.1457722E-010  0.4778727E+02  0.7816164E-02  0.1312668E+00
        -11   -1    0    0    0    0  0.00000000000E+00  0.00000000000E+00  0.45593999997E+02  0.45594000000E+02  0.51100000000E-03 0.  1.
         11   -1    0    0    0    0 -0.00000000000E+00 -0.00000000000E+00 -0.45593999997E+02  0.45594000000E+02  0.51100000000E-03 0. -1.
    9900012    2    1    2    0    0 -0.36497161693E+02  0.14483578424E+02  0.18488010321E+02  0.47787269807E+02  0.19999994360E+02 0.  0.
        -12    1    1    2    0    0  0.36497161693E+02 -0.14483578424E+02 -0.18488010321E+02  0.43400730193E+02  0.00000000000E+00 0.  1.
         11    1    3    3    0    0 -0.75873377274E+01 -0.12959286970E+01  0.58306541627E+01  0.96562753276E+01  0.51100000000E-03 0. -1.
        -11    1    3    3    0    0 -0.22700621083E+02  0.16831741197E+02  0.14229159775E+02  0.31640080553E+02  0.51100000000E-03 0.  1.
         12    1    3    3    0    0 -0.62092028829E+01 -0.10522340759E+01 -0.15718036166E+01  0.64909139264E+01  0.00000000000E+00 0. -1.
</event>
<event>
 7    1  0.1506386E-010  0.4778727E+02  0.7816164E-02  0.1312668E+00
        -11   -1    0    0    0    0  0.00000000000E+00  0.00000000000E+00  0.45593999997E+02  0.45594000000E+02  0.51100000000E-03 0.  1.
         11   -1    0    0    0    0 -0.00000000000E+00 -0.00000000000E+00 -0.45593999997E+02  0.45594000000E+02  0.51100000000E-03 0. -1.
    9900012    2    1    2    0    0 -0.52320084094E+01  0.37436003360E+02 -0.21325926765E+02  0.47787269454E+02  0.19999992746E+02 0.  0.
        -12    1    1    2    0    0  0.52320084094E+01 -0.37436003360E+02  0.21325926765E+02  0.43400730546E+02  0.00000000000E+00 0.  1.
         11    1    3    3    0    0 -0.28746956370E+01  0.23353473234E+02 -0.16733007115E+02  0.28872861210E+02  0.51100000000E-03 0. -1.
        -11    1    3    3    0    0 -0.70545077344E+01  0.80771251982E+01 -0.26884595822E+01  0.11055941662E+02  0.51100000000E-03 0.  1.
         12    1    3    3    0    0  0.46971949620E+01  0.60054049283E+01 -0.19044600673E+01  0.78584665814E+01  0.00000000000E+00 0. -1.
</event>
<event>
 7    1  0.1550610E-010  0.4778727E+02  0.7816164E-02  0.1312668E+00
        -11   -1    0    0    0    0  0.00000000000E+00  0.00000000000E+00  0.45593999997E+02  0.45594000000E+02  0.51100000000E-03 0. -1.
         11   -1    0    0    0    0 -0.00000000000E+00 -0.00000000000E+00 -0.45593999997E+02  0.45594000000E+02  0.51100000000E-03 0.  1.
    9900012    2    1    2    0    0  0.32201618521E+02  0.14668898576E+02  0.25129714924E+02  0.47787269673E+02  0.19999993745E+02 0.  0.
        -12    1    1    2    0    0 -0.32201618521E+02 -0.14668898576E+02 -0.25129714924E+02  0.43400730327E+02  0.00000000000E+00 0.  1.
         11    1    3    3    0    0  0.20501636012E+02  0.42033774533E+01  0.14523851007E+02  0.25474059541E+02  0.51100000000E-03 0.  1.
        -11    1    3    3    0    0  0.16905392470E+01  0.19047255135E+01  0.86261269711E+01  0.89942186437E+01  0.51100000000E-03 0. -1.
        -12    1    3    3    0    0  0.10009443262E+02  0.85607956090E+01  0.19797369458E+01  0.13318991488E+02  0.00000000000E+00 0.  1.
</event>
<event>
 7    1  0.1457722E-010  0.4778726E+02  0.7816164E-02  0.1312668E+00
        -11   -1    0    0    0    0  0.00000000000E+00  0.00000000000E+00  0.45593999997E+02  0.45594000000E+02  0.51100000000E-03 0.  1.
         11   -1    0    0    0    0 -0.00000000000E+00 -0.00000000000E+00 -0.45593999997E+02  0.45594000000E+02  0.51100000000E-03 0. -1.
    9900012    2    1    2    0    0 -0.34715008325E+02 -0.93541430697E+01 -0.24310336422E+02  0.47787259770E+02  0.19999948594E+02 0.  0.
        -12    1    1    2    0    0  0.34715008325E+02  0.93541430697E+01  0.24310336422E+02  0.43400740230E+02  0.00000000000E+00 0.  1.
         11    1    3    3    0    0 -0.14736965092E+02 -0.53344155262E+01 -0.60130017372E+01  0.16786611310E+02  0.51100000000E-03 0. -1.
        -11    1    3    3    0    0  0.22923337216E+01 -0.18894175980E+00 -0.85244046412E+00  0.24529875429E+01  0.51100000000E-03 0.  1.
         12    1    3    3    0    0 -0.22270376955E+02 -0.38307857837E+01 -0.17444894221E+02  0.28547660917E+02  0.00000000000E+00 0. -1.
</event>
<event>
 7    1  0.1457722E-010  0.4778727E+02  0.7816164E-02  0.1312668E+00
        -11   -1    0    0    0    0  0.00000000000E+00  0.00000000000E+00  0.45593999997E+02  0.45594000000E+02  0.51100000000E-03 0.  1.
         11   -1    0    0    0    0 -0.00000000000E+00 -0.00000000000E+00 -0.45593999997E+02  0.45594000000E+02  0.51100000000E-03 0. -1.
    9900012    2    1    2    0    0  0.34300885973E+02 -0.72937880928E+01 -0.25570937022E+02  0.47787274851E+02  0.20000017356E+02 0.  0.
        -12    1    1    2    0    0 -0.34300885973E+02  0.72937880928E+01  0.25570937022E+02  0.43400725149E+02  0.00000000000E+00 0.  1.
         11    1    3    3    0    0  0.94472703867E+01  0.99490867496E+00 -0.27945435744E+01  0.99020318663E+01  0.51100000000E-03 0. -1.
        -11    1    3    3    0    0  0.12821940803E+01 -0.64503639777E+01 -0.40403325151E+01  0.77185169688E+01  0.51100000000E-03 0.  1.
        -12    1    3    3    0    0  0.23571421506E+02 -0.18383327901E+01 -0.18736060933E+02  0.30166726016E+02  0.00000000000E+00 0.  1.
</event>
<event>
 7    1  0.1457722E-010  0.4778727E+02  0.7816164E-02  0.1312668E+00
        -11   -1    0    0    0    0  0.00000000000E+00  0.00000000000E+00  0.45593999997E+02  0.45594000000E+02  0.51100000000E-03 0.  1.
         11   -1    0    0    0    0 -0.00000000000E+00 -0.00000000000E+00 -0.45593999997E+02  0.45594000000E+02  0.51100000000E-03 0. -1.
    9900012    2    1    2    0    0 -0.23957193451E+01 -0.37219256596E+02 -0.22194835006E+02  0.47787271508E+02  0.20000002113E+02 0.  0.
        -12    1    1    2    0    0  0.23957193451E+01  0.37219256596E+02  0.22194835006E+02  0.43400728492E+02  0.00000000000E+00 0.  1.
         11    1    3    3    0    0  0.41794846853E+01 -0.16912177738E+02 -0.12162488324E+02  0.21246551969E+02  0.51100000000E-03 0. -1.
        -11    1    3    3    0    0 -0.92117128608E+01 -0.14767057649E+02 -0.10601085776E+02  0.20379025132E+02  0.51100000000E-03 0.  1.
         12    1    3    3    0    0  0.26365088304E+01 -0.55400212082E+01  0.56873909455E+00  0.61616944064E+01  0.00000000000E+00 0. -1.
</event>
<event>
 7    1  0.1457722E-010  0.4778727E+02  0.7816164E-02  0.1312668E+00
        -11   -1    0    0    0    0  0.00000000000E+00  0.00000000000E+00  0.45593999997E+02  0.45594000000E+02  0.51100000000E-03 0.  1.
         11   -1    0    0    0    0 -0.00000000000E+00 -0.00000000000E+00 -0.45593999997E+02  0.45594000000E+02  0.51100000000E-03 0. -1.
    9900012    2    1    2    0    0  0.39181021406E+01  0.36806503898E+02 -0.22661704683E+02  0.47787272901E+02  0.20000008466E+02 0.  0.
        -12    1    1    2    0    0 -0.39181021406E+01 -0.36806503898E+02  0.22661704683E+02  0.43400727099E+02  0.00000000000E+00 0.  1.
         11    1    3    3    0    0 -0.71812897076E+00  0.13518515997E+02 -0.20737015894E+01  0.13695481828E+02  0.51100000000E-03 0. -1.
        -11    1    3    3    0    0  0.69767774853E+01  0.48034264263E+01 -0.53153050730E+01  0.10000039890E+02  0.51100000000E-03 0.  1.
         12    1    3    3    0    0 -0.23405463740E+01  0.18484561475E+02 -0.15272698021E+02  0.24091751183E+02  0.00000000000E+00 0. -1.
</event>
<event>
 7    1  0.1457722E-010  0.4778722E+02  0.7816164E-02  0.1312668E+00
        -11   -1    0    0    0    0  0.00000000000E+00  0.00000000000E+00  0.45593999997E+02  0.45594000000E+02  0.51100000000E-03 0. -1.
         11   -1    0    0    0    0 -0.00000000000E+00 -0.00000000000E+00 -0.45593999997E+02  0.45594000000E+02  0.51100000000E-03 0.  1.
    9900012    2    1    2    0    0  0.36295756611E+02 -0.88578800420E+01  0.22085827714E+02  0.47787219216E+02  0.19999763693E+02 0.  0.
        -12    1    1    2    0    0 -0.36295756611E+02  0.88578800420E+01 -0.22085827714E+02  0.43400780784E+02  0.00000000000E+00 0.  1.
         11    1    3    3    0    0  0.30054954808E+02 -0.12612406929E+02  0.13659604965E+02  0.35340598822E+02  0.51100000000E-03 0. -1.
        -11    1    3    3    0    0 -0.90483746842E+00 -0.26719784303E+00  0.11169685000E+01  0.14621027402E+01  0.51100000000E-03 0.  1.
         12    1    3    3    0    0  0.71456392711E+01  0.40217247298E+01  0.73092542498E+01  0.10984517654E+02  0.00000000000E+00 0. -1.
</event>
<event>
 7    1  0.1457722E-010  0.4778727E+02  0.7816164E-02  0.1312668E+00
        -11   -1    0    0    0    0  0.00000000000E+00  0.00000000000E+00  0.45593999997E+02  0.45594000000E+02  0.51100000000E-03 0.  1.
         11   -1    0    0    0    0 -0.00000000000E+00 -0.00000000000E+00 -0.45593999997E+02  0.45594000000E+02  0.51100000000E-03 0. -1.
    9900012    2    1    2    0    0  0.36685931760E+01  0.10189578181E+02 -0.42027815946E+02  0.47787269677E+02  0.19999993765E+02 0.  0.
        -12    1    1    2    0    0 -0.36685931760E+01 -0.10189578181E+02  0.42027815946E+02  0.43400730323E+02  0.00000000000E+00 0.  1.
         11    1    3    3    0    0  0.30064814323E+01 -0.10793073745E+01 -0.75985975089E+01  0.82427252396E+01  0.51100000000E-03 0. -1.
        -11    1    3    3    0    0 -0.57933567287E+00  0.14021253510E+02 -0.17916900179E+02  0.22758437822E+02  0.51100000000E-03 0.  1.
        -12    1    3    3    0    0  0.12414474166E+01 -0.27523679543E+01 -0.16512318258E+02  0.16786106615E+02  0.00000000000E+00 0.  1.
</event>
<event>
 7    1  0.1457722E-010  0.4778727E+02  0.7816164E-02  0.1312668E+00
        -11   -1    0    0    0    0  0.00000000000E+00  0.00000000000E+00  0.45593999997E+02  0.45594000000E+02  0.51100000000E-03 0.  1.
         11   -1    0    0    0    0 -0.00000000000E+00 -0.00000000000E+00 -0.45593999997E+02  0.45594000000E+02  0.51100000000E-03 0. -1.
    9900012    2    1    2    0    0  0.13190811825E+02  0.89993516338E+01 -0.40356379257E+02  0.47787271975E+02  0.20000004241E+02 0.  0.
        -12    1    1    2    0    0 -0.13190811825E+02 -0.89993516338E+01  0.40356379257E+02  0.43400728025E+02  0.00000000000E+00 0.  1.
         11    1    3    3    0    0  0.56687741219E+01 -0.52960417664E+00 -0.12127568487E+02  0.13397514631E+02  0.51100000000E-03 0. -1.
        -11    1    3    3    0    0  0.30573697935E+01 -0.25315623890E+01 -0.73506609695E+00  0.40369097849E+01  0.51100000000E-03 0.  1.
         12    1    3    3    0    0  0.44646679094E+01  0.12060518199E+02 -0.27493744673E+02  0.30352847559E+02  0.00000000000E+00 0. -1.
</event>
<event>
 7    1  0.1457722E-010  0.4778727E+02  0.7816164E-02  0.1312668E+00
        -11   -1    0    0    0    0  0.00000000000E+00  0.00000000000E+00  0.45593999997E+02  0.45594000000E+02  0.51100000000E-03 0.  1.
         11   -1    0    0    0    0 -0.00000000000E+00 -0.00000000000E+00 -0.45593999997E+02  0.45594000000E+02  0.51100000000E-03 0. -1.
    9900012    2    1    2    0    0  0.34675671283E+02 -0.13959654177E+02 -0.22053327685E+02  0.47787269757E+02  0.19999994131E+02 0.  0.
        -12    1    1    2    0    0 -0.34675671283E+02  0.13959654177E+02  0.22053327685E+02  0.43400730243E+02  0.00000000000E+00 0.  1.
         11    1    3    3    0    0  0.84601992107E+01 -0.52038636336E+01 -0.10154854638E+02  0.14204796387E+02  0.51100000000E-03 0. -1.
        -11    1    3    3    0    0  0.27352234710E+02 -0.68350990995E+01 -0.83738304907E+01  0.29410616462E+02  0.51100000000E-03 0.  1.
        -12    1    3    3    0    0 -0.11367626380E+01 -0.19206914436E+01 -0.35246425561E+01  0.41718569085E+01  0.00000000000E+00 0.  1.
</event>
<event>
 7    1  0.1457722E-010  0.4778727E+02  0.7816164E-02  0.1312668E+00
        -11   -1    0    0    0    0  0.00000000000E+00  0.00000000000E+00  0.45593999997E+02  0.45594000000E+02  0.51100000000E-03 0.  1.
         11   -1    0    0    0    0 -0.00000000000E+00 -0.00000000000E+00 -0.45593999997E+02  0.45594000000E+02  0.51100000000E-03 0. -1.
    9900012    2    1    2    0    0 -0.24874568669E+02 -0.12346566093E+02 -0.33353279431E+02  0.47787272938E+02  0.20000008631E+02 0.  0.
        -12    1    1    2    0    0  0.24874568669E+02  0.12346566093E+02  0.33353279431E+02  0.43400727062E+02  0.00000000000E+00 0.  1.
         11    1    3    3    0    0 -0.80312359710E+01 -0.67750310913E+01 -0.17660459681E+02  0.20549784279E+02  0.51100000000E-03 0. -1.
        -11    1    3    3    0    0 -0.17051675915E+02 -0.81757542622E+01 -0.11028462911E+02  0.21891313430E+02  0.51100000000E-03 0.  1.
        -12    1    3    3    0    0  0.20834321635E+00  0.26042192608E+01 -0.46643568384E+01  0.53461752281E+01  0.00000000000E+00 0.  1.
</event>
<event>
 7    1  0.1457722E-010  0.4778727E+02  0.7816164E-02  0.1312668E+00
        -11   -1    0    0    0    0  0.00000000000E+00  0.00000000000E+00  0.45593999997E+02  0.45594000000E+02  0.51100000000E-03 0. -1.
         11   -1    0    0    0    0 -0.00000000000E+00 -0.00000000000E+00 -0.45593999997E+02  0.45594000000E+02  0.51100000000E-03 0.  1.
    9900012    2    1    2    0    0 -0.39718310331E+02  0.11098052119E+02 -0.13524513378E+02  0.47787269609E+02  0.19999993455E+02 0.  0.
        -12    1    1    2    0    0  0.39718310331E+02 -0.11098052119E+02  0.13524513378E+02  0.43400730391E+02  0.00000000000E+00 0.  1.
         11    1    3    3    0    0 -0.52846360291E+01  0.24159958205E+01  0.40213399739E+01  0.70665118136E+01  0.51100000000E-03 0. -1.
        -11    1    3    3    0    0 -0.89123607470E+01  0.57601524656E+01 -0.81045603817E+01  0.13352656281E+02  0.51100000000E-03 0.  1.
         12    1    3    3    0    0 -0.25521313555E+02  0.29219038331E+01 -0.94412929701E+01  0.27368101515E+02  0.00000000000E+00 0. -1.
</event>
<event>
 7    1  0.1457722E-010  0.4778727E+02  0.7816164E-02  0.1312668E+00
        -11   -1    0    0    0    0  0.00000000000E+00  0.00000000000E+00  0.45593999997E+02  0.45594000000E+02  0.51100000000E-03 0.  1.
         11   -1    0    0    0    0 -0.00000000000E+00 -0.00000000000E+00 -0.45593999997E+02  0.45594000000E+02  0.51100000000E-03 0. -1.
    9900012    2    1    2    0    0  0.34615497424E+02  0.25676870621E+02 -0.51077065465E+01  0.47787274050E+02  0.20000013702E+02 0.  0.
        -12    1    1    2    0    0 -0.34615497424E+02 -0.25676870621E+02  0.51077065465E+01  0.43400725950E+02  0.00000000000E+00 0.  1.
         11    1    3    3    0    0  0.15924645778E+02  0.64975676137E+01 -0.35241582138E+01  0.17556549189E+02  0.51100000000E-03 0. -1.
        -11    1    3    3    0    0  0.80070186344E+01  0.73974220195E+00  0.27214896128E+01  0.84891738061E+01  0.51100000000E-03 0.  1.
         12    1    3    3    0    0  0.10683833012E+02  0.18439560806E+02 -0.43050379455E+01  0.21741551054E+02  0.00000000000E+00 0. -1.
</event>
<event>
 7    1  0.1457722E-010  0.4778727E+02  0.7816164E-02  0.1312668E+00
        -11   -1    0    0    0    0  0.00000000000E+00  0.00000000000E+00  0.45593999997E+02  0.45594000000E+02  0.51100000000E-03 0.  1.
         11   -1    0    0    0    0 -0.00000000000E+00 -0.00000000000E+00 -0.45593999997E+02  0.45594000000E+02  0.51100000000E-03 0. -1.
    9900012    2    1    2    0    0  0.11457015430E+02 -0.26798848706E+02 -0.32158699967E+02  0.47787268692E+02  0.19999989273E+02 0.  0.
        -12    1    1    2    0    0 -0.11457015430E+02  0.26798848706E+02  0.32158699967E+02  0.43400731308E+02  0.00000000000E+00 0.  1.
         11    1    3    3    0    0  0.54044889328E+01 -0.96444040909E+01 -0.15522978152E+02  0.19057436393E+02  0.51100000000E-03 0. -1.
        -11    1    3    3    0    0  0.29585815636E+01 -0.18604529435E+02 -0.10149049403E+02  0.21398245826E+02  0.51100000000E-03 0.  1.
         12    1    3    3    0    0  0.30939449336E+01  0.14500848198E+01 -0.64866724121E+01  0.73315864735E+01  0.00000000000E+00 0. -1.
</event>
<event>
 7    1  0.1457722E-010  0.4778728E+02  0.7816164E-02  0.1312668E+00
        -11   -1    0    0    0    0  0.00000000000E+00  0.00000000000E+00  0.45593999997E+02  0.45594000000E+02  0.51100000000E-03 0. -1.
         11   -1    0    0    0    0 -0.00000000000E+00 -0.00000000000E+00 -0.45593999997E+02  0.45594000000E+02  0.51100000000E-03 0.  1.
    9900012    2    1    2    0    0 -0.28559224821E+02  0.81376189147E+01  0.31650788448E+02  0.47787279115E+02  0.20000036795E+02 0.  0.
        -12    1    1    2    0    0  0.28559224821E+02 -0.81376189147E+01 -0.31650788448E+02  0.43400720885E+02  0.00000000000E+00 0.  1.
         11    1    3    3    0    0 -0.87561941828E+00  0.76697149109E+00  0.17238662512E+00  0.11767208860E+01  0.51100000000E-03 0. -1.
        -11    1    3    3    0    0 -0.24013003571E+01 -0.36472368226E+01  0.12210165016E+02  0.12967525200E+02  0.51100000000E-03 0.  1.
         12    1    3    3    0    0 -0.25282305046E+02  0.11017884246E+02  0.19268236807E+02  0.33643033028E+02  0.00000000000E+00 0. -1.
</event>
<event>
 7    1  0.1457722E-010  0.4778727E+02  0.7816164E-02  0.1312668E+00
        -11   -1    0    0    0    0  0.00000000000E+00  0.00000000000E+00  0.45593999997E+02  0.45594000000E+02  0.51100000000E-03 0.  1.
         11   -1    0    0    0    0 -0.00000000000E+00 -0.00000000000E+00 -0.45593999997E+02  0.45594000000E+02  0.51100000000E-03 0. -1.
    9900012    2    1    2    0    0  0.36524119647E+02 -0.23442376059E+02  0.25907885480E+00  0.47787269210E+02  0.19999991636E+02 0.  0.
        -12    1    1    2    0    0 -0.36524119647E+02  0.23442376059E+02 -0.25907885480E+00  0.43400730790E+02  0.00000000000E+00 0.  1.
         11    1    3    3    0    0  0.10905931041E+02 -0.21390745178E+01 -0.26292095429E+01  0.11420495381E+02  0.51100000000E-03 0. -1.
        -11    1    3    3    0    0  0.80083725361E+00 -0.76443035929E+01 -0.10823249665E+01  0.77619678769E+01  0.51100000000E-03 0.  1.
         12    1    3    3    0    0  0.24817351352E+02 -0.13658997948E+02  0.39706133642E+01  0.28604805952E+02  0.00000000000E+00 0. -1.
</event>
<event>
 7    1  0.1457722E-010  0.4778728E+02  0.7816164E-02  0.1312668E+00
        -11   -1    0    0    0    0  0.00000000000E+00  0.00000000000E+00  0.45593999997E+02  0.45594000000E+02  0.51100000000E-03 0.  1.
         11   -1    0    0    0    0 -0.00000000000E+00 -0.00000000000E+00 -0.45593999997E+02  0.45594000000E+02  0.51100000000E-03 0. -1.
    9900012    2    1    2    0    0 -0.30926922172E+02 -0.17450532173E+02 -0.24952486936E+02  0.47787283504E+02  0.20000056807E+02 0.  0.
        -12    1    1    2    0    0  0.30926922172E+02  0.17450532173E+02  0.24952486936E+02  0.43400716496E+02  0.00000000000E+00 0.  1.
         11    1    3    3    0    0  0.54221441292E+00 -0.35568440920E+00  0.17111446474E+01  0.18298973015E+01  0.51100000000E-03 0.  1.
        -11    1    3    3    0    0 -0.19218721599E+02 -0.11392171694E+02 -0.99293755938E+01  0.24448585558E+02  0.51100000000E-03 0. -1.
         12    1    3    3    0    0 -0.12250414985E+02 -0.57026760691E+01 -0.16734255989E+02  0.21508800645E+02  0.00000000000E+00 0. -1.
</event>
<event>
 7    1  0.1457722E-010  0.4778727E+02  0.7816164E-02  0.1312668E+00
        -11   -1    0    0    0    0  0.00000000000E+00  0.00000000000E+00  0.45593999997E+02  0.45594000000E+02  0.51100000000E-03 0.  1.
         11   -1    0    0    0    0 -0.00000000000E+00 -0.00000000000E+00 -0.45593999997E+02  0.45594000000E+02  0.51100000000E-03 0. -1.
    9900012    2    1    2    0    0  0.40640123924E+01 -0.42300918639E+02 -0.88170021446E+01  0.47787269117E+02  0.19999991210E+02 0.  0.
        -12    1    1    2    0    0 -0.40640123924E+01  0.42300918639E+02  0.88170021446E+01  0.43400730883E+02  0.00000000000E+00 0.  1.
         11    1    3    3    0    0  0.59454387100E+01 -0.46484126193E+01 -0.50633486211E+00  0.75638850195E+01  0.51100000000E-03 0. -1.
        -11    1    3    3    0    0 -0.22085567534E+01 -0.30631720303E+02 -0.19978393607E+01  0.30776149435E+02  0.51100000000E-03 0.  1.
         12    1    3    3    0    0  0.32713043571E+00 -0.70207857162E+01 -0.63128279218E+01  0.94472346623E+01  0.00000000000E+00 0. -1.
</event>
<event>
 7    1  0.1457722E-010  0.4778727E+02  0.7816164E-02  0.1312668E+00
        -11   -1    0    0    0    0  0.00000000000E+00  0.00000000000E+00  0.45593999997E+02  0.45594000000E+02  0.51100000000E-03 0. -1.
         11   -1    0    0    0    0 -0.00000000000E+00 -0.00000000000E+00 -0.45593999997E+02  0.45594000000E+02  0.51100000000E-03 0.  1.
    9900012    2    1    2    0    0  0.15778041769E+02  0.29449926410E+02  0.27701597450E+02  0.47787271102E+02  0.20000000262E+02 0.  0.
        -12    1    1    2    0    0 -0.15778041769E+02 -0.29449926410E+02 -0.27701597450E+02  0.43400728898E+02  0.00000000000E+00 0.  1.
         11    1    3    3    0    0  0.58348652860E+01  0.16000500334E+02  0.23538597532E+02  0.29053867864E+02  0.51100000000E-03 0. -1.
        -11    1    3    3    0    0  0.50639691417E+01  0.15803502241E+01  0.22354755578E+01  0.57566171950E+01  0.51100000000E-03 0.  1.
         12    1    3    3    0    0  0.48792073411E+01  0.11869075851E+02  0.19275243609E+01  0.12976786043E+02  0.00000000000E+00 0. -1.
</event>
<event>
 7    1  0.1457722E-010  0.4778727E+02  0.7816164E-02  0.1312668E+00
        -11   -1    0    0    0    0  0.00000000000E+00  0.00000000000E+00  0.45593999997E+02  0.45594000000E+02  0.51100000000E-03 0.  1.
         11   -1    0    0    0    0 -0.00000000000E+00 -0.00000000000E+00 -0.45593999997E+02  0.45594000000E+02  0.51100000000E-03 0. -1.
    9900012    2    1    2    0    0  0.16087185669E+02  0.38560619970E+02 -0.11743266637E+02  0.47787271129E+02  0.20000000387E+02 0.  0.
        -12    1    1    2    0    0 -0.16087185669E+02 -0.38560619970E+02  0.11743266637E+02  0.43400728871E+02  0.00000000000E+00 0.  1.
         11    1    3    3    0    0  0.13635792724E+02  0.17800458474E+02 -0.70097768854E+01  0.23493150860E+02  0.51100000000E-03 0. -1.
        -11    1    3    3    0    0  0.28805820713E+01  0.12772763328E+02  0.27061103458E+01  0.13370275598E+02  0.51100000000E-03 0.  1.
         12    1    3    3    0    0 -0.42918912640E+00  0.79873981685E+01 -0.74396000970E+01  0.10923844672E+02  0.00000000000E+00 0. -1.
</event>
<event>
 7    1  0.1457722E-010  0.4778727E+02  0.7816164E-02  0.1312668E+00
        -11   -1    0    0    0    0  0.00000000000E+00  0.00000000000E+00  0.45593999997E+02  0.45594000000E+02  0.51100000000E-03 0.  1.
         11   -1    0    0    0    0 -0.00000000000E+00 -0.00000000000E+00 -0.45593999997E+02  0.45594000000E+02  0.51100000000E-03 0. -1.
    9900012    2    1    2    0    0  0.36022628171E+02  0.20817476405E+02 -0.12354199442E+02  0.47787270650E+02  0.19999998203E+02 0.  0.
        -12    1    1    2    0    0 -0.36022628171E+02 -0.20817476405E+02  0.12354199442E+02  0.43400729350E+02  0.00000000000E+00 0.  1.
         11    1    3    3    0    0  0.10118333003E+02  0.13514527463E+01 -0.29158493359E+01  0.10616461977E+02  0.51100000000E-03 0. -1.
        -11    1    3    3    0    0  0.10960809737E+02  0.30352799131E+01 -0.97172953857E+01  0.14959214689E+02  0.51100000000E-03 0.  1.
         12    1    3    3    0    0  0.14943485431E+02  0.16430743746E+02  0.27894528010E+00  0.22211593984E+02  0.00000000000E+00 0. -1.
</event>
<event>
 7    1  0.1457722E-010  0.4778727E+02  0.7816164E-02  0.1312668E+00
        -11   -1    0    0    0    0  0.00000000000E+00  0.00000000000E+00  0.45593999997E+02  0.45594000000E+02  0.51100000000E-03 0.  1.
         11   -1    0    0    0    0 -0.00000000000E+00 -0.00000000000E+00 -0.45593999997E+02  0.45594000000E+02  0.51100000000E-03 0. -1.
    9900012    2    1    2    0    0 -0.77730374899E+01 -0.10247869329E+02 -0.41450985913E+02  0.47787272232E+02  0.20000005417E+02 0.  0.
        -12    1    1    2    0    0  0.77730374899E+01  0.10247869329E+02  0.41450985913E+02  0.43400727768E+02  0.00000000000E+00 0.  1.
         11    1    3    3    0    0 -0.25457434681E+01 -0.23256452197E+01 -0.15863810782E+02  0.16234220902E+02  0.51100000000E-03 0. -1.
        -11    1    3    3    0    0 -0.68520960918E+01 -0.26234380632E+01 -0.24105724041E+01  0.77229856726E+01  0.51100000000E-03 0.  1.
        -12    1    3    3    0    0  0.16248020700E+01 -0.52987860465E+01 -0.23176602726E+02  0.23830065658E+02  0.00000000000E+00 0.  1.
</event>
<event>
 7    1  0.1457722E-010  0.4778727E+02  0.7816164E-02  0.1312668E+00
        -11   -1    0    0    0    0  0.00000000000E+00  0.00000000000E+00  0.45593999997E+02  0.45594000000E+02  0.51100000000E-03 0.  1.
         11   -1    0    0    0    0 -0.00000000000E+00 -0.00000000000E+00 -0.45593999997E+02  0.45594000000E+02  0.51100000000E-03 0. -1.
    9900012    2    1    2    0    0  0.36668143504E+02 -0.96272567834E+01 -0.21127865827E+02  0.47787268030E+02  0.19999986254E+02 0.  0.
        -12    1    1    2    0    0 -0.36668143504E+02  0.96272567834E+01  0.21127865827E+02  0.43400731970E+02  0.00000000000E+00 0.  1.
         11    1    3    3    0    0  0.32862074558E+02 -0.12034338915E+02 -0.20686384756E+02  0.40653016763E+02  0.51100000000E-03 0. -1.
        -11    1    3    3    0    0  0.78090717888E+00  0.30931423613E+01 -0.18928996673E+01  0.37095033496E+01  0.51100000000E-03 0.  1.
         12    1    3    3    0    0  0.30251617667E+01 -0.68606022965E+00  0.14514185967E+01  0.34247479172E+01  0.00000000000E+00 0. -1.
</event>
<event>
 7    1  0.1457722E-010  0.4778727E+02  0.7816164E-02  0.1312668E+00
        -11   -1    0    0    0    0  0.00000000000E+00  0.00000000000E+00  0.45593999997E+02  0.45594000000E+02  0.51100000000E-03 0. -1.
         11   -1    0    0    0    0 -0.00000000000E+00 -0.00000000000E+00 -0.45593999997E+02  0.45594000000E+02  0.51100000000E-03 0.  1.
    9900012    2    1    2    0    0  0.16028516376E+02  0.32852123215E+02  0.23397604383E+02  0.47787271575E+02  0.20000002419E+02 0.  0.
        -12    1    1    2    0    0 -0.16028516376E+02 -0.32852123215E+02 -0.23397604383E+02  0.43400728425E+02  0.00000000000E+00 0.  1.
         11    1    3    3    0    0  0.37709508367E+01  0.19854670603E+02  0.56412517849E+01  0.20982176649E+02  0.51100000000E-03 0. -1.
        -11    1    3    3    0    0  0.78724545396E+01  0.38225712148E+01  0.38093972863E+01  0.95445848058E+01  0.51100000000E-03 0.  1.
        -12    1    3    3    0    0  0.43851109998E+01  0.91748813973E+01  0.13946955312E+02  0.17260510120E+02  0.00000000000E+00 0.  1.
</event>
<event>
 7    1  0.1457722E-010  0.4778729E+02  0.7816164E-02  0.1312668E+00
        -11   -1    0    0    0    0  0.00000000000E+00  0.00000000000E+00  0.45593999997E+02  0.45594000000E+02  0.51100000000E-03 0.  1.
         11   -1    0    0    0    0 -0.00000000000E+00 -0.00000000000E+00 -0.45593999997E+02  0.45594000000E+02  0.51100000000E-03 0. -1.
    9900012    2    1    2    0    0 -0.43395428599E+01 -0.19544540121E+02 -0.38507150528E+02  0.47787293525E+02  0.20000102499E+02 0.  0.
        -12    1    1    2    0    0  0.43395428599E+01  0.19544540121E+02  0.38507150528E+02  0.43400706475E+02  0.00000000000E+00 0.  1.
         11    1    3    3    0    0  0.13349852025E+01 -0.27207584688E-01 -0.17553807938E+02  0.17604519282E+02  0.51100000000E-03 0. -1.
        -11    1    3    3    0    0 -0.37038130496E+01 -0.22595427085E+01 -0.46602354192E+01  0.63672253597E+01  0.51100000000E-03 0.  1.
         12    1    3    3    0    0 -0.19707150129E+01 -0.17257789827E+02 -0.16293107170E+02  0.23815548884E+02  0.00000000000E+00 0. -1.
</event>
<event>
 7    1  0.1457722E-010  0.4778727E+02  0.7816164E-02  0.1312668E+00
        -11   -1    0    0    0    0  0.00000000000E+00  0.00000000000E+00  0.45593999997E+02  0.45594000000E+02  0.51100000000E-03 0.  1.
         11   -1    0    0    0    0 -0.00000000000E+00 -0.00000000000E+00 -0.45593999997E+02  0.45594000000E+02  0.51100000000E-03 0. -1.
    9900012    2    1    2    0    0  0.12523228049E+02 -0.38598072315E+02  0.15394183541E+02  0.47787270581E+02  0.19999997887E+02 0.  0.
        -12    1    1    2    0    0 -0.12523228049E+02  0.38598072315E+02 -0.15394183541E+02  0.43400729419E+02  0.00000000000E+00 0.  1.
         11    1    3    3    0    0 -0.26174517123E+01 -0.17265149061E+01  0.15128907958E+00  0.31392349122E+01  0.51100000000E-03 0.  1.
        -11    1    3    3    0    0  0.12563227433E+02 -0.13929159313E+02  0.85219820050E+01  0.20602920673E+02  0.51100000000E-03 0. -1.
         12    1    3    3    0    0  0.25774523278E+01 -0.22942398097E+02  0.67209124560E+01  0.24045114996E+02  0.00000000000E+00 0. -1.
</event>
<event>
 7    1  0.1457722E-010  0.4778727E+02  0.7816164E-02  0.1312668E+00
        -11   -1    0    0    0    0  0.00000000000E+00  0.00000000000E+00  0.45593999997E+02  0.45594000000E+02  0.51100000000E-03 0.  1.
         11   -1    0    0    0    0 -0.00000000000E+00 -0.00000000000E+00 -0.45593999997E+02  0.45594000000E+02  0.51100000000E-03 0. -1.
    9900012    2    1    2    0    0  0.20898573638E+02  0.36813383295E+02 -0.95732946494E+01  0.47787267976E+02  0.19999986012E+02 0.  0.
        -12    1    1    2    0    0 -0.20898573638E+02 -0.36813383295E+02  0.95732946494E+01  0.43400732024E+02  0.00000000000E+00 0.  1.
         11    1    3    3    0    0 -0.15384721475E+00  0.20135492442E+01 -0.31315623833E+01  0.37262223157E+01  0.51100000000E-03 0. -1.
        -11    1    3    3    0    0  0.18638405699E+02  0.31951261578E+02 -0.44020763912E+00  0.36992797494E+02  0.51100000000E-03 0.  1.
        -12    1    3    3    0    0  0.24140151538E+01  0.28485724731E+01 -0.60015246271E+01  0.70682481667E+01  0.00000000000E+00 0.  1.
</event>
<event>
 7    1  0.1457722E-010  0.4778727E+02  0.7816164E-02  0.1312668E+00
        -11   -1    0    0    0    0  0.00000000000E+00  0.00000000000E+00  0.45593999997E+02  0.45594000000E+02  0.51100000000E-03 0.  1.
         11   -1    0    0    0    0 -0.00000000000E+00 -0.00000000000E+00 -0.45593999997E+02  0.45594000000E+02  0.51100000000E-03 0. -1.
    9900012    2    1    2    0    0  0.33186162065E+02  0.27963447670E+02  0.58941411995E+00  0.47787272274E+02  0.20000005605E+02 0.  0.
        -12    1    1    2    0    0 -0.33186162065E+02 -0.27963447670E+02 -0.58941411995E+00  0.43400727726E+02  0.00000000000E+00 0.  1.
         11    1    3    3    0    0  0.21413111594E+01  0.90658936508E+01  0.78190999779E+00  0.93481027313E+01  0.51100000000E-03 0. -1.
        -11    1    3    3    0    0  0.15504935835E+02  0.73094799294E+01  0.58855571011E+01  0.18123777607E+02  0.51100000000E-03 0.  1.
         12    1    3    3    0    0  0.15539915070E+02  0.11588074089E+02 -0.60780529789E+01  0.20315391936E+02  0.00000000000E+00 0. -1.
</event>
<event>
 7    1  0.1457722E-010  0.4778727E+02  0.7816164E-02  0.1312668E+00
        -11   -1    0    0    0    0  0.00000000000E+00  0.00000000000E+00  0.45593999997E+02  0.45594000000E+02  0.51100000000E-03 0.  1.
         11   -1    0    0    0    0 -0.00000000000E+00 -0.00000000000E+00 -0.45593999997E+02  0.45594000000E+02  0.51100000000E-03 0. -1.
    9900012    2    1    2    0    0 -0.26763177840E+02 -0.10120818640E+02 -0.32633180828E+02  0.47787272483E+02  0.20000006561E+02 0.  0.
        -12    1    1    2    0    0  0.26763177840E+02  0.10120818640E+02  0.32633180828E+02  0.43400727517E+02  0.00000000000E+00 0.  1.
         11    1    3    3    0    0 -0.10724098195E+02 -0.24688430538E+01 -0.20082866927E+02  0.22900284112E+02  0.51100000000E-03 0. -1.
        -11    1    3    3    0    0 -0.65508879625E+01  0.32338545724E+00 -0.10417059846E+02  0.12309908503E+02  0.51100000000E-03 0.  1.
        -12    1    3    3    0    0 -0.94881916818E+01 -0.79753610436E+01 -0.21332540547E+01  0.12577079869E+02  0.00000000000E+00 0.  1.
</event>
<event>
 7    1  0.1457722E-010  0.4778727E+02  0.7816164E-02  0.1312668E+00
        -11   -1    0    0    0    0  0.00000000000E+00  0.00000000000E+00  0.45593999997E+02  0.45594000000E+02  0.51100000000E-03 0. -1.
         11   -1    0    0    0    0 -0.00000000000E+00 -0.00000000000E+00 -0.45593999997E+02  0.45594000000E+02  0.51100000000E-03 0.  1.
    9900012    2    1    2    0    0 -0.37414664697E+02  0.19565765236E+02  0.10047243635E+02  0.47787269496E+02  0.19999992939E+02 0.  0.
        -12    1    1    2    0    0  0.37414664697E+02 -0.19565765236E+02 -0.10047243635E+02  0.43400730504E+02  0.00000000000E+00 0.  1.
         11    1    3    3    0    0 -0.30854799444E+02  0.17656392368E+02  0.75969709825E+01  0.36352177494E+02  0.51100000000E-03 0. -1.
        -11    1    3    3    0    0 -0.32788705855E+01  0.54369421727E+01  0.12655843286E+01  0.64740278389E+01  0.51100000000E-03 0.  1.
        -12    1    3    3    0    0 -0.32809946671E+01 -0.35275693046E+01  0.11846883243E+01  0.49610641630E+01  0.00000000000E+00 0.  1.
</event>
<event>
 7    1  0.1457722E-010  0.4778728E+02  0.7816164E-02  0.1312668E+00
        -11   -1    0    0    0    0  0.00000000000E+00  0.00000000000E+00  0.45593999997E+02  0.45594000000E+02  0.51100000000E-03 0.  1.
         11   -1    0    0    0    0 -0.00000000000E+00 -0.00000000000E+00 -0.45593999997E+02  0.45594000000E+02  0.51100000000E-03 0. -1.
    9900012    2    1    2    0    0 -0.35745749190E+01  0.11218204286E+02 -0.41773161657E+02  0.47787277332E+02  0.20000028670E+02 0.  0.
        -12    1    1    2    0    0  0.35745749190E+01 -0.11218204286E+02  0.41773161657E+02  0.43400722668E+02  0.00000000000E+00 0.  1.
         11    1    3    3    0    0  0.34110587831E+01  0.95746473415E+01 -0.30589563776E+02  0.32233997673E+02  0.51100000000E-03 0. -1.
        -11    1    3    3    0    0  0.20636827482E+00 -0.93638855167E+00  0.86158048171E+00  0.12890820657E+01  0.51100000000E-03 0.  1.
        -12    1    3    3    0    0 -0.71920019770E+01  0.25799454958E+01 -0.12045178363E+02  0.14264197593E+02  0.00000000000E+00 0.  1.
</event>
<event>
 7    1  0.1457722E-010  0.4778726E+02  0.7816164E-02  0.1312668E+00
        -11   -1    0    0    0    0  0.00000000000E+00  0.00000000000E+00  0.45593999997E+02  0.45594000000E+02  0.51100000000E-03 0.  1.
         11   -1    0    0    0    0 -0.00000000000E+00 -0.00000000000E+00 -0.45593999997E+02  0.45594000000E+02  0.51100000000E-03 0. -1.
    9900012    2    1    2    0    0  0.15775925481E+02  0.34825877993E+02 -0.20540258366E+02  0.47787264794E+02  0.19999971500E+02 0.  0.
        -12    1    1    2    0    0 -0.15775925481E+02 -0.34825877993E+02  0.20540258366E+02  0.43400735206E+02  0.00000000000E+00 0.  1.
         11    1    3    3    0    0  0.59464512374E+01  0.49575165613E+01 -0.11009909629E+02  0.13459396831E+02  0.51100000000E-03 0. -1.
        -11    1    3    3    0    0 -0.15076014231E+01  0.87928998421E+01 -0.12701695168E+01  0.90111753144E+01  0.51100000000E-03 0.  1.
         12    1    3    3    0    0  0.11337075667E+02  0.21075461589E+02 -0.82601792203E+01  0.25316692648E+02  0.00000000000E+00 0. -1.
</event>
<event>
 7    1  0.1457722E-010  0.4778727E+02  0.7816164E-02  0.1312668E+00
        -11   -1    0    0    0    0  0.00000000000E+00  0.00000000000E+00  0.45593999997E+02  0.45594000000E+02  0.51100000000E-03 0. -1.
         11   -1    0    0    0    0 -0.00000000000E+00 -0.00000000000E+00 -0.45593999997E+02  0.45594000000E+02  0.51100000000E-03 0.  1.
    9900012    2    1    2    0    0 -0.22683993253E+02  0.36312802430E+02  0.71021126286E+01  0.47787272195E+02  0.20000005246E+02 0.  0.
        -12    1    1    2    0    0  0.22683993253E+02 -0.36312802430E+02 -0.71021126286E+01  0.43400727805E+02  0.00000000000E+00 0.  1.
         11    1    3    3    0    0 -0.67409744707E+01  0.17771110047E+02 -0.15862719853E+01  0.19072738351E+02  0.51100000000E-03 0. -1.
        -11    1    3    3    0    0 -0.15900285051E+02  0.12522901378E+02  0.30518133968E+01  0.20468407092E+02  0.51100000000E-03 0.  1.
         12    1    3    3    0    0 -0.42733731609E-01  0.60187910047E+01  0.56365712171E+01  0.82461267524E+01  0.00000000000E+00 0. -1.
</event>
<event>
 7    1  0.1457722E-010  0.4778727E+02  0.7816164E-02  0.1312668E+00
        -11   -1    0    0    0    0  0.00000000000E+00  0.00000000000E+00  0.45593999997E+02  0.45594000000E+02  0.51100000000E-03 0.  1.
         11   -1    0    0    0    0 -0.00000000000E+00 -0.00000000000E+00 -0.45593999997E+02  0.45594000000E+02  0.51100000000E-03 0. -1.
    9900012    2    1    2    0    0  0.62473980301E+01 -0.11732857992E+02 -0.41315049707E+02  0.47787271077E+02  0.20000000147E+02 0.  0.
        -12    1    1    2    0    0 -0.62473980301E+01  0.11732857992E+02  0.41315049707E+02  0.43400728923E+02  0.00000000000E+00 0.  1.
         11    1    3    3    0    0 -0.27335440941E+01  0.77967558779E+00 -0.11863317229E+02  0.12199116905E+02  0.51100000000E-03 0. -1.
        -11    1    3    3    0    0  0.32007007661E+01 -0.13557534044E+02 -0.18470566771E+02  0.23134672072E+02  0.51100000000E-03 0.  1.
         12    1    3    3    0    0  0.57802413582E+01  0.10450004649E+01 -0.10981165707E+02  0.12453482100E+02  0.00000000000E+00 0. -1.
</event>
<event>
 7    1  0.1457722E-010  0.4778727E+02  0.7816164E-02  0.1312668E+00
        -11   -1    0    0    0    0  0.00000000000E+00  0.00000000000E+00  0.45593999997E+02  0.45594000000E+02  0.51100000000E-03 0. -1.
         11   -1    0    0    0    0 -0.00000000000E+00 -0.00000000000E+00 -0.45593999997E+02  0.45594000000E+02  0.51100000000E-03 0.  1.
    9900012    2    1    2    0    0  0.13393471979E+02 -0.36410909396E+02  0.19454659053E+02  0.47787272200E+02  0.20000005271E+02 0.  0.
        -12    1    1    2    0    0 -0.13393471979E+02  0.36410909396E+02 -0.19454659053E+02  0.43400727800E+02  0.00000000000E+00 0.  1.
         11    1    3    3    0    0  0.15955198021E+02 -0.16000925670E+02  0.77327959870E+01  0.23882924868E+02  0.51100000000E-03 0. -1.
        -11    1    3    3    0    0 -0.60856096842E+00 -0.78755982966E+01  0.27397051300E+01  0.83607044824E+01  0.51100000000E-03 0.  1.
        -12    1    3    3    0    0 -0.19531650733E+01 -0.12534385429E+02  0.89821579356E+01  0.15543642851E+02  0.00000000000E+00 0.  1.
</event>
<event>
 7    1  0.1457722E-010  0.4778727E+02  0.7816164E-02  0.1312668E+00
        -11   -1    0    0    0    0  0.00000000000E+00  0.00000000000E+00  0.45593999997E+02  0.45594000000E+02  0.51100000000E-03 0.  1.
         11   -1    0    0    0    0 -0.00000000000E+00 -0.00000000000E+00 -0.45593999997E+02  0.45594000000E+02  0.51100000000E-03 0. -1.
    9900012    2    1    2    0    0  0.79725874725E+01  0.20962607895E+02 -0.37156833237E+02  0.47787270317E+02  0.19999996685E+02 0.  0.
        -12    1    1    2    0    0 -0.79725874725E+01 -0.20962607895E+02  0.37156833237E+02  0.43400729683E+02  0.00000000000E+00 0.  1.
         11    1    3    3    0    0 -0.18717663907E+01  0.84998940310E+01 -0.13085282086E+02  0.15715480123E+02  0.51100000000E-03 0. -1.
        -11    1    3    3    0    0  0.19854711559E+01 -0.23374460986E+01 -0.43469894609E+00  0.30975334396E+01  0.51100000000E-03 0.  1.
         12    1    3    3    0    0  0.78588827073E+01  0.14800159963E+02 -0.23636852205E+02  0.28974256755E+02  0.00000000000E+00 0. -1.
</event>
<event>
 7    1  0.1457722E-010  0.4778727E+02  0.7816164E-02  0.1312668E+00
        -11   -1    0    0    0    0  0.00000000000E+00  0.00000000000E+00  0.45593999997E+02  0.45594000000E+02  0.51100000000E-03 0.  1.
         11   -1    0    0    0    0 -0.00000000000E+00 -0.00000000000E+00 -0.45593999997E+02  0.45594000000E+02  0.51100000000E-03 0. -1.
    9900012    2    1    2    0    0 -0.84600404785E+01  0.25585840054E+02 -0.34020813595E+02  0.47787271276E+02  0.20000001054E+02 0.  0.
        -12    1    1    2    0    0  0.84600404785E+01 -0.25585840054E+02  0.34020813595E+02  0.43400728724E+02  0.00000000000E+00 0.  1.
         11    1    3    3    0    0 -0.53644779631E+01  0.19798547348E+01 -0.14100838025E+02  0.15216145434E+02  0.51100000000E-03 0. -1.
        -11    1    3    3    0    0  0.99668904979E+00  0.43367715408E+01  0.14552777712E+00  0.44522078853E+01  0.51100000000E-03 0.  1.
         12    1    3    3    0    0 -0.40922515652E+01  0.19269213778E+02 -0.20065503347E+02  0.28118917957E+02  0.00000000000E+00 0. -1.
</event>
<event>
 7    1  0.1457722E-010  0.4778727E+02  0.7816164E-02  0.1312668E+00
        -11   -1    0    0    0    0  0.00000000000E+00  0.00000000000E+00  0.45593999997E+02  0.45594000000E+02  0.51100000000E-03 0.  1.
         11   -1    0    0    0    0 -0.00000000000E+00 -0.00000000000E+00 -0.45593999997E+02  0.45594000000E+02  0.51100000000E-03 0. -1.
    9900012    2    1    2    0    0 -0.25146832041E+02 -0.35116617396E+02 -0.42524501706E+01  0.47787270611E+02  0.19999998026E+02 0.  0.
        -12    1    1    2    0    0  0.25146832041E+02  0.35116617396E+02  0.42524501706E+01  0.43400729389E+02  0.00000000000E+00 0.  1.
         11    1    3    3    0    0 -0.66697120795E+01 -0.19651550912E+02 -0.28202326638E+01  0.20943309791E+02  0.51100000000E-03 0. -1.
        -11    1    3    3    0    0 -0.53826477024E+01 -0.20284839499E+01 -0.51459904417E+01  0.77180866354E+01  0.51100000000E-03 0.  1.
         12    1    3    3    0    0 -0.13094472259E+02 -0.13436582534E+02  0.37137729349E+01  0.19125874185E+02  0.00000000000E+00 0. -1.
</event>
<event>
 7    1  0.1457722E-010  0.4778727E+02  0.7816164E-02  0.1312668E+00
        -11   -1    0    0    0    0  0.00000000000E+00  0.00000000000E+00  0.45593999997E+02  0.45594000000E+02  0.51100000000E-03 0.  1.
         11   -1    0    0    0    0 -0.00000000000E+00 -0.00000000000E+00 -0.45593999997E+02  0.45594000000E+02  0.51100000000E-03 0. -1.
    9900012    2    1    2    0    0 -0.14128116968E+02 -0.41028312537E+02 -0.83482706661E+00  0.47787273567E+02  0.20000011501E+02 0.  0.
        -12    1    1    2    0    0  0.14128116968E+02  0.41028312537E+02  0.83482706661E+00  0.43400726433E+02  0.00000000000E+00 0.  1.
         11    1    3    3    0    0 -0.56700832436E+01 -0.14835255923E+02 -0.11054362483E+01  0.15920321977E+02  0.51100000000E-03 0. -1.
        -11    1    3    3    0    0 -0.28305359682E+01  0.15726877975E+01  0.13684805611E+01  0.35153975711E+01  0.51100000000E-03 0.  1.
        -12    1    3    3    0    0 -0.56274977564E+01 -0.27765744411E+02 -0.10978713795E+01  0.28351554019E+02  0.00000000000E+00 0.  1.
</event>
<event>
 7    1  0.1457722E-010  0.4778727E+02  0.7816164E-02  0.1312668E+00
        -11   -1    0    0    0    0  0.00000000000E+00  0.00000000000E+00  0.45593999997E+02  0.45594000000E+02  0.51100000000E-03 0.  1.
         11   -1    0    0    0    0 -0.00000000000E+00 -0.00000000000E+00 -0.45593999997E+02  0.45594000000E+02  0.51100000000E-03 0. -1.
    9900012    2    1    2    0    0  0.36545851353E+02  0.11399739824E+02 -0.20446762708E+02  0.47787269310E+02  0.19999992092E+02 0.  0.
        -12    1    1    2    0    0 -0.36545851353E+02 -0.11399739824E+02  0.20446762708E+02  0.43400730690E+02  0.00000000000E+00 0.  1.
         11    1    3    3    0    0  0.14494153137E+02  0.73867582665E+01 -0.26049836480E+01  0.16475151377E+02  0.51100000000E-03 0. -1.
        -11    1    3    3    0    0  0.20091333593E+02  0.69460665136E+01 -0.17889543281E+02  0.27783903337E+02  0.51100000000E-03 0.  1.
        -12    1    3    3    0    0  0.19603646230E+01 -0.29330849558E+01  0.47764221031E-01  0.35282145958E+01  0.00000000000E+00 0.  1.
</event>
<event>
 7    1  0.1719021E-010  0.4778727E+02  0.7816164E-02  0.1312668E+00
        -11   -1    0    0    0    0  0.00000000000E+00  0.00000000000E+00  0.45593999997E+02  0.45594000000E+02  0.51100000000E-03 0.  1.
         11   -1    0    0    0    0 -0.00000000000E+00 -0.00000000000E+00 -0.45593999997E+02  0.45594000000E+02  0.51100000000E-03 0. -1.
    9900012    2    1    2    0    0 -0.21667765870E+02 -0.34801723179E+02 -0.14246805360E+02  0.47787268704E+02  0.19999989330E+02 0.  0.
        -12    1    1    2    0    0  0.21667765870E+02  0.34801723179E+02  0.14246805360E+02  0.43400731296E+02  0.00000000000E+00 0.  1.
         11    1    3    3    0    0 -0.23215343749E+02 -0.34951535921E+02 -0.15840698619E+02  0.44849635245E+02  0.51100000000E-03 0. -1.
        -11    1    3    3    0    0  0.10503975916E+01 -0.76085362369E+00  0.40302976989E+00  0.13581850366E+01  0.51100000000E-03 0.  1.
         12    1    3    3    0    0  0.49718028705E+00  0.91066636599E+00  0.11908634893E+01  0.15794484221E+01  0.00000000000E+00 0. -1.
</event>
<event>
 7    1  0.1457722E-010  0.4778726E+02  0.7816164E-02  0.1312668E+00
        -11   -1    0    0    0    0  0.00000000000E+00  0.00000000000E+00  0.45593999997E+02  0.45594000000E+02  0.51100000000E-03 0.  1.
         11   -1    0    0    0    0 -0.00000000000E+00 -0.00000000000E+00 -0.45593999997E+02  0.45594000000E+02  0.51100000000E-03 0. -1.
    9900012    2    1    2    0    0 -0.31752729797E+02  0.29561281283E+02 -0.12323179487E+01  0.47787264889E+02  0.19999971935E+02 0.  0.
        -12    1    1    2    0    0  0.31752729797E+02 -0.29561281283E+02  0.12323179487E+01  0.43400735111E+02  0.00000000000E+00 0.  1.
         11    1    3    3    0    0 -0.29946382386E+02  0.20983913967E+02 -0.32990163561E+01  0.36715037417E+02  0.51100000000E-03 0. -1.
        -11    1    3    3    0    0 -0.87371568833E+00  0.68641398072E+01 -0.14323303498E+01  0.70662129100E+01  0.51100000000E-03 0.  1.
        -12    1    3    3    0    0 -0.93263172289E+00  0.17132275088E+01  0.34990287572E+01  0.40060145620E+01  0.00000000000E+00 0.  1.
</event>
<event>
 7    1  0.1457722E-010  0.4778727E+02  0.7816164E-02  0.1312668E+00
        -11   -1    0    0    0    0  0.00000000000E+00  0.00000000000E+00  0.45593999997E+02  0.45594000000E+02  0.51100000000E-03 0.  1.
         11   -1    0    0    0    0 -0.00000000000E+00 -0.00000000000E+00 -0.45593999997E+02  0.45594000000E+02  0.51100000000E-03 0. -1.
    9900012    2    1    2    0    0  0.24250604807E+02  0.15736825064E+02 -0.32371034477E+02  0.47787269940E+02  0.19999994964E+02 0.  0.
        -12    1    1    2    0    0 -0.24250604807E+02 -0.15736825064E+02  0.32371034477E+02  0.43400730060E+02  0.00000000000E+00 0.  1.
         11    1    3    3    0    0  0.16320746728E+02  0.33110300242E+01 -0.11846615922E+02  0.20437025289E+02  0.51100000000E-03 0. -1.
        -11    1    3    3    0    0  0.55795095084E+01  0.90263256492E+01 -0.58757097691E+01  0.12129692767E+02  0.51100000000E-03 0.  1.
        -12    1    3    3    0    0  0.23503485707E+01  0.33994693901E+01 -0.14648708787E+02  0.15220551884E+02  0.00000000000E+00 0.  1.
</event>
<event>
 7    1  0.1457722E-010  0.4778727E+02  0.7816164E-02  0.1312668E+00
        -11   -1    0    0    0    0  0.00000000000E+00  0.00000000000E+00  0.45593999997E+02  0.45594000000E+02  0.51100000000E-03 0.  1.
         11   -1    0    0    0    0 -0.00000000000E+00 -0.00000000000E+00 -0.45593999997E+02  0.45594000000E+02  0.51100000000E-03 0. -1.
    9900012    2    1    2    0    0 -0.30863054780E+02 -0.20922202769E+02 -0.22211629453E+02  0.47787271872E+02  0.20000003772E+02 0.  0.
        -12    1    1    2    0    0  0.30863054780E+02  0.20922202769E+02  0.22211629453E+02  0.43400728128E+02  0.00000000000E+00 0.  1.
         11    1    3    3    0    0 -0.30377965721E+01 -0.95151790709E+01 -0.54113372037E+01  0.11359991697E+02  0.51100000000E-03 0. -1.
        -11    1    3    3    0    0 -0.96968117284E+01 -0.13351241563E+01 -0.11343657568E+02  0.14982966378E+02  0.51100000000E-03 0.  1.
         12    1    3    3    0    0 -0.18128446480E+02 -0.10071899542E+02 -0.54566346821E+01  0.21444313797E+02  0.00000000000E+00 0. -1.
</event>
<event>
 7    1  0.1645968E-010  0.4778726E+02  0.7816164E-02  0.1312668E+00
        -11   -1    0    0    0    0  0.00000000000E+00  0.00000000000E+00  0.45593999997E+02  0.45594000000E+02  0.51100000000E-03 0. -1.
         11   -1    0    0    0    0 -0.00000000000E+00 -0.00000000000E+00 -0.45593999997E+02  0.45594000000E+02  0.51100000000E-03 0.  1.
    9900012    2    1    2    0    0  0.28849625588E+02 -0.43158546060E+01  0.32135600532E+02  0.47787259003E+02  0.19999945098E+02 0.  0.
        -12    1    1    2    0    0 -0.28849625588E+02  0.43158546060E+01 -0.32135600532E+02  0.43400740997E+02  0.00000000000E+00 0.  1.
         11    1    3    3    0    0  0.68310218164E+01 -0.13690523552E+01  0.18598286066E+02  0.19860347637E+02  0.51100000000E-03 0. -1.
        -11    1    3    3    0    0  0.23647417913E+01  0.13751565395E+01 -0.11969626787E+01  0.29859302006E+01  0.51100000000E-03 0.  1.
         12    1    3    3    0    0  0.19653861980E+02 -0.43219587902E+01  0.14734277145E+02  0.24940981165E+02  0.00000000000E+00 0. -1.
</event>
<event>
 7    1  0.1457722E-010  0.4778730E+02  0.7816164E-02  0.1312668E+00
        -11   -1    0    0    0    0  0.00000000000E+00  0.00000000000E+00  0.45593999997E+02  0.45594000000E+02  0.51100000000E-03 0.  1.
         11   -1    0    0    0    0 -0.00000000000E+00 -0.00000000000E+00 -0.45593999997E+02  0.45594000000E+02  0.51100000000E-03 0. -1.
    9900012    2    1    2    0    0  0.24790715810E+02 -0.10922407893E+02 -0.33907851163E+02  0.47787297758E+02  0.20000121799E+02 0.  0.
        -12    1    1    2    0    0 -0.24790715810E+02  0.10922407893E+02  0.33907851163E+02  0.43400702242E+02  0.00000000000E+00 0.  1.
         11    1    3    3    0    0  0.16111544038E+02 -0.15218339159E+01 -0.21248234434E+02  0.26709273607E+02  0.51100000000E-03 0. -1.
        -11    1    3    3    0    0  0.87308704382E+01 -0.10500734206E+02 -0.13854104168E+02  0.19453270163E+02  0.51100000000E-03 0.  1.
        -12    1    3    3    0    0 -0.51698665442E-01  0.11001602293E+01  0.11944874393E+01  0.16247539890E+01  0.00000000000E+00 0.  1.
</event>
<event>
 7    1  0.1457722E-010  0.4778725E+02  0.7816164E-02  0.1312668E+00
        -11   -1    0    0    0    0  0.00000000000E+00  0.00000000000E+00  0.45593999997E+02  0.45594000000E+02  0.51100000000E-03 0.  1.
         11   -1    0    0    0    0 -0.00000000000E+00 -0.00000000000E+00 -0.45593999997E+02  0.45594000000E+02  0.51100000000E-03 0. -1.
    9900012    2    1    2    0    0  0.55133021978E+01  0.41778689732E+02  0.10381212371E+02  0.47787251306E+02  0.19999910006E+02 0.  0.
        -12    1    1    2    0    0 -0.55133021978E+01 -0.41778689732E+02 -0.10381212371E+02  0.43400748694E+02  0.00000000000E+00 0.  1.
         11    1    3    3    0    0  0.35315086735E+01  0.13800437046E+02  0.10795498762E+01  0.14285973693E+02  0.51100000000E-03 0. -1.
        -11    1    3    3    0    0  0.26248609848E+01 -0.12788542355E+01  0.86521406175E+00  0.30453175498E+01  0.51100000000E-03 0.  1.
        -12    1    3    3    0    0 -0.64306746044E+00  0.29257106922E+02  0.84364484333E+01  0.30455960063E+02  0.00000000000E+00 0.  1.
</event>
<event>
 7    1  0.1457722E-010  0.4778727E+02  0.7816164E-02  0.1312668E+00
        -11   -1    0    0    0    0  0.00000000000E+00  0.00000000000E+00  0.45593999997E+02  0.45594000000E+02  0.51100000000E-03 0.  1.
         11   -1    0    0    0    0 -0.00000000000E+00 -0.00000000000E+00 -0.45593999997E+02  0.45594000000E+02  0.51100000000E-03 0. -1.
    9900012    2    1    2    0    0 -0.58231112133E+01  0.40165554387E+02 -0.15376696561E+02  0.47787272120E+02  0.20000004902E+02 0.  0.
        -12    1    1    2    0    0  0.58231112133E+01 -0.40165554387E+02  0.15376696561E+02  0.43400727880E+02  0.00000000000E+00 0.  1.
         11    1    3    3    0    0 -0.63628859341E+01  0.15248694895E+02  0.22346183548E+01  0.16673407956E+02  0.51100000000E-03 0.  1.
        -11    1    3    3    0    0 -0.21568061012E+01  0.12317946370E+02 -0.10887067060E+02  0.16580465758E+02  0.51100000000E-03 0. -1.
        -12    1    3    3    0    0  0.26965808220E+01  0.12598913122E+02 -0.67242478557E+01  0.14533398405E+02  0.00000000000E+00 0.  1.
</event>
<event>
 7    1  0.1457722E-010  0.4778727E+02  0.7816164E-02  0.1312668E+00
        -11   -1    0    0    0    0  0.00000000000E+00  0.00000000000E+00  0.45593999997E+02  0.45594000000E+02  0.51100000000E-03 0.  1.
         11   -1    0    0    0    0 -0.00000000000E+00 -0.00000000000E+00 -0.45593999997E+02  0.45594000000E+02  0.51100000000E-03 0. -1.
    9900012    2    1    2    0    0  0.30455598300E+02 -0.18159172656E+02 -0.25026472116E+02  0.47787270445E+02  0.19999997265E+02 0.  0.
        -12    1    1    2    0    0 -0.30455598300E+02  0.18159172656E+02  0.25026472116E+02  0.43400729555E+02  0.00000000000E+00 0.  1.
         11    1    3    3    0    0  0.16043798699E+01 -0.42085828262E+01 -0.49002658210E+01  0.66557350871E+01  0.51100000000E-03 0. -1.
        -11    1    3    3    0    0  0.15851836342E+02  0.10844884856E+01 -0.73727621503E+01  0.17516119795E+02  0.51100000000E-03 0.  1.
        -12    1    3    3    0    0  0.12999382088E+02 -0.15035078316E+02 -0.12753444145E+02  0.23615415563E+02  0.00000000000E+00 0.  1.
</event>
<event>
 7    1  0.1457722E-010  0.4778727E+02  0.7816164E-02  0.1312668E+00
        -11   -1    0    0    0    0  0.00000000000E+00  0.00000000000E+00  0.45593999997E+02  0.45594000000E+02  0.51100000000E-03 0. -1.
         11   -1    0    0    0    0 -0.00000000000E+00 -0.00000000000E+00 -0.45593999997E+02  0.45594000000E+02  0.51100000000E-03 0.  1.
    9900012    2    1    2    0    0  0.23750717866E+01  0.12639208763E+02  0.41451571645E+02  0.47787270098E+02  0.19999995686E+02 0.  0.
        -12    1    1    2    0    0 -0.23750717866E+01 -0.12639208763E+02 -0.41451571645E+02  0.43400729902E+02  0.00000000000E+00 0.  1.
         11    1    3    3    0    0  0.70723472460E+01  0.58366218965E+01  0.21644124940E+02  0.23506433065E+02  0.51100000000E-03 0. -1.
        -11    1    3    3    0    0 -0.36998649291E+01  0.57180416625E+01  0.21191652733E+02  0.22259181179E+02  0.51100000000E-03 0.  1.
        -12    1    3    3    0    0 -0.99741053025E+00  0.10845452036E+01 -0.13842060283E+01  0.20216558543E+01  0.00000000000E+00 0.  1.
</event>
<event>
 7    1  0.1457722E-010  0.4778726E+02  0.7816164E-02  0.1312668E+00
        -11   -1    0    0    0    0  0.00000000000E+00  0.00000000000E+00  0.45593999997E+02  0.45594000000E+02  0.51100000000E-03 0.  1.
         11   -1    0    0    0    0 -0.00000000000E+00 -0.00000000000E+00 -0.45593999997E+02  0.45594000000E+02  0.51100000000E-03 0. -1.
    9900012    2    1    2    0    0  0.20998302080E+02 -0.18026851628E+02 -0.33432445379E+02  0.47787257220E+02  0.19999936968E+02 0.  0.
        -12    1    1    2    0    0 -0.20998302080E+02  0.18026851628E+02  0.33432445379E+02  0.43400742780E+02  0.00000000000E+00 0.  1.
         11    1    3    3    0    0 -0.16429683430E+00 -0.53836576399E+01 -0.37132684882E+01  0.65421041080E+01  0.51100000000E-03 0. -1.
        -11    1    3    3    0    0  0.11584647959E+02 -0.97622995241E+00 -0.58781851528E+01  0.13027284990E+02  0.51100000000E-03 0.  1.
         12    1    3    3    0    0  0.95779509551E+01 -0.11666964035E+02 -0.23840991738E+02  0.28217868122E+02  0.00000000000E+00 0. -1.
</event>
<event>
 7    1  0.1457722E-010  0.4778727E+02  0.7816164E-02  0.1312668E+00
        -11   -1    0    0    0    0  0.00000000000E+00  0.00000000000E+00  0.45593999997E+02  0.45594000000E+02  0.51100000000E-03 0.  1.
         11   -1    0    0    0    0 -0.00000000000E+00 -0.00000000000E+00 -0.45593999997E+02  0.45594000000E+02  0.51100000000E-03 0. -1.
    9900012    2    1    2    0    0 -0.17740207212E+01  0.42119697688E+00 -0.43362407994E+02  0.47787274391E+02  0.20000015256E+02 0.  0.
        -12    1    1    2    0    0  0.17740207212E+01 -0.42119697688E+00  0.43362407994E+02  0.43400725609E+02  0.00000000000E+00 0.  1.
         11    1    3    3    0    0 -0.63756765670E+01 -0.38545909189E+01 -0.30722234893E+02  0.31612700611E+02  0.51100000000E-03 0. -1.
        -11    1    3    3    0    0 -0.14411970195E+01  0.30961487447E+01 -0.22260588211E+01  0.40765823964E+01  0.51100000000E-03 0.  1.
         12    1    3    3    0    0  0.60428528653E+01  0.11796391511E+01 -0.10414114280E+02  0.12097991384E+02  0.00000000000E+00 0. -1.
</event>
<event>
 7    1  0.1457722E-010  0.4778727E+02  0.7816164E-02  0.1312668E+00
        -11   -1    0    0    0    0  0.00000000000E+00  0.00000000000E+00  0.45593999997E+02  0.45594000000E+02  0.51100000000E-03 0. -1.
         11   -1    0    0    0    0 -0.00000000000E+00 -0.00000000000E+00 -0.45593999997E+02  0.45594000000E+02  0.51100000000E-03 0.  1.
    9900012    2    1    2    0    0 -0.15442385031E+02  0.31122104382E+02  0.26010972682E+02  0.47787270323E+02  0.19999996711E+02 0.  0.
        -12    1    1    2    0    0  0.15442385031E+02 -0.31122104382E+02 -0.26010972682E+02  0.43400729677E+02  0.00000000000E+00 0.  1.
         11    1    3    3    0    0  0.27909626328E+01  0.14563953180E+02  0.11562565555E+02  0.18804018909E+02  0.51100000000E-03 0.  1.
        -11    1    3    3    0    0 -0.10394274946E+02  0.10436788255E+02  0.11253679850E+02  0.18536796141E+02  0.51100000000E-03 0. -1.
        -12    1    3    3    0    0 -0.78390727176E+01  0.61213629467E+01  0.31947272765E+01  0.10446455273E+02  0.00000000000E+00 0.  1.
</event>
<event>
 7    1  0.1457722E-010  0.4778727E+02  0.7816164E-02  0.1312668E+00
        -11   -1    0    0    0    0  0.00000000000E+00  0.00000000000E+00  0.45593999997E+02  0.45594000000E+02  0.51100000000E-03 0. -1.
         11   -1    0    0    0    0 -0.00000000000E+00 -0.00000000000E+00 -0.45593999997E+02  0.45594000000E+02  0.51100000000E-03 0.  1.
    9900012    2    1    2    0    0  0.12498585836E+02 -0.41432972544E+02  0.32737689534E+01  0.47787269305E+02  0.19999992067E+02 0.  0.
        -12    1    1    2    0    0 -0.12498585836E+02  0.41432972544E+02 -0.32737689534E+01  0.43400730695E+02  0.00000000000E+00 0.  1.
         11    1    3    3    0    0 -0.16183286672E+01 -0.65917127456E+01  0.61222105694E+01  0.91406305643E+01  0.51100000000E-03 0. -1.
        -11    1    3    3    0    0  0.21249413238E+01 -0.13096480841E+02 -0.37837490157E+01  0.13796736677E+02  0.51100000000E-03 0.  1.
        -12    1    3    3    0    0  0.11991973179E+02 -0.21744778957E+02  0.93530739963E+00  0.24849902064E+02  0.00000000000E+00 0.  1.
</event>
<event>
 7    1  0.1457722E-010  0.4778727E+02  0.7816164E-02  0.1312668E+00
        -11   -1    0    0    0    0  0.00000000000E+00  0.00000000000E+00  0.45593999997E+02  0.45594000000E+02  0.51100000000E-03 0. -1.
         11   -1    0    0    0    0 -0.00000000000E+00 -0.00000000000E+00 -0.45593999997E+02  0.45594000000E+02  0.51100000000E-03 0.  1.
    9900012    2    1    2    0    0 -0.31622561339E+02  0.29572959101E+02 -0.30127761575E+01  0.47787272865E+02  0.20000008302E+02 0.  0.
        -12    1    1    2    0    0  0.31622561339E+02 -0.29572959101E+02  0.30127761575E+01  0.43400727135E+02  0.00000000000E+00 0.  1.
         11    1    3    3    0    0 -0.22354236512E+02  0.16110147484E+02 -0.59040160949E+01  0.28179889076E+02  0.51100000000E-03 0. -1.
        -11    1    3    3    0    0 -0.56897264429E+01  0.13229199540E+02 -0.84873141416E+00  0.14425846691E+02  0.51100000000E-03 0.  1.
        -12    1    3    3    0    0 -0.35785983844E+01  0.23361207666E+00  0.37399713515E+01  0.51815370991E+01  0.00000000000E+00 0.  1.
</event>
<event>
 7    1  0.1457722E-010  0.4778727E+02  0.7816164E-02  0.1312668E+00
        -11   -1    0    0    0    0  0.00000000000E+00  0.00000000000E+00  0.45593999997E+02  0.45594000000E+02  0.51100000000E-03 0.  1.
         11   -1    0    0    0    0 -0.00000000000E+00 -0.00000000000E+00 -0.45593999997E+02  0.45594000000E+02  0.51100000000E-03 0. -1.
    9900012    2    1    2    0    0  0.27388851890E+02 -0.50272208848E+00 -0.33663354163E+02  0.47787270157E+02  0.19999995955E+02 0.  0.
        -12    1    1    2    0    0 -0.27388851890E+02  0.50272208848E+00  0.33663354163E+02  0.43400729843E+02  0.00000000000E+00 0.  1.
         11    1    3    3    0    0  0.11717175760E+02 -0.31971360696E+01 -0.24282615228E+02  0.27150677513E+02  0.51100000000E-03 0. -1.
        -11    1    3    3    0    0  0.34909910277E+01  0.47045562158E+01 -0.43894987607E+01  0.73203529405E+01  0.51100000000E-03 0.  1.
        -12    1    3    3    0    0  0.12180685102E+02 -0.20101422347E+01 -0.49912401743E+01  0.13316239703E+02  0.00000000000E+00 0.  1.
</event>
<event>
 7    1  0.1457722E-010  0.4778727E+02  0.7816164E-02  0.1312668E+00
        -11   -1    0    0    0    0  0.00000000000E+00  0.00000000000E+00  0.45593999997E+02  0.45594000000E+02  0.51100000000E-03 0.  1.
         11   -1    0    0    0    0 -0.00000000000E+00 -0.00000000000E+00 -0.45593999997E+02  0.45594000000E+02  0.51100000000E-03 0. -1.
    9900012    2    1    2    0    0  0.11910719517E+02 -0.15186158248E+02 -0.38873367147E+02  0.47787270570E+02  0.19999997835E+02 0.  0.
        -12    1    1    2    0    0 -0.11910719517E+02  0.15186158248E+02  0.38873367147E+02  0.43400729430E+02  0.00000000000E+00 0.  1.
         11    1    3    3    0    0  0.70783595681E+00 -0.63568496869E+01 -0.21907482408E+02  0.22822102344E+02  0.51100000000E-03 0. -1.
        -11    1    3    3    0    0  0.28632647309E+01 -0.37254921269E+01  0.72293707648E+00  0.47539683197E+01  0.51100000000E-03 0.  1.
         12    1    3    3    0    0  0.83396188289E+01 -0.51038164339E+01 -0.17688821815E+02  0.20211199906E+02  0.00000000000E+00 0. -1.
</event>
<event>
 7    1  0.1457722E-010  0.4778727E+02  0.7816164E-02  0.1312668E+00
        -11   -1    0    0    0    0  0.00000000000E+00  0.00000000000E+00  0.45593999997E+02  0.45594000000E+02  0.51100000000E-03 0. -1.
         11   -1    0    0    0    0 -0.00000000000E+00 -0.00000000000E+00 -0.45593999997E+02  0.45594000000E+02  0.51100000000E-03 0.  1.
    9900012    2    1    2    0    0  0.38931621126E+02  0.16772817038E+02  0.93072506906E+01  0.47787269242E+02  0.19999991784E+02 0.  0.
        -12    1    1    2    0    0 -0.38931621126E+02 -0.16772817038E+02 -0.93072506906E+01  0.43400730758E+02  0.00000000000E+00 0.  1.
         11    1    3    3    0    0  0.29551895095E+00  0.12674689437E+00  0.18091121804E+01  0.18374665624E+01  0.51100000000E-03 0. -1.
        -11    1    3    3    0    0  0.72552322555E+01 -0.32361386843E+01  0.31542158016E+01  0.85475181339E+01  0.51100000000E-03 0.  1.
         12    1    3    3    0    0  0.31380869919E+02  0.19882208828E+02  0.43439227086E+01  0.37402284546E+02  0.00000000000E+00 0. -1.
</event>
<event>
 7    1  0.1457722E-010  0.4778727E+02  0.7816164E-02  0.1312668E+00
        -11   -1    0    0    0    0  0.00000000000E+00  0.00000000000E+00  0.45593999997E+02  0.45594000000E+02  0.51100000000E-03 0. -1.
         11   -1    0    0    0    0 -0.00000000000E+00 -0.00000000000E+00 -0.45593999997E+02  0.45594000000E+02  0.51100000000E-03 0.  1.
    9900012    2    1    2    0    0  0.20908195043E+02  0.10240240921E+02  0.36627972240E+02  0.47787268388E+02  0.19999987886E+02 0.  0.
        -12    1    1    2    0    0 -0.20908195043E+02 -0.10240240921E+02 -0.36627972240E+02  0.43400731612E+02  0.00000000000E+00 0.  1.
         11    1    3    3    0    0  0.90258216164E+01  0.37483440696E+01  0.22001022353E+02  0.24074063304E+02  0.51100000000E-03 0. -1.
        -11    1    3    3    0    0  0.76557924215E+01  0.20153737198E+01  0.15587033109E+02  0.17482233559E+02  0.51100000000E-03 0.  1.
        -12    1    3    3    0    0  0.42265810053E+01  0.44765231315E+01 -0.96008322196E+00  0.62309715241E+01  0.00000000000E+00 0.  1.
</event>
<event>
 7    1  0.1457722E-010  0.4778727E+02  0.7816164E-02  0.1312668E+00
        -11   -1    0    0    0    0  0.00000000000E+00  0.00000000000E+00  0.45593999997E+02  0.45594000000E+02  0.51100000000E-03 0. -1.
         11   -1    0    0    0    0 -0.00000000000E+00 -0.00000000000E+00 -0.45593999997E+02  0.45594000000E+02  0.51100000000E-03 0.  1.
    9900012    2    1    2    0    0  0.88559270710E+01 -0.42080536101E+02  0.58672494370E+01  0.47787267532E+02  0.19999983985E+02 0.  0.
        -12    1    1    2    0    0 -0.88559270710E+01  0.42080536101E+02 -0.58672494370E+01  0.43400732468E+02  0.00000000000E+00 0.  1.
         11    1    3    3    0    0  0.18733895706E+01 -0.22368570079E+01  0.62921566889E+01  0.69357302295E+01  0.51100000000E-03 0. -1.
        -11    1    3    3    0    0  0.33526239196E+01 -0.90026527826E+01  0.15678557045E+01  0.97337565226E+01  0.51100000000E-03 0.  1.
        -12    1    3    3    0    0  0.36299135809E+01 -0.30841026310E+02 -0.19927629565E+01  0.31117780780E+02  0.00000000000E+00 0.  1.
</event>
<event>
 7    1  0.1457722E-010  0.4778727E+02  0.7816164E-02  0.1312668E+00
        -11   -1    0    0    0    0  0.00000000000E+00  0.00000000000E+00  0.45593999997E+02  0.45594000000E+02  0.51100000000E-03 0.  1.
         11   -1    0    0    0    0 -0.00000000000E+00 -0.00000000000E+00 -0.45593999997E+02  0.45594000000E+02  0.51100000000E-03 0. -1.
    9900012    2    1    2    0    0  0.28478897389E+02  0.32625860802E+02  0.28511622962E+01  0.47787268255E+02  0.19999987284E+02 0.  0.
        -12    1    1    2    0    0 -0.28478897389E+02 -0.32625860802E+02 -0.28511622962E+01  0.43400731745E+02  0.00000000000E+00 0.  1.
         11    1    3    3    0    0  0.21452043275E+01 -0.73771000026E+00 -0.66350492573E+00  0.23635474819E+01  0.51100000000E-03 0. -1.
        -11    1    3    3    0    0  0.39786738797E+01 -0.11200576656E+01  0.99103853614E+00  0.42504744037E+01  0.51100000000E-03 0.  1.
         12    1    3    3    0    0  0.22355019182E+02  0.34483628467E+02  0.25236286858E+01  0.41173246370E+02  0.00000000000E+00 0. -1.
</event>
<event>
 7    1  0.1457722E-010  0.4778727E+02  0.7816164E-02  0.1312668E+00
        -11   -1    0    0    0    0  0.00000000000E+00  0.00000000000E+00  0.45593999997E+02  0.45594000000E+02  0.51100000000E-03 0.  1.
         11   -1    0    0    0    0 -0.00000000000E+00 -0.00000000000E+00 -0.45593999997E+02  0.45594000000E+02  0.51100000000E-03 0. -1.
    9900012    2    1    2    0    0 -0.44732625447E+01 -0.41222527876E+02 -0.12818594772E+02  0.47787271271E+02  0.20000001034E+02 0.  0.
        -12    1    1    2    0    0  0.44732625447E+01  0.41222527876E+02  0.12818594772E+02  0.43400728729E+02  0.00000000000E+00 0.  1.
         11    1    3    3    0    0  0.33041954443E+01 -0.78667834617E+01  0.25056598564E+01  0.88928241377E+01  0.51100000000E-03 0. -1.
        -11    1    3    3    0    0 -0.58001880285E+01 -0.60871136956E+01 -0.35659549037E+01  0.91329715288E+01  0.51100000000E-03 0.  1.
         12    1    3    3    0    0 -0.19772699605E+01 -0.27268630718E+02 -0.11758299725E+02  0.29761475605E+02  0.00000000000E+00 0. -1.
</event>
<event>
 7    1  0.1457722E-010  0.4778727E+02  0.7816164E-02  0.1312668E+00
        -11   -1    0    0    0    0  0.00000000000E+00  0.00000000000E+00  0.45593999997E+02  0.45594000000E+02  0.51100000000E-03 0.  1.
         11   -1    0    0    0    0 -0.00000000000E+00 -0.00000000000E+00 -0.45593999997E+02  0.45594000000E+02  0.51100000000E-03 0. -1.
    9900012    2    1    2    0    0 -0.31771969269E+02 -0.27296519958E+02 -0.11360695004E+02  0.47787269314E+02  0.19999992111E+02 0.  0.
        -12    1    1    2    0    0  0.31771969269E+02  0.27296519958E+02  0.11360695004E+02  0.43400730686E+02  0.00000000000E+00 0.  1.
         11    1    3    3    0    0 -0.16929788012E+02 -0.19469251166E+02  0.22593678708E+01  0.25899308997E+02  0.51100000000E-03 0. -1.
        -11    1    3    3    0    0 -0.31883359290E+01 -0.11909095794E+01 -0.11988358850E+01  0.36084566455E+01  0.51100000000E-03 0.  1.
         12    1    3    3    0    0 -0.11653845328E+02 -0.66363592134E+01 -0.12421226990E+02  0.18279503672E+02  0.00000000000E+00 0. -1.
</event>
<event>
 7    1  0.1457722E-010  0.4778727E+02  0.7816164E-02  0.1312668E+00
        -11   -1    0    0    0    0  0.00000000000E+00  0.00000000000E+00  0.45593999997E+02  0.45594000000E+02  0.51100000000E-03 0. -1.
         11   -1    0    0    0    0 -0.00000000000E+00 -0.00000000000E+00 -0.45593999997E+02  0.45594000000E+02  0.51100000000E-03 0.  1.
    9900012    2    1    2    0    0 -0.30614526714E+02  0.10034488460E+02  0.29080634005E+02  0.47787268685E+02  0.19999989241E+02 0.  0.
        -12    1    1    2    0    0  0.30614526714E+02 -0.10034488460E+02 -0.29080634005E+02  0.43400731315E+02  0.00000000000E+00 0.  1.
         11    1    3    3    0    0 -0.12395010449E+01  0.40173456029E+01  0.49122072605E+01  0.64656947782E+01  0.51100000000E-03 0. -1.
        -11    1    3    3    0    0 -0.29450414195E+02  0.78534092405E+01  0.24885993927E+02  0.39348641996E+02  0.51100000000E-03 0.  1.
        -12    1    3    3    0    0  0.75388526619E-01 -0.18362663835E+01 -0.71756718217E+00  0.19729319101E+01  0.00000000000E+00 0.  1.
</event>
<event>
 7    1  0.1457722E-010  0.4778727E+02  0.7816164E-02  0.1312668E+00
        -11   -1    0    0    0    0  0.00000000000E+00  0.00000000000E+00  0.45593999997E+02  0.45594000000E+02  0.51100000000E-03 0.  1.
         11   -1    0    0    0    0 -0.00000000000E+00 -0.00000000000E+00 -0.45593999997E+02  0.45594000000E+02  0.51100000000E-03 0. -1.
    9900012    2    1    2    0    0 -0.41217454792E+02 -0.95336959220E+01 -0.96877967060E+01  0.47787270254E+02  0.19999996397E+02 0.  0.
        -12    1    1    2    0    0  0.41217454792E+02  0.95336959220E+01  0.96877967060E+01  0.43400729746E+02  0.00000000000E+00 0.  1.
         11    1    3    3    0    0 -0.76530358362E+01 -0.15857605167E+01 -0.87171814183E+01  0.11707811327E+02  0.51100000000E-03 0. -1.
        -11    1    3    3    0    0 -0.91282866504E+01 -0.49317586613E+01  0.37066109333E+01  0.11017568949E+02  0.51100000000E-03 0.  1.
        -12    1    3    3    0    0 -0.24436132305E+02 -0.30161767441E+01 -0.46772262210E+01  0.25061889979E+02  0.00000000000E+00 0.  1.
</event>
<event>
 7    1  0.1457722E-010  0.4778727E+02  0.7816164E-02  0.1312668E+00
        -11   -1    0    0    0    0  0.00000000000E+00  0.00000000000E+00  0.45593999997E+02  0.45594000000E+02  0.51100000000E-03 0.  1.
         11   -1    0    0    0    0 -0.00000000000E+00 -0.00000000000E+00 -0.45593999997E+02  0.45594000000E+02  0.51100000000E-03 0. -1.
    9900012    2    1    2    0    0 -0.75415780403E+01 -0.37860854704E+02 -0.19831879583E+02  0.47787272286E+02  0.20000005661E+02 0.  0.
        -12    1    1    2    0    0  0.75415780403E+01  0.37860854704E+02  0.19831879583E+02  0.43400727714E+02  0.00000000000E+00 0.  1.
         11    1    3    3    0    0 -0.15363420167E+01 -0.12515473767E+02 -0.95417872551E+01  0.15812752281E+02  0.51100000000E-03 0. -1.
        -11    1    3    3    0    0 -0.54195611662E+00 -0.16630166584E+02  0.10404110944E+01  0.16671491012E+02  0.51100000000E-03 0.  1.
        -12    1    3    3    0    0 -0.54632799070E+01 -0.87152143528E+01 -0.11330503423E+02  0.15303028993E+02  0.00000000000E+00 0.  1.
</event>
<event>
 7    1  0.1457722E-010  0.4778727E+02  0.7816164E-02  0.1312668E+00
        -11   -1    0    0    0    0  0.00000000000E+00  0.00000000000E+00  0.45593999997E+02  0.45594000000E+02  0.51100000000E-03 0. -1.
         11   -1    0    0    0    0 -0.00000000000E+00 -0.00000000000E+00 -0.45593999997E+02  0.45594000000E+02  0.51100000000E-03 0.  1.
    9900012    2    1    2    0    0  0.42392945490E+02  0.40765407665E+01  0.83572125681E+01  0.47787274040E+02  0.20000013659E+02 0.  0.
        -12    1    1    2    0    0 -0.42392945490E+02 -0.40765407665E+01 -0.83572125681E+01  0.43400725960E+02  0.00000000000E+00 0.  1.
         11    1    3    3    0    0  0.14971221846E+02 -0.86607135872E+00  0.57823131146E+01  0.16072420738E+02  0.51100000000E-03 0. -1.
        -11    1    3    3    0    0  0.10133131583E+02  0.20211966726E+01  0.83177534085E+01  0.13264637714E+02  0.51100000000E-03 0.  1.
         12    1    3    3    0    0  0.17288592061E+02  0.29214154526E+01 -0.57428539550E+01  0.18450215588E+02  0.00000000000E+00 0. -1.
</event>
<event>
 7    1  0.1457722E-010  0.4778727E+02  0.7816164E-02  0.1312668E+00
        -11   -1    0    0    0    0  0.00000000000E+00  0.00000000000E+00  0.45593999997E+02  0.45594000000E+02  0.51100000000E-03 0. -1.
         11   -1    0    0    0    0 -0.00000000000E+00 -0.00000000000E+00 -0.45593999997E+02  0.45594000000E+02  0.51100000000E-03 0.  1.
    9900012    2    1    2    0    0  0.18733487055E+02  0.99578034764E+01  0.37861879566E+02  0.47787270610E+02  0.19999998019E+02 0.  0.
        -12    1    1    2    0    0 -0.18733487055E+02 -0.99578034764E+01 -0.37861879566E+02  0.43400729390E+02  0.00000000000E+00 0.  1.
         11    1    3    3    0    0  0.14825826343E+02  0.38609707955E+01  0.13199642967E+02  0.20222334113E+02  0.51100000000E-03 0. -1.
        -11    1    3    3    0    0  0.53552259005E+01  0.83222820914E+00  0.18748592717E+02  0.19516167077E+02  0.51100000000E-03 0.  1.
         12    1    3    3    0    0 -0.14475651890E+01  0.52646044717E+01  0.59136438816E+01  0.80487694201E+01  0.00000000000E+00 0. -1.
</event>
<event>
 7    1  0.1457722E-010  0.4778727E+02  0.7816164E-02  0.1312668E+00
        -11   -1    0    0    0    0  0.00000000000E+00  0.00000000000E+00  0.45593999997E+02  0.45594000000E+02  0.51100000000E-03 0. -1.
         11   -1    0    0    0    0 -0.00000000000E+00 -0.00000000000E+00 -0.45593999997E+02  0.45594000000E+02  0.51100000000E-03 0.  1.
    9900012    2    1    2    0    0 -0.26929277650E+02  0.12607565792E+02  0.31614658368E+02  0.47787270356E+02  0.19999996860E+02 0.  0.
        -12    1    1    2    0    0  0.26929277650E+02 -0.12607565792E+02 -0.31614658368E+02  0.43400729644E+02  0.00000000000E+00 0.  1.
         11    1    3    3    0    0 -0.12090937745E+02  0.11470930220E+02  0.19026639199E+02  0.25293991681E+02  0.51100000000E-03 0. -1.
        -11    1    3    3    0    0  0.16321996378E+01 -0.10273418786E+01  0.64488630405E+00  0.20335647517E+01  0.51100000000E-03 0.  1.
         12    1    3    3    0    0 -0.16470539542E+02  0.21639774514E+01  0.11943132864E+02  0.20459713924E+02  0.00000000000E+00 0. -1.
</event>
<event>
 7    1  0.1457722E-010  0.4778727E+02  0.7816164E-02  0.1312668E+00
        -11   -1    0    0    0    0  0.00000000000E+00  0.00000000000E+00  0.45593999997E+02  0.45594000000E+02  0.51100000000E-03 0. -1.
         11   -1    0    0    0    0 -0.00000000000E+00 -0.00000000000E+00 -0.45593999997E+02  0.45594000000E+02  0.51100000000E-03 0.  1.
    9900012    2    1    2    0    0  0.10779785442E+02  0.12833793868E+02  0.40033901331E+02  0.47787270801E+02  0.19999998892E+02 0.  0.
        -12    1    1    2    0    0 -0.10779785442E+02 -0.12833793868E+02 -0.40033901331E+02  0.43400729199E+02  0.00000000000E+00 0.  1.
         11    1    3    3    0    0  0.35460686130E+01  0.23437144284E+01  0.23393501325E+01  0.48518201980E+01  0.51100000000E-03 0. -1.
        -11    1    3    3    0    0 -0.28574478722E+01  0.83816294963E+01  0.25351178536E+02  0.26853286108E+02  0.51100000000E-03 0.  1.
        -12    1    3    3    0    0  0.10091164701E+02  0.21084499428E+01  0.12343372662E+02  0.16082164495E+02  0.00000000000E+00 0.  1.
</event>
<event>
 7    1  0.1457722E-010  0.4778729E+02  0.7816164E-02  0.1312668E+00
        -11   -1    0    0    0    0  0.00000000000E+00  0.00000000000E+00  0.45593999997E+02  0.45594000000E+02  0.51100000000E-03 0.  1.
         11   -1    0    0    0    0 -0.00000000000E+00 -0.00000000000E+00 -0.45593999997E+02  0.45594000000E+02  0.51100000000E-03 0. -1.
    9900012    2    1    2    0    0  0.11037858595E+01  0.42688862130E+02  0.77501234763E+01  0.47787289095E+02  0.20000082300E+02 0.  0.
        -12    1    1    2    0    0 -0.11037858595E+01 -0.42688862130E+02 -0.77501234763E+01  0.43400710905E+02  0.00000000000E+00 0.  1.
         11    1    3    3    0    0 -0.39045951795E+01  0.11472479397E+02  0.49098096914E+01  0.13075545055E+02  0.51100000000E-03 0. -1.
        -11    1    3    3    0    0 -0.46272437870E+01  0.60169777244E+01  0.66939629139E-01  0.75907764540E+01  0.51100000000E-03 0.  1.
        -12    1    3    3    0    0  0.96356248260E+01  0.25199405009E+02  0.27733741557E+01  0.27120967586E+02  0.00000000000E+00 0.  1.
</event>
<event>
 7    1  0.1457722E-010  0.4778728E+02  0.7816164E-02  0.1312668E+00
        -11   -1    0    0    0    0  0.00000000000E+00  0.00000000000E+00  0.45593999997E+02  0.45594000000E+02  0.51100000000E-03 0. -1.
         11   -1    0    0    0    0 -0.00000000000E+00 -0.00000000000E+00 -0.45593999997E+02  0.45594000000E+02  0.51100000000E-03 0.  1.
    9900012    2    1    2    0    0 -0.14161793407E+02 -0.95117908899E+01  0.39907294331E+02  0.47787277665E+02  0.20000030184E+02 0.  0.
        -12    1    1    2    0    0  0.14161793407E+02  0.95117908899E+01 -0.39907294331E+02  0.43400722335E+02  0.00000000000E+00 0.  1.
         11    1    3    3    0    0 -0.10139237062E+02 -0.84911781773E+01  0.18860775126E+02  0.23035474244E+02  0.51100000000E-03 0. -1.
        -11    1    3    3    0    0  0.28957695830E+01 -0.36929466598E+01  0.40168712301E+01  0.61772640586E+01  0.51100000000E-03 0.  1.
         12    1    3    3    0    0 -0.69183259272E+01  0.26723339471E+01  0.17029647975E+02  0.18574539362E+02  0.00000000000E+00 0. -1.
</event>
<event>
 7    1  0.1457722E-010  0.4778727E+02  0.7816164E-02  0.1312668E+00
        -11   -1    0    0    0    0  0.00000000000E+00  0.00000000000E+00  0.45593999997E+02  0.45594000000E+02  0.51100000000E-03 0.  1.
         11   -1    0    0    0    0 -0.00000000000E+00 -0.00000000000E+00 -0.45593999997E+02  0.45594000000E+02  0.51100000000E-03 0. -1.
    9900012    2    1    2    0    0 -0.29333613140E+02  0.19522635879E+01 -0.31927273928E+02  0.47787274045E+02  0.20000013681E+02 0.  0.
        -12    1    1    2    0    0  0.29333613140E+02 -0.19522635879E+01  0.31927273928E+02  0.43400725955E+02  0.00000000000E+00 0.  1.
         11    1    3    3    0    0 -0.16855110255E+02  0.49505564780E+01 -0.26609629086E+02  0.31885343208E+02  0.51100000000E-03 0. -1.
        -11    1    3    3    0    0 -0.36306127455E+01 -0.16582656128E+01 -0.56842462818E+01  0.69456353060E+01  0.51100000000E-03 0.  1.
        -12    1    3    3    0    0 -0.88478901396E+01 -0.13400272773E+01  0.36660144001E+00  0.89562955312E+01  0.00000000000E+00 0.  1.
</event>
<event>
 7    1  0.1457722E-010  0.4778727E+02  0.7816164E-02  0.1312668E+00
        -11   -1    0    0    0    0  0.00000000000E+00  0.00000000000E+00  0.45593999997E+02  0.45594000000E+02  0.51100000000E-03 0.  1.
         11   -1    0    0    0    0 -0.00000000000E+00 -0.00000000000E+00 -0.45593999997E+02  0.45594000000E+02  0.51100000000E-03 0. -1.
    9900012    2    1    2    0    0 -0.96766883379E+01  0.25931408065E+02 -0.33429731858E+02  0.47787271970E+02  0.20000004222E+02 0.  0.
        -12    1    1    2    0    0  0.96766883379E+01 -0.25931408065E+02  0.33429731858E+02  0.43400728030E+02  0.00000000000E+00 0.  1.
         11    1    3    3    0    0 -0.56864302015E+01  0.28263018296E+01 -0.16460824788E+02  0.17643191985E+02  0.51100000000E-03 0. -1.
        -11    1    3    3    0    0 -0.73702526401E+00  0.12263023934E+02 -0.13614400645E+02  0.18337853404E+02  0.51100000000E-03 0.  1.
        -12    1    3    3    0    0 -0.32532328724E+01  0.10842082301E+02 -0.33545064244E+01  0.11806226582E+02  0.00000000000E+00 0.  1.
</event>
<event>
 7    1  0.1457722E-010  0.4778727E+02  0.7816164E-02  0.1312668E+00
        -11   -1    0    0    0    0  0.00000000000E+00  0.00000000000E+00  0.45593999997E+02  0.45594000000E+02  0.51100000000E-03 0.  1.
         11   -1    0    0    0    0 -0.00000000000E+00 -0.00000000000E+00 -0.45593999997E+02  0.45594000000E+02  0.51100000000E-03 0. -1.
    9900012    2    1    2    0    0  0.10215121146E+02 -0.18304336957E+02 -0.38002969531E+02  0.47787272533E+02  0.20000006787E+02 0.  0.
        -12    1    1    2    0    0 -0.10215121146E+02  0.18304336957E+02  0.38002969531E+02  0.43400727467E+02  0.00000000000E+00 0.  1.
         11    1    3    3    0    0  0.40945869277E+01 -0.15471025308E+01  0.10071429885E+01  0.44914925815E+01  0.51100000000E-03 0.  1.
        -11    1    3    3    0    0  0.47885082001E+01 -0.92146569511E+01 -0.16281524336E+02  0.19311337304E+02  0.51100000000E-03 0. -1.
         12    1    3    3    0    0  0.13320260185E+01 -0.75425774751E+01 -0.22728588184E+02  0.23984442647E+02  0.00000000000E+00 0. -1.
</event>
<event>
 7    1  0.2605797E-010  0.4778727E+02  0.7816164E-02  0.1312668E+00
        -11   -1    0    0    0    0  0.00000000000E+00  0.00000000000E+00  0.45593999997E+02  0.45594000000E+02  0.51100000000E-03 0. -1.
         11   -1    0    0    0    0 -0.00000000000E+00 -0.00000000000E+00 -0.45593999997E+02  0.45594000000E+02  0.51100000000E-03 0.  1.
    9900012    2    1    2    0    0  0.34923091418E+02  0.23637569980E+02  0.10259932995E+02  0.47787271276E+02  0.20000001055E+02 0.  0.
        -12    1    1    2    0    0 -0.34923091418E+02 -0.23637569980E+02 -0.10259932995E+02  0.43400728724E+02  0.00000000000E+00 0.  1.
         11    1    3    3    0    0  0.28241784717E+02  0.13070839347E+02  0.92036715240E+01  0.32452316019E+02  0.51100000000E-03 0. -1.
        -11    1    3    3    0    0  0.66674615035E-02 -0.14974209601E+01 -0.88396536038E-01  0.15000427312E+01  0.51100000000E-03 0.  1.
        -12    1    3    3    0    0  0.66746392395E+01  0.12064151593E+02  0.11446580076E+01  0.13834912526E+02  0.00000000000E+00 0.  1.
</event>
<event>
 7    1  0.1457722E-010  0.4778727E+02  0.7816164E-02  0.1312668E+00
        -11   -1    0    0    0    0  0.00000000000E+00  0.00000000000E+00  0.45593999997E+02  0.45594000000E+02  0.51100000000E-03 0.  1.
         11   -1    0    0    0    0 -0.00000000000E+00 -0.00000000000E+00 -0.45593999997E+02  0.45594000000E+02  0.51100000000E-03 0. -1.
    9900012    2    1    2    0    0  0.11703577862E+02  0.27019623648E+02 -0.31884005078E+02  0.47787267557E+02  0.19999984098E+02 0.  0.
        -12    1    1    2    0    0 -0.11703577862E+02 -0.27019623648E+02  0.31884005078E+02  0.43400732443E+02  0.00000000000E+00 0.  1.
         11    1    3    3    0    0 -0.90919957614E-01  0.10847466347E+02 -0.98899389100E+01  0.14679464721E+02  0.51100000000E-03 0. -1.
        -11    1    3    3    0    0  0.34420488819E+01 -0.15789291692E+01 -0.21090913403E+00  0.37927827186E+01  0.51100000000E-03 0.  1.
        -12    1    3    3    0    0  0.83524489374E+01  0.17751086470E+02 -0.21783157034E+02  0.29315020117E+02  0.00000000000E+00 0.  1.
</event>
<event>
 7    1  0.1457722E-010  0.4778725E+02  0.7816164E-02  0.1312668E+00
        -11   -1    0    0    0    0  0.00000000000E+00  0.00000000000E+00  0.45593999997E+02  0.45594000000E+02  0.51100000000E-03 0.  1.
         11   -1    0    0    0    0 -0.00000000000E+00 -0.00000000000E+00 -0.45593999997E+02  0.45594000000E+02  0.51100000000E-03 0. -1.
    9900012    2    1    2    0    0 -0.80715209827E+01  0.25139615610E+02 -0.34445248310E+02  0.47787252827E+02  0.19999916941E+02 0.  0.
        -12    1    1    2    0    0  0.80715209827E+01 -0.25139615610E+02  0.34445248310E+02  0.43400747173E+02  0.00000000000E+00 0.  1.
         11    1    3    3    0    0 -0.56082020212E+01  0.18143788898E+02 -0.21949749837E+02  0.29024825988E+02  0.51100000000E-03 0. -1.
        -11    1    3    3    0    0 -0.70852418815E+01  0.55904783856E+01 -0.68383079909E+01  0.11323275036E+02  0.51100000000E-03 0.  1.
        -12    1    3    3    0    0  0.46219229201E+01  0.14053483267E+01 -0.56571904827E+01  0.74391518035E+01  0.00000000000E+00 0.  1.
</event>
<event>
 7    1  0.1457722E-010  0.4778727E+02  0.7816164E-02  0.1312668E+00
        -11   -1    0    0    0    0  0.00000000000E+00  0.00000000000E+00  0.45593999997E+02  0.45594000000E+02  0.51100000000E-03 0.  1.
         11   -1    0    0    0    0 -0.00000000000E+00 -0.00000000000E+00 -0.45593999997E+02  0.45594000000E+02  0.51100000000E-03 0. -1.
    9900012    2    1    2    0    0  0.94672865994E+01 -0.25655149852E+02  0.33701736829E+02  0.47787270804E+02  0.19999998904E+02 0.  0.
        -12    1    1    2    0    0 -0.94672865994E+01  0.25655149852E+02 -0.33701736829E+02  0.43400729196E+02  0.00000000000E+00 0.  1.
         11    1    3    3    0    0  0.17434345546E+01 -0.13187564386E+02  0.22166032447E+02  0.25851197520E+02  0.51100000000E-03 0. -1.
        -11    1    3    3    0    0  0.30283844721E+01 -0.24907222206E+00 -0.15639107246E+01  0.34174502920E+01  0.51100000000E-03 0.  1.
         12    1    3    3    0    0  0.46954675726E+01 -0.12218513243E+02  0.13099615106E+02  0.18518622992E+02  0.00000000000E+00 0. -1.
</event>
<event>
 7    1  0.1457722E-010  0.4778727E+02  0.7816164E-02  0.1312668E+00
        -11   -1    0    0    0    0  0.00000000000E+00  0.00000000000E+00  0.45593999997E+02  0.45594000000E+02  0.51100000000E-03 0. -1.
         11   -1    0    0    0    0 -0.00000000000E+00 -0.00000000000E+00 -0.45593999997E+02  0.45594000000E+02  0.51100000000E-03 0.  1.
    9900012    2    1    2    0    0 -0.40753819303E+02  0.14824733944E+02  0.17254457714E+01  0.47787266281E+02  0.19999978281E+02 0.  0.
        -12    1    1    2    0    0  0.40753819303E+02 -0.14824733944E+02 -0.17254457714E+01  0.43400733719E+02  0.00000000000E+00 0.  1.
         11    1    3    3    0    0 -0.13947076424E+02 -0.17581805294E+01  0.59299763547E+01  0.15257023280E+02  0.51100000000E-03 0. -1.
        -11    1    3    3    0    0 -0.60871403684E+01  0.60500599532E+01  0.12033616851E+01  0.86662900314E+01  0.51100000000E-03 0.  1.
         12    1    3    3    0    0 -0.20719602510E+02  0.10532854520E+02 -0.54078922684E+01  0.23863952969E+02  0.00000000000E+00 0. -1.
</event>
<event>
 7    1  0.1457722E-010  0.4778727E+02  0.7816164E-02  0.1312668E+00
        -11   -1    0    0    0    0  0.00000000000E+00  0.00000000000E+00  0.45593999997E+02  0.45594000000E+02  0.51100000000E-03 0.  1.
         11   -1    0    0    0    0 -0.00000000000E+00 -0.00000000000E+00 -0.45593999997E+02  0.45594000000E+02  0.51100000000E-03 0. -1.
    9900012    2    1    2    0    0  0.20308988203E+02  0.20437608862E+02 -0.32457239624E+02  0.47787271184E+02  0.20000000634E+02 0.  0.
        -12    1    1    2    0    0 -0.20308988203E+02 -0.20437608862E+02  0.32457239624E+02  0.43400728816E+02  0.00000000000E+00 0.  1.
         11    1    3    3    0    0 -0.12000284739E+01 -0.96863013518E+00  0.60613031172E-01  0.15433686784E+01  0.51100000000E-03 0. -1.
        -11    1    3    3    0    0  0.85013987221E+01  0.10235388606E+01 -0.67097928599E+01  0.10878544595E+02  0.51100000000E-03 0.  1.
         12    1    3    3    0    0  0.13007617954E+02  0.20382700136E+02 -0.25808059795E+02  0.35365357910E+02  0.00000000000E+00 0. -1.
</event>
<event>
 7    1  0.1457722E-010  0.4778727E+02  0.7816164E-02  0.1312668E+00
        -11   -1    0    0    0    0  0.00000000000E+00  0.00000000000E+00  0.45593999997E+02  0.45594000000E+02  0.51100000000E-03 0.  1.
         11   -1    0    0    0    0 -0.00000000000E+00 -0.00000000000E+00 -0.45593999997E+02  0.45594000000E+02  0.51100000000E-03 0. -1.
    9900012    2    1    2    0    0 -0.24130921272E+02  0.35762533851E+02 -0.47289477893E+01  0.47787272632E+02  0.20000007238E+02 0.  0.
        -12    1    1    2    0    0  0.24130921272E+02 -0.35762533851E+02  0.47289477893E+01  0.43400727368E+02  0.00000000000E+00 0.  1.
         11    1    3    3    0    0  0.12362678956E+01  0.60861835821E+01  0.17960275183E+01  0.64649597070E+01  0.51100000000E-03 0. -1.
        -11    1    3    3    0    0 -0.10553645643E+02  0.43357911368E+01 -0.99208134803E+00  0.11452630562E+02  0.51100000000E-03 0.  1.
         12    1    3    3    0    0 -0.14813543525E+02  0.25340559132E+02 -0.55328939596E+01  0.29869682363E+02  0.00000000000E+00 0. -1.
</event>
<event>
 7    1  0.1457722E-010  0.4778727E+02  0.7816164E-02  0.1312668E+00
        -11   -1    0    0    0    0  0.00000000000E+00  0.00000000000E+00  0.45593999997E+02  0.45594000000E+02  0.51100000000E-03 0. -1.
         11   -1    0    0    0    0 -0.00000000000E+00 -0.00000000000E+00 -0.45593999997E+02  0.45594000000E+02  0.51100000000E-03 0.  1.
    9900012    2    1    2    0    0 -0.30629717919E+02  0.30712084639E+02 -0.14870987115E+01  0.47787271605E+02  0.20000002555E+02 0.  0.
        -12    1    1    2    0    0  0.30629717919E+02 -0.30712084639E+02  0.14870987115E+01  0.43400728395E+02  0.00000000000E+00 0.  1.
         11    1    3    3    0    0 -0.11686914111E+02  0.16876909468E+02  0.70325130223E+00  0.20540413756E+02  0.51100000000E-03 0. -1.
        -11    1    3    3    0    0 -0.15389787841E+01  0.89187718448E+01 -0.20044580086E+00  0.90527965677E+01  0.51100000000E-03 0.  1.
        -12    1    3    3    0    0 -0.17403825023E+02  0.49164033269E+01 -0.19899042129E+01  0.18194061281E+02  0.00000000000E+00 0.  1.
</event>
<event>
 7    1  0.1457722E-010  0.4778728E+02  0.7816164E-02  0.1312668E+00
        -11   -1    0    0    0    0  0.00000000000E+00  0.00000000000E+00  0.45593999997E+02  0.45594000000E+02  0.51100000000E-03 0.  1.
         11   -1    0    0    0    0 -0.00000000000E+00 -0.00000000000E+00 -0.45593999997E+02  0.45594000000E+02  0.51100000000E-03 0. -1.
    9900012    2    1    2    0    0 -0.41507320036E+02  0.55153741665E+01 -0.11416914459E+02  0.47787275300E+02  0.20000019403E+02 0.  0.
        -12    1    1    2    0    0  0.41507320036E+02 -0.55153741665E+01  0.11416914459E+02  0.43400724700E+02  0.00000000000E+00 0.  1.
         11    1    3    3    0    0 -0.11206038975E+02  0.28750619550E+01 -0.92867645851E+01  0.14835271736E+02  0.51100000000E-03 0. -1.
        -11    1    3    3    0    0 -0.77838407337E+01 -0.48155631255E+01 -0.96374654799E+00  0.92036206165E+01  0.51100000000E-03 0.  1.
        -12    1    3    3    0    0 -0.22517440327E+02  0.74558753370E+01 -0.11664033255E+01  0.23748382947E+02  0.00000000000E+00 0.  1.
</event>
<event>
 7    1  0.1457722E-010  0.4778727E+02  0.7816164E-02  0.1312668E+00
        -11   -1    0    0    0    0  0.00000000000E+00  0.00000000000E+00  0.45593999997E+02  0.45594000000E+02  0.51100000000E-03 0.  1.
         11   -1    0    0    0    0 -0.00000000000E+00 -0.00000000000E+00 -0.45593999997E+02  0.45594000000E+02  0.51100000000E-03 0. -1.
    9900012    2    1    2    0    0  0.28906401921E+01  0.31876476213E+02 -0.29311390058E+02  0.47787272776E+02  0.20000007893E+02 0.  0.
        -12    1    1    2    0    0 -0.28906401921E+01 -0.31876476213E+02  0.29311390058E+02  0.43400727224E+02  0.00000000000E+00 0.  1.
         11    1    3    3    0    0 -0.54939151251E+01  0.50390136995E+01 -0.86453784135E+01  0.11415661638E+02  0.51100000000E-03 0. -1.
        -11    1    3    3    0    0  0.40272933884E+01  0.24099020315E+02 -0.19035705921E+02  0.30973213788E+02  0.51100000000E-03 0.  1.
        -12    1    3    3    0    0  0.43572619288E+01  0.27384421984E+01 -0.16303057233E+01  0.53983973494E+01  0.00000000000E+00 0.  1.
</event>
<event>
 7    1  0.1457722E-010  0.4778727E+02  0.7816164E-02  0.1312668E+00
        -11   -1    0    0    0    0  0.00000000000E+00  0.00000000000E+00  0.45593999997E+02  0.45594000000E+02  0.51100000000E-03 0.  1.
         11   -1    0    0    0    0 -0.00000000000E+00 -0.00000000000E+00 -0.45593999997E+02  0.45594000000E+02  0.51100000000E-03 0. -1.
    9900012    2    1    2    0    0 -0.22655029366E+02  0.10102798623E+02 -0.35613290195E+02  0.47787270351E+02  0.19999996838E+02 0.  0.
        -12    1    1    2    0    0  0.22655029366E+02 -0.10102798623E+02  0.35613290195E+02  0.43400729649E+02  0.00000000000E+00 0.  1.
         11    1    3    3    0    0 -0.61096660093E+01  0.68842732305E+01 -0.20481707372E+02  0.22454878619E+02  0.51100000000E-03 0. -1.
        -11    1    3    3    0    0 -0.14306065837E+02 -0.58926427250E+00 -0.15243536658E+02  0.20913540165E+02  0.51100000000E-03 0.  1.
         12    1    3    3    0    0 -0.22392975191E+01  0.38077896650E+01  0.11195383531E+00  0.44188515673E+01  0.00000000000E+00 0. -1.
</event>
<event>
 7    1  0.1457722E-010  0.4778726E+02  0.7816164E-02  0.1312668E+00
        -11   -1    0    0    0    0  0.00000000000E+00  0.00000000000E+00  0.45593999997E+02  0.45594000000E+02  0.51100000000E-03 0.  1.
         11   -1    0    0    0    0 -0.00000000000E+00 -0.00000000000E+00 -0.45593999997E+02  0.45594000000E+02  0.51100000000E-03 0. -1.
    9900012    2    1    2    0    0  0.28869338883E+02 -0.21317209570E+02 -0.24408240710E+02  0.47787258463E+02  0.19999942635E+02 0.  0.
        -12    1    1    2    0    0 -0.28869338883E+02  0.21317209570E+02  0.24408240710E+02  0.43400741537E+02  0.00000000000E+00 0.  1.
         11    1    3    3    0    0  0.92577392114E+00  0.13440146697E+01 -0.50535759933E+01  0.53105614926E+01  0.51100000000E-03 0. -1.
        -11    1    3    3    0    0  0.16096241922E+02 -0.71599261362E+01 -0.51855586212E+01  0.18364192461E+02  0.51100000000E-03 0.  1.
         12    1    3    3    0    0  0.11847323040E+02 -0.15501298104E+02 -0.14169106096E+02  0.24112504509E+02  0.00000000000E+00 0. -1.
</event>
<event>
 7    1  0.1457722E-010  0.4778728E+02  0.7816164E-02  0.1312668E+00
        -11   -1    0    0    0    0  0.00000000000E+00  0.00000000000E+00  0.45593999997E+02  0.45594000000E+02  0.51100000000E-03 0.  1.
         11   -1    0    0    0    0 -0.00000000000E+00 -0.00000000000E+00 -0.45593999997E+02  0.45594000000E+02  0.51100000000E-03 0. -1.
    9900012    2    1    2    0    0  0.16935201451E+01  0.34084771459E+02 -0.26813852328E+02  0.47787281889E+02  0.20000049444E+02 0.  0.
        -12    1    1    2    0    0 -0.16935201451E+01 -0.34084771459E+02  0.26813852328E+02  0.43400718111E+02  0.00000000000E+00 0.  1.
         11    1    3    3    0    0  0.20727398463E+01  0.18525911903E+00 -0.75200286606E+00  0.22127087434E+01  0.51100000000E-03 0. -1.
        -11    1    3    3    0    0 -0.14219310768E+01  0.12131429541E+01 -0.79996656769E+01  0.82151235546E+01  0.51100000000E-03 0.  1.
         12    1    3    3    0    0  0.10427113757E+01  0.32686369386E+02 -0.18062183785E+02  0.37359449591E+02  0.00000000000E+00 0. -1.
</event>
<event>
 7    1  0.1457722E-010  0.4778727E+02  0.7816164E-02  0.1312668E+00
        -11   -1    0    0    0    0  0.00000000000E+00  0.00000000000E+00  0.45593999997E+02  0.45594000000E+02  0.51100000000E-03 0. -1.
         11   -1    0    0    0    0 -0.00000000000E+00 -0.00000000000E+00 -0.45593999997E+02  0.45594000000E+02  0.51100000000E-03 0.  1.
    9900012    2    1    2    0    0 -0.42015261827E+02  0.65766769138E+00 -0.10858575214E+02  0.47787269489E+02  0.19999992910E+02 0.  0.
        -12    1    1    2    0    0  0.42015261827E+02 -0.65766769138E+00  0.10858575214E+02  0.43400730511E+02  0.00000000000E+00 0.  1.
         11    1    3    3    0    0  0.58566216912E+00 -0.64725757857E+00  0.18400474397E+00  0.89207654171E+00  0.51100000000E-03 0. -1.
        -11    1    3    3    0    0 -0.32711239067E+02  0.63206769489E+01 -0.12755797612E+02  0.35674731833E+02  0.51100000000E-03 0.  1.
        -12    1    3    3    0    0 -0.98896849291E+01 -0.50157516790E+01  0.17132176535E+01  0.11220461115E+02  0.00000000000E+00 0.  1.
</event>
<event>
 7    1  0.1474548E-010  0.4778727E+02  0.7816164E-02  0.1312668E+00
        -11   -1    0    0    0    0  0.00000000000E+00  0.00000000000E+00  0.45593999997E+02  0.45594000000E+02  0.51100000000E-03 0.  1.
         11   -1    0    0    0    0 -0.00000000000E+00 -0.00000000000E+00 -0.45593999997E+02  0.45594000000E+02  0.51100000000E-03 0. -1.
    9900012    2    1    2    0    0  0.26941194026E+02 -0.10816023128E+02 -0.32261573184E+02  0.47787269635E+02  0.19999993576E+02 0.  0.
        -12    1    1    2    0    0 -0.26941194026E+02  0.10816023128E+02  0.32261573184E+02  0.43400730365E+02  0.00000000000E+00 0.  1.
         11    1    3    3    0    0  0.12050728493E+02 -0.67714828367E+01 -0.64845396483E+01  0.15268342796E+02  0.51100000000E-03 0.  1.
        -11    1    3    3    0    0  0.28973857044E+01  0.40242594257E+01 -0.39507111059E+01  0.63401598047E+01  0.51100000000E-03 0. -1.
         12    1    3    3    0    0  0.11993079828E+02 -0.80687997165E+01 -0.21826322430E+02  0.26178767035E+02  0.00000000000E+00 0. -1.
</event>
<event>
 7    1  0.1457722E-010  0.4778727E+02  0.7816164E-02  0.1312668E+00
        -11   -1    0    0    0    0  0.00000000000E+00  0.00000000000E+00  0.45593999997E+02  0.45594000000E+02  0.51100000000E-03 0. -1.
         11   -1    0    0    0    0 -0.00000000000E+00 -0.00000000000E+00 -0.45593999997E+02  0.45594000000E+02  0.51100000000E-03 0.  1.
    9900012    2    1    2    0    0  0.28268033186E+02  0.91009942560E+01  0.31649859093E+02  0.47787269853E+02  0.19999994569E+02 0.  0.
        -12    1    1    2    0    0 -0.28268033186E+02 -0.91009942560E+01 -0.31649859093E+02  0.43400730147E+02  0.00000000000E+00 0.  1.
         11    1    3    3    0    0  0.16022424626E+02  0.18682031391E+01  0.98430382152E+01  0.18896922380E+02  0.51100000000E-03 0. -1.
        -11    1    3    3    0    0 -0.12875151751E+01  0.49637903863E+01  0.46623463481E+01  0.69306842415E+01  0.51100000000E-03 0.  1.
         12    1    3    3    0    0  0.13533123735E+02  0.22690007306E+01  0.17144474530E+02  0.21959663231E+02  0.00000000000E+00 0. -1.
</event>
<event>
 7    1  0.1457722E-010  0.4778725E+02  0.7816164E-02  0.1312668E+00
        -11   -1    0    0    0    0  0.00000000000E+00  0.00000000000E+00  0.45593999997E+02  0.45594000000E+02  0.51100000000E-03 0.  1.
         11   -1    0    0    0    0 -0.00000000000E+00 -0.00000000000E+00 -0.45593999997E+02  0.45594000000E+02  0.51100000000E-03 0. -1.
    9900012    2    1    2    0    0 -0.20180440310E+02 -0.37549045055E+02 -0.81513171149E+01  0.47787252007E+02  0.19999913199E+02 0.  0.
        -12    1    1    2    0    0  0.20180440310E+02  0.37549045055E+02  0.81513171149E+01  0.43400747993E+02  0.00000000000E+00 0.  1.
         11    1    3    3    0    0 -0.73670022572E+01 -0.14273671762E+02  0.30535762202E+01  0.16350374792E+02  0.51100000000E-03 0. -1.
        -11    1    3    3    0    0 -0.63458616748E+01 -0.84962629991E+01  0.17484623980E+01  0.10747723776E+02  0.51100000000E-03 0.  1.
         12    1    3    3    0    0 -0.64675763784E+01 -0.14779110294E+02 -0.12953355733E+02  0.20689153439E+02  0.00000000000E+00 0. -1.
</event>
<event>
 7    1  0.1457722E-010  0.4778727E+02  0.7816164E-02  0.1312668E+00
        -11   -1    0    0    0    0  0.00000000000E+00  0.00000000000E+00  0.45593999997E+02  0.45594000000E+02  0.51100000000E-03 0.  1.
         11   -1    0    0    0    0 -0.00000000000E+00 -0.00000000000E+00 -0.45593999997E+02  0.45594000000E+02  0.51100000000E-03 0. -1.
    9900012    2    1    2    0    0  0.18214109419E+02  0.20577684307E+01 -0.39339990353E+02  0.47787273810E+02  0.20000012611E+02 0.  0.
        -12    1    1    2    0    0 -0.18214109419E+02 -0.20577684307E+01  0.39339990353E+02  0.43400726190E+02  0.00000000000E+00 0.  1.
         11    1    3    3    0    0  0.56386684658E+01 -0.43615428294E+01 -0.87955575375E+01  0.11321637275E+02  0.51100000000E-03 0. -1.
        -11    1    3    3    0    0  0.72966467719E+01  0.70981628939E+01 -0.70663662464E+01  0.12391872448E+02  0.51100000000E-03 0.  1.
         12    1    3    3    0    0  0.52787941812E+01 -0.67885163376E+00 -0.23478066569E+02  0.24073764088E+02  0.00000000000E+00 0. -1.
</event>
<event>
 7    1  0.1457722E-010  0.4778728E+02  0.7816164E-02  0.1312668E+00
        -11   -1    0    0    0    0  0.00000000000E+00  0.00000000000E+00  0.45593999997E+02  0.45594000000E+02  0.51100000000E-03 0.  1.
         11   -1    0    0    0    0 -0.00000000000E+00 -0.00000000000E+00 -0.45593999997E+02  0.45594000000E+02  0.51100000000E-03 0. -1.
    9900012    2    1    2    0    0  0.36645772089E+02 -0.31934201235E+01 -0.23032849863E+02  0.47787277461E+02  0.20000029257E+02 0.  0.
        -12    1    1    2    0    0 -0.36645772089E+02  0.31934201235E+01  0.23032849863E+02  0.43400722539E+02  0.00000000000E+00 0.  1.
         11    1    3    3    0    0  0.20765524108E+02 -0.75854091466E+01 -0.67064267139E+01  0.23102415089E+02  0.51100000000E-03 0.  1.
        -11    1    3    3    0    0  0.10611141396E+02 -0.85966866012E+00 -0.69414869783E+01  0.12709035906E+02  0.51100000000E-03 0. -1.
        -12    1    3    3    0    0  0.52691065842E+01  0.52516576833E+01 -0.93849361708E+01  0.11975826466E+02  0.00000000000E+00 0.  1.
</event>
<event>
 7    1  0.1457722E-010  0.4778724E+02  0.7816164E-02  0.1312668E+00
        -11   -1    0    0    0    0  0.00000000000E+00  0.00000000000E+00  0.45593999997E+02  0.45594000000E+02  0.51100000000E-03 0.  1.
         11   -1    0    0    0    0 -0.00000000000E+00 -0.00000000000E+00 -0.45593999997E+02  0.45594000000E+02  0.51100000000E-03 0. -1.
    9900012    2    1    2    0    0  0.25314885119E+02  0.35253027086E+02  0.82386730488E-01  0.47787238315E+02  0.19999850771E+02 0.  0.
        -12    1    1    2    0    0 -0.25314885119E+02 -0.35253027086E+02 -0.82386730488E-01  0.43400761685E+02  0.00000000000E+00 0.  1.
         11    1    3    3    0    0  0.87492962087E+01  0.56515037214E+01  0.35539076741E+01  0.11005450399E+02  0.51100000000E-03 0. -1.
        -11    1    3    3    0    0  0.64815258632E+00  0.41344007898E+01 -0.52297852517E+01  0.66980613394E+01  0.51100000000E-03 0.  1.
        -12    1    3    3    0    0  0.15917436324E+02  0.25467122575E+02  0.17582643081E+01  0.30083726577E+02  0.00000000000E+00 0.  1.
</event>
<event>
 7    1  0.1457722E-010  0.4778727E+02  0.7816164E-02  0.1312668E+00
        -11   -1    0    0    0    0  0.00000000000E+00  0.00000000000E+00  0.45593999997E+02  0.45594000000E+02  0.51100000000E-03 0.  1.
         11   -1    0    0    0    0 -0.00000000000E+00 -0.00000000000E+00 -0.45593999997E+02  0.45594000000E+02  0.51100000000E-03 0. -1.
    9900012    2    1    2    0    0 -0.99364121436E+01  0.22169725972E+02 -0.35963792590E+02  0.47787269437E+02  0.19999992670E+02 0.  0.
        -12    1    1    2    0    0  0.99364121436E+01 -0.22169725972E+02  0.35963792590E+02  0.43400730563E+02  0.00000000000E+00 0.  1.
         11    1    3    3    0    0 -0.12346779306E+01  0.18427954930E+02 -0.17704073229E+02  0.25584138869E+02  0.51100000000E-03 0. -1.
        -11    1    3    3    0    0  0.72792932860E+00 -0.13236994348E+01 -0.46446033468E+01  0.48840968266E+01  0.51100000000E-03 0.  1.
         12    1    3    3    0    0 -0.94296635416E+01  0.50654704766E+01 -0.13615116014E+02  0.17319033741E+02  0.00000000000E+00 0. -1.
</event>
<event>
 7    1  0.1457722E-010  0.4778728E+02  0.7816164E-02  0.1312668E+00
        -11   -1    0    0    0    0  0.00000000000E+00  0.00000000000E+00  0.45593999997E+02  0.45594000000E+02  0.51100000000E-03 0.  1.
         11   -1    0    0    0    0 -0.00000000000E+00 -0.00000000000E+00 -0.45593999997E+02  0.45594000000E+02  0.51100000000E-03 0. -1.
    9900012    2    1    2    0    0 -0.38697416420E+02  0.10015148188E+02 -0.16906489732E+02  0.47787278510E+02  0.20000034038E+02 0.  0.
        -12    1    1    2    0    0  0.38697416420E+02 -0.10015148188E+02  0.16906489732E+02  0.43400721490E+02  0.00000000000E+00 0.  1.
         11    1    3    3    0    0 -0.14369624528E+02  0.36992107849E+01 -0.20631179084E+01  0.14980878655E+02  0.51100000000E-03 0. -1.
        -11    1    3    3    0    0  0.17228321321E+01 -0.61347181594E+00  0.35157841117E+00  0.18622851190E+01  0.51100000000E-03 0.  1.
        -12    1    3    3    0    0 -0.26050624024E+02  0.69294092186E+01 -0.15194950234E+02  0.30944114736E+02  0.00000000000E+00 0.  1.
</event>
<event>
 7    1  0.1457722E-010  0.4778727E+02  0.7816164E-02  0.1312668E+00
        -11   -1    0    0    0    0  0.00000000000E+00  0.00000000000E+00  0.45593999997E+02  0.45594000000E+02  0.51100000000E-03 0.  1.
         11   -1    0    0    0    0 -0.00000000000E+00 -0.00000000000E+00 -0.45593999997E+02  0.45594000000E+02  0.51100000000E-03 0. -1.
    9900012    2    1    2    0    0  0.32743918237E+02  0.26661295607E+02  0.10031683812E+02  0.47787267920E+02  0.19999985756E+02 0.  0.
        -12    1    1    2    0    0 -0.32743918237E+02 -0.26661295607E+02 -0.10031683812E+02  0.43400732080E+02  0.00000000000E+00 0.  1.
         11    1    3    3    0    0  0.11093553001E+02  0.42809733433E+01 -0.81816027086E+00  0.11919019987E+02  0.51100000000E-03 0. -1.
        -11    1    3    3    0    0  0.13615954215E+02  0.51773542087E+01  0.13272500523E+01  0.14627398906E+02  0.51100000000E-03 0.  1.
        -12    1    3    3    0    0  0.80344110208E+01  0.17202968055E+02  0.95225940306E+01  0.21240849028E+02  0.00000000000E+00 0.  1.
</event>
<event>
 7    1  0.1457722E-010  0.4778727E+02  0.7816164E-02  0.1312668E+00
        -11   -1    0    0    0    0  0.00000000000E+00  0.00000000000E+00  0.45593999997E+02  0.45594000000E+02  0.51100000000E-03 0.  1.
         11   -1    0    0    0    0 -0.00000000000E+00 -0.00000000000E+00 -0.45593999997E+02  0.45594000000E+02  0.51100000000E-03 0. -1.
    9900012    2    1    2    0    0 -0.41673500808E+02  0.10450340012E+02 -0.61426920154E+01  0.47787274877E+02  0.20000017476E+02 0.  0.
        -12    1    1    2    0    0  0.41673500808E+02 -0.10450340012E+02  0.61426920154E+01  0.43400725123E+02  0.00000000000E+00 0.  1.
         11    1    3    3    0    0 -0.12122214095E+02  0.43209495059E+00 -0.82749574958E+01  0.14683654260E+02  0.51100000000E-03 0. -1.
        -11    1    3    3    0    0 -0.92726417870E+01  0.59445882958E+01 -0.36896965791E+01  0.11616104202E+02  0.51100000000E-03 0.  1.
        -12    1    3    3    0    0 -0.20278644926E+02  0.40736567654E+01  0.58219620595E+01  0.21487516416E+02  0.00000000000E+00 0.  1.
</event>
<event>
 7    1  0.1457722E-010  0.4778725E+02  0.7816164E-02  0.1312668E+00
        -11   -1    0    0    0    0  0.00000000000E+00  0.00000000000E+00  0.45593999997E+02  0.45594000000E+02  0.51100000000E-03 0.  1.
         11   -1    0    0    0    0 -0.00000000000E+00 -0.00000000000E+00 -0.45593999997E+02  0.45594000000E+02  0.51100000000E-03 0. -1.
    9900012    2    1    2    0    0  0.29347076182E+02  0.12189178520E+02 -0.29560070055E+02  0.47787254671E+02  0.19999925349E+02 0.  0.
        -12    1    1    2    0    0 -0.29347076182E+02 -0.12189178520E+02  0.29560070055E+02  0.43400745329E+02  0.00000000000E+00 0.  1.
         11    1    3    3    0    0  0.26090807225E+00  0.68043154048E+01 -0.49733816937E+01  0.84321590878E+01  0.51100000000E-03 0.  1.
        -11    1    3    3    0    0  0.76388711450E+01 -0.13032438028E+01 -0.96526514020E+01  0.12378387461E+02  0.51100000000E-03 0. -1.
        -12    1    3    3    0    0  0.21447296965E+02  0.66881069176E+01 -0.14934036959E+02  0.26976708123E+02  0.00000000000E+00 0.  1.
</event>
<event>
 7    1  0.1457722E-010  0.4778727E+02  0.7816164E-02  0.1312668E+00
        -11   -1    0    0    0    0  0.00000000000E+00  0.00000000000E+00  0.45593999997E+02  0.45594000000E+02  0.51100000000E-03 0.  1.
         11   -1    0    0    0    0 -0.00000000000E+00 -0.00000000000E+00 -0.45593999997E+02  0.45594000000E+02  0.51100000000E-03 0. -1.
    9900012    2    1    2    0    0  0.30974955602E+02  0.95946553285E+01 -0.28846456682E+02  0.47787270184E+02  0.19999996077E+02 0.  0.
        -12    1    1    2    0    0 -0.30974955602E+02 -0.95946553285E+01  0.28846456682E+02  0.43400729816E+02  0.00000000000E+00 0.  1.
         11    1    3    3    0    0  0.21870277334E+02  0.65224278497E+01 -0.14806782119E+02  0.27204629987E+02  0.51100000000E-03 0. -1.
        -11    1    3    3    0    0  0.82725698880E+01  0.69152547706E+01 -0.12070738367E+02  0.16185143993E+02  0.51100000000E-03 0.  1.
        -12    1    3    3    0    0  0.83210838045E+00 -0.38430272918E+01 -0.19689361952E+01  0.43974962039E+01  0.00000000000E+00 0.  1.
</event>
<event>
 7    1  0.1457722E-010  0.4778727E+02  0.7816164E-02  0.1312668E+00
        -11   -1    0    0    0    0  0.00000000000E+00  0.00000000000E+00  0.45593999997E+02  0.45594000000E+02  0.51100000000E-03 0. -1.
         11   -1    0    0    0    0 -0.00000000000E+00 -0.00000000000E+00 -0.45593999997E+02  0.45594000000E+02  0.51100000000E-03 0.  1.
    9900012    2    1    2    0    0  0.24900188049E+02 -0.20560062217E+02  0.28998059960E+02  0.47787274146E+02  0.20000014140E+02 0.  0.
        -12    1    1    2    0    0 -0.24900188049E+02  0.20560062217E+02 -0.28998059960E+02  0.43400725854E+02  0.00000000000E+00 0.  1.
         11    1    3    3    0    0  0.37089482224E+01 -0.13080593218E+02  0.95427444497E+01  0.16610905687E+02  0.51100000000E-03 0. -1.
        -11    1    3    3    0    0  0.13563046246E+02 -0.89961297620E+01  0.15394223611E+02  0.22402426096E+02  0.51100000000E-03 0.  1.
        -12    1    3    3    0    0  0.76281935801E+01  0.15166607626E+01  0.40610918997E+01  0.87739423626E+01  0.00000000000E+00 0.  1.
</event>
<event>
 7    1  0.1457722E-010  0.4778727E+02  0.7816164E-02  0.1312668E+00
        -11   -1    0    0    0    0  0.00000000000E+00  0.00000000000E+00  0.45593999997E+02  0.45594000000E+02  0.51100000000E-03 0.  1.
         11   -1    0    0    0    0 -0.00000000000E+00 -0.00000000000E+00 -0.45593999997E+02  0.45594000000E+02  0.51100000000E-03 0. -1.
    9900012    2    1    2    0    0 -0.17875647059E+02  0.27417092897E+02 -0.28502421401E+02  0.47787265370E+02  0.19999974128E+02 0.  0.
        -12    1    1    2    0    0  0.17875647059E+02 -0.27417092897E+02  0.28502421401E+02  0.43400734630E+02  0.00000000000E+00 0.  1.
         11    1    3    3    0    0 -0.15291828810E+02  0.20754254281E+02 -0.29106133723E+02  0.38881179505E+02  0.51100000000E-03 0. -1.
        -11    1    3    3    0    0 -0.38797005315E+01  0.28850673770E+01  0.83114828612E+00  0.49057616859E+01  0.51100000000E-03 0.  1.
        -12    1    3    3    0    0  0.12958822819E+01  0.37777712390E+01 -0.22743596396E+00  0.40003241794E+01  0.00000000000E+00 0.  1.
</event>
<event>
 7    1  0.1457722E-010  0.4778727E+02  0.7816164E-02  0.1312668E+00
        -11   -1    0    0    0    0  0.00000000000E+00  0.00000000000E+00  0.45593999997E+02  0.45594000000E+02  0.51100000000E-03 0.  1.
         11   -1    0    0    0    0 -0.00000000000E+00 -0.00000000000E+00 -0.45593999997E+02  0.45594000000E+02  0.51100000000E-03 0. -1.
    9900012    2    1    2    0    0 -0.25197613246E+01 -0.40399654514E+02 -0.15657004828E+02  0.47787273253E+02  0.20000010068E+02 0.  0.
        -12    1    1    2    0    0  0.25197613246E+01  0.40399654514E+02  0.15657004828E+02  0.43400726747E+02  0.00000000000E+00 0.  1.
         11    1    3    3    0    0 -0.58277977977E+01 -0.19587259960E+02 -0.12059045607E+02  0.23728560031E+02  0.51100000000E-03 0. -1.
        -11    1    3    3    0    0 -0.31021462993E+00 -0.75979094172E+01  0.37861521304E+01  0.84946694371E+01  0.51100000000E-03 0.  1.
         12    1    3    3    0    0  0.36182511031E+01 -0.13214485137E+02 -0.73841113519E+01  0.15564043785E+02  0.00000000000E+00 0. -1.
</event>
<event>
 7    1  0.1457722E-010  0.4778727E+02  0.7816164E-02  0.1312668E+00
        -11   -1    0    0    0    0  0.00000000000E+00  0.00000000000E+00  0.45593999997E+02  0.45594000000E+02  0.51100000000E-03 0.  1.
         11   -1    0    0    0    0 -0.00000000000E+00 -0.00000000000E+00 -0.45593999997E+02  0.45594000000E+02  0.51100000000E-03 0. -1.
    9900012    2    1    2    0    0 -0.23751346187E+02  0.20647620051E+02 -0.29885992149E+02  0.47787272054E+02  0.20000004605E+02 0.  0.
        -12    1    1    2    0    0  0.23751346187E+02 -0.20647620051E+02  0.29885992149E+02  0.43400727946E+02  0.00000000000E+00 0.  1.
         11    1    3    3    0    0  0.25413956857E+00  0.28933557080E+01 -0.25675784366E+00  0.29158221867E+01  0.51100000000E-03 0. -1.
        -11    1    3    3    0    0  0.23132047255E+01  0.12311512777E+01 -0.21723625551E+01  0.34037933108E+01  0.51100000000E-03 0.  1.
         12    1    3    3    0    0 -0.26318690481E+02  0.16523113066E+02 -0.27456871750E+02  0.41467656557E+02  0.00000000000E+00 0. -1.
</event>
<event>
 7    1  0.1457722E-010  0.4778727E+02  0.7816164E-02  0.1312668E+00
        -11   -1    0    0    0    0  0.00000000000E+00  0.00000000000E+00  0.45593999997E+02  0.45594000000E+02  0.51100000000E-03 0.  1.
         11   -1    0    0    0    0 -0.00000000000E+00 -0.00000000000E+00 -0.45593999997E+02  0.45594000000E+02  0.51100000000E-03 0. -1.
    9900012    2    1    2    0    0 -0.26954473387E+02 -0.27015920060E+02 -0.20669295754E+02  0.47787270061E+02  0.19999995518E+02 0.  0.
        -12    1    1    2    0    0  0.26954473387E+02  0.27015920060E+02  0.20669295754E+02  0.43400729939E+02  0.00000000000E+00 0.  1.
         11    1    3    3    0    0  0.17081216137E+01 -0.42981034056E+01 -0.17264445764E+01  0.49367989091E+01  0.51100000000E-03 0. -1.
        -11    1    3    3    0    0  0.43383521170E+00  0.48901559610E+00 -0.17216456675E+01  0.18415790261E+01  0.51100000000E-03 0.  1.
         12    1    3    3    0    0 -0.29096430212E+02 -0.23206832251E+02 -0.17221205510E+02  0.41008892126E+02  0.00000000000E+00 0. -1.
</event>
<event>
 7    1  0.1457722E-010  0.4778727E+02  0.7816164E-02  0.1312668E+00
        -11   -1    0    0    0    0  0.00000000000E+00  0.00000000000E+00  0.45593999997E+02  0.45594000000E+02  0.51100000000E-03 0.  1.
         11   -1    0    0    0    0 -0.00000000000E+00 -0.00000000000E+00 -0.45593999997E+02  0.45594000000E+02  0.51100000000E-03 0. -1.
    9900012    2    1    2    0    0  0.30752532505E+02 -0.23215927128E+01 -0.30537111091E+02  0.47787271872E+02  0.20000003775E+02 0.  0.
        -12    1    1    2    0    0 -0.30752532505E+02  0.23215927128E+01  0.30537111091E+02  0.43400728128E+02  0.00000000000E+00 0.  1.
         11    1    3    3    0    0  0.92106862506E+01  0.42112667693E+01 -0.14474211761E+02  0.17665625247E+02  0.51100000000E-03 0. -1.
        -11    1    3    3    0    0  0.60796347419E+01  0.21134252452E+01 -0.89669239044E+01  0.11037855291E+02  0.51100000000E-03 0.  1.
         12    1    3    3    0    0  0.15462211513E+02 -0.86462847273E+01 -0.70959754264E+01  0.19083791334E+02  0.00000000000E+00 0. -1.
</event>
<event>
 7    1  0.1457722E-010  0.4778727E+02  0.7816164E-02  0.1312668E+00
        -11   -1    0    0    0    0  0.00000000000E+00  0.00000000000E+00  0.45593999997E+02  0.45594000000E+02  0.51100000000E-03 0. -1.
         11   -1    0    0    0    0 -0.00000000000E+00 -0.00000000000E+00 -0.45593999997E+02  0.45594000000E+02  0.51100000000E-03 0.  1.
    9900012    2    1    2    0    0 -0.22990807714E+02 -0.27875550493E+02  0.24041622588E+02  0.47787272227E+02  0.20000005390E+02 0.  0.
        -12    1    1    2    0    0  0.22990807714E+02  0.27875550493E+02 -0.24041622588E+02  0.43400727773E+02  0.00000000000E+00 0.  1.
         11    1    3    3    0    0 -0.67707866539E+01 -0.12540181627E+02  0.16439435597E+02  0.21756717357E+02  0.51100000000E-03 0. -1.
        -11    1    3    3    0    0 -0.14707923327E+02 -0.79546645357E+01  0.78939106640E+01  0.18490903772E+02  0.51100000000E-03 0.  1.
        -12    1    3    3    0    0 -0.15120977328E+01 -0.73807043304E+01 -0.29172367400E+00  0.75396510973E+01  0.00000000000E+00 0.  1.
</event>
<event>
 7    1  0.1457722E-010  0.4778727E+02  0.7816164E-02  0.1312668E+00
        -11   -1    0    0    0    0  0.00000000000E+00  0.00000000000E+00  0.45593999997E+02  0.45594000000E+02  0.51100000000E-03 0.  1.
         11   -1    0    0    0    0 -0.00000000000E+00 -0.00000000000E+00 -0.45593999997E+02  0.45594000000E+02  0.51100000000E-03 0. -1.
    9900012    2    1    2    0    0 -0.33912945883E+02  0.25370418698E+02 -0.94803801782E+01  0.47787266692E+02  0.19999980154E+02 0.  0.
        -12    1    1    2    0    0  0.33912945883E+02 -0.25370418698E+02  0.94803801782E+01  0.43400733308E+02  0.00000000000E+00 0.  1.
         11    1    3    3    0    0 -0.32738250757E+02  0.20041272814E+02 -0.92130584030E+01  0.39475639628E+02  0.51100000000E-03 0. -1.
        -11    1    3    3    0    0 -0.43420795019E+00 -0.14203431098E+01  0.23227960314E+00  0.15032847930E+01  0.51100000000E-03 0.  1.
         12    1    3    3    0    0 -0.74048717582E+00  0.67494889942E+01 -0.49960137832E+00  0.68083422709E+01  0.00000000000E+00 0. -1.
</event>
<event>
 7    1  0.1457722E-010  0.4778728E+02  0.7816164E-02  0.1312668E+00
        -11   -1    0    0    0    0  0.00000000000E+00  0.00000000000E+00  0.45593999997E+02  0.45594000000E+02  0.51100000000E-03 0. -1.
         11   -1    0    0    0    0 -0.00000000000E+00 -0.00000000000E+00 -0.45593999997E+02  0.45594000000E+02  0.51100000000E-03 0.  1.
    9900012    2    1    2    0    0  0.99814973301E+00 -0.26136734721E+02  0.34633757553E+02  0.47787281492E+02  0.20000047635E+02 0.  0.
        -12    1    1    2    0    0 -0.99814973301E+00  0.26136734721E+02 -0.34633757553E+02  0.43400718508E+02  0.00000000000E+00 0.  1.
         11    1    3    3    0    0 -0.35620045387E+01 -0.16422790839E+02  0.15963928741E+02  0.23178502031E+02  0.51100000000E-03 0. -1.
        -11    1    3    3    0    0 -0.36006996052E+00 -0.11537855461E+00 -0.16020049860E+01  0.16460202987E+01  0.51100000000E-03 0.  1.
        -12    1    3    3    0    0  0.49202242322E+01 -0.95985653276E+01  0.20271833797E+02  0.22962759163E+02  0.00000000000E+00 0.  1.
</event>
<event>
 7    1  0.1457722E-010  0.4778727E+02  0.7816164E-02  0.1312668E+00
        -11   -1    0    0    0    0  0.00000000000E+00  0.00000000000E+00  0.45593999997E+02  0.45594000000E+02  0.51100000000E-03 0. -1.
         11   -1    0    0    0    0 -0.00000000000E+00 -0.00000000000E+00 -0.45593999997E+02  0.45594000000E+02  0.51100000000E-03 0.  1.
    9900012    2    1    2    0    0  0.12476195236E+02 -0.78677962295E+01  0.40817463242E+02  0.47787274538E+02  0.20000015929E+02 0.  0.
        -12    1    1    2    0    0 -0.12476195236E+02  0.78677962295E+01 -0.40817463242E+02  0.43400725462E+02  0.00000000000E+00 0.  1.
         11    1    3    3    0    0  0.53500738511E+01 -0.63785606168E+01  0.22255631941E+02  0.23761786109E+02  0.51100000000E-03 0. -1.
        -11    1    3    3    0    0  0.57945670225E+01  0.36492255342E-01  0.46237807087E+00  0.58131000683E+01  0.51100000000E-03 0.  1.
         12    1    3    3    0    0  0.13315543621E+01 -0.15257278681E+01  0.18099453231E+02  0.18212388360E+02  0.00000000000E+00 0. -1.
</event>
<event>
 7    1  0.1457722E-010  0.4778729E+02  0.7816164E-02  0.1312668E+00
        -11   -1    0    0    0    0  0.00000000000E+00  0.00000000000E+00  0.45593999997E+02  0.45594000000E+02  0.51100000000E-03 0.  1.
         11   -1    0    0    0    0 -0.00000000000E+00 -0.00000000000E+00 -0.45593999997E+02  0.45594000000E+02  0.51100000000E-03 0. -1.
    9900012    2    1    2    0    0  0.11848690125E+02  0.32819049966E+02 -0.25809695865E+02  0.47787286884E+02  0.20000072218E+02 0.  0.
        -12    1    1    2    0    0 -0.11848690125E+02 -0.32819049966E+02  0.25809695865E+02  0.43400713116E+02  0.00000000000E+00 0.  1.
         11    1    3    3    0    0  0.72468558826E+01  0.16716437198E+01 -0.76168600612E+01  0.10645556367E+02  0.51100000000E-03 0. -1.
        -11    1    3    3    0    0  0.10402595647E+01  0.14348930736E+02 -0.41901582201E+01  0.14984371171E+02  0.51100000000E-03 0.  1.
         12    1    3    3    0    0  0.35615746774E+01  0.16798475510E+02 -0.14002677584E+02  0.22157359346E+02  0.00000000000E+00 0. -1.
</event>
<event>
 7    1  0.1457722E-010  0.4778727E+02  0.7816164E-02  0.1312668E+00
        -11   -1    0    0    0    0  0.00000000000E+00  0.00000000000E+00  0.45593999997E+02  0.45594000000E+02  0.51100000000E-03 0.  1.
         11   -1    0    0    0    0 -0.00000000000E+00 -0.00000000000E+00 -0.45593999997E+02  0.45594000000E+02  0.51100000000E-03 0. -1.
    9900012    2    1    2    0    0  0.34416946173E+02 -0.11673564199E+02 -0.23723940621E+02  0.47787266786E+02  0.19999980584E+02 0.  0.
        -12    1    1    2    0    0 -0.34416946173E+02  0.11673564199E+02  0.23723940621E+02  0.43400733214E+02  0.00000000000E+00 0.  1.
         11    1    3    3    0    0  0.89157662731E+01 -0.69201588780E+01 -0.10287124407E+02  0.15271031922E+02  0.51100000000E-03 0. -1.
        -11    1    3    3    0    0  0.16177034367E+02  0.31353842556E+01 -0.11631857364E+02  0.20169957395E+02  0.51100000000E-03 0.  1.
        -12    1    3    3    0    0  0.93241455326E+01 -0.78887895761E+01 -0.18049588505E+01  0.12346277469E+02  0.00000000000E+00 0.  1.
</event>
<event>
 7    1  0.1457722E-010  0.4778724E+02  0.7816164E-02  0.1312668E+00
        -11   -1    0    0    0    0  0.00000000000E+00  0.00000000000E+00  0.45593999997E+02  0.45594000000E+02  0.51100000000E-03 0. -1.
         11   -1    0    0    0    0 -0.00000000000E+00 -0.00000000000E+00 -0.45593999997E+02  0.45594000000E+02  0.51100000000E-03 0.  1.
    9900012    2    1    2    0    0 -0.30259020517E+02  0.14653682651E+02 -0.27446084338E+02  0.47787236373E+02  0.19999841920E+02 0.  0.
        -12    1    1    2    0    0  0.30259020517E+02 -0.14653682651E+02  0.27446084338E+02  0.43400763627E+02  0.00000000000E+00 0.  1.
         11    1    3    3    0    0 -0.26840395131E+01 -0.31215752489E+01 -0.18752112967E+01  0.45237946251E+01  0.51100000000E-03 0. -1.
        -11    1    3    3    0    0 -0.17970302154E+02  0.64422422252E+01 -0.19275835484E+02  0.27129173933E+02  0.51100000000E-03 0.  1.
         12    1    3    3    0    0 -0.96046788495E+01  0.11333015675E+02 -0.62950375572E+01  0.16134267815E+02  0.00000000000E+00 0. -1.
</event>
<event>
 7    1  0.1457722E-010  0.4778727E+02  0.7816164E-02  0.1312668E+00
        -11   -1    0    0    0    0  0.00000000000E+00  0.00000000000E+00  0.45593999997E+02  0.45594000000E+02  0.51100000000E-03 0. -1.
         11   -1    0    0    0    0 -0.00000000000E+00 -0.00000000000E+00 -0.45593999997E+02  0.45594000000E+02  0.51100000000E-03 0.  1.
    9900012    2    1    2    0    0  0.84264919580E+01 -0.41741216496E+02  0.83838220920E+01  0.47787269658E+02  0.19999993681E+02 0.  0.
        -12    1    1    2    0    0 -0.84264919580E+01  0.41741216496E+02 -0.83838220920E+01  0.43400730342E+02  0.00000000000E+00 0.  1.
         11    1    3    3    0    0  0.74690204847E+01 -0.17885016562E+02 -0.26414382014E+00  0.19383752388E+02  0.51100000000E-03 0. -1.
        -11    1    3    3    0    0 -0.18811138787E+01 -0.12443773866E+02  0.10634693912E+02  0.16476735487E+02  0.51100000000E-03 0.  1.
        -12    1    3    3    0    0  0.28385853520E+01 -0.11412426068E+02 -0.19867279994E+01  0.11926781783E+02  0.00000000000E+00 0.  1.
</event>
<event>
 7    1  0.1457722E-010  0.4778727E+02  0.7816164E-02  0.1312668E+00
        -11   -1    0    0    0    0  0.00000000000E+00  0.00000000000E+00  0.45593999997E+02  0.45594000000E+02  0.51100000000E-03 0.  1.
         11   -1    0    0    0    0 -0.00000000000E+00 -0.00000000000E+00 -0.45593999997E+02  0.45594000000E+02  0.51100000000E-03 0. -1.
    9900012    2    1    2    0    0 -0.40811638318E+02 -0.10988316669E+01  0.14725025657E+02  0.47787266897E+02  0.19999981091E+02 0.  0.
        -12    1    1    2    0    0  0.40811638318E+02  0.10988316669E+01 -0.14725025657E+02  0.43400733103E+02  0.00000000000E+00 0.  1.
         11    1    3    3    0    0 -0.23804715307E+02 -0.72011815680E+01  0.11352791000E+02  0.27338751811E+02  0.51100000000E-03 0. -1.
        -11    1    3    3    0    0 -0.16128414244E+02  0.23439645055E+01  0.24597259519E+01  0.16482419957E+02  0.51100000000E-03 0.  1.
        -12    1    3    3    0    0 -0.87850876760E+00  0.37583853957E+01  0.91250870546E+00  0.39660951293E+01  0.00000000000E+00 0.  1.
</event>
<event>
 7    1  0.1457722E-010  0.4778727E+02  0.7816164E-02  0.1312668E+00
        -11   -1    0    0    0    0  0.00000000000E+00  0.00000000000E+00  0.45593999997E+02  0.45594000000E+02  0.51100000000E-03 0.  1.
         11   -1    0    0    0    0 -0.00000000000E+00 -0.00000000000E+00 -0.45593999997E+02  0.45594000000E+02  0.51100000000E-03 0. -1.
    9900012    2    1    2    0    0  0.33355521788E+02 -0.26943323340E+02 -0.67149269170E+01  0.47787265561E+02  0.19999974998E+02 0.  0.
        -12    1    1    2    0    0 -0.33355521788E+02  0.26943323340E+02  0.67149269170E+01  0.43400734439E+02  0.00000000000E+00 0.  1.
         11    1    3    3    0    0  0.79896249905E+01  0.18685893929E+00 -0.18224573963E+00  0.79938875100E+01  0.51100000000E-03 0.  1.
        -11    1    3    3    0    0  0.10584051925E+02 -0.11816443612E+02 -0.92072737643E+01  0.18341875183E+02  0.51100000000E-03 0. -1.
        -12    1    3    3    0    0  0.14781844872E+02 -0.15313738667E+02  0.26745925869E+01  0.21451502868E+02  0.00000000000E+00 0.  1.
</event>
<event>
 7    1  0.1457722E-010  0.4778727E+02  0.7816164E-02  0.1312668E+00
        -11   -1    0    0    0    0  0.00000000000E+00  0.00000000000E+00  0.45593999997E+02  0.45594000000E+02  0.51100000000E-03 0. -1.
         11   -1    0    0    0    0 -0.00000000000E+00 -0.00000000000E+00 -0.45593999997E+02  0.45594000000E+02  0.51100000000E-03 0.  1.
    9900012    2    1    2    0    0 -0.23846720612E+02 -0.23707852337E+01  0.36184759232E+02  0.47787268356E+02  0.19999987741E+02 0.  0.
        -12    1    1    2    0    0  0.23846720612E+02  0.23707852337E+01 -0.36184759232E+02  0.43400731644E+02  0.00000000000E+00 0.  1.
         11    1    3    3    0    0 -0.37366587931E+01  0.21720742972E+00 -0.74300856424E+00  0.38160005229E+01  0.51100000000E-03 0. -1.
        -11    1    3    3    0    0 -0.34101356781E+01 -0.33079522787E+00  0.51028269395E-01  0.34265222853E+01  0.51100000000E-03 0.  1.
         12    1    3    3    0    0 -0.16699926141E+02 -0.22571974356E+01  0.36876739527E+02  0.40544745547E+02  0.00000000000E+00 0. -1.
</event>
<event>
 7    1  0.1457722E-010  0.4778727E+02  0.7816164E-02  0.1312668E+00
        -11   -1    0    0    0    0  0.00000000000E+00  0.00000000000E+00  0.45593999997E+02  0.45594000000E+02  0.51100000000E-03 0.  1.
         11   -1    0    0    0    0 -0.00000000000E+00 -0.00000000000E+00 -0.45593999997E+02  0.45594000000E+02  0.51100000000E-03 0. -1.
    9900012    2    1    2    0    0  0.36625007517E+02 -0.16163490730E+02 -0.16762268446E+02  0.47787271300E+02  0.20000001167E+02 0.  0.
        -12    1    1    2    0    0 -0.36625007517E+02  0.16163490730E+02  0.16762268446E+02  0.43400728700E+02  0.00000000000E+00 0.  1.
         11    1    3    3    0    0  0.16023383104E+02 -0.71827573224E+01 -0.54764333622E+01  0.18393806878E+02  0.51100000000E-03 0.  1.
        -11    1    3    3    0    0  0.20887418930E+02 -0.10095015805E+02 -0.13541089140E+02  0.26861770399E+02  0.51100000000E-03 0. -1.
        -12    1    3    3    0    0 -0.28579451611E+00  0.11142823975E+01  0.22552540563E+01  0.25316940228E+01  0.00000000000E+00 0.  1.
</event>
<event>
 7    1  0.1457722E-010  0.4778727E+02  0.7816164E-02  0.1312668E+00
        -11   -1    0    0    0    0  0.00000000000E+00  0.00000000000E+00  0.45593999997E+02  0.45594000000E+02  0.51100000000E-03 0. -1.
         11   -1    0    0    0    0 -0.00000000000E+00 -0.00000000000E+00 -0.45593999997E+02  0.45594000000E+02  0.51100000000E-03 0.  1.
    9900012    2    1    2    0    0  0.67032967668E+00 -0.43296641648E+02 -0.29282375176E+01  0.47787273107E+02  0.20000009406E+02 0.  0.
        -12    1    1    2    0    0 -0.67032967668E+00  0.43296641648E+02  0.29282375176E+01  0.43400726893E+02  0.00000000000E+00 0.  1.
         11    1    3    3    0    0  0.64098239826E+01 -0.19317618561E+02  0.25337168079E+00  0.20354862510E+02  0.51100000000E-03 0. -1.
        -11    1    3    3    0    0  0.18929656979E+01 -0.73159482820E+01  0.29408210892E+01  0.81089362643E+01  0.51100000000E-03 0.  1.
         12    1    3    3    0    0 -0.76324600039E+01 -0.16663074805E+02 -0.61224302876E+01  0.19323474333E+02  0.00000000000E+00 0. -1.
</event>
<event>
 7    1  0.1457722E-010  0.4778727E+02  0.7816164E-02  0.1312668E+00
        -11   -1    0    0    0    0  0.00000000000E+00  0.00000000000E+00  0.45593999997E+02  0.45594000000E+02  0.51100000000E-03 0. -1.
         11   -1    0    0    0    0 -0.00000000000E+00 -0.00000000000E+00 -0.45593999997E+02  0.45594000000E+02  0.51100000000E-03 0.  1.
    9900012    2    1    2    0    0  0.26791615801E+02 -0.23077617846E+02  0.25164581465E+02  0.47787270939E+02  0.19999999520E+02 0.  0.
        -12    1    1    2    0    0 -0.26791615801E+02  0.23077617846E+02 -0.25164581465E+02  0.43400729061E+02  0.00000000000E+00 0.  1.
         11    1    3    3    0    0  0.17322837380E+02 -0.16645179476E+02  0.16737620486E+02  0.29279525859E+02  0.51100000000E-03 0. -1.
        -11    1    3    3    0    0  0.33251252319E+01 -0.57310259511E+01 -0.15176859669E+01  0.67973882642E+01  0.51100000000E-03 0.  1.
         12    1    3    3    0    0  0.61436531894E+01 -0.70141241894E+00  0.99446469455E+01  0.11710356816E+02  0.00000000000E+00 0. -1.
</event>
<event>
 7    1  0.1457722E-010  0.4778727E+02  0.7816164E-02  0.1312668E+00
        -11   -1    0    0    0    0  0.00000000000E+00  0.00000000000E+00  0.45593999997E+02  0.45594000000E+02  0.51100000000E-03 0. -1.
         11   -1    0    0    0    0 -0.00000000000E+00 -0.00000000000E+00 -0.45593999997E+02  0.45594000000E+02  0.51100000000E-03 0.  1.
    9900012    2    1    2    0    0 -0.74340186534E+01  0.42603010532E+02 -0.36526936264E+01  0.47787270623E+02  0.19999998076E+02 0.  0.
        -12    1    1    2    0    0  0.74340186534E+01 -0.42603010532E+02  0.36526936264E+01  0.43400729377E+02  0.00000000000E+00 0.  1.
         11    1    3    3    0    0 -0.11166272688E+00  0.79194732552E+01 -0.60979880417E+01  0.99957982984E+01  0.51100000000E-03 0. -1.
        -11    1    3    3    0    0  0.27254820104E+01  0.15702610243E+02  0.33915685319E+01  0.16294261505E+02  0.51100000000E-03 0.  1.
        -12    1    3    3    0    0 -0.10047837937E+02  0.18980927034E+02 -0.94627411662E+00  0.21497210819E+02  0.00000000000E+00 0.  1.
</event>
<event>
 7    1  0.1457722E-010  0.4778727E+02  0.7816164E-02  0.1312668E+00
        -11   -1    0    0    0    0  0.00000000000E+00  0.00000000000E+00  0.45593999997E+02  0.45594000000E+02  0.51100000000E-03 0.  1.
         11   -1    0    0    0    0 -0.00000000000E+00 -0.00000000000E+00 -0.45593999997E+02  0.45594000000E+02  0.51100000000E-03 0. -1.
    9900012    2    1    2    0    0 -0.41582790198E+02 -0.63703255730E+01 -0.10673044384E+02  0.47787269994E+02  0.19999995212E+02 0.  0.
        -12    1    1    2    0    0  0.41582790198E+02  0.63703255730E+01  0.10673044384E+02  0.43400730006E+02  0.00000000000E+00 0.  1.
         11    1    3    3    0    0 -0.19198789337E+02 -0.76274002318E+01 -0.11758109593E+01  0.20691865020E+02  0.51100000000E-03 0. -1.
        -11    1    3    3    0    0 -0.13909962859E+02 -0.49768842637E+01 -0.44634087429E+01  0.15433031509E+02  0.51100000000E-03 0.  1.
        -12    1    3    3    0    0 -0.84740380025E+01  0.62339589225E+01 -0.50338246821E+01  0.11662373465E+02  0.00000000000E+00 0.  1.
</event>
<event>
 7    1  0.1457722E-010  0.4778727E+02  0.7816164E-02  0.1312668E+00
        -11   -1    0    0    0    0  0.00000000000E+00  0.00000000000E+00  0.45593999997E+02  0.45594000000E+02  0.51100000000E-03 0.  1.
         11   -1    0    0    0    0 -0.00000000000E+00 -0.00000000000E+00 -0.45593999997E+02  0.45594000000E+02  0.51100000000E-03 0. -1.
    9900012    2    1    2    0    0 -0.41595024635E+01  0.33037786702E+02 -0.27835703241E+02  0.47787272059E+02  0.20000004626E+02 0.  0.
        -12    1    1    2    0    0  0.41595024635E+01 -0.33037786702E+02  0.27835703241E+02  0.43400727941E+02  0.00000000000E+00 0.  1.
         11    1    3    3    0    0  0.38199285888E+01  0.72371053145E+01 -0.11992879168E+02  0.14518839443E+02  0.51100000000E-03 0. -1.
        -11    1    3    3    0    0 -0.73231552522E+01  0.10013227833E+02 -0.11416419608E+02  0.16859061996E+02  0.51100000000E-03 0.  1.
         12    1    3    3    0    0 -0.65627580009E+00  0.15787453554E+02 -0.44264044652E+01  0.16409370620E+02  0.00000000000E+00 0. -1.
</event>
<event>
 7    1  0.1457722E-010  0.4778727E+02  0.7816164E-02  0.1312668E+00
        -11   -1    0    0    0    0  0.00000000000E+00  0.00000000000E+00  0.45593999997E+02  0.45594000000E+02  0.51100000000E-03 0.  1.
         11   -1    0    0    0    0 -0.00000000000E+00 -0.00000000000E+00 -0.45593999997E+02  0.45594000000E+02  0.51100000000E-03 0. -1.
    9900012    2    1    2    0    0 -0.19963263227E+02 -0.38319533938E+02  0.40871298981E+01  0.47787272003E+02  0.20000004370E+02 0.  0.
        -12    1    1    2    0    0  0.19963263227E+02  0.38319533938E+02 -0.40871298981E+01  0.43400727997E+02  0.00000000000E+00 0.  1.
         11    1    3    3    0    0 -0.30148385989E+01 -0.17152893394E+00  0.18283738400E+01  0.35301027056E+01  0.51100000000E-03 0. -1.
        -11    1    3    3    0    0 -0.79982984950E+01 -0.52695237378E+01  0.33985405355E+01  0.10163205069E+02  0.51100000000E-03 0.  1.
         12    1    3    3    0    0 -0.89501261336E+01 -0.32878481266E+02 -0.11397844774E+01  0.34093964228E+02  0.00000000000E+00 0. -1.
</event>
<event>
 7    1  0.1457722E-010  0.4778728E+02  0.7816164E-02  0.1312668E+00
        -11   -1    0    0    0    0  0.00000000000E+00  0.00000000000E+00  0.45593999997E+02  0.45594000000E+02  0.51100000000E-03 0. -1.
         11   -1    0    0    0    0 -0.00000000000E+00 -0.00000000000E+00 -0.45593999997E+02  0.45594000000E+02  0.51100000000E-03 0.  1.
    9900012    2    1    2    0    0 -0.37249138548E+02  0.16728879517E+02 -0.14706088896E+02  0.47787276699E+02  0.20000025780E+02 0.  0.
        -12    1    1    2    0    0  0.37249138548E+02 -0.16728879517E+02  0.14706088896E+02  0.43400723301E+02  0.00000000000E+00 0.  1.
         11    1    3    3    0    0 -0.12057034686E+02  0.17148861375E+01 -0.50376734669E+01  0.13179190950E+02  0.51100000000E-03 0. -1.
        -11    1    3    3    0    0 -0.94498774490E+01 -0.21690838086E+01 -0.10120130864E+01  0.97482962162E+01  0.51100000000E-03 0.  1.
        -12    1    3    3    0    0 -0.15742226413E+02  0.17183077188E+02 -0.86564023427E+01  0.24859789533E+02  0.00000000000E+00 0.  1.
</event>
<event>
 7    1  0.1457722E-010  0.4778727E+02  0.7816164E-02  0.1312668E+00
        -11   -1    0    0    0    0  0.00000000000E+00  0.00000000000E+00  0.45593999997E+02  0.45594000000E+02  0.51100000000E-03 0.  1.
         11   -1    0    0    0    0 -0.00000000000E+00 -0.00000000000E+00 -0.45593999997E+02  0.45594000000E+02  0.51100000000E-03 0. -1.
    9900012    2    1    2    0    0  0.12725787939E+02  0.91106867021E+01 -0.40480527350E+02  0.47787269760E+02  0.19999994143E+02 0.  0.
        -12    1    1    2    0    0 -0.12725787939E+02 -0.91106867021E+01  0.40480527350E+02  0.43400730240E+02  0.00000000000E+00 0.  1.
         11    1    3    3    0    0  0.43420540979E+01  0.39962391963E+01 -0.27798100752E+02  0.28417560894E+02  0.51100000000E-03 0. -1.
        -11    1    3    3    0    0  0.85996662055E+01  0.73052566984E+01 -0.12922160058E+02  0.17155269019E+02  0.51100000000E-03 0.  1.
         12    1    3    3    0    0 -0.21593236422E+00 -0.21908091926E+01  0.23973346015E+00  0.22144398471E+01  0.00000000000E+00 0. -1.
</event>
<event>
 7    1  0.1551158E-010  0.4778727E+02  0.7816164E-02  0.1312668E+00
        -11   -1    0    0    0    0  0.00000000000E+00  0.00000000000E+00  0.45593999997E+02  0.45594000000E+02  0.51100000000E-03 0. -1.
         11   -1    0    0    0    0 -0.00000000000E+00 -0.00000000000E+00 -0.45593999997E+02  0.45594000000E+02  0.51100000000E-03 0.  1.
    9900012    2    1    2    0    0  0.27858944235E+02  0.32961317908E+02  0.45885074033E+01  0.47787266685E+02  0.19999980121E+02 0.  0.
        -12    1    1    2    0    0 -0.27858944235E+02 -0.32961317908E+02 -0.45885074033E+01  0.43400733315E+02  0.00000000000E+00 0.  1.
         11    1    3    3    0    0  0.21474264042E+02  0.16117990399E+02  0.11598809974E+01  0.26875247996E+02  0.51100000000E-03 0. -1.
        -11    1    3    3    0    0  0.66667732378E+01  0.16979718389E+02  0.79407029978E+00  0.18258895089E+02  0.51100000000E-03 0.  1.
        -12    1    3    3    0    0 -0.28209304494E+00 -0.13639087987E+00  0.26345561062E+01  0.26531235996E+01  0.00000000000E+00 0.  1.
</event>
<event>
 7    1  0.1457722E-010  0.4778728E+02  0.7816164E-02  0.1312668E+00
        -11   -1    0    0    0    0  0.00000000000E+00  0.00000000000E+00  0.45593999997E+02  0.45594000000E+02  0.51100000000E-03 0.  1.
         11   -1    0    0    0    0 -0.00000000000E+00 -0.00000000000E+00 -0.45593999997E+02  0.45594000000E+02  0.51100000000E-03 0. -1.
    9900012    2    1    2    0    0 -0.28685075800E+02 -0.20693311125E+02 -0.25151066547E+02  0.47787275957E+02  0.20000022399E+02 0.  0.
        -12    1    1    2    0    0  0.28685075800E+02  0.20693311125E+02  0.25151066547E+02  0.43400724043E+02  0.00000000000E+00 0.  1.
         11    1    3    3    0    0  0.19872987580E+00 -0.21660532809E+01  0.82811777441E+00  0.23274577737E+01  0.51100000000E-03 0.  1.
        -11    1    3    3    0    0 -0.30149188374E+02 -0.15321083716E+02 -0.24161576555E+02  0.41563095983E+02  0.51100000000E-03 0. -1.
         12    1    3    3    0    0  0.12653826975E+01 -0.32061741283E+01 -0.18176077665E+01  0.38967222002E+01  0.00000000000E+00 0. -1.
</event>
<event>
 7    1  0.1457722E-010  0.4778727E+02  0.7816164E-02  0.1312668E+00
        -11   -1    0    0    0    0  0.00000000000E+00  0.00000000000E+00  0.45593999997E+02  0.45594000000E+02  0.51100000000E-03 0. -1.
         11   -1    0    0    0    0 -0.00000000000E+00 -0.00000000000E+00 -0.45593999997E+02  0.45594000000E+02  0.51100000000E-03 0.  1.
    9900012    2    1    2    0    0 -0.24883304217E+02  0.35507868524E+02  0.19067063159E+01  0.47787273222E+02  0.20000009929E+02 0.  0.
        -12    1    1    2    0    0  0.24883304217E+02 -0.35507868524E+02 -0.19067063159E+01  0.43400726778E+02  0.00000000000E+00 0.  1.
         11    1    3    3    0    0 -0.20869270424E+02  0.22236714632E+02 -0.29031001561E+01  0.30633738205E+02  0.51100000000E-03 0. -1.
        -11    1    3    3    0    0 -0.28080850117E+01  0.68689554138E-02  0.22326636063E+01  0.35875027046E+01  0.51100000000E-03 0.  1.
        -12    1    3    3    0    0 -0.12059487814E+01  0.13264284937E+02  0.25771428657E+01  0.13566032312E+02  0.00000000000E+00 0.  1.
</event>
<event>
 7    1  0.1457722E-010  0.4778727E+02  0.7816164E-02  0.1312668E+00
        -11   -1    0    0    0    0  0.00000000000E+00  0.00000000000E+00  0.45593999997E+02  0.45594000000E+02  0.51100000000E-03 0. -1.
         11   -1    0    0    0    0 -0.00000000000E+00 -0.00000000000E+00 -0.45593999997E+02  0.45594000000E+02  0.51100000000E-03 0.  1.
    9900012    2    1    2    0    0  0.37695745903E+02  0.20821164723E+02 -0.53975316893E+01  0.47787268348E+02  0.19999987708E+02 0.  0.
        -12    1    1    2    0    0 -0.37695745903E+02 -0.20821164723E+02  0.53975316893E+01  0.43400731652E+02  0.00000000000E+00 0.  1.
         11    1    3    3    0    0  0.53729406750E+01  0.21140019139E+01  0.31676810302E+01  0.65857193198E+01  0.51100000000E-03 0. -1.
        -11    1    3    3    0    0  0.11335728055E+02  0.72032518047E+01  0.42061318068E+01  0.14073987073E+02  0.51100000000E-03 0.  1.
        -12    1    3    3    0    0  0.20987077173E+02  0.11503911004E+02 -0.12771344526E+02  0.27127561955E+02  0.00000000000E+00 0.  1.
</event>
<event>
 7    1  0.1457722E-010  0.4778724E+02  0.7816164E-02  0.1312668E+00
        -11   -1    0    0    0    0  0.00000000000E+00  0.00000000000E+00  0.45593999997E+02  0.45594000000E+02  0.51100000000E-03 0. -1.
         11   -1    0    0    0    0 -0.00000000000E+00 -0.00000000000E+00 -0.45593999997E+02  0.45594000000E+02  0.51100000000E-03 0.  1.
    9900012    2    1    2    0    0 -0.27160839900E+02  0.13363871171E+02  0.31101796562E+02  0.47787239337E+02  0.19999855434E+02 0.  0.
        -12    1    1    2    0    0  0.27160839900E+02 -0.13363871171E+02 -0.31101796562E+02  0.43400760663E+02  0.00000000000E+00 0.  1.
         11    1    3    3    0    0 -0.20902951212E+01 -0.93571120894E+00  0.10953820694E+02  0.11190669204E+02  0.51100000000E-03 0. -1.
        -11    1    3    3    0    0 -0.45890006824E+01  0.12078672248E+01  0.82859927768E+01  0.95485887468E+01  0.51100000000E-03 0.  1.
         12    1    3    3    0    0 -0.20481544096E+02  0.13091715155E+02  0.11861983091E+02  0.27047981387E+02  0.00000000000E+00 0. -1.
</event>
<event>
 7    1  0.1457722E-010  0.4778727E+02  0.7816164E-02  0.1312668E+00
        -11   -1    0    0    0    0  0.00000000000E+00  0.00000000000E+00  0.45593999997E+02  0.45594000000E+02  0.51100000000E-03 0.  1.
         11   -1    0    0    0    0 -0.00000000000E+00 -0.00000000000E+00 -0.45593999997E+02  0.45594000000E+02  0.51100000000E-03 0. -1.
    9900012    2    1    2    0    0 -0.15501515241E+02 -0.40093870522E+02 -0.59839511550E+01  0.47787273052E+02  0.20000009155E+02 0.  0.
        -12    1    1    2    0    0  0.15501515241E+02  0.40093870522E+02  0.59839511550E+01  0.43400726948E+02  0.00000000000E+00 0.  1.
         11    1    3    3    0    0 -0.97960401914E+01 -0.10125634372E+02 -0.17530291785E+01  0.14197323213E+02  0.51100000000E-03 0. -1.
        -11    1    3    3    0    0 -0.36049440089E+01 -0.22472638099E+02  0.30105023154E+01  0.22958183920E+02  0.51100000000E-03 0.  1.
         12    1    3    3    0    0 -0.21005310404E+01 -0.74955980509E+01 -0.72414242919E+01  0.10631765920E+02  0.00000000000E+00 0. -1.
</event>
<event>
 7    1  0.1457722E-010  0.4778727E+02  0.7816164E-02  0.1312668E+00
        -11   -1    0    0    0    0  0.00000000000E+00  0.00000000000E+00  0.45593999997E+02  0.45594000000E+02  0.51100000000E-03 0.  1.
         11   -1    0    0    0    0 -0.00000000000E+00 -0.00000000000E+00 -0.45593999997E+02  0.45594000000E+02  0.51100000000E-03 0. -1.
    9900012    2    1    2    0    0 -0.30765351835E+02 -0.28631288973E+02 -0.10833540676E+02  0.47787272064E+02  0.20000004649E+02 0.  0.
        -12    1    1    2    0    0  0.30765351835E+02  0.28631288973E+02  0.10833540676E+02  0.43400727936E+02  0.00000000000E+00 0.  1.
         11    1    3    3    0    0 -0.25296860772E+02 -0.17537766399E+02 -0.28448488109E+01  0.30912741389E+02  0.51100000000E-03 0. -1.
        -11    1    3    3    0    0 -0.70102470187E+01 -0.82484186799E+01 -0.82755042159E+01  0.13625855726E+02  0.51100000000E-03 0.  1.
        -12    1    3    3    0    0  0.15417559558E+01 -0.28451038948E+01  0.28681235130E+00  0.32486749490E+01  0.00000000000E+00 0.  1.
</event>
<event>
 7    1  0.1457722E-010  0.4778728E+02  0.7816164E-02  0.1312668E+00
        -11   -1    0    0    0    0  0.00000000000E+00  0.00000000000E+00  0.45593999997E+02  0.45594000000E+02  0.51100000000E-03 0. -1.
         11   -1    0    0    0    0 -0.00000000000E+00 -0.00000000000E+00 -0.45593999997E+02  0.45594000000E+02  0.51100000000E-03 0.  1.
    9900012    2    1    2    0    0 -0.33814563795E+02  0.25772753890E+02 -0.87156937796E+01  0.47787275516E+02  0.20000020386E+02 0.  0.
        -12    1    1    2    0    0  0.33814563795E+02 -0.25772753890E+02  0.87156937796E+01  0.43400724484E+02  0.00000000000E+00 0.  1.
         11    1    3    3    0    0 -0.25467240304E+02  0.17970179689E+02 -0.14086231585E+02  0.34204233762E+02  0.51100000000E-03 0. -1.
        -11    1    3    3    0    0 -0.37206565151E+01  0.64404842448E+01  0.20100752159E+01  0.77047728614E+01  0.51100000000E-03 0.  1.
         12    1    3    3    0    0 -0.46266669756E+01  0.13620899567E+01  0.33604625893E+01  0.58782688920E+01  0.00000000000E+00 0. -1.
</event>
<event>
 7    1  0.1457722E-010  0.4778727E+02  0.7816164E-02  0.1312668E+00
        -11   -1    0    0    0    0  0.00000000000E+00  0.00000000000E+00  0.45593999997E+02  0.45594000000E+02  0.51100000000E-03 0.  1.
         11   -1    0    0    0    0 -0.00000000000E+00 -0.00000000000E+00 -0.45593999997E+02  0.45594000000E+02  0.51100000000E-03 0. -1.
    9900012    2    1    2    0    0 -0.36298060325E+02 -0.80295181781E+00  0.23778760457E+02  0.47787270008E+02  0.19999995276E+02 0.  0.
        -12    1    1    2    0    0  0.36298060325E+02  0.80295181781E+00 -0.23778760457E+02  0.43400729992E+02  0.00000000000E+00 0.  1.
         11    1    3    3    0    0 -0.27686168795E+01  0.37646608984E+01  0.26135635936E+01  0.53543091080E+01  0.51100000000E-03 0. -1.
        -11    1    3    3    0    0 -0.74219040347E+01 -0.31401920768E+00 -0.15240887989E+01  0.75832786109E+01  0.51100000000E-03 0.  1.
         12    1    3    3    0    0 -0.26107539410E+02 -0.42535935085E+01  0.22689285662E+02  0.34849682289E+02  0.00000000000E+00 0. -1.
</event>
<event>
 7    1  0.1457722E-010  0.4778727E+02  0.7816164E-02  0.1312668E+00
        -11   -1    0    0    0    0  0.00000000000E+00  0.00000000000E+00  0.45593999997E+02  0.45594000000E+02  0.51100000000E-03 0.  1.
         11   -1    0    0    0    0 -0.00000000000E+00 -0.00000000000E+00 -0.45593999997E+02  0.45594000000E+02  0.51100000000E-03 0. -1.
    9900012    2    1    2    0    0 -0.37308002284E+02  0.11355961614E+02  0.19046751168E+02  0.47787266957E+02  0.19999981365E+02 0.  0.
        -12    1    1    2    0    0  0.37308002284E+02 -0.11355961614E+02 -0.19046751168E+02  0.43400733043E+02  0.00000000000E+00 0.  1.
         11    1    3    3    0    0 -0.12069528886E+02  0.75739258785E+01  0.64256193347E+01  0.15630945744E+02  0.51100000000E-03 0. -1.
        -11    1    3    3    0    0 -0.23129941910E+02 -0.11537170183E+01  0.13363791765E+02  0.26737917015E+02  0.51100000000E-03 0.  1.
         12    1    3    3    0    0 -0.21085314877E+01  0.49357527539E+01 -0.74265993137E+00  0.54184041983E+01  0.00000000000E+00 0. -1.
</event>
<event>
 7    1  0.1457722E-010  0.4778727E+02  0.7816164E-02  0.1312668E+00
        -11   -1    0    0    0    0  0.00000000000E+00  0.00000000000E+00  0.45593999997E+02  0.45594000000E+02  0.51100000000E-03 0.  1.
         11   -1    0    0    0    0 -0.00000000000E+00 -0.00000000000E+00 -0.45593999997E+02  0.45594000000E+02  0.51100000000E-03 0. -1.
    9900012    2    1    2    0    0  0.26456993270E+02  0.30459452392E+02 -0.15996028781E+02  0.47787266484E+02  0.19999979209E+02 0.  0.
        -12    1    1    2    0    0 -0.26456993270E+02 -0.30459452392E+02  0.15996028781E+02  0.43400733516E+02  0.00000000000E+00 0.  1.
         11    1    3    3    0    0  0.68615704981E+01  0.11659462368E+02  0.87989417526E+00  0.13557227829E+02  0.51100000000E-03 0. -1.
        -11    1    3    3    0    0  0.37194273100E+01 -0.14457539581E+01 -0.30473116261E+01  0.50210011382E+01  0.51100000000E-03 0.  1.
        -12    1    3    3    0    0  0.15875995462E+02  0.20245743983E+02 -0.13828611330E+02  0.29209037517E+02  0.00000000000E+00 0.  1.
</event>
<event>
 7    1  0.1457722E-010  0.4778727E+02  0.7816164E-02  0.1312668E+00
        -11   -1    0    0    0    0  0.00000000000E+00  0.00000000000E+00  0.45593999997E+02  0.45594000000E+02  0.51100000000E-03 0. -1.
         11   -1    0    0    0    0 -0.00000000000E+00 -0.00000000000E+00 -0.45593999997E+02  0.45594000000E+02  0.51100000000E-03 0.  1.
    9900012    2    1    2    0    0 -0.16893026682E+02 -0.39466440258E+02 -0.63756765459E+01  0.47787268341E+02  0.19999987674E+02 0.  0.
        -12    1    1    2    0    0  0.16893026682E+02  0.39466440258E+02  0.63756765459E+01  0.43400731659E+02  0.00000000000E+00 0.  1.
         11    1    3    3    0    0 -0.11463756406E+02 -0.25097960352E+02 -0.17108482701E+01  0.27645113978E+02  0.51100000000E-03 0. -1.
        -11    1    3    3    0    0 -0.40260070516E+01 -0.13342849202E+01  0.27751490458E+01  0.50685798322E+01  0.51100000000E-03 0.  1.
         12    1    3    3    0    0 -0.14032632241E+01 -0.13034194986E+02 -0.74399773215E+01  0.15073574531E+02  0.00000000000E+00 0. -1.
</event>
<event>
 7    1  0.1457722E-010  0.4778727E+02  0.7816164E-02  0.1312668E+00
        -11   -1    0    0    0    0  0.00000000000E+00  0.00000000000E+00  0.45593999997E+02  0.45594000000E+02  0.51100000000E-03 0.  1.
         11   -1    0    0    0    0 -0.00000000000E+00 -0.00000000000E+00 -0.45593999997E+02  0.45594000000E+02  0.51100000000E-03 0. -1.
    9900012    2    1    2    0    0 -0.29190154919E+01  0.25517163709E+02 -0.34985382113E+02  0.47787271241E+02  0.20000000897E+02 0.  0.
        -12    1    1    2    0    0  0.29190154919E+01 -0.25517163709E+02  0.34985382113E+02  0.43400728759E+02  0.00000000000E+00 0.  1.
         11    1    3    3    0    0  0.36771878995E+01  0.59352995406E+01 -0.67023185335E+01  0.96783555148E+01  0.51100000000E-03 0. -1.
        -11    1    3    3    0    0 -0.78709213414E+01  0.21642333624E+02 -0.24570496576E+02  0.33675678311E+02  0.51100000000E-03 0.  1.
        -12    1    3    3    0    0  0.12747179499E+01 -0.20604694552E+01 -0.37125670031E+01  0.44332374152E+01  0.00000000000E+00 0.  1.
</event>
<event>
 7    1  0.1457722E-010  0.4778727E+02  0.7816164E-02  0.1312668E+00
        -11   -1    0    0    0    0  0.00000000000E+00  0.00000000000E+00  0.45593999997E+02  0.45594000000E+02  0.51100000000E-03 0.  1.
         11   -1    0    0    0    0 -0.00000000000E+00 -0.00000000000E+00 -0.45593999997E+02  0.45594000000E+02  0.51100000000E-03 0. -1.
    9900012    2    1    2    0    0  0.42715107872E+02 -0.50158157971E+01  0.58210198537E+01  0.47787272808E+02  0.20000008041E+02 0.  0.
        -12    1    1    2    0    0 -0.42715107872E+02  0.50158157971E+01 -0.58210198537E+01  0.43400727192E+02  0.00000000000E+00 0.  1.
         11    1    3    3    0    0  0.22613266002E+02 -0.11193893002E+02  0.32082357187E+01  0.25435326153E+02  0.51100000000E-03 0. -1.
        -11    1    3    3    0    0  0.22703047461E+01  0.34929749081E+01  0.45388687682E+00  0.41906050765E+01  0.51100000000E-03 0.  1.
        -12    1    3    3    0    0  0.17831537124E+02  0.26851022971E+01  0.21588972582E+01  0.18161341578E+02  0.00000000000E+00 0.  1.
</event>
<event>
 7    1  0.1457722E-010  0.4778726E+02  0.7816164E-02  0.1312668E+00
        -11   -1    0    0    0    0  0.00000000000E+00  0.00000000000E+00  0.45593999997E+02  0.45594000000E+02  0.51100000000E-03 0.  1.
         11   -1    0    0    0    0 -0.00000000000E+00 -0.00000000000E+00 -0.45593999997E+02  0.45594000000E+02  0.51100000000E-03 0. -1.
    9900012    2    1    2    0    0 -0.41824074544E+02 -0.10917306841E+01  0.11540324552E+02  0.47787260627E+02  0.19999952505E+02 0.  0.
        -12    1    1    2    0    0  0.41824074544E+02  0.10917306841E+01 -0.11540324552E+02  0.43400739373E+02  0.00000000000E+00 0.  1.
         11    1    3    3    0    0 -0.96117114634E+01 -0.34166073509E+01 -0.16979977930E+01  0.10341247498E+02  0.51100000000E-03 0. -1.
        -11    1    3    3    0    0 -0.12552105246E+02 -0.57015868683E+01  0.55482577036E+01  0.14860908543E+02  0.51100000000E-03 0.  1.
        -12    1    3    3    0    0 -0.19660257835E+02  0.80264635351E+01  0.76900646414E+01  0.22585104587E+02  0.00000000000E+00 0.  1.
</event>
<event>
 7    1  0.1457722E-010  0.4778727E+02  0.7816164E-02  0.1312668E+00
        -11   -1    0    0    0    0  0.00000000000E+00  0.00000000000E+00  0.45593999997E+02  0.45594000000E+02  0.51100000000E-03 0.  1.
         11   -1    0    0    0    0 -0.00000000000E+00 -0.00000000000E+00 -0.45593999997E+02  0.45594000000E+02  0.51100000000E-03 0. -1.
    9900012    2    1    2    0    0 -0.36140012755E+02 -0.22148295014E+02 -0.93260804344E+01  0.47787271086E+02  0.20000000191E+02 0.  0.
        -12    1    1    2    0    0  0.36140012755E+02  0.22148295014E+02  0.93260804344E+01  0.43400728914E+02  0.00000000000E+00 0.  1.
         11    1    3    3    0    0 -0.84981665960E+01 -0.10490303527E+02 -0.66794241949E+01  0.15062536686E+02  0.51100000000E-03 0. -1.
        -11    1    3    3    0    0 -0.55064411737E+01 -0.44226744336E+01  0.44885496108E+01  0.83682746976E+01  0.51100000000E-03 0.  1.
         12    1    3    3    0    0 -0.22135404985E+02 -0.72353170536E+01 -0.71352058503E+01  0.24356459703E+02  0.00000000000E+00 0. -1.
</event>
<event>
 7    1  0.1457722E-010  0.4778727E+02  0.7816164E-02  0.1312668E+00
        -11   -1    0    0    0    0  0.00000000000E+00  0.00000000000E+00  0.45593999997E+02  0.45594000000E+02  0.51100000000E-03 0.  1.
         11   -1    0    0    0    0 -0.00000000000E+00 -0.00000000000E+00 -0.45593999997E+02  0.45594000000E+02  0.51100000000E-03 0. -1.
    9900012    2    1    2    0    0  0.41728655202E+01  0.25346622521E+02 -0.34982269113E+02  0.47787271526E+02  0.20000002194E+02 0.  0.
        -12    1    1    2    0    0 -0.41728655202E+01 -0.25346622521E+02  0.34982269113E+02  0.43400728474E+02  0.00000000000E+00 0.  1.
         11    1    3    3    0    0 -0.37661690220E+01  0.15329309058E+01 -0.47052805008E+01  0.62188078534E+01  0.51100000000E-03 0. -1.
        -11    1    3    3    0    0  0.32553366965E+01  0.25628736933E+01  0.16751551454E+00  0.41465166446E+01  0.51100000000E-03 0.  1.
         12    1    3    3    0    0  0.46836978457E+01  0.21250817922E+02 -0.30444504126E+02  0.37421947028E+02  0.00000000000E+00 0. -1.
</event>
<event>
 7    1  0.1457722E-010  0.4778730E+02  0.7816164E-02  0.1312668E+00
        -11   -1    0    0    0    0  0.00000000000E+00  0.00000000000E+00  0.45593999997E+02  0.45594000000E+02  0.51100000000E-03 0.  1.
         11   -1    0    0    0    0 -0.00000000000E+00 -0.00000000000E+00 -0.45593999997E+02  0.45594000000E+02  0.51100000000E-03 0. -1.
    9900012    2    1    2    0    0  0.31803141192E+02 -0.22528771073E+02 -0.19095431924E+02  0.47787299129E+02  0.20000128048E+02 0.  0.
        -12    1    1    2    0    0 -0.31803141192E+02  0.22528771073E+02  0.19095431924E+02  0.43400700871E+02  0.00000000000E+00 0.  1.
         11    1    3    3    0    0  0.16384907236E+02 -0.54286828183E+01 -0.13477310701E+02  0.21899170903E+02  0.51100000000E-03 0. -1.
        -11    1    3    3    0    0  0.16775022097E+02 -0.14912387457E+02 -0.38696108750E+01  0.22776183934E+02  0.51100000000E-03 0.  1.
         12    1    3    3    0    0 -0.13567881401E+01 -0.21877007970E+01 -0.17485103484E+01  0.31119442914E+01  0.00000000000E+00 0. -1.
</event>
<event>
 7    1  0.1457722E-010  0.4778727E+02  0.7816164E-02  0.1312668E+00
        -11   -1    0    0    0    0  0.00000000000E+00  0.00000000000E+00  0.45593999997E+02  0.45594000000E+02  0.51100000000E-03 0.  1.
         11   -1    0    0    0    0 -0.00000000000E+00 -0.00000000000E+00 -0.45593999997E+02  0.45594000000E+02  0.51100000000E-03 0. -1.
    9900012    2    1    2    0    0  0.33259480199E+01  0.13941074182E+02 -0.40965936249E+02  0.47787269449E+02  0.19999992725E+02 0.  0.
        -12    1    1    2    0    0 -0.33259480199E+01 -0.13941074182E+02  0.40965936249E+02  0.43400730551E+02  0.00000000000E+00 0.  1.
         11    1    3    3    0    0 -0.30282433999E+01  0.49526086504E+01 -0.24104539533E+02  0.24793697121E+02  0.51100000000E-03 0. -1.
        -11    1    3    3    0    0  0.58904819934E+01  0.67115622573E+00 -0.11907163840E+02  0.13301457806E+02  0.51100000000E-03 0.  1.
        -12    1    3    3    0    0  0.46370942636E+00  0.83173093057E+01 -0.49542328760E+01  0.96921145220E+01  0.00000000000E+00 0.  1.
</event>
<event>
 7    1  0.1457722E-010  0.4778728E+02  0.7816164E-02  0.1312668E+00
        -11   -1    0    0    0    0  0.00000000000E+00  0.00000000000E+00  0.45593999997E+02  0.45594000000E+02  0.51100000000E-03 0.  1.
         11   -1    0    0    0    0 -0.00000000000E+00 -0.00000000000E+00 -0.45593999997E+02  0.45594000000E+02  0.51100000000E-03 0. -1.
    9900012    2    1    2    0    0  0.33387717086E+02 -0.76558025982E+01 -0.26650916174E+02  0.47787282281E+02  0.20000051231E+02 0.  0.
        -12    1    1    2    0    0 -0.33387717086E+02  0.76558025982E+01  0.26650916174E+02  0.43400717719E+02  0.00000000000E+00 0.  1.
         11    1    3    3    0    0  0.78803013517E+01  0.24223244837E+01 -0.16702617439E+01  0.84116930431E+01  0.51100000000E-03 0. -1.
        -11    1    3    3    0    0  0.26573048341E+01 -0.68520361823E+01 -0.55876008309E+01  0.92321694163E+01  0.51100000000E-03 0.  1.
        -12    1    3    3    0    0  0.22850110900E+02 -0.32260908996E+01 -0.19393053599E+02  0.30143419821E+02  0.00000000000E+00 0.  1.
</event>
<event>
 7    1  0.1457722E-010  0.4778727E+02  0.7816164E-02  0.1312668E+00
        -11   -1    0    0    0    0  0.00000000000E+00  0.00000000000E+00  0.45593999997E+02  0.45594000000E+02  0.51100000000E-03 0.  1.
         11   -1    0    0    0    0 -0.00000000000E+00 -0.00000000000E+00 -0.45593999997E+02  0.45594000000E+02  0.51100000000E-03 0. -1.
    9900012    2    1    2    0    0  0.29021328813E+02 -0.98839055243E+01 -0.30719605757E+02  0.47787270831E+02  0.19999999029E+02 0.  0.
        -12    1    1    2    0    0 -0.29021328813E+02  0.98839055243E+01  0.30719605757E+02  0.43400729169E+02  0.00000000000E+00 0.  1.
         11    1    3    3    0    0  0.95397074997E+01 -0.54017718211E+01 -0.49979456021E+01  0.12048428051E+02  0.51100000000E-03 0. -1.
        -11    1    3    3    0    0  0.10976159709E+02 -0.61425801764E+01 -0.54797520125E+01  0.13719878118E+02  0.51100000000E-03 0.  1.
         12    1    3    3    0    0  0.85054616041E+01  0.16604464731E+01 -0.20241908143E+02  0.22018964663E+02  0.00000000000E+00 0. -1.
</event>
<event>
 7    1  0.1457722E-010  0.4778727E+02  0.7816164E-02  0.1312668E+00
        -11   -1    0    0    0    0  0.00000000000E+00  0.00000000000E+00  0.45593999997E+02  0.45594000000E+02  0.51100000000E-03 0. -1.
         11   -1    0    0    0    0 -0.00000000000E+00 -0.00000000000E+00 -0.45593999997E+02  0.45594000000E+02  0.51100000000E-03 0.  1.
    9900012    2    1    2    0    0 -0.44054713519E+01 -0.35406841162E+02  0.24709723269E+02  0.47787274166E+02  0.20000014232E+02 0.  0.
        -12    1    1    2    0    0  0.44054713519E+01  0.35406841162E+02 -0.24709723269E+02  0.43400725834E+02  0.00000000000E+00 0.  1.
         11    1    3    3    0    0 -0.43726205921E+01 -0.10009653245E+02  0.64650425483E+01  0.12692901337E+02  0.51100000000E-03 0. -1.
        -11    1    3    3    0    0  0.65409362706E+01 -0.42567955152E+01  0.40096633778E+01  0.87739133810E+01  0.51100000000E-03 0.  1.
        -12    1    3    3    0    0 -0.65737870303E+01 -0.21140392402E+02  0.14235017343E+02  0.26320459448E+02  0.00000000000E+00 0.  1.
</event>
<event>
 7    1  0.1457722E-010  0.4778725E+02  0.7816164E-02  0.1312668E+00
        -11   -1    0    0    0    0  0.00000000000E+00  0.00000000000E+00  0.45593999997E+02  0.45594000000E+02  0.51100000000E-03 0.  1.
         11   -1    0    0    0    0 -0.00000000000E+00 -0.00000000000E+00 -0.45593999997E+02  0.45594000000E+02  0.51100000000E-03 0. -1.
    9900012    2    1    2    0    0  0.23482328449E+02 -0.19004208376E+02 -0.31161596558E+02  0.47787253631E+02  0.19999920603E+02 0.  0.
        -12    1    1    2    0    0 -0.23482328449E+02  0.19004208376E+02  0.31161596558E+02  0.43400746369E+02  0.00000000000E+00 0.  1.
         11    1    3    3    0    0  0.83230247634E+01 -0.53429199727E+01 -0.22244266041E+02  0.24343929572E+02  0.51100000000E-03 0. -1.
        -11    1    3    3    0    0  0.12377535730E+01 -0.56733884057E+00  0.12034124863E+01  0.18171706416E+01  0.51100000000E-03 0.  1.
        -12    1    3    3    0    0  0.13921550113E+02 -0.13093949562E+02 -0.10120743004E+02  0.21626153417E+02  0.00000000000E+00 0.  1.
</event>
<event>
 7    1  0.1457722E-010  0.4778728E+02  0.7816164E-02  0.1312668E+00
        -11   -1    0    0    0    0  0.00000000000E+00  0.00000000000E+00  0.45593999997E+02  0.45594000000E+02  0.51100000000E-03 0. -1.
         11   -1    0    0    0    0 -0.00000000000E+00 -0.00000000000E+00 -0.45593999997E+02  0.45594000000E+02  0.51100000000E-03 0.  1.
    9900012    2    1    2    0    0 -0.16278995988E+02 -0.33513371081E+02  0.22259176753E+02  0.47787277641E+02  0.20000030075E+02 0.  0.
        -12    1    1    2    0    0  0.16278995988E+02  0.33513371081E+02 -0.22259176753E+02  0.43400722359E+02  0.00000000000E+00 0.  1.
         11    1    3    3    0    0 -0.56772003071E+01 -0.16609610438E+02  0.12448815552E+02  0.21519358056E+02  0.51100000000E-03 0. -1.
        -11    1    3    3    0    0 -0.10711314976E+02 -0.19241745941E+02  0.87183423073E+01  0.23685154595E+02  0.51100000000E-03 0.  1.
        -12    1    3    3    0    0  0.10951929502E+00  0.23379852974E+01  0.10920188937E+01  0.25827649895E+01  0.00000000000E+00 0.  1.
</event>
<event>
 7    1  0.1457722E-010  0.4778727E+02  0.7816164E-02  0.1312668E+00
        -11   -1    0    0    0    0  0.00000000000E+00  0.00000000000E+00  0.45593999997E+02  0.45594000000E+02  0.51100000000E-03 0.  1.
         11   -1    0    0    0    0 -0.00000000000E+00 -0.00000000000E+00 -0.45593999997E+02  0.45594000000E+02  0.51100000000E-03 0. -1.
    9900012    2    1    2    0    0  0.19444390469E+02 -0.32073038190E+02 -0.21837104921E+02  0.47787271310E+02  0.20000001213E+02 0.  0.
        -12    1    1    2    0    0 -0.19444390469E+02  0.32073038190E+02  0.21837104921E+02  0.43400728690E+02  0.00000000000E+00 0.  1.
         11    1    3    3    0    0  0.79407792772E+01 -0.30347054007E+01 -0.52820723277E+01  0.10008281607E+02  0.51100000000E-03 0. -1.
        -11    1    3    3    0    0 -0.14901857193E+01 -0.11617558165E+02 -0.27471364817E+01  0.12030588943E+02  0.51100000000E-03 0.  1.
         12    1    3    3    0    0  0.12993796911E+02 -0.17420774624E+02 -0.13807896112E+02  0.25748400760E+02  0.00000000000E+00 0. -1.
</event>
<event>
 7    1  0.1457722E-010  0.4778727E+02  0.7816164E-02  0.1312668E+00
        -11   -1    0    0    0    0  0.00000000000E+00  0.00000000000E+00  0.45593999997E+02  0.45594000000E+02  0.51100000000E-03 0.  1.
         11   -1    0    0    0    0 -0.00000000000E+00 -0.00000000000E+00 -0.45593999997E+02  0.45594000000E+02  0.51100000000E-03 0. -1.
    9900012    2    1    2    0    0 -0.36501511957E+02 -0.17041031001E+02 -0.16151347752E+02  0.47787272507E+02  0.20000006669E+02 0.  0.
        -12    1    1    2    0    0  0.36501511957E+02  0.17041031001E+02  0.16151347752E+02  0.43400727493E+02  0.00000000000E+00 0.  1.
         11    1    3    3    0    0  0.15272418144E+00 -0.52734253363E+01 -0.14791053313E+01  0.54790594353E+01  0.51100000000E-03 0.  1.
        -11    1    3    3    0    0 -0.11886965037E+02 -0.62645972988E+00 -0.11177342529E+01  0.11955823673E+02  0.51100000000E-03 0. -1.
        -12    1    3    3    0    0 -0.24767271102E+02 -0.11141145935E+02 -0.13554508168E+02  0.30352389399E+02  0.00000000000E+00 0.  1.
</event>
<event>
 7    1  0.1457722E-010  0.4778727E+02  0.7816164E-02  0.1312668E+00
        -11   -1    0    0    0    0  0.00000000000E+00  0.00000000000E+00  0.45593999997E+02  0.45594000000E+02  0.51100000000E-03 0.  1.
         11   -1    0    0    0    0 -0.00000000000E+00 -0.00000000000E+00 -0.45593999997E+02  0.45594000000E+02  0.51100000000E-03 0. -1.
    9900012    2    1    2    0    0  0.12142631476E+02 -0.26334735177E+02 -0.32290271451E+02  0.47787269518E+02  0.19999993039E+02 0.  0.
        -12    1    1    2    0    0 -0.12142631476E+02  0.26334735177E+02  0.32290271451E+02  0.43400730482E+02  0.00000000000E+00 0.  1.
         11    1    3    3    0    0  0.10302462468E+02 -0.18670210427E+02 -0.28198299426E+02  0.35353381466E+02  0.51100000000E-03 0. -1.
        -11    1    3    3    0    0  0.19701487150E+01 -0.95832129044E+01 -0.37657158666E+01  0.10483323508E+02  0.51100000000E-03 0.  1.
        -12    1    3    3    0    0 -0.12997970676E+00  0.19186881545E+01 -0.32625615859E+00  0.19505645437E+01  0.00000000000E+00 0.  1.
</event>
<event>
 7    1  0.1457722E-010  0.4778727E+02  0.7816164E-02  0.1312668E+00
        -11   -1    0    0    0    0  0.00000000000E+00  0.00000000000E+00  0.45593999997E+02  0.45594000000E+02  0.51100000000E-03 0. -1.
         11   -1    0    0    0    0 -0.00000000000E+00 -0.00000000000E+00 -0.45593999997E+02  0.45594000000E+02  0.51100000000E-03 0.  1.
    9900012    2    1    2    0    0  0.14227812427E+02  0.41002318396E+02  0.50606026993E-01  0.47787270499E+02  0.19999997512E+02 0.  0.
        -12    1    1    2    0    0 -0.14227812427E+02 -0.41002318396E+02 -0.50606026993E-01  0.43400729501E+02  0.00000000000E+00 0.  1.
         11    1    3    3    0    0  0.82063235497E+01  0.14677021982E+02 -0.61819881479E+01  0.17915794657E+02  0.51100000000E-03 0.  1.
        -11    1    3    3    0    0  0.92271261168E+01  0.19403652072E+02  0.56778634133E+01  0.22223404404E+02  0.51100000000E-03 0. -1.
        -12    1    3    3    0    0 -0.32056372397E+01  0.69216443412E+01  0.55473076155E+00  0.76480714377E+01  0.00000000000E+00 0.  1.
</event>
<event>
 7    1  0.1457722E-010  0.4778727E+02  0.7816164E-02  0.1312668E+00
        -11   -1    0    0    0    0  0.00000000000E+00  0.00000000000E+00  0.45593999997E+02  0.45594000000E+02  0.51100000000E-03 0.  1.
         11   -1    0    0    0    0 -0.00000000000E+00 -0.00000000000E+00 -0.45593999997E+02  0.45594000000E+02  0.51100000000E-03 0. -1.
    9900012    2    1    2    0    0  0.19953464236E+02  0.24812097639E+02 -0.29493088460E+02  0.47787271997E+02  0.20000004344E+02 0.  0.
        -12    1    1    2    0    0 -0.19953464236E+02 -0.24812097639E+02  0.29493088460E+02  0.43400728003E+02  0.00000000000E+00 0.  1.
         11    1    3    3    0    0  0.87381301801E+01  0.19040133834E+02 -0.93955685357E+01  0.22959928655E+02  0.51100000000E-03 0. -1.
        -11    1    3    3    0    0  0.51481873752E+01  0.58966818624E-03 -0.34643733819E+01  0.62052974778E+01  0.51100000000E-03 0.  1.
         12    1    3    3    0    0  0.60671466806E+01  0.57713741360E+01 -0.16633146543E+02  0.18622045864E+02  0.00000000000E+00 0. -1.
</event>
<event>
 7    1  0.1457722E-010  0.4778727E+02  0.7816164E-02  0.1312668E+00
        -11   -1    0    0    0    0  0.00000000000E+00  0.00000000000E+00  0.45593999997E+02  0.45594000000E+02  0.51100000000E-03 0.  1.
         11   -1    0    0    0    0 -0.00000000000E+00 -0.00000000000E+00 -0.45593999997E+02  0.45594000000E+02  0.51100000000E-03 0. -1.
    9900012    2    1    2    0    0  0.33137214124E+02  0.13713128398E+02 -0.24443785649E+02  0.47787268356E+02  0.19999987743E+02 0.  0.
        -12    1    1    2    0    0 -0.33137214124E+02 -0.13713128398E+02  0.24443785649E+02  0.43400731644E+02  0.00000000000E+00 0.  1.
         11    1    3    3    0    0  0.17095510722E+02 -0.21617257224E-01 -0.17698666108E+02  0.24606904243E+02  0.51100000000E-03 0. -1.
        -11    1    3    3    0    0  0.51250892834E+01  0.20242802979E+01  0.64388867425E+00  0.55478683991E+01  0.51100000000E-03 0.  1.
         12    1    3    3    0    0  0.10916614118E+02  0.11710465358E+02 -0.73890082152E+01  0.17632495714E+02  0.00000000000E+00 0. -1.
</event>
<event>
 7    1  0.1457722E-010  0.4778728E+02  0.7816164E-02  0.1312668E+00
        -11   -1    0    0    0    0  0.00000000000E+00  0.00000000000E+00  0.45593999997E+02  0.45594000000E+02  0.51100000000E-03 0. -1.
         11   -1    0    0    0    0 -0.00000000000E+00 -0.00000000000E+00 -0.45593999997E+02  0.45594000000E+02  0.51100000000E-03 0.  1.
    9900012    2    1    2    0    0  0.27870700279E+02  0.26344326853E+02  0.20318054755E+02  0.47787276038E+02  0.20000022770E+02 0.  0.
        -12    1    1    2    0    0 -0.27870700279E+02 -0.26344326853E+02 -0.20318054755E+02  0.43400723962E+02  0.00000000000E+00 0.  1.
         11    1    3    3    0    0  0.81117839297E+01  0.17424021406E+02  0.97348653090E+01  0.21544492645E+02  0.51100000000E-03 0. -1.
        -11    1    3    3    0    0  0.17123586327E+02  0.10680710230E+02  0.11098454094E+02  0.23031944409E+02  0.51100000000E-03 0.  1.
        -12    1    3    3    0    0  0.26353300222E+01 -0.17604047833E+01 -0.51526464876E+00  0.32108389846E+01  0.00000000000E+00 0.  1.
</event>
<event>
 7    1  0.1457722E-010  0.4778726E+02  0.7816164E-02  0.1312668E+00
        -11   -1    0    0    0    0  0.00000000000E+00  0.00000000000E+00  0.45593999997E+02  0.45594000000E+02  0.51100000000E-03 0.  1.
         11   -1    0    0    0    0 -0.00000000000E+00 -0.00000000000E+00 -0.45593999997E+02  0.45594000000E+02  0.51100000000E-03 0. -1.
    9900012    2    1    2    0    0 -0.27183702619E+02  0.33289322394E+02  0.60408137976E+01  0.47787261471E+02  0.19999956351E+02 0.  0.
        -12    1    1    2    0    0  0.27183702619E+02 -0.33289322394E+02 -0.60408137976E+01  0.43400738529E+02  0.00000000000E+00 0.  1.
         11    1    3    3    0    0 -0.21611013280E+02  0.22718460669E+02  0.42853367960E+01  0.31646934478E+02  0.51100000000E-03 0. -1.
        -11    1    3    3    0    0 -0.72028279531E+00  0.11116607268E+02  0.83356580853E+00  0.11171060678E+02  0.51100000000E-03 0.  1.
        -12    1    3    3    0    0 -0.48524065439E+01 -0.54574554261E+00  0.92191119298E+00  0.49692663153E+01  0.00000000000E+00 0.  1.
</event>
<event>
 7    1  0.1457722E-010  0.4778727E+02  0.7816164E-02  0.1312668E+00
        -11   -1    0    0    0    0  0.00000000000E+00  0.00000000000E+00  0.45593999997E+02  0.45594000000E+02  0.51100000000E-03 0.  1.
         11   -1    0    0    0    0 -0.00000000000E+00 -0.00000000000E+00 -0.45593999997E+02  0.45594000000E+02  0.51100000000E-03 0. -1.
    9900012    2    1    2    0    0 -0.56449109453E+01  0.65734448469E+01 -0.42527026277E+02  0.47787272349E+02  0.20000005946E+02 0.  0.
        -12    1    1    2    0    0  0.56449109453E+01 -0.65734448469E+01  0.42527026277E+02  0.43400727651E+02  0.00000000000E+00 0.  1.
         11    1    3    3    0    0  0.53852682339E+01 -0.50820410667E-02 -0.16178511440E+02  0.17051257210E+02  0.51100000000E-03 0. -1.
        -11    1    3    3    0    0 -0.23402358376E+01  0.42560840798E+01 -0.29854744874E+01  0.57012291347E+01  0.51100000000E-03 0.  1.
         12    1    3    3    0    0 -0.86899433416E+01  0.23224428082E+01 -0.23363040349E+02  0.25034786004E+02  0.00000000000E+00 0. -1.
</event>
<event>
 7    1  0.1457722E-010  0.4778728E+02  0.7816164E-02  0.1312668E+00
        -11   -1    0    0    0    0  0.00000000000E+00  0.00000000000E+00  0.45593999997E+02  0.45594000000E+02  0.51100000000E-03 0.  1.
         11   -1    0    0    0    0 -0.00000000000E+00 -0.00000000000E+00 -0.45593999997E+02  0.45594000000E+02  0.51100000000E-03 0. -1.
    9900012    2    1    2    0    0  0.31247395033E+02 -0.28109621498E+01 -0.29988692309E+02  0.47787275686E+02  0.20000021164E+02 0.  0.
        -12    1    1    2    0    0 -0.31247395033E+02  0.28109621498E+01  0.29988692309E+02  0.43400724314E+02  0.00000000000E+00 0.  1.
         11    1    3    3    0    0 -0.10025598892E+01 -0.34023711279E+00 -0.82367530587E+00  0.13413906571E+01  0.51100000000E-03 0. -1.
        -11    1    3    3    0    0  0.13515308086E+02 -0.13283091417E+01 -0.22963163243E+02  0.26678358724E+02  0.51100000000E-03 0.  1.
         12    1    3    3    0    0  0.18734646836E+02 -0.11424158953E+01 -0.62018537603E+01  0.19767526305E+02  0.00000000000E+00 0. -1.
</event>
<event>
 7    1  0.1457722E-010  0.4778726E+02  0.7816164E-02  0.1312668E+00
        -11   -1    0    0    0    0  0.00000000000E+00  0.00000000000E+00  0.45593999997E+02  0.45594000000E+02  0.51100000000E-03 0.  1.
         11   -1    0    0    0    0 -0.00000000000E+00 -0.00000000000E+00 -0.45593999997E+02  0.45594000000E+02  0.51100000000E-03 0. -1.
    9900012    2    1    2    0    0  0.88573850383E+01  0.34765194667E+01 -0.42344835501E+02  0.47787256332E+02  0.19999932919E+02 0.  0.
        -12    1    1    2    0    0 -0.88573850383E+01 -0.34765194667E+01  0.42344835501E+02  0.43400743668E+02  0.00000000000E+00 0.  1.
         11    1    3    3    0    0  0.12660845055E+02  0.55263049238E+01 -0.32390764419E+02  0.35213614746E+02  0.51100000000E-03 0. -1.
        -11    1    3    3    0    0 -0.17811776078E+01  0.17839707733E+01 -0.11717669945E+01  0.27799610683E+01  0.51100000000E-03 0.  1.
        -12    1    3    3    0    0 -0.20222824088E+01 -0.38337562304E+01 -0.87823040882E+01  0.97936805172E+01  0.00000000000E+00 0.  1.
</event>
<event>
 7    1  0.1545738E-010  0.4778726E+02  0.7816164E-02  0.1312668E+00
        -11   -1    0    0    0    0  0.00000000000E+00  0.00000000000E+00  0.45593999997E+02  0.45594000000E+02  0.51100000000E-03 0.  1.
         11   -1    0    0    0    0 -0.00000000000E+00 -0.00000000000E+00 -0.45593999997E+02  0.45594000000E+02  0.51100000000E-03 0. -1.
    9900012    2    1    2    0    0  0.21063620074E+02 -0.37926063187E+02  0.12496489454E+01  0.47787262887E+02  0.19999962805E+02 0.  0.
        -12    1    1    2    0    0 -0.21063620074E+02  0.37926063187E+02 -0.12496489454E+01  0.43400737113E+02  0.00000000000E+00 0.  1.
         11    1    3    3    0    0 -0.20920411773E+01 -0.40593142103E+01 -0.26399840896E-02  0.45666919511E+01  0.51100000000E-03 0. -1.
        -11    1    3    3    0    0  0.14144988546E+02 -0.94476750414E+01  0.23353246693E+01  0.17169537158E+02  0.51100000000E-03 0.  1.
         12    1    3    3    0    0  0.90106727057E+01 -0.24419073936E+02 -0.10830357398E+01  0.26051033778E+02  0.00000000000E+00 0. -1.
</event>
<event>
 7    1  0.1457722E-010  0.4778727E+02  0.7816164E-02  0.1312668E+00
        -11   -1    0    0    0    0  0.00000000000E+00  0.00000000000E+00  0.45593999997E+02  0.45594000000E+02  0.51100000000E-03 0.  1.
         11   -1    0    0    0    0 -0.00000000000E+00 -0.00000000000E+00 -0.45593999997E+02  0.45594000000E+02  0.51100000000E-03 0. -1.
    9900012    2    1    2    0    0 -0.25409050149E+02  0.40396132528E+00 -0.35182951342E+02  0.47787273285E+02  0.20000010218E+02 0.  0.
        -12    1    1    2    0    0  0.25409050149E+02 -0.40396132528E+00  0.35182951342E+02  0.43400726715E+02  0.00000000000E+00 0.  1.
         11    1    3    3    0    0  0.19485828100E+01  0.81523606936E+00 -0.37668769290E+01  0.43186742035E+01  0.51100000000E-03 0.  1.
        -11    1    3    3    0    0 -0.27319927415E+02  0.21670216772E+01 -0.29425150667E+02  0.40210868045E+02  0.51100000000E-03 0. -1.
         12    1    3    3    0    0 -0.37705543483E-01 -0.25782964213E+01 -0.19909237464E+01  0.32577310368E+01  0.00000000000E+00 0. -1.
</event>
<event>
 7    1  0.1457722E-010  0.4778726E+02  0.7816164E-02  0.1312668E+00
        -11   -1    0    0    0    0  0.00000000000E+00  0.00000000000E+00  0.45593999997E+02  0.45594000000E+02  0.51100000000E-03 0.  1.
         11   -1    0    0    0    0 -0.00000000000E+00 -0.00000000000E+00 -0.45593999997E+02  0.45594000000E+02  0.51100000000E-03 0. -1.
    9900012    2    1    2    0    0  0.30335172175E+02 -0.25467423448E+02 -0.17742950476E+02  0.47787255541E+02  0.19999929315E+02 0.  0.
        -12    1    1    2    0    0 -0.30335172175E+02  0.25467423448E+02  0.17742950476E+02  0.43400744459E+02  0.00000000000E+00 0.  1.
         11    1    3    3    0    0  0.10927553319E+02 -0.13166897147E+02 -0.98308357337E+01  0.19733827137E+02  0.51100000000E-03 0. -1.
        -11    1    3    3    0    0  0.15259575367E+02 -0.30910194250E+01 -0.88507507479E+01  0.17909350366E+02  0.51100000000E-03 0.  1.
         12    1    3    3    0    0  0.41480434894E+01 -0.92095068760E+01  0.93863600539E+00  0.10144078038E+02  0.00000000000E+00 0. -1.
</event>
<event>
 7    1  0.1457722E-010  0.4778727E+02  0.7816164E-02  0.1312668E+00
        -11   -1    0    0    0    0  0.00000000000E+00  0.00000000000E+00  0.45593999997E+02  0.45594000000E+02  0.51100000000E-03 0. -1.
         11   -1    0    0    0    0 -0.00000000000E+00 -0.00000000000E+00 -0.45593999997E+02  0.45594000000E+02  0.51100000000E-03 0.  1.
    9900012    2    1    2    0    0 -0.42284555887E+02 -0.91606488993E+01  0.34237277253E+01  0.47787273436E+02  0.20000010902E+02 0.  0.
        -12    1    1    2    0    0  0.42284555887E+02  0.91606488993E+01 -0.34237277253E+01  0.43400726564E+02  0.00000000000E+00 0.  1.
         11    1    3    3    0    0 -0.11442787889E+02 -0.72040180677E+01  0.91580059229E+00  0.13552636717E+02  0.51100000000E-03 0. -1.
        -11    1    3    3    0    0 -0.63144594335E+01  0.36920148972E+01 -0.38622764087E+01  0.82716716120E+01  0.51100000000E-03 0.  1.
         12    1    3    3    0    0 -0.24527308564E+02 -0.56486457287E+01  0.63702035417E+01  0.25962965107E+02  0.00000000000E+00 0. -1.
</event>
<event>
 7    1  0.1457722E-010  0.4778727E+02  0.7816164E-02  0.1312668E+00
        -11   -1    0    0    0    0  0.00000000000E+00  0.00000000000E+00  0.45593999997E+02  0.45594000000E+02  0.51100000000E-03 0. -1.
         11   -1    0    0    0    0 -0.00000000000E+00 -0.00000000000E+00 -0.45593999997E+02  0.45594000000E+02  0.51100000000E-03 0.  1.
    9900012    2    1    2    0    0 -0.25856777454E+02 -0.80420362292E+01  0.33917192305E+02  0.47787271655E+02  0.20000002786E+02 0.  0.
        -12    1    1    2    0    0  0.25856777454E+02  0.80420362292E+01 -0.33917192305E+02  0.43400728345E+02  0.00000000000E+00 0.  1.
         11    1    3    3    0    0 -0.85404275684E+01 -0.20994860000E+01  0.10367584844E+02  0.13595350686E+02  0.51100000000E-03 0. -1.
        -11    1    3    3    0    0 -0.82675257579E+01 -0.11187429591E+02  0.10285704687E+02  0.17300470635E+02  0.51100000000E-03 0.  1.
        -12    1    3    3    0    0 -0.90488241274E+01  0.52448793623E+01  0.13263902774E+02  0.16891450334E+02  0.00000000000E+00 0.  1.
</event>
<event>
 7    1  0.1457722E-010  0.4778727E+02  0.7816164E-02  0.1312668E+00
        -11   -1    0    0    0    0  0.00000000000E+00  0.00000000000E+00  0.45593999997E+02  0.45594000000E+02  0.51100000000E-03 0.  1.
         11   -1    0    0    0    0 -0.00000000000E+00 -0.00000000000E+00 -0.45593999997E+02  0.45594000000E+02  0.51100000000E-03 0. -1.
    9900012    2    1    2    0    0 -0.32921087360E+02  0.16547354868E+02 -0.22934914986E+02  0.47787271071E+02  0.20000000123E+02 0.  0.
        -12    1    1    2    0    0  0.32921087360E+02 -0.16547354868E+02  0.22934914986E+02  0.43400728929E+02  0.00000000000E+00 0.  1.
         11    1    3    3    0    0 -0.21863678583E+02  0.10192819413E+02 -0.89071403127E+01  0.25714804249E+02  0.51100000000E-03 0. -1.
        -11    1    3    3    0    0  0.43351174606E+00  0.49712510933E+01 -0.19871349437E+01  0.53712173119E+01  0.51100000000E-03 0.  1.
        -12    1    3    3    0    0 -0.11490920523E+02  0.13832843614E+01 -0.12040639730E+02  0.16701249510E+02  0.00000000000E+00 0.  1.
</event>
<event>
 7    1  0.1457722E-010  0.4778727E+02  0.7816164E-02  0.1312668E+00
        -11   -1    0    0    0    0  0.00000000000E+00  0.00000000000E+00  0.45593999997E+02  0.45594000000E+02  0.51100000000E-03 0.  1.
         11   -1    0    0    0    0 -0.00000000000E+00 -0.00000000000E+00 -0.45593999997E+02  0.45594000000E+02  0.51100000000E-03 0. -1.
    9900012    2    1    2    0    0  0.12353909788E+02 -0.28578548279E+02 -0.30236912242E+02  0.47787269928E+02  0.19999994912E+02 0.  0.
        -12    1    1    2    0    0 -0.12353909788E+02  0.28578548279E+02  0.30236912242E+02  0.43400730072E+02  0.00000000000E+00 0.  1.
         11    1    3    3    0    0  0.50416353658E+01 -0.35400723475E+01 -0.11389794031E+02  0.12949038873E+02  0.51100000000E-03 0. -1.
        -11    1    3    3    0    0  0.66599090349E+01 -0.94604390176E+01 -0.17532099233E+01  0.11701625530E+02  0.51100000000E-03 0.  1.
        -12    1    3    3    0    0  0.65236538768E+00 -0.15578036914E+02 -0.17093908287E+02  0.23136605525E+02  0.00000000000E+00 0.  1.
</event>
<event>
 7    1  0.1457722E-010  0.4778727E+02  0.7816164E-02  0.1312668E+00
        -11   -1    0    0    0    0  0.00000000000E+00  0.00000000000E+00  0.45593999997E+02  0.45594000000E+02  0.51100000000E-03 0.  1.
         11   -1    0    0    0    0 -0.00000000000E+00 -0.00000000000E+00 -0.45593999997E+02  0.45594000000E+02  0.51100000000E-03 0. -1.
    9900012    2    1    2    0    0 -0.27029398816E+02 -0.23236391133E+02 -0.24760956477E+02  0.47787271447E+02  0.20000001837E+02 0.  0.
        -12    1    1    2    0    0  0.27029398816E+02  0.23236391133E+02  0.24760956477E+02  0.43400728553E+02  0.00000000000E+00 0.  1.
         11    1    3    3    0    0 -0.22271608002E+01  0.22275422791E+01 -0.60718348792E+00  0.32079373255E+01  0.51100000000E-03 0. -1.
        -11    1    3    3    0    0 -0.44790978605E+01 -0.12107434772E+02 -0.60228040258E+01  0.14245225972E+02  0.51100000000E-03 0.  1.
         12    1    3    3    0    0 -0.20323140155E+02 -0.13356498640E+02 -0.18130968964E+02  0.30334108150E+02  0.00000000000E+00 0. -1.
</event>
<event>
 7    1  0.1457722E-010  0.4778728E+02  0.7816164E-02  0.1312668E+00
        -11   -1    0    0    0    0  0.00000000000E+00  0.00000000000E+00  0.45593999997E+02  0.45594000000E+02  0.51100000000E-03 0. -1.
         11   -1    0    0    0    0 -0.00000000000E+00 -0.00000000000E+00 -0.45593999997E+02  0.45594000000E+02  0.51100000000E-03 0.  1.
    9900012    2    1    2    0    0  0.25754769027E+02 -0.73115551845E+01  0.34159266371E+02  0.47787280584E+02  0.20000043493E+02 0.  0.
        -12    1    1    2    0    0 -0.25754769027E+02  0.73115551845E+01 -0.34159266371E+02  0.43400719416E+02  0.00000000000E+00 0.  1.
         11    1    3    3    0    0  0.15810656810E+01 -0.23687361764E+01  0.32369872939E+00  0.28662625298E+01  0.51100000000E-03 0. -1.
        -11    1    3    3    0    0  0.19193080460E+01 -0.55059455320E+01  0.21875857523E+01  0.62277372505E+01  0.51100000000E-03 0.  1.
         12    1    3    3    0    0  0.22254395300E+02  0.56312652393E+00  0.31647981889E+02  0.38693280803E+02  0.00000000000E+00 0. -1.
</event>
<event>
 7    1  0.1457722E-010  0.4778726E+02  0.7816164E-02  0.1312668E+00
        -11   -1    0    0    0    0  0.00000000000E+00  0.00000000000E+00  0.45593999997E+02  0.45594000000E+02  0.51100000000E-03 0.  1.
         11   -1    0    0    0    0 -0.00000000000E+00 -0.00000000000E+00 -0.45593999997E+02  0.45594000000E+02  0.51100000000E-03 0. -1.
    9900012    2    1    2    0    0 -0.56452570383E+01 -0.18239652291E+02 -0.38975258499E+02  0.47787255562E+02  0.19999929408E+02 0.  0.
        -12    1    1    2    0    0  0.56452570383E+01  0.18239652291E+02  0.38975258499E+02  0.43400744438E+02  0.00000000000E+00 0.  1.
         11    1    3    3    0    0 -0.45125053892E+01  0.19056570173E+00 -0.12096392893E+02  0.12912077348E+02  0.51100000000E-03 0. -1.
        -11    1    3    3    0    0 -0.21381450590E+01 -0.13222177876E+02 -0.26332193554E+02  0.29542885264E+02  0.51100000000E-03 0.  1.
        -12    1    3    3    0    0  0.10053934099E+01 -0.52080401167E+01 -0.54667205242E+00  0.53322929495E+01  0.00000000000E+00 0.  1.
</event>
<event>
 7    1  0.1457722E-010  0.4778727E+02  0.7816164E-02  0.1312668E+00
        -11   -1    0    0    0    0  0.00000000000E+00  0.00000000000E+00  0.45593999997E+02  0.45594000000E+02  0.51100000000E-03 0.  1.
         11   -1    0    0    0    0 -0.00000000000E+00 -0.00000000000E+00 -0.45593999997E+02  0.45594000000E+02  0.51100000000E-03 0. -1.
    9900012    2    1    2    0    0 -0.14630414460E+02  0.25952237859E+02 -0.31560348832E+02  0.47787270795E+02  0.19999998863E+02 0.  0.
        -12    1    1    2    0    0  0.14630414460E+02 -0.25952237859E+02  0.31560348832E+02  0.43400729205E+02  0.00000000000E+00 0.  1.
         11    1    3    3    0    0  0.27510931009E+01  0.44701193941E+01 -0.39273117875E+01  0.65554754812E+01  0.51100000000E-03 0.  1.
        -11    1    3    3    0    0 -0.83020064449E+01  0.58443623655E+01 -0.18191185619E+02  0.20832645463E+02  0.51100000000E-03 0. -1.
         12    1    3    3    0    0 -0.90795011156E+01  0.15637756099E+02 -0.94418514248E+01  0.20399149851E+02  0.00000000000E+00 0. -1.
</event>
<event>
 7    1  0.1457722E-010  0.4778727E+02  0.7816164E-02  0.1312668E+00
        -11   -1    0    0    0    0  0.00000000000E+00  0.00000000000E+00  0.45593999997E+02  0.45594000000E+02  0.51100000000E-03 0.  1.
         11   -1    0    0    0    0 -0.00000000000E+00 -0.00000000000E+00 -0.45593999997E+02  0.45594000000E+02  0.51100000000E-03 0. -1.
    9900012    2    1    2    0    0  0.12716736372E+02  0.38193402176E+02 -0.16222588414E+02  0.47787265806E+02  0.19999976117E+02 0.  0.
        -12    1    1    2    0    0 -0.12716736372E+02 -0.38193402176E+02  0.16222588414E+02  0.43400734194E+02  0.00000000000E+00 0.  1.
         11    1    3    3    0    0  0.88836170235E+01  0.19659127563E+02 -0.25685523583E+01  0.21725501362E+02  0.51100000000E-03 0. -1.
        -11    1    3    3    0    0 -0.30156209397E+00 -0.14623874702E+01 -0.21706957012E+01  0.26346606798E+01  0.51100000000E-03 0.  1.
        -12    1    3    3    0    0  0.41346814424E+01  0.19996662083E+02 -0.11483340354E+02  0.23427103764E+02  0.00000000000E+00 0.  1.
</event>
<event>
 7    1  0.1457722E-010  0.4778727E+02  0.7816164E-02  0.1312668E+00
        -11   -1    0    0    0    0  0.00000000000E+00  0.00000000000E+00  0.45593999997E+02  0.45594000000E+02  0.51100000000E-03 0. -1.
         11   -1    0    0    0    0 -0.00000000000E+00 -0.00000000000E+00 -0.45593999997E+02  0.45594000000E+02  0.51100000000E-03 0.  1.
    9900012    2    1    2    0    0 -0.25157262016E+02  0.16459948108E+02  0.31301843100E+02  0.47787272986E+02  0.20000008853E+02 0.  0.
        -12    1    1    2    0    0  0.25157262016E+02 -0.16459948108E+02 -0.31301843100E+02  0.43400727014E+02  0.00000000000E+00 0.  1.
         11    1    3    3    0    0 -0.10573699738E+02  0.37552875362E+01  0.12310208658E+02  0.16656726812E+02  0.51100000000E-03 0. -1.
        -11    1    3    3    0    0  0.31488502789E+01  0.30927051386E+01  0.24703446956E+01  0.50579330096E+01  0.51100000000E-03 0.  1.
        -12    1    3    3    0    0 -0.17732412557E+02  0.96119554330E+01  0.16521289747E+02  0.26072613165E+02  0.00000000000E+00 0.  1.
</event>
<event>
 7    1  0.1457722E-010  0.4778726E+02  0.7816164E-02  0.1312668E+00
        -11   -1    0    0    0    0  0.00000000000E+00  0.00000000000E+00  0.45593999997E+02  0.45594000000E+02  0.51100000000E-03 0.  1.
         11   -1    0    0    0    0 -0.00000000000E+00 -0.00000000000E+00 -0.45593999997E+02  0.45594000000E+02  0.51100000000E-03 0. -1.
    9900012    2    1    2    0    0 -0.16872329110E+02 -0.17519147544E+02 -0.35944791220E+02  0.47787262263E+02  0.19999959964E+02 0.  0.
        -12    1    1    2    0    0  0.16872329110E+02  0.17519147544E+02  0.35944791220E+02  0.43400737737E+02  0.00000000000E+00 0.  1.
         11    1    3    3    0    0 -0.17515126165E+02 -0.15843853692E+02 -0.29447229378E+02  0.37748465700E+02  0.51100000000E-03 0. -1.
        -11    1    3    3    0    0 -0.16630813399E+01 -0.17068520139E+01  0.69759959299E+00  0.24831086955E+01  0.51100000000E-03 0.  1.
         12    1    3    3    0    0  0.23058783948E+01  0.31558162050E-01 -0.71951614346E+01  0.75556878681E+01  0.00000000000E+00 0. -1.
</event>
<event>
 7    1  0.1457722E-010  0.4778727E+02  0.7816164E-02  0.1312668E+00
        -11   -1    0    0    0    0  0.00000000000E+00  0.00000000000E+00  0.45593999997E+02  0.45594000000E+02  0.51100000000E-03 0.  1.
         11   -1    0    0    0    0 -0.00000000000E+00 -0.00000000000E+00 -0.45593999997E+02  0.45594000000E+02  0.51100000000E-03 0. -1.
    9900012    2    1    2    0    0 -0.28900290996E+02 -0.27661174517E+02 -0.16830211179E+02  0.47787269550E+02  0.19999993185E+02 0.  0.
        -12    1    1    2    0    0  0.28900290996E+02  0.27661174517E+02  0.16830211179E+02  0.43400730450E+02  0.00000000000E+00 0.  1.
         11    1    3    3    0    0 -0.32545364547E+01 -0.64016933952E+01 -0.22801561823E+01  0.75347726136E+01  0.51100000000E-03 0. -1.
        -11    1    3    3    0    0 -0.20225272918E+02 -0.19177294325E+02 -0.39282596323E+01  0.28147140286E+02  0.51100000000E-03 0.  1.
         12    1    3    3    0    0 -0.54204816226E+01 -0.20821867965E+01 -0.10621795364E+02  0.12105356650E+02  0.00000000000E+00 0. -1.
</event>
<event>
 7    1  0.1457722E-010  0.4778727E+02  0.7816164E-02  0.1312668E+00
        -11   -1    0    0    0    0  0.00000000000E+00  0.00000000000E+00  0.45593999997E+02  0.45594000000E+02  0.51100000000E-03 0.  1.
         11   -1    0    0    0    0 -0.00000000000E+00 -0.00000000000E+00 -0.45593999997E+02  0.45594000000E+02  0.51100000000E-03 0. -1.
    9900012    2    1    2    0    0  0.90251591530E+01  0.11069875597E+01 -0.42437534878E+02  0.47787270908E+02  0.19999999379E+02 0.  0.
        -12    1    1    2    0    0 -0.90251591530E+01 -0.11069875597E+01  0.42437534878E+02  0.43400729092E+02  0.00000000000E+00 0.  1.
         11    1    3    3    0    0  0.50743997376E+01 -0.18849705068E+01 -0.22411982828E+01  0.58588067481E+01  0.51100000000E-03 0. -1.
        -11    1    3    3    0    0  0.75299733486E+01  0.29891354225E+01 -0.23641200934E+02  0.24990834541E+02  0.51100000000E-03 0.  1.
        -12    1    3    3    0    0 -0.35792139332E+01  0.28226439773E-02 -0.16555135661E+02  0.16937629619E+02  0.00000000000E+00 0.  1.
</event>
<event>
 7    1  0.1457722E-010  0.4778727E+02  0.7816164E-02  0.1312668E+00
        -11   -1    0    0    0    0  0.00000000000E+00  0.00000000000E+00  0.45593999997E+02  0.45594000000E+02  0.51100000000E-03 0. -1.
         11   -1    0    0    0    0 -0.00000000000E+00 -0.00000000000E+00 -0.45593999997E+02  0.45594000000E+02  0.51100000000E-03 0.  1.
    9900012    2    1    2    0    0 -0.11209375255E+02 -0.38461607879E+02  0.16693661957E+02  0.47787265861E+02  0.19999976367E+02 0.  0.
        -12    1    1    2    0    0  0.11209375255E+02  0.38461607879E+02 -0.16693661957E+02  0.43400734139E+02  0.00000000000E+00 0.  1.
         11    1    3    3    0    0 -0.32969852202E+01 -0.14317119430E+02  0.84225706657E+01  0.16934866908E+02  0.51100000000E-03 0. -1.
        -11    1    3    3    0    0 -0.11446166120E+01  0.20354878403E+01 -0.56884232761E+00  0.24035265322E+01  0.51100000000E-03 0.  1.
        -12    1    3    3    0    0 -0.67677734229E+01 -0.26179976290E+02  0.88399336194E+01  0.28448872421E+02  0.00000000000E+00 0.  1.
</event>
<event>
 7    1  0.1457722E-010  0.4778727E+02  0.7816164E-02  0.1312668E+00
        -11   -1    0    0    0    0  0.00000000000E+00  0.00000000000E+00  0.45593999997E+02  0.45594000000E+02  0.51100000000E-03 0. -1.
         11   -1    0    0    0    0 -0.00000000000E+00 -0.00000000000E+00 -0.45593999997E+02  0.45594000000E+02  0.51100000000E-03 0.  1.
    9900012    2    1    2    0    0  0.19015085295E+01  0.42582219145E+02  0.81707995781E+01  0.47787273189E+02  0.20000009777E+02 0.  0.
        -12    1    1    2    0    0 -0.19015085295E+01 -0.42582219145E+02 -0.81707995781E+01  0.43400726811E+02  0.00000000000E+00 0.  1.
         11    1    3    3    0    0  0.16171667276E+00  0.34001884832E+02  0.80517511544E+00  0.34011801358E+02  0.51100000000E-03 0. -1.
        -11    1    3    3    0    0  0.68931677950E+00  0.68577161669E+01  0.83787183606E+00  0.69430150600E+01  0.51100000000E-03 0.  1.
        -12    1    3    3    0    0  0.10504750773E+01  0.17226181461E+01  0.65277526266E+01  0.68324567704E+01  0.00000000000E+00 0.  1.
</event>
<event>
 7    1  0.1457722E-010  0.4778727E+02  0.7816164E-02  0.1312668E+00
        -11   -1    0    0    0    0  0.00000000000E+00  0.00000000000E+00  0.45593999997E+02  0.45594000000E+02  0.51100000000E-03 0.  1.
         11   -1    0    0    0    0 -0.00000000000E+00 -0.00000000000E+00 -0.45593999997E+02  0.45594000000E+02  0.51100000000E-03 0. -1.
    9900012    2    1    2    0    0  0.37974821939E+02  0.92106973809E+01 -0.18886480663E+02  0.47787271903E+02  0.20000003914E+02 0.  0.
        -12    1    1    2    0    0 -0.37974821939E+02 -0.92106973809E+01  0.18886480663E+02  0.43400728097E+02  0.00000000000E+00 0.  1.
         11    1    3    3    0    0  0.49954727363E+01 -0.92391579310E+00 -0.56317927844E+01  0.75845539407E+01  0.51100000000E-03 0. -1.
        -11    1    3    3    0    0  0.84457100953E+01  0.97446271818E+01 -0.14578150860E+01  0.12977403554E+02  0.51100000000E-03 0.  1.
        -12    1    3    3    0    0  0.24533639107E+02  0.38998599218E+00 -0.11796872793E+02  0.27225314408E+02  0.00000000000E+00 0.  1.
</event>
<event>
 7    1  0.1457722E-010  0.4778726E+02  0.7816164E-02  0.1312668E+00
        -11   -1    0    0    0    0  0.00000000000E+00  0.00000000000E+00  0.45593999997E+02  0.45594000000E+02  0.51100000000E-03 0.  1.
         11   -1    0    0    0    0 -0.00000000000E+00 -0.00000000000E+00 -0.45593999997E+02  0.45594000000E+02  0.51100000000E-03 0. -1.
    9900012    2    1    2    0    0 -0.42895511163E+02 -0.57038241040E+00  0.65782917277E+01  0.47787261112E+02  0.19999954712E+02 0.  0.
        -12    1    1    2    0    0  0.42895511163E+02  0.57038241040E+00 -0.65782917277E+01  0.43400738888E+02  0.00000000000E+00 0.  1.
         11    1    3    3    0    0 -0.36856412939E+02 -0.20352145465E+01  0.10469549104E+02  0.38368590431E+02  0.51100000000E-03 0. -1.
        -11    1    3    3    0    0 -0.71208725014E+01  0.82153823879E+00 -0.38993147547E+01  0.81600493917E+01  0.51100000000E-03 0.  1.
        -12    1    3    3    0    0  0.10817742778E+01  0.64329389736E+00  0.80573780710E-02  0.12586212885E+01  0.00000000000E+00 0.  1.
</event>
<event>
 7    1  0.1457722E-010  0.4778727E+02  0.7816164E-02  0.1312668E+00
        -11   -1    0    0    0    0  0.00000000000E+00  0.00000000000E+00  0.45593999997E+02  0.45594000000E+02  0.51100000000E-03 0. -1.
         11   -1    0    0    0    0 -0.00000000000E+00 -0.00000000000E+00 -0.45593999997E+02  0.45594000000E+02  0.51100000000E-03 0.  1.
    9900012    2    1    2    0    0 -0.41254257784E+02 -0.63674883488E+01  0.11881256283E+02  0.47787274844E+02  0.20000017325E+02 0.  0.
        -12    1    1    2    0    0  0.41254257784E+02  0.63674883488E+01 -0.11881256283E+02  0.43400725156E+02  0.00000000000E+00 0.  1.
         11    1    3    3    0    0 -0.72956531970E+01 -0.70596725608E+01  0.41545489794E+01  0.10969312181E+02  0.51100000000E-03 0. -1.
        -11    1    3    3    0    0 -0.83231491676E+01  0.53760631589E+01  0.28006410640E+01  0.10296623611E+02  0.51100000000E-03 0.  1.
        -12    1    3    3    0    0 -0.25635455419E+02 -0.46838789469E+01  0.49260662398E+01  0.26521339053E+02  0.00000000000E+00 0.  1.
</event>
<event>
 7    1  0.1457722E-010  0.4778728E+02  0.7816164E-02  0.1312668E+00
        -11   -1    0    0    0    0  0.00000000000E+00  0.00000000000E+00  0.45593999997E+02  0.45594000000E+02  0.51100000000E-03 0.  1.
         11   -1    0    0    0    0 -0.00000000000E+00 -0.00000000000E+00 -0.45593999997E+02  0.45594000000E+02  0.51100000000E-03 0. -1.
    9900012    2    1    2    0    0  0.20806811323E+02  0.12878406648E+02 -0.35844748642E+02  0.47787276959E+02  0.20000026968E+02 0.  0.
        -12    1    1    2    0    0 -0.20806811323E+02 -0.12878406648E+02  0.35844748642E+02  0.43400723041E+02  0.00000000000E+00 0.  1.
         11    1    3    3    0    0 -0.92088805183E+00  0.63905850391E+00  0.25888434854E+00  0.11504138136E+01  0.51100000000E-03 0. -1.
        -11    1    3    3    0    0  0.10020473932E+01 -0.32056150528E+01 -0.22448977659E+01  0.40397565627E+01  0.51100000000E-03 0.  1.
         12    1    3    3    0    0  0.20725651982E+02  0.15444963197E+02 -0.33858735225E+02  0.42597106583E+02  0.00000000000E+00 0. -1.
</event>
<event>
 7    1  0.1457722E-010  0.4778727E+02  0.7816164E-02  0.1312668E+00
        -11   -1    0    0    0    0  0.00000000000E+00  0.00000000000E+00  0.45593999997E+02  0.45594000000E+02  0.51100000000E-03 0. -1.
         11   -1    0    0    0    0 -0.00000000000E+00 -0.00000000000E+00 -0.45593999997E+02  0.45594000000E+02  0.51100000000E-03 0.  1.
    9900012    2    1    2    0    0 -0.38625288632E+02  0.28365350466E+01  0.19587354276E+02  0.47787270738E+02  0.19999998603E+02 0.  0.
        -12    1    1    2    0    0  0.38625288632E+02 -0.28365350466E+01 -0.19587354276E+02  0.43400729262E+02  0.00000000000E+00 0.  1.
         11    1    3    3    0    0 -0.22699425413E+02 -0.19773357762E+00  0.73337488021E+01  0.23855542006E+02  0.51100000000E-03 0. -1.
        -11    1    3    3    0    0 -0.68610856224E+01  0.74067439421E+01  0.84740857709E+01  0.13181217002E+02  0.51100000000E-03 0.  1.
        -12    1    3    3    0    0 -0.90647775965E+01 -0.43724753179E+01  0.37795197025E+01  0.10750511730E+02  0.00000000000E+00 0.  1.
</event>
<event>
 7    1  0.1457722E-010  0.4778727E+02  0.7816164E-02  0.1312668E+00
        -11   -1    0    0    0    0  0.00000000000E+00  0.00000000000E+00  0.45593999997E+02  0.45594000000E+02  0.51100000000E-03 0.  1.
         11   -1    0    0    0    0 -0.00000000000E+00 -0.00000000000E+00 -0.45593999997E+02  0.45594000000E+02  0.51100000000E-03 0. -1.
    9900012    2    1    2    0    0  0.13088176574E+02  0.61066099316E+01 -0.40927154294E+02  0.47787274091E+02  0.20000013890E+02 0.  0.
        -12    1    1    2    0    0 -0.13088176574E+02 -0.61066099316E+01  0.40927154294E+02  0.43400725909E+02  0.00000000000E+00 0.  1.
         11    1    3    3    0    0  0.96988498787E+00 -0.22678261238E+01 -0.13756542068E+01  0.28242055476E+01  0.51100000000E-03 0.  1.
        -11    1    3    3    0    0  0.35280568168E+01  0.20792139253E+01 -0.96834622378E-01  0.40963023149E+01  0.51100000000E-03 0. -1.
         12    1    3    3    0    0  0.85902347689E+01  0.62952221301E+01 -0.39454665464E+02  0.40866766228E+02  0.00000000000E+00 0. -1.
</event>
<event>
 7    1  0.1457722E-010  0.4778729E+02  0.7816164E-02  0.1312668E+00
        -11   -1    0    0    0    0  0.00000000000E+00  0.00000000000E+00  0.45593999997E+02  0.45594000000E+02  0.51100000000E-03 0.  1.
         11   -1    0    0    0    0 -0.00000000000E+00 -0.00000000000E+00 -0.45593999997E+02  0.45594000000E+02  0.51100000000E-03 0. -1.
    9900012    2    1    2    0    0 -0.60013238802E+01  0.22332884902E+01 -0.42925727982E+02  0.47787290460E+02  0.20000088521E+02 0.  0.
        -12    1    1    2    0    0  0.60013238802E+01 -0.22332884902E+01  0.42925727982E+02  0.43400709540E+02  0.00000000000E+00 0.  1.
         11    1    3    3    0    0  0.60326436600E+01  0.20887171311E+01 -0.25753196641E+02  0.26532671676E+02  0.51100000000E-03 0. -1.
        -11    1    3    3    0    0 -0.53178752315E+01 -0.10442885921E+00 -0.47524258315E+01  0.71327592073E+01  0.51100000000E-03 0.  1.
        -12    1    3    3    0    0 -0.67160923086E+01  0.24900021821E+00 -0.12420105510E+02  0.14121859576E+02  0.00000000000E+00 0.  1.
</event>
<event>
 7    1  0.1457722E-010  0.4778727E+02  0.7816164E-02  0.1312668E+00
        -11   -1    0    0    0    0  0.00000000000E+00  0.00000000000E+00  0.45593999997E+02  0.45594000000E+02  0.51100000000E-03 0.  1.
         11   -1    0    0    0    0 -0.00000000000E+00 -0.00000000000E+00 -0.45593999997E+02  0.45594000000E+02  0.51100000000E-03 0. -1.
    9900012    2    1    2    0    0 -0.31489255474E+01 -0.38223098066E+02 -0.20315073681E+02  0.47787272166E+02  0.20000005114E+02 0.  0.
        -12    1    1    2    0    0  0.31489255474E+01  0.38223098066E+02  0.20315073681E+02  0.43400727834E+02  0.00000000000E+00 0.  1.
         11    1    3    3    0    0  0.32069197367E+01 -0.69599188161E+01 -0.53303705282E+01  0.93347551845E+01  0.51100000000E-03 0.  1.
        -11    1    3    3    0    0 -0.50791788477E+01 -0.12623959663E+02  0.12989563673E+01  0.13669297833E+02  0.51100000000E-03 0. -1.
         12    1    3    3    0    0 -0.12766664364E+01 -0.18639219586E+02 -0.16283659520E+02  0.24783219148E+02  0.00000000000E+00 0. -1.
</event>
<event>
 7    1  0.1457722E-010  0.4778727E+02  0.7816164E-02  0.1312668E+00
        -11   -1    0    0    0    0  0.00000000000E+00  0.00000000000E+00  0.45593999997E+02  0.45594000000E+02  0.51100000000E-03 0.  1.
         11   -1    0    0    0    0 -0.00000000000E+00 -0.00000000000E+00 -0.45593999997E+02  0.45594000000E+02  0.51100000000E-03 0. -1.
    9900012    2    1    2    0    0  0.14564480494E+02 -0.96435267501E+01 -0.39730363488E+02  0.47787268633E+02  0.19999989007E+02 0.  0.
        -12    1    1    2    0    0 -0.14564480494E+02  0.96435267501E+01  0.39730363488E+02  0.43400731367E+02  0.00000000000E+00 0.  1.
         11    1    3    3    0    0 -0.15776442479E+01 -0.61806078814E+01 -0.62456221336E+01  0.89272992138E+01  0.51100000000E-03 0. -1.
        -11    1    3    3    0    0  0.25595067474E+01  0.35905722964E+01 -0.71142037405E+01  0.83698972113E+01  0.51100000000E-03 0.  1.
         12    1    3    3    0    0  0.13582617995E+02 -0.70534911651E+01 -0.26370537614E+02  0.30490072208E+02  0.00000000000E+00 0. -1.
</event>
<event>
 7    1  0.1457722E-010  0.4778727E+02  0.7816164E-02  0.1312668E+00
        -11   -1    0    0    0    0  0.00000000000E+00  0.00000000000E+00  0.45593999997E+02  0.45594000000E+02  0.51100000000E-03 0.  1.
         11   -1    0    0    0    0 -0.00000000000E+00 -0.00000000000E+00 -0.45593999997E+02  0.45594000000E+02  0.51100000000E-03 0. -1.
    9900012    2    1    2    0    0 -0.36004647360E+02 -0.37173505933E+01 -0.23947236163E+02  0.47787269052E+02  0.19999990915E+02 0.  0.
        -12    1    1    2    0    0  0.36004647360E+02  0.37173505933E+01  0.23947236163E+02  0.43400730948E+02  0.00000000000E+00 0.  1.
         11    1    3    3    0    0 -0.15464237293E+01 -0.19829103871E+01 -0.38833225009E+01  0.46263975035E+01  0.51100000000E-03 0. -1.
        -11    1    3    3    0    0 -0.29785975466E+02  0.47252352938E+01 -0.17002043699E+02  0.34620827160E+02  0.51100000000E-03 0.  1.
        -12    1    3    3    0    0 -0.46722481649E+01 -0.64596755000E+01 -0.30618699628E+01  0.85400443880E+01  0.00000000000E+00 0.  1.
</event>
<event>
 7    1  0.1457722E-010  0.4778727E+02  0.7816164E-02  0.1312668E+00
        -11   -1    0    0    0    0  0.00000000000E+00  0.00000000000E+00  0.45593999997E+02  0.45594000000E+02  0.51100000000E-03 0.  1.
         11   -1    0    0    0    0 -0.00000000000E+00 -0.00000000000E+00 -0.45593999997E+02  0.45594000000E+02  0.51100000000E-03 0. -1.
    9900012    2    1    2    0    0 -0.17760813398E+01  0.14149468921E+02 -0.40990990901E+02  0.47787271081E+02  0.20000000168E+02 0.  0.
        -12    1    1    2    0    0  0.17760813398E+01 -0.14149468921E+02  0.40990990901E+02  0.43400728919E+02  0.00000000000E+00 0.  1.
         11    1    3    3    0    0  0.74649537868E+00  0.68764331180E+01 -0.21440571147E+01  0.72415170337E+01  0.51100000000E-03 0. -1.
        -11    1    3    3    0    0 -0.44113357514E+01  0.34478940169E+00 -0.14102122516E+02  0.14780007529E+02  0.51100000000E-03 0.  1.
        -12    1    3    3    0    0  0.18887590330E+01  0.69282464010E+01 -0.24744811269E+02  0.25765746518E+02  0.00000000000E+00 0.  1.
</event>
<event>
 7    1  0.1457722E-010  0.4778728E+02  0.7816164E-02  0.1312668E+00
        -11   -1    0    0    0    0  0.00000000000E+00  0.00000000000E+00  0.45593999997E+02  0.45594000000E+02  0.51100000000E-03 0.  1.
         11   -1    0    0    0    0 -0.00000000000E+00 -0.00000000000E+00 -0.45593999997E+02  0.45594000000E+02  0.51100000000E-03 0. -1.
    9900012    2    1    2    0    0 -0.12569539417E+02  0.18913141939E+02 -0.36985434471E+02  0.47787278553E+02  0.20000034232E+02 0.  0.
        -12    1    1    2    0    0  0.12569539417E+02 -0.18913141939E+02  0.36985434471E+02  0.43400721447E+02  0.00000000000E+00 0.  1.
         11    1    3    3    0    0 -0.10790608025E+02  0.67604374717E+01 -0.22462984524E+02  0.25821045880E+02  0.51100000000E-03 0. -1.
        -11    1    3    3    0    0  0.29827682612E+01  0.68262876776E+01 -0.12482040500E+02  0.14536039531E+02  0.51100000000E-03 0.  1.
        -12    1    3    3    0    0 -0.47616996528E+01  0.53264167894E+01 -0.20404094471E+01  0.74301931408E+01  0.00000000000E+00 0.  1.
</event>
<event>
 7    1  0.1457722E-010  0.4778727E+02  0.7816164E-02  0.1312668E+00
        -11   -1    0    0    0    0  0.00000000000E+00  0.00000000000E+00  0.45593999997E+02  0.45594000000E+02  0.51100000000E-03 0.  1.
         11   -1    0    0    0    0 -0.00000000000E+00 -0.00000000000E+00 -0.45593999997E+02  0.45594000000E+02  0.51100000000E-03 0. -1.
    9900012    2    1    2    0    0 -0.23268674083E+02  0.27338454166E+02 -0.24388550714E+02  0.47787266415E+02  0.19999978894E+02 0.  0.
        -12    1    1    2    0    0  0.23268674083E+02 -0.27338454166E+02  0.24388550714E+02  0.43400733585E+02  0.00000000000E+00 0.  1.
         11    1    3    3    0    0 -0.51823076502E+01  0.77363629926E+01 -0.90431835483E+01  0.12980246295E+02  0.51100000000E-03 0. -1.
        -11    1    3    3    0    0 -0.11461067175E+02  0.28757819411E+01 -0.11153039313E+01  0.11868870447E+02  0.51100000000E-03 0.  1.
        -12    1    3    3    0    0 -0.66252992577E+01  0.16726309233E+02 -0.14230063234E+02  0.22938149674E+02  0.00000000000E+00 0.  1.
</event>
<event>
 7    1  0.1457722E-010  0.4778727E+02  0.7816164E-02  0.1312668E+00
        -11   -1    0    0    0    0  0.00000000000E+00  0.00000000000E+00  0.45593999997E+02  0.45594000000E+02  0.51100000000E-03 0. -1.
         11   -1    0    0    0    0 -0.00000000000E+00 -0.00000000000E+00 -0.45593999997E+02  0.45594000000E+02  0.51100000000E-03 0.  1.
    9900012    2    1    2    0    0 -0.17108378267E+02 -0.34758599196E+02  0.19564415186E+02  0.47787272280E+02  0.20000005635E+02 0.  0.
        -12    1    1    2    0    0  0.17108378267E+02  0.34758599196E+02 -0.19564415186E+02  0.43400727720E+02  0.00000000000E+00 0.  1.
         11    1    3    3    0    0 -0.96121756306E+01 -0.10977566281E+02  0.13562807534E+02  0.19921110166E+02  0.51100000000E-03 0. -1.
        -11    1    3    3    0    0  0.13054691467E+01 -0.12100121527E+02  0.51514771807E+01  0.13215706870E+02  0.51100000000E-03 0.  1.
         12    1    3    3    0    0 -0.88016717835E+01 -0.11680911389E+02  0.85013047162E+00  0.14650455244E+02  0.00000000000E+00 0. -1.
</event>
<event>
 7    1  0.1457722E-010  0.4778727E+02  0.7816164E-02  0.1312668E+00
        -11   -1    0    0    0    0  0.00000000000E+00  0.00000000000E+00  0.45593999997E+02  0.45594000000E+02  0.51100000000E-03 0. -1.
         11   -1    0    0    0    0 -0.00000000000E+00 -0.00000000000E+00 -0.45593999997E+02  0.45594000000E+02  0.51100000000E-03 0.  1.
    9900012    2    1    2    0    0  0.24126938702E+02  0.33839052196E+02 -0.12507316247E+02  0.47787267468E+02  0.19999983693E+02 0.  0.
        -12    1    1    2    0    0 -0.24126938702E+02 -0.33839052196E+02  0.12507316247E+02  0.43400732532E+02  0.00000000000E+00 0.  1.
         11    1    3    3    0    0  0.17977901285E+01 -0.38979403839E+00  0.99230543359E+00  0.20901337452E+01  0.51100000000E-03 0. -1.
        -11    1    3    3    0    0  0.20541279969E+02  0.33869082123E+02 -0.15899309311E+02  0.42683099037E+02  0.51100000000E-03 0.  1.
        -12    1    3    3    0    0  0.17878686041E+01  0.35976411134E+00  0.23996876302E+01  0.30140346853E+01  0.00000000000E+00 0.  1.
</event>
<event>
 7    1  0.1457722E-010  0.4778727E+02  0.7816164E-02  0.1312668E+00
        -11   -1    0    0    0    0  0.00000000000E+00  0.00000000000E+00  0.45593999997E+02  0.45594000000E+02  0.51100000000E-03 0. -1.
         11   -1    0    0    0    0 -0.00000000000E+00 -0.00000000000E+00 -0.45593999997E+02  0.45594000000E+02  0.51100000000E-03 0.  1.
    9900012    2    1    2    0    0 -0.11434338271E+02 -0.27595552130E+01  0.41776359158E+02  0.47787269347E+02  0.19999992262E+02 0.  0.
        -12    1    1    2    0    0  0.11434338271E+02  0.27595552130E+01 -0.41776359158E+02  0.43400730653E+02  0.00000000000E+00 0.  1.
         11    1    3    3    0    0 -0.10770353741E+01 -0.85081847852E-01  0.30949855893E+02  0.30968707176E+02  0.51100000000E-03 0. -1.
        -11    1    3    3    0    0  0.70764660776E+00 -0.29068693039E+00  0.29027118808E+01  0.30018326297E+01  0.51100000000E-03 0.  1.
        -12    1    3    3    0    0 -0.11064949505E+02 -0.23837864348E+01  0.79237913845E+01  0.13816729541E+02  0.00000000000E+00 0.  1.
</event>
<event>
 7    1  0.1457722E-010  0.4778728E+02  0.7816164E-02  0.1312668E+00
        -11   -1    0    0    0    0  0.00000000000E+00  0.00000000000E+00  0.45593999997E+02  0.45594000000E+02  0.51100000000E-03 0.  1.
         11   -1    0    0    0    0 -0.00000000000E+00 -0.00000000000E+00 -0.45593999997E+02  0.45594000000E+02  0.51100000000E-03 0. -1.
    9900012    2    1    2    0    0 -0.33908470862E+02  0.16980946739E+02 -0.21106520006E+02  0.47787284163E+02  0.20000059815E+02 0.  0.
        -12    1    1    2    0    0  0.33908470862E+02 -0.16980946739E+02  0.21106520006E+02  0.43400715837E+02  0.00000000000E+00 0.  1.
         11    1    3    3    0    0 -0.12143197446E+02  0.55870553981E+01 -0.33714463119E+01  0.13785466359E+02  0.51100000000E-03 0.  1.
        -11    1    3    3    0    0 -0.18052784254E+02  0.87510367280E+01 -0.52886725687E+01  0.20747378652E+02  0.51100000000E-03 0. -1.
        -12    1    3    3    0    0 -0.37124891624E+01  0.26428546129E+01 -0.12446401125E+02  0.13254439153E+02  0.00000000000E+00 0.  1.
</event>
<event>
 7    1  0.1457722E-010  0.4778727E+02  0.7816164E-02  0.1312668E+00
        -11   -1    0    0    0    0  0.00000000000E+00  0.00000000000E+00  0.45593999997E+02  0.45594000000E+02  0.51100000000E-03 0.  1.
         11   -1    0    0    0    0 -0.00000000000E+00 -0.00000000000E+00 -0.45593999997E+02  0.45594000000E+02  0.51100000000E-03 0. -1.
    9900012    2    1    2    0    0 -0.28182751151E+02  0.12026876246E+02 -0.30736132140E+02  0.47787273812E+02  0.20000012618E+02 0.  0.
        -12    1    1    2    0    0  0.28182751151E+02 -0.12026876246E+02  0.30736132140E+02  0.43400726188E+02  0.00000000000E+00 0.  1.
         11    1    3    3    0    0 -0.15413967549E+02  0.78836060573E+01 -0.10712381408E+02  0.20359193396E+02  0.51100000000E-03 0. -1.
        -11    1    3    3    0    0  0.97810898245E-01  0.43812869279E+01 -0.10622647411E+02  0.11491121808E+02  0.51100000000E-03 0.  1.
         12    1    3    3    0    0 -0.12866594501E+02 -0.23801673894E+00 -0.94011033212E+01  0.15936958608E+02  0.00000000000E+00 0. -1.
</event>
<event>
 7    1  0.1457722E-010  0.4778727E+02  0.7816164E-02  0.1312668E+00
        -11   -1    0    0    0    0  0.00000000000E+00  0.00000000000E+00  0.45593999997E+02  0.45594000000E+02  0.51100000000E-03 0.  1.
         11   -1    0    0    0    0 -0.00000000000E+00 -0.00000000000E+00 -0.45593999997E+02  0.45594000000E+02  0.51100000000E-03 0. -1.
    9900012    2    1    2    0    0  0.33885021942E+02  0.42396433691E+01 -0.26785333274E+02  0.47787269977E+02  0.19999995134E+02 0.  0.
        -12    1    1    2    0    0 -0.33885021942E+02 -0.42396433691E+01  0.26785333274E+02  0.43400730023E+02  0.00000000000E+00 0.  1.
         11    1    3    3    0    0  0.58606228899E+01  0.15284835337E+01 -0.72870642520E+01  0.94754666504E+01  0.51100000000E-03 0. -1.
        -11    1    3    3    0    0  0.12129138455E+02  0.99748074545E+00 -0.18691195356E+02  0.22304074775E+02  0.51100000000E-03 0.  1.
         12    1    3    3    0    0  0.15895260597E+02  0.17136790900E+01 -0.80707366611E+00  0.16007728551E+02  0.00000000000E+00 0. -1.
</event>
<event>
 7    1  0.1457722E-010  0.4778727E+02  0.7816164E-02  0.1312668E+00
        -11   -1    0    0    0    0  0.00000000000E+00  0.00000000000E+00  0.45593999997E+02  0.45594000000E+02  0.51100000000E-03 0.  1.
         11   -1    0    0    0    0 -0.00000000000E+00 -0.00000000000E+00 -0.45593999997E+02  0.45594000000E+02  0.51100000000E-03 0. -1.
    9900012    2    1    2    0    0 -0.64725339893E+01 -0.18541826103E+02 -0.38703110132E+02  0.47787265613E+02  0.19999975234E+02 0.  0.
        -12    1    1    2    0    0  0.64725339893E+01  0.18541826103E+02  0.38703110132E+02  0.43400734387E+02  0.00000000000E+00 0.  1.
         11    1    3    3    0    0 -0.48178559409E+00 -0.88447522408E+00 -0.80051058773E+01  0.80682175323E+01  0.51100000000E-03 0. -1.
        -11    1    3    3    0    0 -0.67533259287E+01 -0.13285285596E+02 -0.86558833075E+01  0.17234573989E+02  0.51100000000E-03 0.  1.
        -12    1    3    3    0    0  0.76257753350E+00 -0.43720652829E+01 -0.22042120947E+02  0.22484474092E+02  0.00000000000E+00 0.  1.
</event>
<event>
 7    1  0.1457722E-010  0.4778727E+02  0.7816164E-02  0.1312668E+00
        -11   -1    0    0    0    0  0.00000000000E+00  0.00000000000E+00  0.45593999997E+02  0.45594000000E+02  0.51100000000E-03 0. -1.
         11   -1    0    0    0    0 -0.00000000000E+00 -0.00000000000E+00 -0.45593999997E+02  0.45594000000E+02  0.51100000000E-03 0.  1.
    9900012    2    1    2    0    0  0.23900783270E+02 -0.32254452684E+02  0.16493227726E+02  0.47787265908E+02  0.19999976582E+02 0.  0.
        -12    1    1    2    0    0 -0.23900783270E+02  0.32254452684E+02 -0.16493227726E+02  0.43400734092E+02  0.00000000000E+00 0.  1.
         11    1    3    3    0    0  0.13003125403E+02 -0.14808109008E+02  0.96618488753E+01  0.21947954041E+02  0.51100000000E-03 0. -1.
        -11    1    3    3    0    0  0.14156430322E+02 -0.13117078276E+02  0.39395777726E+01  0.19697272280E+02  0.51100000000E-03 0.  1.
         12    1    3    3    0    0 -0.32587724553E+01 -0.43292653996E+01  0.28918010783E+01  0.61420395874E+01  0.00000000000E+00 0. -1.
</event>
<event>
 7    1  0.1457722E-010  0.4778727E+02  0.7816164E-02  0.1312668E+00
        -11   -1    0    0    0    0  0.00000000000E+00  0.00000000000E+00  0.45593999997E+02  0.45594000000E+02  0.51100000000E-03 0.  1.
         11   -1    0    0    0    0 -0.00000000000E+00 -0.00000000000E+00 -0.45593999997E+02  0.45594000000E+02  0.51100000000E-03 0. -1.
    9900012    2    1    2    0    0 -0.34758101676E+02  0.25357899996E+02 -0.56986389688E+01  0.47787271776E+02  0.20000003335E+02 0.  0.
        -12    1    1    2    0    0  0.34758101676E+02 -0.25357899996E+02  0.56986389688E+01  0.43400728224E+02  0.00000000000E+00 0.  1.
         11    1    3    3    0    0 -0.47373930909E+01  0.16098613649E+01 -0.44992724789E+01  0.67288929262E+01  0.51100000000E-03 0. -1.
        -11    1    3    3    0    0 -0.10346554811E+02  0.16806216755E+02  0.24209137168E+01  0.19883685311E+02  0.51100000000E-03 0.  1.
         12    1    3    3    0    0 -0.19674153774E+02  0.69418218758E+01 -0.36202802067E+01  0.21174693538E+02  0.00000000000E+00 0. -1.
</event>
<event>
 7    1  0.1457722E-010  0.4778727E+02  0.7816164E-02  0.1312668E+00
        -11   -1    0    0    0    0  0.00000000000E+00  0.00000000000E+00  0.45593999997E+02  0.45594000000E+02  0.51100000000E-03 0. -1.
         11   -1    0    0    0    0 -0.00000000000E+00 -0.00000000000E+00 -0.45593999997E+02  0.45594000000E+02  0.51100000000E-03 0.  1.
    9900012    2    1    2    0    0  0.13655080754E+02 -0.20231155465E+02  0.35886799595E+02  0.47787271123E+02  0.20000000358E+02 0.  0.
        -12    1    1    2    0    0 -0.13655080754E+02  0.20231155465E+02 -0.35886799595E+02  0.43400728877E+02  0.00000000000E+00 0.  1.
         11    1    3    3    0    0  0.55667904861E+01 -0.40360440786E+01  0.18646559279E+02  0.19873927174E+02  0.51100000000E-03 0. -1.
        -11    1    3    3    0    0  0.11288675931E+02 -0.10512531215E+02  0.12401160038E+02  0.19792329003E+02  0.51100000000E-03 0.  1.
         12    1    3    3    0    0 -0.32003856630E+01 -0.56825801721E+01  0.48390802781E+01  0.81210149454E+01  0.00000000000E+00 0. -1.
</event>
<event>
 7    1  0.1457722E-010  0.4778727E+02  0.7816164E-02  0.1312668E+00
        -11   -1    0    0    0    0  0.00000000000E+00  0.00000000000E+00  0.45593999997E+02  0.45594000000E+02  0.51100000000E-03 0. -1.
         11   -1    0    0    0    0 -0.00000000000E+00 -0.00000000000E+00 -0.45593999997E+02  0.45594000000E+02  0.51100000000E-03 0.  1.
    9900012    2    1    2    0    0 -0.26717897366E+02 -0.19067894776E+02  0.28393529951E+02  0.47787271965E+02  0.20000004197E+02 0.  0.
        -12    1    1    2    0    0  0.26717897366E+02  0.19067894776E+02 -0.28393529951E+02  0.43400728035E+02  0.00000000000E+00 0.  1.
         11    1    3    3    0    0 -0.22457339200E+01  0.14963794691E+01  0.89488046541E+00  0.28431116165E+01  0.51100000000E-03 0.  1.
        -11    1    3    3    0    0 -0.62385331215E+01 -0.14641707361E+02  0.89056963926E+01  0.18237607257E+02  0.51100000000E-03 0. -1.
         12    1    3    3    0    0 -0.18233630325E+02 -0.59225668847E+01  0.18592953093E+02  0.26706553092E+02  0.00000000000E+00 0. -1.
</event>
<event>
 7    1  0.1457722E-010  0.4778723E+02  0.7816164E-02  0.1312668E+00
        -11   -1    0    0    0    0  0.00000000000E+00  0.00000000000E+00  0.45593999997E+02  0.45594000000E+02  0.51100000000E-03 0.  1.
         11   -1    0    0    0    0 -0.00000000000E+00 -0.00000000000E+00 -0.45593999997E+02  0.45594000000E+02  0.51100000000E-03 0. -1.
    9900012    2    1    2    0    0  0.85605834602E+01 -0.40587941870E+02 -0.12765651041E+02  0.47787234328E+02  0.19999832595E+02 0.  0.
        -12    1    1    2    0    0 -0.85605834602E+01  0.40587941870E+02  0.12765651041E+02  0.43400765672E+02  0.00000000000E+00 0.  1.
         11    1    3    3    0    0 -0.23981588418E+00 -0.20029030356E+02 -0.54906393318E+01  0.20769369013E+02  0.51100000000E-03 0. -1.
        -11    1    3    3    0    0  0.55519942311E+01 -0.32028328909E+01  0.24471223106E+01  0.68608444329E+01  0.51100000000E-03 0.  1.
         12    1    3    3    0    0  0.32484051133E+01 -0.17356078623E+02 -0.97221340197E+01  0.20157020882E+02  0.00000000000E+00 0. -1.
</event>
<event>
 7    1  0.1457722E-010  0.4778728E+02  0.7816164E-02  0.1312668E+00
        -11   -1    0    0    0    0  0.00000000000E+00  0.00000000000E+00  0.45593999997E+02  0.45594000000E+02  0.51100000000E-03 0.  1.
         11   -1    0    0    0    0 -0.00000000000E+00 -0.00000000000E+00 -0.45593999997E+02  0.45594000000E+02  0.51100000000E-03 0. -1.
    9900012    2    1    2    0    0  0.28378914542E+02 -0.13450544976E+02 -0.29955682252E+02  0.47787275929E+02  0.20000022271E+02 0.  0.
        -12    1    1    2    0    0 -0.28378914542E+02  0.13450544976E+02  0.29955682252E+02  0.43400724071E+02  0.00000000000E+00 0.  1.
         11    1    3    3    0    0  0.15254505102E+02 -0.16305574151E+02 -0.15549166276E+02  0.27209341161E+02  0.51100000000E-03 0. -1.
        -11    1    3    3    0    0  0.29601669496E+01  0.17204621266E+01 -0.73084195646E+00  0.35009582295E+01  0.51100000000E-03 0.  1.
         12    1    3    3    0    0  0.10164242490E+02  0.11345670487E+01 -0.13675674020E+02  0.17076976538E+02  0.00000000000E+00 0. -1.
</event>
<event>
 7    1  0.1457722E-010  0.4778727E+02  0.7816164E-02  0.1312668E+00
        -11   -1    0    0    0    0  0.00000000000E+00  0.00000000000E+00  0.45593999997E+02  0.45594000000E+02  0.51100000000E-03 0. -1.
         11   -1    0    0    0    0 -0.00000000000E+00 -0.00000000000E+00 -0.45593999997E+02  0.45594000000E+02  0.51100000000E-03 0.  1.
    9900012    2    1    2    0    0  0.39974558853E+02  0.22714817689E+01  0.16748082383E+02  0.47787271337E+02  0.20000001336E+02 0.  0.
        -12    1    1    2    0    0 -0.39974558853E+02 -0.22714817689E+01 -0.16748082383E+02  0.43400728663E+02  0.00000000000E+00 0.  1.
         11    1    3    3    0    0  0.26846330887E+01 -0.33785694649E+01  0.39320822161E+01  0.58380867813E+01  0.51100000000E-03 0.  1.
        -11    1    3    3    0    0  0.84417199114E+01 -0.42139429389E+01  0.36031023462E+01  0.10099618653E+02  0.51100000000E-03 0. -1.
         12    1    3    3    0    0  0.28848205853E+02  0.98639941728E+01  0.92128978207E+01  0.31849565903E+02  0.00000000000E+00 0. -1.
</event>
<event>
 7    1  0.1457722E-010  0.4778727E+02  0.7816164E-02  0.1312668E+00
        -11   -1    0    0    0    0  0.00000000000E+00  0.00000000000E+00  0.45593999997E+02  0.45594000000E+02  0.51100000000E-03 0.  1.
         11   -1    0    0    0    0 -0.00000000000E+00 -0.00000000000E+00 -0.45593999997E+02  0.45594000000E+02  0.51100000000E-03 0. -1.
    9900012    2    1    2    0    0 -0.10185805310E+02  0.29885705287E+02 -0.29777796381E+02  0.47787272269E+02  0.20000005582E+02 0.  0.
        -12    1    1    2    0    0  0.10185805310E+02 -0.29885705287E+02  0.29777796381E+02  0.43400727731E+02  0.00000000000E+00 0.  1.
         11    1    3    3    0    0 -0.14540388214E+01  0.24839760686E+02 -0.17892501579E+02  0.30647504838E+02  0.51100000000E-03 0. -1.
        -11    1    3    3    0    0 -0.79631516764E+00 -0.10909090895E+01  0.27229905533E+00  0.13778053289E+01  0.51100000000E-03 0.  1.
        -12    1    3    3    0    0 -0.79354513207E+01  0.61368536905E+01 -0.12157593858E+02  0.15761962102E+02  0.00000000000E+00 0.  1.
</event>
<event>
 7    1  0.1457722E-010  0.4778727E+02  0.7816164E-02  0.1312668E+00
        -11   -1    0    0    0    0  0.00000000000E+00  0.00000000000E+00  0.45593999997E+02  0.45594000000E+02  0.51100000000E-03 0.  1.
         11   -1    0    0    0    0 -0.00000000000E+00 -0.00000000000E+00 -0.45593999997E+02  0.45594000000E+02  0.51100000000E-03 0. -1.
    9900012    2    1    2    0    0 -0.15317468125E+02 -0.99014029726E+01 -0.39382244100E+02  0.47787265433E+02  0.19999974416E+02 0.  0.
        -12    1    1    2    0    0  0.15317468125E+02  0.99014029726E+01  0.39382244100E+02  0.43400734567E+02  0.00000000000E+00 0.  1.
         11    1    3    3    0    0 -0.10182858674E+02 -0.67581761537E+01 -0.26094967876E+02  0.28815115901E+02  0.51100000000E-03 0. -1.
        -11    1    3    3    0    0 -0.89586988113E+01 -0.84829542523E+00 -0.98478890972E+01  0.13340120294E+02  0.51100000000E-03 0.  1.
        -12    1    3    3    0    0  0.38240893598E+01 -0.22949313937E+01 -0.34393871269E+01  0.56320292384E+01  0.00000000000E+00 0.  1.
</event>
<event>
 7    1  0.1457722E-010  0.4778727E+02  0.7816164E-02  0.1312668E+00
        -11   -1    0    0    0    0  0.00000000000E+00  0.00000000000E+00  0.45593999997E+02  0.45594000000E+02  0.51100000000E-03 0. -1.
         11   -1    0    0    0    0 -0.00000000000E+00 -0.00000000000E+00 -0.45593999997E+02  0.45594000000E+02  0.51100000000E-03 0.  1.
    9900012    2    1    2    0    0  0.25344027196E+02  0.10236223811E+02  0.33712365737E+02  0.47787267333E+02  0.19999983079E+02 0.  0.
        -12    1    1    2    0    0 -0.25344027196E+02 -0.10236223811E+02 -0.33712365737E+02  0.43400732667E+02  0.00000000000E+00 0.  1.
         11    1    3    3    0    0  0.21228684501E+01  0.65862741085E-01  0.23720483139E+01  0.31839475218E+01  0.51100000000E-03 0. -1.
        -11    1    3    3    0    0  0.17633504579E+02  0.15230486717E+01  0.86782951485E+01  0.19712254258E+02  0.51100000000E-03 0.  1.
        -12    1    3    3    0    0  0.55876541671E+01  0.86473123982E+01  0.22662022274E+02  0.24891065553E+02  0.00000000000E+00 0.  1.
</event>
<event>
 7    1  0.1457722E-010  0.4778726E+02  0.7816164E-02  0.1312668E+00
        -11   -1    0    0    0    0  0.00000000000E+00  0.00000000000E+00  0.45593999997E+02  0.45594000000E+02  0.51100000000E-03 0.  1.
         11   -1    0    0    0    0 -0.00000000000E+00 -0.00000000000E+00 -0.45593999997E+02  0.45594000000E+02  0.51100000000E-03 0. -1.
    9900012    2    1    2    0    0 -0.25694445279E+01 -0.34257134119E+02 -0.26523019459E+02  0.47787264471E+02  0.19999970031E+02 0.  0.
        -12    1    1    2    0    0  0.25694445279E+01  0.34257134119E+02  0.26523019459E+02  0.43400735529E+02  0.00000000000E+00 0.  1.
         11    1    3    3    0    0 -0.42303421753E+00  0.83901663547E+00 -0.24626211495E+01  0.26357940076E+01  0.51100000000E-03 0.  1.
        -11    1    3    3    0    0  0.49822563575E+01 -0.62267445845E+01 -0.82457138678E+01  0.11471138740E+02  0.51100000000E-03 0. -1.
         12    1    3    3    0    0 -0.71286666679E+01 -0.28869406170E+02 -0.15814684441E+02  0.33680331724E+02  0.00000000000E+00 0. -1.
</event>
<event>
 7    1  0.1457722E-010  0.4778727E+02  0.7816164E-02  0.1312668E+00
        -11   -1    0    0    0    0  0.00000000000E+00  0.00000000000E+00  0.45593999997E+02  0.45594000000E+02  0.51100000000E-03 0.  1.
         11   -1    0    0    0    0 -0.00000000000E+00 -0.00000000000E+00 -0.45593999997E+02  0.45594000000E+02  0.51100000000E-03 0. -1.
    9900012    2    1    2    0    0 -0.28097505386E+02  0.33061340621E+02 -0.10493470373E+01  0.47787272105E+02  0.20000004838E+02 0.  0.
        -12    1    1    2    0    0  0.28097505386E+02 -0.33061340621E+02  0.10493470373E+01  0.43400727895E+02  0.00000000000E+00 0.  1.
         11    1    3    3    0    0 -0.29820581089E+01  0.63152267765E+01  0.72258475082E+01  0.10049260285E+02  0.51100000000E-03 0.  1.
        -11    1    3    3    0    0 -0.91098219017E+01  0.11851793688E+02 -0.29870503290E+01  0.15243895127E+02  0.51100000000E-03 0. -1.
        -12    1    3    3    0    0 -0.16005625375E+02  0.14894320157E+02 -0.52881442165E+01  0.22494116694E+02  0.00000000000E+00 0.  1.
</event>
<event>
 7    1  0.1457722E-010  0.4778727E+02  0.7816164E-02  0.1312668E+00
        -11   -1    0    0    0    0  0.00000000000E+00  0.00000000000E+00  0.45593999997E+02  0.45594000000E+02  0.51100000000E-03 0.  1.
         11   -1    0    0    0    0 -0.00000000000E+00 -0.00000000000E+00 -0.45593999997E+02  0.45594000000E+02  0.51100000000E-03 0. -1.
    9900012    2    1    2    0    0 -0.21248662255E+02  0.31189754037E+02 -0.21431682052E+02  0.47787269591E+02  0.19999993371E+02 0.  0.
        -12    1    1    2    0    0  0.21248662255E+02 -0.31189754037E+02  0.21431682052E+02  0.43400730409E+02  0.00000000000E+00 0.  1.
         11    1    3    3    0    0 -0.16217036081E+02  0.29684487608E+02 -0.15027927323E+02  0.37013506504E+02  0.51100000000E-03 0. -1.
        -11    1    3    3    0    0  0.79730265876E+00 -0.23111853946E+00  0.92970446304E+00  0.12463779357E+01  0.51100000000E-03 0.  1.
         12    1    3    3    0    0 -0.58289288328E+01  0.17363849680E+01 -0.73334591924E+01  0.95273851513E+01  0.00000000000E+00 0. -1.
</event>
<event>
 7    1  0.1457722E-010  0.4778727E+02  0.7816164E-02  0.1312668E+00
        -11   -1    0    0    0    0  0.00000000000E+00  0.00000000000E+00  0.45593999997E+02  0.45594000000E+02  0.51100000000E-03 0. -1.
         11   -1    0    0    0    0 -0.00000000000E+00 -0.00000000000E+00 -0.45593999997E+02  0.45594000000E+02  0.51100000000E-03 0.  1.
    9900012    2    1    2    0    0 -0.12753862779E+02  0.33192579064E+02  0.24884029375E+02  0.47787271450E+02  0.20000001851E+02 0.  0.
        -12    1    1    2    0    0  0.12753862779E+02 -0.33192579064E+02 -0.24884029375E+02  0.43400728550E+02  0.00000000000E+00 0.  1.
         11    1    3    3    0    0  0.93412038567E+00  0.40190721342E+01  0.76351397655E+01  0.86787603501E+01  0.51100000000E-03 0.  1.
        -11    1    3    3    0    0 -0.91495079364E+01  0.23876586923E+02  0.66499019770E+01  0.26420183480E+02  0.51100000000E-03 0. -1.
         12    1    3    3    0    0 -0.45384752285E+01  0.52969200065E+01  0.10598987633E+02  0.12688327620E+02  0.00000000000E+00 0. -1.
</event>
<event>
 7    1  0.1457722E-010  0.4778727E+02  0.7816164E-02  0.1312668E+00
        -11   -1    0    0    0    0  0.00000000000E+00  0.00000000000E+00  0.45593999997E+02  0.45594000000E+02  0.51100000000E-03 0.  1.
         11   -1    0    0    0    0 -0.00000000000E+00 -0.00000000000E+00 -0.45593999997E+02  0.45594000000E+02  0.51100000000E-03 0. -1.
    9900012    2    1    2    0    0  0.40034669653E+02 -0.16662540354E+02 -0.17911943831E+01  0.47787269562E+02  0.19999993240E+02 0.  0.
        -12    1    1    2    0    0 -0.40034669653E+02  0.16662540354E+02  0.17911943831E+01  0.43400730438E+02  0.00000000000E+00 0.  1.
         11    1    3    3    0    0  0.23410358175E+01 -0.39088956367E+01  0.73474755343E+00  0.46151671721E+01  0.51100000000E-03 0. -1.
        -11    1    3    3    0    0  0.18336955040E+02 -0.10805767260E+02  0.57246668737E+01  0.22040425071E+02  0.51100000000E-03 0.  1.
         12    1    3    3    0    0  0.19356678795E+02 -0.19478774569E+01 -0.82506088102E+01  0.21131677319E+02  0.00000000000E+00 0. -1.
</event>
<event>
 7    1  0.1457722E-010  0.4778727E+02  0.7816164E-02  0.1312668E+00
        -11   -1    0    0    0    0  0.00000000000E+00  0.00000000000E+00  0.45593999997E+02  0.45594000000E+02  0.51100000000E-03 0.  1.
         11   -1    0    0    0    0 -0.00000000000E+00 -0.00000000000E+00 -0.45593999997E+02  0.45594000000E+02  0.51100000000E-03 0. -1.
    9900012    2    1    2    0    0 -0.23442296033E+02 -0.34033079102E+02 -0.13260144612E+02  0.47787272454E+02  0.20000006426E+02 0.  0.
        -12    1    1    2    0    0  0.23442296033E+02  0.34033079102E+02  0.13260144612E+02  0.43400727546E+02  0.00000000000E+00 0.  1.
         11    1    3    3    0    0 -0.81897778540E+01 -0.10232722574E+02 -0.89718602070E+01  0.15883178159E+02  0.51100000000E-03 0. -1.
        -11    1    3    3    0    0 -0.53381119763E+01 -0.94015864664E+01 -0.86964192925E+01  0.13874904552E+02  0.51100000000E-03 0.  1.
        -12    1    3    3    0    0 -0.99144062023E+01 -0.14398770061E+02  0.44081348876E+01  0.18029189743E+02  0.00000000000E+00 0.  1.
</event>
<event>
 7    1  0.1457722E-010  0.4778727E+02  0.7816164E-02  0.1312668E+00
        -11   -1    0    0    0    0  0.00000000000E+00  0.00000000000E+00  0.45593999997E+02  0.45594000000E+02  0.51100000000E-03 0.  1.
         11   -1    0    0    0    0 -0.00000000000E+00 -0.00000000000E+00 -0.45593999997E+02  0.45594000000E+02  0.51100000000E-03 0. -1.
    9900012    2    1    2    0    0  0.10374530726E+02 -0.27520677925E+02 -0.31915591041E+02  0.47787267832E+02  0.19999985352E+02 0.  0.
        -12    1    1    2    0    0 -0.10374530726E+02  0.27520677925E+02  0.31915591041E+02  0.43400732168E+02  0.00000000000E+00 0.  1.
         11    1    3    3    0    0  0.46064291600E+01 -0.57117300697E+01 -0.13261516856E+02  0.15156215873E+02  0.51100000000E-03 0. -1.
        -11    1    3    3    0    0  0.14190670540E-01 -0.20515759831E+02 -0.16585500101E+02  0.26381345998E+02  0.51100000000E-03 0.  1.
        -12    1    3    3    0    0  0.57539108950E+01 -0.12931880245E+01 -0.20685740841E+01  0.62497059607E+01  0.00000000000E+00 0.  1.
</event>
<event>
 7    1  0.1492830E-010  0.4778727E+02  0.7816164E-02  0.1312668E+00
        -11   -1    0    0    0    0  0.00000000000E+00  0.00000000000E+00  0.45593999997E+02  0.45594000000E+02  0.51100000000E-03 0.  1.
         11   -1    0    0    0    0 -0.00000000000E+00 -0.00000000000E+00 -0.45593999997E+02  0.45594000000E+02  0.51100000000E-03 0. -1.
    9900012    2    1    2    0    0 -0.35759435626E+02  0.23290000622E+02 -0.79032972347E+01  0.47787268757E+02  0.19999989569E+02 0.  0.
        -12    1    1    2    0    0  0.35759435626E+02 -0.23290000622E+02  0.79032972347E+01  0.43400731243E+02  0.00000000000E+00 0.  1.
         11    1    3    3    0    0 -0.22556611723E+02  0.10691706177E+02 -0.64848525262E+01  0.25790824453E+02  0.51100000000E-03 0. -1.
        -11    1    3    3    0    0 -0.42909518841E+01  0.81820102323E+01 -0.60306702287E+01  0.11032975264E+02  0.51100000000E-03 0.  1.
        -12    1    3    3    0    0 -0.89118720194E+01  0.44162842129E+01  0.46122255202E+01  0.10963469040E+02  0.00000000000E+00 0.  1.
</event>
<event>
 7    1  0.1457722E-010  0.4778727E+02  0.7816164E-02  0.1312668E+00
        -11   -1    0    0    0    0  0.00000000000E+00  0.00000000000E+00  0.45593999997E+02  0.45594000000E+02  0.51100000000E-03 0. -1.
         11   -1    0    0    0    0 -0.00000000000E+00 -0.00000000000E+00 -0.45593999997E+02  0.45594000000E+02  0.51100000000E-03 0.  1.
    9900012    2    1    2    0    0 -0.25555121315E+02  0.30414414902E+02  0.17479194158E+02  0.47787273189E+02  0.20000009779E+02 0.  0.
        -12    1    1    2    0    0  0.25555121315E+02 -0.30414414902E+02 -0.17479194158E+02  0.43400726811E+02  0.00000000000E+00 0.  1.
         11    1    3    3    0    0 -0.13084425706E+02  0.64368110747E+01  0.88354431653E+01  0.17049920500E+02  0.51100000000E-03 0. -1.
        -11    1    3    3    0    0  0.19906632688E+01  0.31734743452E+01  0.29515874918E+01  0.47692293562E+01  0.51100000000E-03 0.  1.
         12    1    3    3    0    0 -0.14461358877E+02  0.20804129482E+02  0.56921635011E+01  0.25968123333E+02  0.00000000000E+00 0. -1.
</event>
<event>
 7    1  0.1457722E-010  0.4778727E+02  0.7816164E-02  0.1312668E+00
        -11   -1    0    0    0    0  0.00000000000E+00  0.00000000000E+00  0.45593999997E+02  0.45594000000E+02  0.51100000000E-03 0. -1.
         11   -1    0    0    0    0 -0.00000000000E+00 -0.00000000000E+00 -0.45593999997E+02  0.45594000000E+02  0.51100000000E-03 0.  1.
    9900012    2    1    2    0    0 -0.33229127106E+02  0.27908268358E+02 -0.75952617696E+00  0.47787271769E+02  0.20000003304E+02 0.  0.
        -12    1    1    2    0    0  0.33229127106E+02 -0.27908268358E+02  0.75952617696E+00  0.43400728231E+02  0.00000000000E+00 0.  1.
         11    1    3    3    0    0 -0.14792026188E+02  0.11085432791E+02  0.91791136777E+01  0.20638483159E+02  0.51100000000E-03 0. -1.
        -11    1    3    3    0    0 -0.76068772500E+01  0.83422756186E+01 -0.27136829938E+01  0.11611297070E+02  0.51100000000E-03 0.  1.
        -12    1    3    3    0    0 -0.10830223668E+02  0.84805599482E+01 -0.72249568608E+01  0.15537491540E+02  0.00000000000E+00 0.  1.
</event>
<event>
 7    1  0.1457722E-010  0.4778727E+02  0.7816164E-02  0.1312668E+00
        -11   -1    0    0    0    0  0.00000000000E+00  0.00000000000E+00  0.45593999997E+02  0.45594000000E+02  0.51100000000E-03 0.  1.
         11   -1    0    0    0    0 -0.00000000000E+00 -0.00000000000E+00 -0.45593999997E+02  0.45594000000E+02  0.51100000000E-03 0. -1.
    9900012    2    1    2    0    0 -0.12611659361E+02  0.41526183529E+02 -0.38129586070E+00  0.47787271240E+02  0.20000000893E+02 0.  0.
        -12    1    1    2    0    0  0.12611659361E+02 -0.41526183529E+02  0.38129586070E+00  0.43400728760E+02  0.00000000000E+00 0.  1.
         11    1    3    3    0    0 -0.15720031928E+01  0.47491983185E+01  0.18243606257E+01  0.53248822203E+01  0.51100000000E-03 0. -1.
        -11    1    3    3    0    0 -0.60374442488E+01  0.47725694943E+01  0.51301713527E+01  0.92491519073E+01  0.51100000000E-03 0.  1.
         12    1    3    3    0    0 -0.50022119198E+01  0.32004415716E+02 -0.73358278390E+01  0.33213237113E+02  0.00000000000E+00 0. -1.
</event>
<event>
 7    1  0.1457722E-010  0.4778728E+02  0.7816164E-02  0.1312668E+00
        -11   -1    0    0    0    0  0.00000000000E+00  0.00000000000E+00  0.45593999997E+02  0.45594000000E+02  0.51100000000E-03 0.  1.
         11   -1    0    0    0    0 -0.00000000000E+00 -0.00000000000E+00 -0.45593999997E+02  0.45594000000E+02  0.51100000000E-03 0. -1.
    9900012    2    1    2    0    0  0.43232211736E+02  0.30490201984E+01  0.23026535237E+01  0.47787275709E+02  0.20000021267E+02 0.  0.
        -12    1    1    2    0    0 -0.43232211736E+02 -0.30490201984E+01 -0.23026535237E+01  0.43400724291E+02  0.00000000000E+00 0.  1.
         11    1    3    3    0    0  0.28476626568E+02  0.82237835331E+01  0.44144496594E+01  0.29967252833E+02  0.51100000000E-03 0. -1.
        -11    1    3    3    0    0 -0.93488633550E+00 -0.80537062704E-01 -0.86505274244E+00  0.12762504406E+01  0.51100000000E-03 0.  1.
         12    1    3    3    0    0  0.15690471504E+02 -0.50942262720E+01 -0.12467433933E+01  0.16543772436E+02  0.00000000000E+00 0. -1.
</event>
<event>
 7    1  0.1457722E-010  0.4778727E+02  0.7816164E-02  0.1312668E+00
        -11   -1    0    0    0    0  0.00000000000E+00  0.00000000000E+00  0.45593999997E+02  0.45594000000E+02  0.51100000000E-03 0. -1.
         11   -1    0    0    0    0 -0.00000000000E+00 -0.00000000000E+00 -0.45593999997E+02  0.45594000000E+02  0.51100000000E-03 0.  1.
    9900012    2    1    2    0    0  0.33246512998E+02  0.18243650580E+02  0.21105972133E+02  0.47787268754E+02  0.19999989556E+02 0.  0.
        -12    1    1    2    0    0 -0.33246512998E+02 -0.18243650580E+02 -0.21105972133E+02  0.43400731246E+02  0.00000000000E+00 0.  1.
         11    1    3    3    0    0  0.18666202938E+02  0.76700172782E+01  0.87090229328E+01  0.21979612778E+02  0.51100000000E-03 0. -1.
        -11    1    3    3    0    0  0.15956530755E+02  0.12358832125E+02  0.12105071515E+02  0.23534747967E+02  0.51100000000E-03 0.  1.
        -12    1    3    3    0    0 -0.13762206943E+01 -0.17851988225E+01  0.29187768490E+00  0.22729080092E+01  0.00000000000E+00 0.  1.
</event>
<event>
 7    1  0.1457722E-010  0.4778727E+02  0.7816164E-02  0.1312668E+00
        -11   -1    0    0    0    0  0.00000000000E+00  0.00000000000E+00  0.45593999997E+02  0.45594000000E+02  0.51100000000E-03 0.  1.
         11   -1    0    0    0    0 -0.00000000000E+00 -0.00000000000E+00 -0.45593999997E+02  0.45594000000E+02  0.51100000000E-03 0. -1.
    9900012    2    1    2    0    0  0.78030761968E+00  0.59256407115E+00 -0.43389667661E+02  0.47787271068E+02  0.20000000105E+02 0.  0.
        -12    1    1    2    0    0 -0.78030761968E+00 -0.59256407115E+00  0.43389667661E+02  0.43400728932E+02  0.00000000000E+00 0.  1.
         11    1    3    3    0    0  0.81966732435E+00 -0.50784335756E+00  0.20715932732E+01  0.22850072974E+01  0.51100000000E-03 0.  1.
        -11    1    3    3    0    0  0.17069014322E+00 -0.37517101291E+00 -0.13465555389E+02  0.13471862181E+02  0.51100000000E-03 0. -1.
        -12    1    3    3    0    0 -0.21004984789E+00  0.14755784416E+01 -0.31995705544E+02  0.32030401589E+02  0.00000000000E+00 0.  1.
</event>
<event>
 7    1  0.1457722E-010  0.4778727E+02  0.7816164E-02  0.1312668E+00
        -11   -1    0    0    0    0  0.00000000000E+00  0.00000000000E+00  0.45593999997E+02  0.45594000000E+02  0.51100000000E-03 0.  1.
         11   -1    0    0    0    0 -0.00000000000E+00 -0.00000000000E+00 -0.45593999997E+02  0.45594000000E+02  0.51100000000E-03 0. -1.
    9900012    2    1    2    0    0  0.60552425038E+01 -0.31696535073E+02 -0.29022180590E+02  0.47787271163E+02  0.20000000540E+02 0.  0.
        -12    1    1    2    0    0 -0.60552425038E+01  0.31696535073E+02  0.29022180590E+02  0.43400728837E+02  0.00000000000E+00 0.  1.
         11    1    3    3    0    0 -0.31326308759E+01 -0.17432130877E+02 -0.75177497903E+01  0.19240819246E+02  0.51100000000E-03 0. -1.
        -11    1    3    3    0    0 -0.13995039454E+01 -0.73577361833E+00 -0.15208653857E+01  0.21938563976E+01  0.51100000000E-03 0.  1.
         12    1    3    3    0    0  0.10587377325E+02 -0.13528630578E+02 -0.19983565414E+02  0.26352595519E+02  0.00000000000E+00 0. -1.
</event>
<event>
 7    1  0.1457722E-010  0.4778727E+02  0.7816164E-02  0.1312668E+00
        -11   -1    0    0    0    0  0.00000000000E+00  0.00000000000E+00  0.45593999997E+02  0.45594000000E+02  0.51100000000E-03 0.  1.
         11   -1    0    0    0    0 -0.00000000000E+00 -0.00000000000E+00 -0.45593999997E+02  0.45594000000E+02  0.51100000000E-03 0. -1.
    9900012    2    1    2    0    0 -0.16755850932E+02 -0.27748257786E+02 -0.28859987846E+02  0.47787271330E+02  0.20000001301E+02 0.  0.
        -12    1    1    2    0    0  0.16755850932E+02  0.27748257786E+02  0.28859987846E+02  0.43400728670E+02  0.00000000000E+00 0.  1.
         11    1    3    3    0    0 -0.82262086035E+01 -0.13295151789E+02 -0.62710259858E+01  0.16845098286E+02  0.51100000000E-03 0. -1.
        -11    1    3    3    0    0 -0.96201008900E+01 -0.90818354800E+01 -0.82496873721E+01  0.15591132698E+02  0.51100000000E-03 0.  1.
         12    1    3    3    0    0  0.10904585611E+01 -0.53712705170E+01 -0.14339274489E+02  0.15351040346E+02  0.00000000000E+00 0. -1.
</event>
<event>
 7    1  0.1457722E-010  0.4778727E+02  0.7816164E-02  0.1312668E+00
        -11   -1    0    0    0    0  0.00000000000E+00  0.00000000000E+00  0.45593999997E+02  0.45594000000E+02  0.51100000000E-03 0.  1.
         11   -1    0    0    0    0 -0.00000000000E+00 -0.00000000000E+00 -0.45593999997E+02  0.45594000000E+02  0.51100000000E-03 0. -1.
    9900012    2    1    2    0    0  0.13861692042E+02  0.14016293221E+01 -0.41103673281E+02  0.47787273875E+02  0.20000012904E+02 0.  0.
        -12    1    1    2    0    0 -0.13861692042E+02 -0.14016293221E+01  0.41103673281E+02  0.43400726125E+02  0.00000000000E+00 0.  1.
         11    1    3    3    0    0  0.75954382624E+01  0.32079599550E+01 -0.26980859348E+02  0.28212558567E+02  0.51100000000E-03 0. -1.
        -11    1    3    3    0    0  0.84407711407E+01  0.23351435126E+01 -0.10401005896E+02  0.13597074560E+02  0.51100000000E-03 0.  1.
        -12    1    3    3    0    0 -0.21745173607E+01 -0.41414741455E+01 -0.37218080365E+01  0.59776407479E+01  0.00000000000E+00 0.  1.
</event>
<event>
 7    1  0.1457722E-010  0.4778726E+02  0.7816164E-02  0.1312668E+00
        -11   -1    0    0    0    0  0.00000000000E+00  0.00000000000E+00  0.45593999997E+02  0.45594000000E+02  0.51100000000E-03 0. -1.
         11   -1    0    0    0    0 -0.00000000000E+00 -0.00000000000E+00 -0.45593999997E+02  0.45594000000E+02  0.51100000000E-03 0.  1.
    9900012    2    1    2    0    0  0.41567529769E+02 -0.72624692865E+01  0.10149953729E+02  0.47787256321E+02  0.19999932869E+02 0.  0.
        -12    1    1    2    0    0 -0.41567529769E+02  0.72624692865E+01 -0.10149953729E+02  0.43400743679E+02  0.00000000000E+00 0.  1.
         11    1    3    3    0    0  0.23023576514E+02  0.70918887798E+00  0.14352695670E+02  0.27140152866E+02  0.51100000000E-03 0. -1.
        -11    1    3    3    0    0  0.58988653202E+01 -0.26385786101E+01 -0.83133686202E+00  0.65153534353E+01  0.51100000000E-03 0.  1.
         12    1    3    3    0    0  0.12645087935E+02 -0.53330795544E+01 -0.33714050784E+01  0.14131750019E+02  0.00000000000E+00 0. -1.
</event>
<event>
 7    1  0.1457722E-010  0.4778727E+02  0.7816164E-02  0.1312668E+00
        -11   -1    0    0    0    0  0.00000000000E+00  0.00000000000E+00  0.45593999997E+02  0.45594000000E+02  0.51100000000E-03 0.  1.
         11   -1    0    0    0    0 -0.00000000000E+00 -0.00000000000E+00 -0.45593999997E+02  0.45594000000E+02  0.51100000000E-03 0. -1.
    9900012    2    1    2    0    0  0.22198479655E+02  0.17179216272E+01 -0.37254528998E+02  0.47787266313E+02  0.19999978428E+02 0.  0.
        -12    1    1    2    0    0 -0.22198479655E+02 -0.17179216272E+01  0.37254528998E+02  0.43400733687E+02  0.00000000000E+00 0.  1.
         11    1    3    3    0    0  0.86408404890E+01  0.22478916753E+01 -0.79228746397E+01  0.11936879163E+02  0.51100000000E-03 0. -1.
        -11    1    3    3    0    0  0.24617460890E+01 -0.67996122311E+01 -0.66039135523E+01  0.97931912453E+01  0.51100000000E-03 0.  1.
         12    1    3    3    0    0  0.11095893077E+02  0.62696421831E+01 -0.22727740806E+02  0.26057195905E+02  0.00000000000E+00 0. -1.
</event>
<event>
 7    1  0.1457722E-010  0.4778732E+02  0.7816164E-02  0.1312668E+00
        -11   -1    0    0    0    0  0.00000000000E+00  0.00000000000E+00  0.45593999997E+02  0.45594000000E+02  0.51100000000E-03 0.  1.
         11   -1    0    0    0    0 -0.00000000000E+00 -0.00000000000E+00 -0.45593999997E+02  0.45594000000E+02  0.51100000000E-03 0. -1.
    9900012    2    1    2    0    0  0.42233882772E+02  0.47970987179E+01 -0.87695995795E+01  0.47787321585E+02  0.20000230433E+02 0.  0.
        -12    1    1    2    0    0 -0.42233882772E+02 -0.47970987179E+01  0.87695995795E+01  0.43400678415E+02  0.00000000000E+00 0.  1.
         11    1    3    3    0    0  0.10474471186E+02 -0.16335783757E+01 -0.61921732359E+01  0.12277057245E+02  0.51100000000E-03 0.  1.
        -11    1    3    3    0    0  0.20547397426E+02  0.24885298338E+01 -0.83244159084E+01  0.22308837312E+02  0.51100000000E-03 0. -1.
        -12    1    3    3    0    0  0.11212014159E+02  0.39421472598E+01  0.57469895648E+01  0.13201427028E+02  0.00000000000E+00 0.  1.
</event>
<event>
 7    1  0.1457722E-010  0.4778729E+02  0.7816164E-02  0.1312668E+00
        -11   -1    0    0    0    0  0.00000000000E+00  0.00000000000E+00  0.45593999997E+02  0.45594000000E+02  0.51100000000E-03 0. -1.
         11   -1    0    0    0    0 -0.00000000000E+00 -0.00000000000E+00 -0.45593999997E+02  0.45594000000E+02  0.51100000000E-03 0.  1.
    9900012    2    1    2    0    0  0.32849310169E+02  0.56857170934E+01  0.27788794325E+02  0.47787289782E+02  0.20000085430E+02 0.  0.
        -12    1    1    2    0    0 -0.32849310169E+02 -0.56857170934E+01 -0.27788794325E+02  0.43400710218E+02  0.00000000000E+00 0.  1.
         11    1    3    3    0    0  0.13238272453E+02  0.16954561958E+01  0.17962656442E+02  0.22378191526E+02  0.51100000000E-03 0. -1.
        -11    1    3    3    0    0  0.16640172832E+01  0.51849404382E+01  0.22570211593E+01  0.58946336308E+01  0.51100000000E-03 0.  1.
         12    1    3    3    0    0  0.17947020433E+02 -0.11946795407E+01  0.75691167230E+01  0.19514464624E+02  0.00000000000E+00 0. -1.
</event>
<event>
 7    1  0.1457722E-010  0.4778727E+02  0.7816164E-02  0.1312668E+00
        -11   -1    0    0    0    0  0.00000000000E+00  0.00000000000E+00  0.45593999997E+02  0.45594000000E+02  0.51100000000E-03 0. -1.
         11   -1    0    0    0    0 -0.00000000000E+00 -0.00000000000E+00 -0.45593999997E+02  0.45594000000E+02  0.51100000000E-03 0.  1.
    9900012    2    1    2    0    0  0.17610532669E+02  0.91930330709E+01  0.38587313640E+02  0.47787268533E+02  0.19999988548E+02 0.  0.
        -12    1    1    2    0    0 -0.17610532669E+02 -0.91930330709E+01 -0.38587313640E+02  0.43400731467E+02  0.00000000000E+00 0.  1.
         11    1    3    3    0    0  0.10822089666E+02 -0.17067067265E+00  0.26522023661E+02  0.28645496898E+02  0.51100000000E-03 0. -1.
        -11    1    3    3    0    0  0.71434407560E+01  0.89975250689E+01  0.13436762220E+02  0.17678540166E+02  0.51100000000E-03 0.  1.
        -12    1    3    3    0    0 -0.35499775236E+00  0.36617867460E+00 -0.13714722400E+01  0.14632314687E+01  0.00000000000E+00 0.  1.
</event>
<event>
 7    1  0.1457722E-010  0.4778727E+02  0.7816164E-02  0.1312668E+00
        -11   -1    0    0    0    0  0.00000000000E+00  0.00000000000E+00  0.45593999997E+02  0.45594000000E+02  0.51100000000E-03 0.  1.
         11   -1    0    0    0    0 -0.00000000000E+00 -0.00000000000E+00 -0.45593999997E+02  0.45594000000E+02  0.51100000000E-03 0. -1.
    9900012    2    1    2    0    0  0.29121106991E+02 -0.28459822492E+02  0.15020745739E+02  0.47787272227E+02  0.20000005393E+02 0.  0.
        -12    1    1    2    0    0 -0.29121106991E+02  0.28459822492E+02 -0.15020745739E+02  0.43400727773E+02  0.00000000000E+00 0.  1.
         11    1    3    3    0    0  0.46943948990E+00 -0.57723959345E+01  0.14728801751E+01  0.59758099476E+01  0.51100000000E-03 0. -1.
        -11    1    3    3    0    0  0.14118651973E+02 -0.24993604155E+01  0.23391114436E+01  0.14527717598E+02  0.51100000000E-03 0.  1.
         12    1    3    3    0    0  0.14533015528E+02 -0.20188066142E+02  0.11208754121E+02  0.27283744681E+02  0.00000000000E+00 0. -1.
</event>
<event>
 7    1  0.1457722E-010  0.4778727E+02  0.7816164E-02  0.1312668E+00
        -11   -1    0    0    0    0  0.00000000000E+00  0.00000000000E+00  0.45593999997E+02  0.45594000000E+02  0.51100000000E-03 0.  1.
         11   -1    0    0    0    0 -0.00000000000E+00 -0.00000000000E+00 -0.45593999997E+02  0.45594000000E+02  0.51100000000E-03 0. -1.
    9900012    2    1    2    0    0  0.41327629336E+02 -0.11787948249E+02 -0.60576431777E+01  0.47787266005E+02  0.19999977023E+02 0.  0.
        -12    1    1    2    0    0 -0.41327629336E+02  0.11787948249E+02  0.60576431777E+01  0.43400733995E+02  0.00000000000E+00 0.  1.
         11    1    3    3    0    0  0.86617477458E+00 -0.63352093889E+01 -0.26765562481E-02  0.63941492137E+01  0.51100000000E-03 0. -1.
        -11    1    3    3    0    0  0.17990419617E+02 -0.11180565812E+01 -0.35470219383E+01  0.18370808730E+02  0.51100000000E-03 0.  1.
         12    1    3    3    0    0  0.22471034944E+02 -0.43346822784E+01 -0.25079446831E+01  0.23022308061E+02  0.00000000000E+00 0. -1.
</event>
<event>
 7    1  0.1457722E-010  0.4778724E+02  0.7816164E-02  0.1312668E+00
        -11   -1    0    0    0    0  0.00000000000E+00  0.00000000000E+00  0.45593999997E+02  0.45594000000E+02  0.51100000000E-03 0. -1.
         11   -1    0    0    0    0 -0.00000000000E+00 -0.00000000000E+00 -0.45593999997E+02  0.45594000000E+02  0.51100000000E-03 0.  1.
    9900012    2    1    2    0    0  0.30271277858E+02  0.29816801436E+02  0.88450168742E+01  0.47787236936E+02  0.19999844485E+02 0.  0.
        -12    1    1    2    0    0 -0.30271277858E+02 -0.29816801436E+02 -0.88450168742E+01  0.43400763064E+02  0.00000000000E+00 0.  1.
         11    1    3    3    0    0  0.10748366726E+02  0.16081177403E+02 -0.21437477523E+00  0.19343671078E+02  0.51100000000E-03 0. -1.
        -11    1    3    3    0    0  0.44447826663E+01  0.47291824097E+01 -0.29886715851E+01  0.71451674101E+01  0.51100000000E-03 0.  1.
        -12    1    3    3    0    0  0.15078128466E+02  0.90064416230E+01  0.12048063235E+02  0.21298398448E+02  0.00000000000E+00 0.  1.
</event>
<event>
 7    1  0.1457722E-010  0.4778727E+02  0.7816164E-02  0.1312668E+00
        -11   -1    0    0    0    0  0.00000000000E+00  0.00000000000E+00  0.45593999997E+02  0.45594000000E+02  0.51100000000E-03 0. -1.
         11   -1    0    0    0    0 -0.00000000000E+00 -0.00000000000E+00 -0.45593999997E+02  0.45594000000E+02  0.51100000000E-03 0.  1.
    9900012    2    1    2    0    0  0.22286463811E+02  0.34969522167E+02  0.12808962805E+02  0.47787268694E+02  0.19999989281E+02 0.  0.
        -12    1    1    2    0    0 -0.22286463811E+02 -0.34969522167E+02 -0.12808962805E+02  0.43400731306E+02  0.00000000000E+00 0.  1.
         11    1    3    3    0    0  0.91670509064E+01  0.84364190647E+01  0.40535645912E+01  0.13101121139E+02  0.51100000000E-03 0. -1.
        -11    1    3    3    0    0  0.33865894766E+00  0.17488600405E+02  0.73248920158E+01  0.18963646203E+02  0.51100000000E-03 0.  1.
        -12    1    3    3    0    0  0.12780753957E+02  0.90445026975E+01  0.14305061980E+01  0.15722501351E+02  0.00000000000E+00 0.  1.
</event>
<event>
 7    1  0.1457722E-010  0.4778727E+02  0.7816164E-02  0.1312668E+00
        -11   -1    0    0    0    0  0.00000000000E+00  0.00000000000E+00  0.45593999997E+02  0.45594000000E+02  0.51100000000E-03 0. -1.
         11   -1    0    0    0    0 -0.00000000000E+00 -0.00000000000E+00 -0.45593999997E+02  0.45594000000E+02  0.51100000000E-03 0.  1.
    9900012    2    1    2    0    0 -0.65053684876E+01 -0.38065162195E+02  0.19807742744E+02  0.47787273454E+02  0.20000010988E+02 0.  0.
        -12    1    1    2    0    0  0.65053684876E+01  0.38065162195E+02 -0.19807742744E+02  0.43400726546E+02  0.00000000000E+00 0.  1.
         11    1    3    3    0    0 -0.14785673284E+01 -0.25916727509E+02  0.11467744696E+02  0.28379078470E+02  0.51100000000E-03 0. -1.
        -11    1    3    3    0    0 -0.53897711636E+01 -0.43516928122E+01 -0.12544415336E+01  0.70399209761E+01  0.51100000000E-03 0.  1.
         12    1    3    3    0    0  0.36297000440E+00 -0.77967418734E+01  0.95944395814E+01  0.12368274008E+02  0.00000000000E+00 0. -1.
</event>
<event>
 7    1  0.1457722E-010  0.4778727E+02  0.7816164E-02  0.1312668E+00
        -11   -1    0    0    0    0  0.00000000000E+00  0.00000000000E+00  0.45593999997E+02  0.45594000000E+02  0.51100000000E-03 0.  1.
         11   -1    0    0    0    0 -0.00000000000E+00 -0.00000000000E+00 -0.45593999997E+02  0.45594000000E+02  0.51100000000E-03 0. -1.
    9900012    2    1    2    0    0 -0.15113966580E+02 -0.31636753047E+02 -0.25579428505E+02  0.47787270838E+02  0.19999999057E+02 0.  0.
        -12    1    1    2    0    0  0.15113966580E+02  0.31636753047E+02  0.25579428505E+02  0.43400729162E+02  0.00000000000E+00 0.  1.
         11    1    3    3    0    0 -0.12944176700E+02 -0.17090822039E+02 -0.93117413524E+01  0.23374268666E+02  0.51100000000E-03 0. -1.
        -11    1    3    3    0    0  0.13469086144E+01 -0.82645909441E+01 -0.22750623693E+01  0.86771847585E+01  0.51100000000E-03 0.  1.
        -12    1    3    3    0    0 -0.35166984947E+01 -0.62813400643E+01 -0.13992624784E+02  0.15735817413E+02  0.00000000000E+00 0.  1.
</event>
<event>
 7    1  0.1457722E-010  0.4778727E+02  0.7816164E-02  0.1312668E+00
        -11   -1    0    0    0    0  0.00000000000E+00  0.00000000000E+00  0.45593999997E+02  0.45594000000E+02  0.51100000000E-03 0.  1.
         11   -1    0    0    0    0 -0.00000000000E+00 -0.00000000000E+00 -0.45593999997E+02  0.45594000000E+02  0.51100000000E-03 0. -1.
    9900012    2    1    2    0    0  0.22391434173E+02 -0.15050936264E+02 -0.33995830635E+02  0.47787268356E+02  0.19999987741E+02 0.  0.
        -12    1    1    2    0    0 -0.22391434173E+02  0.15050936264E+02  0.33995830635E+02  0.43400731644E+02  0.00000000000E+00 0.  1.
         11    1    3    3    0    0  0.11975701130E+02 -0.13308613631E+02 -0.12943285177E+02  0.22092198753E+02  0.51100000000E-03 0. -1.
        -11    1    3    3    0    0 -0.13524286518E+01  0.19268469677E+01 -0.42098997852E+01  0.48233866689E+01  0.51100000000E-03 0.  1.
         12    1    3    3    0    0  0.11768161694E+02 -0.36691696006E+01 -0.16842645673E+02  0.20871682934E+02  0.00000000000E+00 0. -1.
</event>
<event>
 7    1  0.1457722E-010  0.4778727E+02  0.7816164E-02  0.1312668E+00
        -11   -1    0    0    0    0  0.00000000000E+00  0.00000000000E+00  0.45593999997E+02  0.45594000000E+02  0.51100000000E-03 0.  1.
         11   -1    0    0    0    0 -0.00000000000E+00 -0.00000000000E+00 -0.45593999997E+02  0.45594000000E+02  0.51100000000E-03 0. -1.
    9900012    2    1    2    0    0  0.51479579945E+01  0.42841978219E+02  0.46569305920E+01  0.47787267613E+02  0.19999984353E+02 0.  0.
        -12    1    1    2    0    0 -0.51479579945E+01 -0.42841978219E+02 -0.46569305920E+01  0.43400732387E+02  0.00000000000E+00 0.  1.
         11    1    3    3    0    0  0.78481233673E+01  0.34812667319E+02  0.48777340171E+01  0.36018150086E+02  0.51100000000E-03 0. -1.
        -11    1    3    3    0    0  0.23262883444E+01  0.67939601238E-01 -0.34651760027E+00  0.23529360295E+01  0.51100000000E-03 0.  1.
         12    1    3    3    0    0 -0.50264537171E+01  0.79613712989E+01  0.12571417524E+00  0.94161814970E+01  0.00000000000E+00 0. -1.
</event>
<event>
 7    1  0.1457722E-010  0.4778727E+02  0.7816164E-02  0.1312668E+00
        -11   -1    0    0    0    0  0.00000000000E+00  0.00000000000E+00  0.45593999997E+02  0.45594000000E+02  0.51100000000E-03 0.  1.
         11   -1    0    0    0    0 -0.00000000000E+00 -0.00000000000E+00 -0.45593999997E+02  0.45594000000E+02  0.51100000000E-03 0. -1.
    9900012    2    1    2    0    0 -0.37026060377E+02 -0.15201888200E+02 -0.16780845694E+02  0.47787270351E+02  0.19999996838E+02 0.  0.
        -12    1    1    2    0    0  0.37026060377E+02  0.15201888200E+02  0.16780845694E+02  0.43400729649E+02  0.00000000000E+00 0.  1.
         11    1    3    3    0    0 -0.24035462641E+02 -0.83102058868E+01 -0.92927905819E+01  0.27076169288E+02  0.51100000000E-03 0. -1.
        -11    1    3    3    0    0 -0.43709589511E+01  0.16670530085E+00  0.30843599301E+01  0.53522284377E+01  0.51100000000E-03 0.  1.
         12    1    3    3    0    0 -0.86196387842E+01 -0.70583876143E+01 -0.10572415042E+02  0.15358872625E+02  0.00000000000E+00 0. -1.
</event>
<event>
 7    1  0.1457722E-010  0.4778728E+02  0.7816164E-02  0.1312668E+00
        -11   -1    0    0    0    0  0.00000000000E+00  0.00000000000E+00  0.45593999997E+02  0.45594000000E+02  0.51100000000E-03 0.  1.
         11   -1    0    0    0    0 -0.00000000000E+00 -0.00000000000E+00 -0.45593999997E+02  0.45594000000E+02  0.51100000000E-03 0. -1.
    9900012    2    1    2    0    0 -0.13285300854E+02 -0.13201234275E+02 -0.39151641993E+02  0.47787275629E+02  0.20000020904E+02 0.  0.
        -12    1    1    2    0    0  0.13285300854E+02  0.13201234275E+02  0.39151641993E+02  0.43400724371E+02  0.00000000000E+00 0.  1.
         11    1    3    3    0    0  0.91535874509E+00 -0.19725357946E+01 -0.79225741421E+01  0.82155925162E+01  0.51100000000E-03 0. -1.
        -11    1    3    3    0    0 -0.17770523511E+02 -0.94535177780E+01 -0.24068304461E+02  0.31375847146E+02  0.51100000000E-03 0.  1.
        -12    1    3    3    0    0  0.35698639120E+01 -0.17751807019E+01 -0.71607633898E+01  0.81958359671E+01  0.00000000000E+00 0.  1.
</event>
<event>
 7    1  0.1457722E-010  0.4778729E+02  0.7816164E-02  0.1312668E+00
        -11   -1    0    0    0    0  0.00000000000E+00  0.00000000000E+00  0.45593999997E+02  0.45594000000E+02  0.51100000000E-03 0.  1.
         11   -1    0    0    0    0 -0.00000000000E+00 -0.00000000000E+00 -0.45593999997E+02  0.45594000000E+02  0.51100000000E-03 0. -1.
    9900012    2    1    2    0    0 -0.24539488617E+02 -0.33878286823E+02 -0.11562723227E+02  0.47787292770E+02  0.20000099054E+02 0.  0.
        -12    1    1    2    0    0  0.24539488617E+02  0.33878286823E+02  0.11562723227E+02  0.43400707230E+02  0.00000000000E+00 0.  1.
         11    1    3    3    0    0 -0.66976325451E+01 -0.60379518992E+01 -0.18623690884E+01  0.92077990709E+01  0.51100000000E-03 0. -1.
        -11    1    3    3    0    0 -0.12544550053E+02 -0.17802165354E+02 -0.14597697129E+02  0.26217848674E+02  0.51100000000E-03 0.  1.
        -12    1    3    3    0    0 -0.52973060188E+01 -0.10038169570E+02  0.48973429903E+01  0.12361645025E+02  0.00000000000E+00 0.  1.
</event>
<event>
 7    1  0.1457722E-010  0.4778728E+02  0.7816164E-02  0.1312668E+00
        -11   -1    0    0    0    0  0.00000000000E+00  0.00000000000E+00  0.45593999997E+02  0.45594000000E+02  0.51100000000E-03 0.  1.
         11   -1    0    0    0    0 -0.00000000000E+00 -0.00000000000E+00 -0.45593999997E+02  0.45594000000E+02  0.51100000000E-03 0. -1.
    9900012    2    1    2    0    0 -0.42547093310E+01 -0.35800532094E+02 -0.24162828109E+02  0.47787275214E+02  0.20000019010E+02 0.  0.
        -12    1    1    2    0    0  0.42547093310E+01  0.35800532094E+02  0.24162828109E+02  0.43400724786E+02  0.00000000000E+00 0.  1.
         11    1    3    3    0    0  0.19934003482E+01 -0.52978354767E+01 -0.64864914272E+01  0.86090229982E+01  0.51100000000E-03 0.  1.
        -11    1    3    3    0    0 -0.76271666798E+01 -0.16201018974E+02 -0.21684479151E+01  0.18037429251E+02  0.51100000000E-03 0. -1.
         12    1    3    3    0    0  0.13790570006E+01 -0.14301677644E+02 -0.15507888767E+02  0.21140822965E+02  0.00000000000E+00 0. -1.
</event>
<event>
 7    1  0.1457722E-010  0.4778727E+02  0.7816164E-02  0.1312668E+00
        -11   -1    0    0    0    0  0.00000000000E+00  0.00000000000E+00  0.45593999997E+02  0.45594000000E+02  0.51100000000E-03 0.  1.
         11   -1    0    0    0    0 -0.00000000000E+00 -0.00000000000E+00 -0.45593999997E+02  0.45594000000E+02  0.51100000000E-03 0. -1.
    9900012    2    1    2    0    0 -0.22836249234E+02  0.33038701706E+01 -0.36758854501E+02  0.47787271649E+02  0.20000002756E+02 0.  0.
        -12    1    1    2    0    0  0.22836249234E+02 -0.33038701706E+01  0.36758854501E+02  0.43400728351E+02  0.00000000000E+00 0.  1.
         11    1    3    3    0    0 -0.94123330998E+01  0.67886714336E+01 -0.15974736614E+02  0.19745133182E+02  0.51100000000E-03 0. -1.
        -11    1    3    3    0    0 -0.12669294600E+02  0.82204704145E+00 -0.92534666876E+01  0.15710297038E+02  0.51100000000E-03 0.  1.
         12    1    3    3    0    0 -0.75462153433E+00 -0.43068483044E+01 -0.11530651199E+02  0.12331841429E+02  0.00000000000E+00 0. -1.
</event>
<event>
 7    1  0.1457722E-010  0.4778727E+02  0.7816164E-02  0.1312668E+00
        -11   -1    0    0    0    0  0.00000000000E+00  0.00000000000E+00  0.45593999997E+02  0.45594000000E+02  0.51100000000E-03 0.  1.
         11   -1    0    0    0    0 -0.00000000000E+00 -0.00000000000E+00 -0.45593999997E+02  0.45594000000E+02  0.51100000000E-03 0. -1.
    9900012    2    1    2    0    0  0.35097005231E+02  0.17763973213E+02 -0.18337517682E+02  0.47787273333E+02  0.20000010435E+02 0.  0.
        -12    1    1    2    0    0 -0.35097005231E+02 -0.17763973213E+02  0.18337517682E+02  0.43400726667E+02  0.00000000000E+00 0.  1.
         11    1    3    3    0    0  0.10104881510E+02  0.38508987064E+01 -0.48261276651E+01  0.11841856260E+02  0.51100000000E-03 0. -1.
        -11    1    3    3    0    0  0.20405518448E+02  0.43383487831E+01 -0.14311467453E+02  0.25298706571E+02  0.51100000000E-03 0.  1.
         12    1    3    3    0    0  0.45866052738E+01  0.95747257231E+01  0.80007743579E+00  0.10646710502E+02  0.00000000000E+00 0. -1.
</event>
<event>
 7    1  0.1457722E-010  0.4778727E+02  0.7816164E-02  0.1312668E+00
        -11   -1    0    0    0    0  0.00000000000E+00  0.00000000000E+00  0.45593999997E+02  0.45594000000E+02  0.51100000000E-03 0.  1.
         11   -1    0    0    0    0 -0.00000000000E+00 -0.00000000000E+00 -0.45593999997E+02  0.45594000000E+02  0.51100000000E-03 0. -1.
    9900012    2    1    2    0    0  0.89172550777E+01 -0.14582138866E+02 -0.39893192780E+02  0.47787273714E+02  0.20000012170E+02 0.  0.
        -12    1    1    2    0    0 -0.89172550777E+01  0.14582138866E+02  0.39893192780E+02  0.43400726286E+02  0.00000000000E+00 0.  1.
         11    1    3    3    0    0 -0.16433641334E+01 -0.41747342990E+01 -0.11001747736E+02  0.11881393253E+02  0.51100000000E-03 0. -1.
        -11    1    3    3    0    0  0.94428250763E+01  0.56212212777E+00 -0.18383053488E+02  0.20674128337E+02  0.51100000000E-03 0.  1.
        -12    1    3    3    0    0  0.11177941348E+01 -0.10969526695E+02 -0.10508391556E+02  0.15231752123E+02  0.00000000000E+00 0.  1.
</event>
<event>
 7    1  0.1457722E-010  0.4778726E+02  0.7816164E-02  0.1312668E+00
        -11   -1    0    0    0    0  0.00000000000E+00  0.00000000000E+00  0.45593999997E+02  0.45594000000E+02  0.51100000000E-03 0. -1.
         11   -1    0    0    0    0 -0.00000000000E+00 -0.00000000000E+00 -0.45593999997E+02  0.45594000000E+02  0.51100000000E-03 0.  1.
    9900012    2    1    2    0    0  0.31644934655E+02  0.20787313645E+01  0.29629396373E+02  0.47787261034E+02  0.19999954357E+02 0.  0.
        -12    1    1    2    0    0 -0.31644934655E+02 -0.20787313645E+01 -0.29629396373E+02  0.43400738966E+02  0.00000000000E+00 0.  1.
         11    1    3    3    0    0  0.22582147869E+01 -0.45715879984E+01  0.29992001916E+01  0.59155855924E+01  0.51100000000E-03 0. -1.
        -11    1    3    3    0    0  0.18493096837E+02  0.72092178645E+00  0.97308837704E+01  0.20909434666E+02  0.51100000000E-03 0.  1.
        -12    1    3    3    0    0  0.10893623031E+02  0.59293975764E+01  0.16899312411E+02  0.20962240775E+02  0.00000000000E+00 0.  1.
</event>
<event>
 7    1  0.1457722E-010  0.4778727E+02  0.7816164E-02  0.1312668E+00
        -11   -1    0    0    0    0  0.00000000000E+00  0.00000000000E+00  0.45593999997E+02  0.45594000000E+02  0.51100000000E-03 0.  1.
         11   -1    0    0    0    0 -0.00000000000E+00 -0.00000000000E+00 -0.45593999997E+02  0.45594000000E+02  0.51100000000E-03 0. -1.
    9900012    2    1    2    0    0 -0.18865598811E+02  0.34247131369E+01 -0.38935634672E+02  0.47787272749E+02  0.20000007773E+02 0.  0.
        -12    1    1    2    0    0  0.18865598811E+02 -0.34247131369E+01  0.38935634672E+02  0.43400727251E+02  0.00000000000E+00 0.  1.
         11    1    3    3    0    0 -0.15300116647E+02 -0.35068377955E+01 -0.28852547094E+02  0.32846018858E+02  0.51100000000E-03 0. -1.
        -11    1    3    3    0    0 -0.36540029195E+01 -0.20651915533E+00 -0.20509874815E+01  0.41953471141E+01  0.51100000000E-03 0.  1.
        -12    1    3    3    0    0  0.88520755970E-01  0.71380700877E+01 -0.80321000966E+01  0.10745906777E+02  0.00000000000E+00 0.  1.
</event>
<event>
 7    1  0.1457722E-010  0.4778728E+02  0.7816164E-02  0.1312668E+00
        -11   -1    0    0    0    0  0.00000000000E+00  0.00000000000E+00  0.45593999997E+02  0.45594000000E+02  0.51100000000E-03 0.  1.
         11   -1    0    0    0    0 -0.00000000000E+00 -0.00000000000E+00 -0.45593999997E+02  0.45594000000E+02  0.51100000000E-03 0. -1.
    9900012    2    1    2    0    0  0.26900984469E+02 -0.20134278690E+02 -0.27469446857E+02  0.47787278181E+02  0.20000032540E+02 0.  0.
        -12    1    1    2    0    0 -0.26900984469E+02  0.20134278690E+02  0.27469446857E+02  0.43400721819E+02  0.00000000000E+00 0.  1.
         11    1    3    3    0    0  0.10925103191E+02 -0.84321577288E+01 -0.13220383529E+02  0.19111193176E+02  0.51100000000E-03 0. -1.
        -11    1    3    3    0    0  0.76123231402E+01  0.40269513374E+00  0.75696491504E+00  0.76604584135E+01  0.51100000000E-03 0.  1.
        -12    1    3    3    0    0  0.83635581376E+01 -0.12104816095E+02 -0.15006028243E+02  0.21015626592E+02  0.00000000000E+00 0.  1.
</event>
<event>
 7    1  0.1457722E-010  0.4778727E+02  0.7816164E-02  0.1312668E+00
        -11   -1    0    0    0    0  0.00000000000E+00  0.00000000000E+00  0.45593999997E+02  0.45594000000E+02  0.51100000000E-03 0. -1.
         11   -1    0    0    0    0 -0.00000000000E+00 -0.00000000000E+00 -0.45593999997E+02  0.45594000000E+02  0.51100000000E-03 0.  1.
    9900012    2    1    2    0    0 -0.69695525717E+01 -0.42209358961E+02 -0.73088016695E+01  0.47787271564E+02  0.20000002368E+02 0.  0.
        -12    1    1    2    0    0  0.69695525717E+01  0.42209358961E+02  0.73088016695E+01  0.43400728436E+02  0.00000000000E+00 0.  1.
         11    1    3    3    0    0 -0.80048126327E+01 -0.23522614532E+02 -0.12807776545E+01  0.24880329808E+02  0.51100000000E-03 0. -1.
        -11    1    3    3    0    0 -0.24796068257E+01 -0.75553951404E+01 -0.77543724682E+01  0.11106877976E+02  0.51100000000E-03 0.  1.
         12    1    3    3    0    0  0.35148668867E+01 -0.11131349288E+02  0.17263484532E+01  0.11800063779E+02  0.00000000000E+00 0. -1.
</event>
<event>
 7    1  0.1457722E-010  0.4778727E+02  0.7816164E-02  0.1312668E+00
        -11   -1    0    0    0    0  0.00000000000E+00  0.00000000000E+00  0.45593999997E+02  0.45594000000E+02  0.51100000000E-03 0.  1.
         11   -1    0    0    0    0 -0.00000000000E+00 -0.00000000000E+00 -0.45593999997E+02  0.45594000000E+02  0.51100000000E-03 0. -1.
    9900012    2    1    2    0    0  0.84099815550E+01 -0.36547653462E+02 -0.21844098976E+02  0.47787269322E+02  0.19999992146E+02 0.  0.
        -12    1    1    2    0    0 -0.84099815550E+01  0.36547653462E+02  0.21844098976E+02  0.43400730678E+02  0.00000000000E+00 0.  1.
         11    1    3    3    0    0  0.13488790186E+02 -0.33069695291E+02 -0.16171683526E+02  0.39205555163E+02  0.51100000000E-03 0. -1.
        -11    1    3    3    0    0 -0.10515790812E+01 -0.80750306746E+00 -0.24122325245E+01  0.27525889234E+01  0.51100000000E-03 0.  1.
         12    1    3    3    0    0 -0.40272295494E+01 -0.26704551038E+01 -0.32601829251E+01  0.58291252354E+01  0.00000000000E+00 0. -1.
</event>
<event>
 7    1  0.1457722E-010  0.4778726E+02  0.7816164E-02  0.1312668E+00
        -11   -1    0    0    0    0  0.00000000000E+00  0.00000000000E+00  0.45593999997E+02  0.45594000000E+02  0.51100000000E-03 0.  1.
         11   -1    0    0    0    0 -0.00000000000E+00 -0.00000000000E+00 -0.45593999997E+02  0.45594000000E+02  0.51100000000E-03 0. -1.
    9900012    2    1    2    0    0  0.76371830893E+01  0.99546262798E+01 -0.41547597873E+02  0.47787262231E+02  0.19999959815E+02 0.  0.
        -12    1    1    2    0    0 -0.76371830893E+01 -0.99546262798E+01  0.41547597873E+02  0.43400737769E+02  0.00000000000E+00 0.  1.
         11    1    3    3    0    0  0.12163655316E+02  0.12268438075E+02 -0.31127362945E+02  0.35600306285E+02  0.51100000000E-03 0. -1.
        -11    1    3    3    0    0 -0.17046667209E+01 -0.68867870754E+00 -0.75428298956E+00  0.19872367954E+01  0.51100000000E-03 0.  1.
         12    1    3    3    0    0 -0.28218055061E+01 -0.16251330872E+01 -0.96659519386E+01  0.10199719150E+02  0.00000000000E+00 0. -1.
</event>
<event>
 7    1  0.1457722E-010  0.4778725E+02  0.7816164E-02  0.1312668E+00
        -11   -1    0    0    0    0  0.00000000000E+00  0.00000000000E+00  0.45593999997E+02  0.45594000000E+02  0.51100000000E-03 0.  1.
         11   -1    0    0    0    0 -0.00000000000E+00 -0.00000000000E+00 -0.45593999997E+02  0.45594000000E+02  0.51100000000E-03 0. -1.
    9900012    2    1    2    0    0 -0.12364810649E+02 -0.38170296328E+02  0.16545839381E+02  0.47787252714E+02  0.19999916423E+02 0.  0.
        -12    1    1    2    0    0  0.12364810649E+02  0.38170296328E+02 -0.16545839381E+02  0.43400747286E+02  0.00000000000E+00 0.  1.
         11    1    3    3    0    0  0.23754534808E+00 -0.13469152883E+02  0.12904463596E+02  0.18654749747E+02  0.51100000000E-03 0.  1.
        -11    1    3    3    0    0 -0.69418976089E+01 -0.16913299095E+02  0.59603153153E+01  0.19229534253E+02  0.51100000000E-03 0. -1.
        -12    1    3    3    0    0 -0.56604583884E+01 -0.77878443510E+01 -0.23189395298E+01  0.99029687138E+01  0.00000000000E+00 0.  1.
</event>
<event>
 7    1  0.1457722E-010  0.4778726E+02  0.7816164E-02  0.1312668E+00
        -11   -1    0    0    0    0  0.00000000000E+00  0.00000000000E+00  0.45593999997E+02  0.45594000000E+02  0.51100000000E-03 0.  1.
         11   -1    0    0    0    0 -0.00000000000E+00 -0.00000000000E+00 -0.45593999997E+02  0.45594000000E+02  0.51100000000E-03 0. -1.
    9900012    2    1    2    0    0 -0.30552391035E+01  0.30972577549E+02 -0.30248790537E+02  0.47787258359E+02  0.19999942162E+02 0.  0.
        -12    1    1    2    0    0  0.30552391035E+01 -0.30972577549E+02  0.30248790537E+02  0.43400741641E+02  0.00000000000E+00 0.  1.
         11    1    3    3    0    0 -0.37197792369E+01  0.20859139665E+02 -0.16100808242E+02  0.26611585662E+02  0.51100000000E-03 0. -1.
        -11    1    3    3    0    0  0.60471205612E+01  0.78436736855E+01 -0.85307119278E+01  0.13071493037E+02  0.51100000000E-03 0.  1.
        -12    1    3    3    0    0 -0.53825804278E+01  0.22697641985E+01 -0.56172703672E+01  0.81041796597E+01  0.00000000000E+00 0.  1.
</event>
<event>
 7    1  0.1457722E-010  0.4778727E+02  0.7816164E-02  0.1312668E+00
        -11   -1    0    0    0    0  0.00000000000E+00  0.00000000000E+00  0.45593999997E+02  0.45594000000E+02  0.51100000000E-03 0.  1.
         11   -1    0    0    0    0 -0.00000000000E+00 -0.00000000000E+00 -0.45593999997E+02  0.45594000000E+02  0.51100000000E-03 0. -1.
    9900012    2    1    2    0    0 -0.32030528938E+02 -0.24581919402E+01 -0.29182629785E+02  0.47787269904E+02  0.19999994802E+02 0.  0.
        -12    1    1    2    0    0  0.32030528938E+02  0.24581919402E+01  0.29182629785E+02  0.43400730096E+02  0.00000000000E+00 0.  1.
         11    1    3    3    0    0 -0.98809894021E+01  0.52824432134E+01 -0.26715467652E+01  0.11518477341E+02  0.51100000000E-03 0.  1.
        -11    1    3    3    0    0 -0.15315940709E+02 -0.35011259303E+01 -0.12351442884E+02  0.19984845863E+02  0.51100000000E-03 0. -1.
        -12    1    3    3    0    0 -0.68335988265E+01 -0.42395092233E+01 -0.14159640136E+02  0.16283946701E+02  0.00000000000E+00 0.  1.
</event>
<event>
 7    1  0.1457722E-010  0.4778727E+02  0.7816164E-02  0.1312668E+00
        -11   -1    0    0    0    0  0.00000000000E+00  0.00000000000E+00  0.45593999997E+02  0.45594000000E+02  0.51100000000E-03 0. -1.
         11   -1    0    0    0    0 -0.00000000000E+00 -0.00000000000E+00 -0.45593999997E+02  0.45594000000E+02  0.51100000000E-03 0.  1.
    9900012    2    1    2    0    0 -0.63007869085E+01 -0.14144515967E+02  0.40544495244E+02  0.47787270257E+02  0.19999996412E+02 0.  0.
        -12    1    1    2    0    0  0.63007869085E+01  0.14144515967E+02 -0.40544495244E+02  0.43400729743E+02  0.00000000000E+00 0.  1.
         11    1    3    3    0    0 -0.90932547168E+01 -0.49009772927E+01  0.17449715654E+02  0.20278053073E+02  0.51100000000E-03 0. -1.
        -11    1    3    3    0    0  0.21076853171E+01 -0.10839724033E+01  0.17339391716E+02  0.17500623958E+02  0.51100000000E-03 0.  1.
        -12    1    3    3    0    0  0.68478249118E+00 -0.81595662713E+01  0.57553878735E+01  0.10008593226E+02  0.00000000000E+00 0.  1.
</event>
<event>
 7    1  0.1457722E-010  0.4778727E+02  0.7816164E-02  0.1312668E+00
        -11   -1    0    0    0    0  0.00000000000E+00  0.00000000000E+00  0.45593999997E+02  0.45594000000E+02  0.51100000000E-03 0.  1.
         11   -1    0    0    0    0 -0.00000000000E+00 -0.00000000000E+00 -0.45593999997E+02  0.45594000000E+02  0.51100000000E-03 0. -1.
    9900012    2    1    2    0    0  0.31050151097E+02  0.29689915399E+02 -0.61660461316E+01  0.47787273227E+02  0.20000009949E+02 0.  0.
        -12    1    1    2    0    0 -0.31050151097E+02 -0.29689915399E+02  0.61660461316E+01  0.43400726773E+02  0.00000000000E+00 0.  1.
         11    1    3    3    0    0  0.32551088933E+01 -0.10928102954E+01  0.21152112665E+01  0.40328757992E+01  0.51100000000E-03 0. -1.
        -11    1    3    3    0    0  0.15223779118E+01  0.12474270762E+01 -0.33946351181E+01  0.39239338250E+01  0.51100000000E-03 0.  1.
         12    1    3    3    0    0  0.26272664292E+02  0.29535298619E+02 -0.48866222800E+01  0.39830463602E+02  0.00000000000E+00 0. -1.
</event>
<event>
 7    1  0.1457722E-010  0.4778727E+02  0.7816164E-02  0.1312668E+00
        -11   -1    0    0    0    0  0.00000000000E+00  0.00000000000E+00  0.45593999997E+02  0.45594000000E+02  0.51100000000E-03 0.  1.
         11   -1    0    0    0    0 -0.00000000000E+00 -0.00000000000E+00 -0.45593999997E+02  0.45594000000E+02  0.51100000000E-03 0. -1.
    9900012    2    1    2    0    0  0.15750403874E+02  0.40433549634E+02  0.82227211170E+00  0.47787270863E+02  0.19999999172E+02 0.  0.
        -12    1    1    2    0    0 -0.15750403874E+02 -0.40433549634E+02 -0.82227211170E+00  0.43400729137E+02  0.00000000000E+00 0.  1.
         11    1    3    3    0    0  0.21190830794E+01  0.13311130403E+02  0.41528895565E+01  0.14104013529E+02  0.51100000000E-03 0. -1.
        -11    1    3    3    0    0 -0.24678606076E+01  0.79526207471E+00 -0.83117306995E+00  0.27227975833E+01  0.51100000000E-03 0.  1.
         12    1    3    3    0    0  0.16099181402E+02  0.26327157157E+02 -0.24994443749E+01  0.30960459751E+02  0.00000000000E+00 0. -1.
</event>
<event>
 7    1  0.1457722E-010  0.4778727E+02  0.7816164E-02  0.1312668E+00
        -11   -1    0    0    0    0  0.00000000000E+00  0.00000000000E+00  0.45593999997E+02  0.45594000000E+02  0.51100000000E-03 0.  1.
         11   -1    0    0    0    0 -0.00000000000E+00 -0.00000000000E+00 -0.45593999997E+02  0.45594000000E+02  0.51100000000E-03 0. -1.
    9900012    2    1    2    0    0  0.10358026864E+02  0.10068096268E+02 -0.40926374963E+02  0.47787269009E+02  0.19999990718E+02 0.  0.
        -12    1    1    2    0    0 -0.10358026864E+02 -0.10068096268E+02  0.40926374963E+02  0.43400730991E+02  0.00000000000E+00 0.  1.
         11    1    3    3    0    0 -0.17769087528E+01 -0.21998537767E+00 -0.41316130128E+01  0.45028906972E+01  0.51100000000E-03 0. -1.
        -11    1    3    3    0    0  0.11341523425E+02  0.12470404505E+02 -0.37278510458E+02  0.40912449015E+02  0.51100000000E-03 0.  1.
        -12    1    3    3    0    0  0.79341219168E+00 -0.21823228598E+01  0.48374850784E+00  0.23719292969E+01  0.00000000000E+00 0.  1.
</event>
<event>
 7    1  0.1457722E-010  0.4778727E+02  0.7816164E-02  0.1312668E+00
        -11   -1    0    0    0    0  0.00000000000E+00  0.00000000000E+00  0.45593999997E+02  0.45594000000E+02  0.51100000000E-03 0.  1.
         11   -1    0    0    0    0 -0.00000000000E+00 -0.00000000000E+00 -0.45593999997E+02  0.45594000000E+02  0.51100000000E-03 0. -1.
    9900012    2    1    2    0    0  0.10406585368E+01 -0.31107743237E+01 -0.43276593836E+02  0.47787268887E+02  0.19999990165E+02 0.  0.
        -12    1    1    2    0    0 -0.10406585368E+01  0.31107743237E+01  0.43276593836E+02  0.43400731113E+02  0.00000000000E+00 0.  1.
         11    1    3    3    0    0 -0.40923222231E+01  0.43404165603E+01 -0.14006658647E+02  0.15224086304E+02  0.51100000000E-03 0. -1.
        -11    1    3    3    0    0  0.52518379535E+01 -0.39477315906E+01 -0.28114819345E+02  0.28872295608E+02  0.51100000000E-03 0.  1.
        -12    1    3    3    0    0 -0.11885719364E+00 -0.35034592934E+01 -0.11551158442E+01  0.36908869756E+01  0.00000000000E+00 0.  1.
</event>
<event>
 7    1  0.1457722E-010  0.4778727E+02  0.7816164E-02  0.1312668E+00
        -11   -1    0    0    0    0  0.00000000000E+00  0.00000000000E+00  0.45593999997E+02  0.45594000000E+02  0.51100000000E-03 0.  1.
         11   -1    0    0    0    0 -0.00000000000E+00 -0.00000000000E+00 -0.45593999997E+02  0.45594000000E+02  0.51100000000E-03 0. -1.
    9900012    2    1    2    0    0 -0.23190643163E+02 -0.28302318703E+02 -0.23340871092E+02  0.47787269158E+02  0.19999991399E+02 0.  0.
        -12    1    1    2    0    0  0.23190643163E+02  0.28302318703E+02  0.23340871092E+02  0.43400730842E+02  0.00000000000E+00 0.  1.
         11    1    3    3    0    0  0.17146339833E+01  0.61983326421E+00 -0.67760217678E+00  0.19450727347E+01  0.51100000000E-03 0. -1.
        -11    1    3    3    0    0 -0.15028745462E+02 -0.10250813695E+02 -0.67802597714E+01  0.19414280682E+02  0.51100000000E-03 0.  1.
         12    1    3    3    0    0 -0.98765316851E+01 -0.18671338272E+02 -0.15883009144E+02  0.26427915742E+02  0.00000000000E+00 0. -1.
</event>
<event>
 7    1  0.1457722E-010  0.4778727E+02  0.7816164E-02  0.1312668E+00
        -11   -1    0    0    0    0  0.00000000000E+00  0.00000000000E+00  0.45593999997E+02  0.45594000000E+02  0.51100000000E-03 0. -1.
         11   -1    0    0    0    0 -0.00000000000E+00 -0.00000000000E+00 -0.45593999997E+02  0.45594000000E+02  0.51100000000E-03 0.  1.
    9900012    2    1    2    0    0 -0.20107161076E+02 -0.20923886537E+02  0.32272531529E+02  0.47787271370E+02  0.20000001485E+02 0.  0.
        -12    1    1    2    0    0  0.20107161076E+02  0.20923886537E+02 -0.32272531529E+02  0.43400728630E+02  0.00000000000E+00 0.  1.
         11    1    3    3    0    0 -0.13357501694E+02 -0.17993531016E+02  0.28804849300E+02  0.36495333309E+02  0.51100000000E-03 0. -1.
        -11    1    3    3    0    0  0.11802865224E+01  0.10014863423E+01  0.16378798820E+01  0.22535975545E+01  0.51100000000E-03 0.  1.
        -12    1    3    3    0    0 -0.79299459037E+01 -0.39318418637E+01  0.18298023472E+01  0.90383405062E+01  0.00000000000E+00 0.  1.
</event>
<event>
 7    1  0.1457722E-010  0.4778727E+02  0.7816164E-02  0.1312668E+00
        -11   -1    0    0    0    0  0.00000000000E+00  0.00000000000E+00  0.45593999997E+02  0.45594000000E+02  0.51100000000E-03 0. -1.
         11   -1    0    0    0    0 -0.00000000000E+00 -0.00000000000E+00 -0.45593999997E+02  0.45594000000E+02  0.51100000000E-03 0.  1.
    9900012    2    1    2    0    0  0.31143321054E+02  0.69757849504E+01  0.29411819045E+02  0.47787272801E+02  0.20000008007E+02 0.  0.
        -12    1    1    2    0    0 -0.31143321054E+02 -0.69757849504E+01 -0.29411819045E+02  0.43400727199E+02  0.00000000000E+00 0.  1.
         11    1    3    3    0    0  0.13981918249E+02  0.35120376216E+01  0.24400604914E+02  0.28341100307E+02  0.51100000000E-03 0. -1.
        -11    1    3    3    0    0  0.53569671054E+01 -0.20638847669E+01  0.18802008831E+01  0.60408503144E+01  0.51100000000E-03 0.  1.
        -12    1    3    3    0    0  0.11804435699E+02  0.55276320957E+01  0.31310132472E+01  0.13405322179E+02  0.00000000000E+00 0.  1.
</event>
<event>
 7    1  0.1457722E-010  0.4778727E+02  0.7816164E-02  0.1312668E+00
        -11   -1    0    0    0    0  0.00000000000E+00  0.00000000000E+00  0.45593999997E+02  0.45594000000E+02  0.51100000000E-03 0.  1.
         11   -1    0    0    0    0 -0.00000000000E+00 -0.00000000000E+00 -0.45593999997E+02  0.45594000000E+02  0.51100000000E-03 0. -1.
    9900012    2    1    2    0    0  0.42778513435E+01 -0.45710030364E+01 -0.42946818135E+02  0.47787271103E+02  0.20000000269E+02 0.  0.
        -12    1    1    2    0    0 -0.42778513435E+01  0.45710030364E+01  0.42946818135E+02  0.43400728897E+02  0.00000000000E+00 0.  1.
         11    1    3    3    0    0  0.78202799101E+00  0.48086642516E+01 -0.23564311685E+02  0.24062659976E+02  0.51100000000E-03 0. -1.
        -11    1    3    3    0    0 -0.16611152725E+01 -0.33541757316E+01 -0.12712457697E+01  0.39529564702E+01  0.51100000000E-03 0.  1.
        -12    1    3    3    0    0  0.51569386250E+01 -0.60254915564E+01 -0.18111260680E+02  0.19771654658E+02  0.00000000000E+00 0.  1.
</event>
<event>
 7    1  0.1457722E-010  0.4778727E+02  0.7816164E-02  0.1312668E+00
        -11   -1    0    0    0    0  0.00000000000E+00  0.00000000000E+00  0.45593999997E+02  0.45594000000E+02  0.51100000000E-03 0.  1.
         11   -1    0    0    0    0 -0.00000000000E+00 -0.00000000000E+00 -0.45593999997E+02  0.45594000000E+02  0.51100000000E-03 0. -1.
    9900012    2    1    2    0    0  0.21820082736E+02 -0.27548259194E+02 -0.25467636632E+02  0.47787272923E+02  0.20000008565E+02 0.  0.
        -12    1    1    2    0    0 -0.21820082736E+02  0.27548259194E+02  0.25467636632E+02  0.43400727077E+02  0.00000000000E+00 0.  1.
         11    1    3    3    0    0  0.26938498004E+01 -0.13543639111E+02 -0.10933687766E+02  0.17613418621E+02  0.51100000000E-03 0. -1.
        -11    1    3    3    0    0  0.71441132666E+01 -0.71127205933E+01  0.48352255484E-01  0.10081244308E+02  0.51100000000E-03 0.  1.
        -12    1    3    3    0    0  0.11982119669E+02 -0.68918994894E+01 -0.14582301121E+02  0.20092609993E+02  0.00000000000E+00 0.  1.
</event>
<event>
 7    1  0.1457722E-010  0.4778727E+02  0.7816164E-02  0.1312668E+00
        -11   -1    0    0    0    0  0.00000000000E+00  0.00000000000E+00  0.45593999997E+02  0.45594000000E+02  0.51100000000E-03 0. -1.
         11   -1    0    0    0    0 -0.00000000000E+00 -0.00000000000E+00 -0.45593999997E+02  0.45594000000E+02  0.51100000000E-03 0.  1.
    9900012    2    1    2    0    0  0.20764287148E+02  0.16647556561E+02  0.34283035205E+02  0.47787271169E+02  0.20000000568E+02 0.  0.
        -12    1    1    2    0    0 -0.20764287148E+02 -0.16647556561E+02 -0.34283035205E+02  0.43400728831E+02  0.00000000000E+00 0.  1.
         11    1    3    3    0    0  0.19566220418E+01 -0.78902705907E+00  0.66750922337E+01  0.70005564139E+01  0.51100000000E-03 0. -1.
        -11    1    3    3    0    0 -0.83059780062E+00 -0.21195720761E+01  0.16247526479E+01  0.27968374855E+01  0.51100000000E-03 0.  1.
        -12    1    3    3    0    0  0.19638262906E+02  0.19556155696E+02  0.25983190324E+02  0.37989877270E+02  0.00000000000E+00 0.  1.
</event>
<event>
 7    1  0.1457722E-010  0.4778727E+02  0.7816164E-02  0.1312668E+00
        -11   -1    0    0    0    0  0.00000000000E+00  0.00000000000E+00  0.45593999997E+02  0.45594000000E+02  0.51100000000E-03 0.  1.
         11   -1    0    0    0    0 -0.00000000000E+00 -0.00000000000E+00 -0.45593999997E+02  0.45594000000E+02  0.51100000000E-03 0. -1.
    9900012    2    1    2    0    0  0.23865189857E+02 -0.79553610882E+01 -0.35366484880E+02  0.47787270631E+02  0.19999998116E+02 0.  0.
        -12    1    1    2    0    0 -0.23865189857E+02  0.79553610882E+01  0.35366484880E+02  0.43400729369E+02  0.00000000000E+00 0.  1.
         11    1    3    3    0    0  0.69931021112E+01  0.29838043914E+01 -0.10487341753E+02  0.12953412797E+02  0.51100000000E-03 0. -1.
        -11    1    3    3    0    0  0.79962856315E+01 -0.38232694117E+01 -0.17159611538E+01  0.90278732732E+01  0.51100000000E-03 0.  1.
        -12    1    3    3    0    0  0.88758021145E+01 -0.71158960679E+01 -0.23163181974E+02  0.25805984561E+02  0.00000000000E+00 0.  1.
</event>
<event>
 7    1  0.1457722E-010  0.4778727E+02  0.7816164E-02  0.1312668E+00
        -11   -1    0    0    0    0  0.00000000000E+00  0.00000000000E+00  0.45593999997E+02  0.45594000000E+02  0.51100000000E-03 0. -1.
         11   -1    0    0    0    0 -0.00000000000E+00 -0.00000000000E+00 -0.45593999997E+02  0.45594000000E+02  0.51100000000E-03 0.  1.
    9900012    2    1    2    0    0  0.41550995802E+01 -0.37953737459E+00  0.43199701358E+02  0.47787273064E+02  0.20000009210E+02 0.  0.
        -12    1    1    2    0    0 -0.41550995802E+01  0.37953737459E+00 -0.43199701358E+02  0.43400726936E+02  0.00000000000E+00 0.  1.
         11    1    3    3    0    0  0.47422179225E+01 -0.11894988684E+01  0.27938435984E+01  0.56310834389E+01  0.51100000000E-03 0.  1.
        -11    1    3    3    0    0  0.32427386855E+01  0.13533468360E+01  0.36465699016E+02  0.36634602588E+02  0.51100000000E-03 0. -1.
         12    1    3    3    0    0 -0.38298570278E+01 -0.54338534223E+00  0.39401587437E+01  0.55215870372E+01  0.00000000000E+00 0. -1.
</event>
<event>
 7    1  0.1457722E-010  0.4778733E+02  0.7816164E-02  0.1312668E+00
        -11   -1    0    0    0    0  0.00000000000E+00  0.00000000000E+00  0.45593999997E+02  0.45594000000E+02  0.51100000000E-03 0.  1.
         11   -1    0    0    0    0 -0.00000000000E+00 -0.00000000000E+00 -0.45593999997E+02  0.45594000000E+02  0.51100000000E-03 0. -1.
    9900012    2    1    2    0    0 -0.24024712472E+02 -0.49167153580E+00 -0.36141247505E+02  0.47787328099E+02  0.20000260132E+02 0.  0.
        -12    1    1    2    0    0  0.24024712472E+02  0.49167153580E+00  0.36141247505E+02  0.43400671901E+02  0.00000000000E+00 0.  1.
         11    1    3    3    0    0 -0.87254433197E+01 -0.44847809212E+00 -0.80350282606E+00  0.87738310205E+01  0.51100000000E-03 0. -1.
        -11    1    3    3    0    0 -0.44007765499E+01  0.28401295552E+01 -0.10320278019E+02  0.11573301551E+02  0.51100000000E-03 0.  1.
         12    1    3    3    0    0 -0.10898492603E+02 -0.28833229989E+01 -0.25017466659E+02  0.27440195528E+02  0.00000000000E+00 0. -1.
</event>
<event>
 7    1  0.1457722E-010  0.4778727E+02  0.7816164E-02  0.1312668E+00
        -11   -1    0    0    0    0  0.00000000000E+00  0.00000000000E+00  0.45593999997E+02  0.45594000000E+02  0.51100000000E-03 0.  1.
         11   -1    0    0    0    0 -0.00000000000E+00 -0.00000000000E+00 -0.45593999997E+02  0.45594000000E+02  0.51100000000E-03 0. -1.
    9900012    2    1    2    0    0  0.30629723516E+02 -0.18023424144E+01 -0.30695191375E+02  0.47787272190E+02  0.20000005225E+02 0.  0.
        -12    1    1    2    0    0 -0.30629723516E+02  0.18023424144E+01  0.30695191375E+02  0.43400727810E+02  0.00000000000E+00 0.  1.
         11    1    3    3    0    0  0.13291463931E+02 -0.31750949051E+01 -0.17270119819E+02  0.22022744604E+02  0.51100000000E-03 0. -1.
        -11    1    3    3    0    0 -0.22865116193E+00  0.39495632999E+01 -0.96031267764E+00  0.40710603427E+01  0.51100000000E-03 0.  1.
         12    1    3    3    0    0  0.17566910747E+02 -0.25768108092E+01 -0.12464758878E+02  0.21693467243E+02  0.00000000000E+00 0. -1.
</event>
<event>
 7    1  0.1457722E-010  0.4778725E+02  0.7816164E-02  0.1312668E+00
        -11   -1    0    0    0    0  0.00000000000E+00  0.00000000000E+00  0.45593999997E+02  0.45594000000E+02  0.51100000000E-03 0.  1.
         11   -1    0    0    0    0 -0.00000000000E+00 -0.00000000000E+00 -0.45593999997E+02  0.45594000000E+02  0.51100000000E-03 0. -1.
    9900012    2    1    2    0    0 -0.19857302259E+02  0.24647557759E+02 -0.29695288285E+02  0.47787254582E+02  0.19999924941E+02 0.  0.
        -12    1    1    2    0    0  0.19857302259E+02 -0.24647557759E+02  0.29695288285E+02  0.43400745418E+02  0.00000000000E+00 0.  1.
         11    1    3    3    0    0 -0.30728048216E+01 -0.19985102432E+01 -0.32008946037E+01  0.48664051608E+01  0.51100000000E-03 0. -1.
        -11    1    3    3    0    0 -0.33312053509E+01  0.13923102793E+02 -0.16620722938E+02  0.21936229205E+02  0.51100000000E-03 0.  1.
        -12    1    3    3    0    0 -0.13453292086E+02  0.12722965209E+02 -0.98736707434E+01  0.20984620216E+02  0.00000000000E+00 0.  1.
</event>
<event>
 7    1  0.1457722E-010  0.4778727E+02  0.7816164E-02  0.1312668E+00
        -11   -1    0    0    0    0  0.00000000000E+00  0.00000000000E+00  0.45593999997E+02  0.45594000000E+02  0.51100000000E-03 0.  1.
         11   -1    0    0    0    0 -0.00000000000E+00 -0.00000000000E+00 -0.45593999997E+02  0.45594000000E+02  0.51100000000E-03 0. -1.
    9900012    2    1    2    0    0  0.34196920386E+02  0.12008227760E+02 -0.23874591807E+02  0.47787273833E+02  0.20000012715E+02 0.  0.
        -12    1    1    2    0    0 -0.34196920386E+02 -0.12008227760E+02  0.23874591807E+02  0.43400726167E+02  0.00000000000E+00 0.  1.
         11    1    3    3    0    0  0.89264067917E+01  0.33936103544E+01  0.15775815078E+01  0.96791576661E+01  0.51100000000E-03 0.  1.
        -11    1    3    3    0    0  0.13185097097E+02  0.44350283971E+01 -0.67760950111E+01  0.15473581557E+02  0.51100000000E-03 0. -1.
        -12    1    3    3    0    0  0.12085416497E+02  0.41795890086E+01 -0.18676078304E+02  0.22634534610E+02  0.00000000000E+00 0.  1.
</event>
<event>
 7    1  0.1457722E-010  0.4778727E+02  0.7816164E-02  0.1312668E+00
        -11   -1    0    0    0    0  0.00000000000E+00  0.00000000000E+00  0.45593999997E+02  0.45594000000E+02  0.51100000000E-03 0.  1.
         11   -1    0    0    0    0 -0.00000000000E+00 -0.00000000000E+00 -0.45593999997E+02  0.45594000000E+02  0.51100000000E-03 0. -1.
    9900012    2    1    2    0    0  0.16538341326E+02  0.22191218733E+02 -0.33431369874E+02  0.47787269426E+02  0.19999992621E+02 0.  0.
        -12    1    1    2    0    0 -0.16538341326E+02 -0.22191218733E+02  0.33431369874E+02  0.43400730574E+02  0.00000000000E+00 0.  1.
         11    1    3    3    0    0  0.15276221327E+02  0.61505445144E+01 -0.19837047821E+02  0.25781788192E+02  0.51100000000E-03 0. -1.
        -11    1    3    3    0    0  0.29017194914E+01  0.13575983667E+02 -0.90156886431E+01  0.16553245920E+02  0.51100000000E-03 0.  1.
         12    1    3    3    0    0 -0.16395994924E+01  0.24646905522E+01 -0.45786334099E+01  0.54522353137E+01  0.00000000000E+00 0. -1.
</event>
<event>
 7    1  0.1457722E-010  0.4778730E+02  0.7816164E-02  0.1312668E+00
        -11   -1    0    0    0    0  0.00000000000E+00  0.00000000000E+00  0.45593999997E+02  0.45594000000E+02  0.51100000000E-03 0.  1.
         11   -1    0    0    0    0 -0.00000000000E+00 -0.00000000000E+00 -0.45593999997E+02  0.45594000000E+02  0.51100000000E-03 0. -1.
    9900012    2    1    2    0    0  0.40845664222E+02  0.72830828958E+01 -0.12736142011E+02  0.47787298444E+02  0.20000124927E+02 0.  0.
        -12    1    1    2    0    0 -0.40845664222E+02 -0.72830828958E+01  0.12736142011E+02  0.43400701556E+02  0.00000000000E+00 0.  1.
         11    1    3    3    0    0  0.47702485826E+01  0.12004009848E+01  0.17634043877E+01  0.52254980012E+01  0.51100000000E-03 0. -1.
        -11    1    3    3    0    0  0.16887397292E+01  0.11801178144E+01  0.30226503508E+01  0.36579960816E+01  0.51100000000E-03 0.  1.
         12    1    3    3    0    0  0.34386675910E+02  0.49025640965E+01 -0.17522196750E+02  0.38903804362E+02  0.00000000000E+00 0. -1.
</event>
<event>
 7    1  0.1457722E-010  0.4778728E+02  0.7816164E-02  0.1312668E+00
        -11   -1    0    0    0    0  0.00000000000E+00  0.00000000000E+00  0.45593999997E+02  0.45594000000E+02  0.51100000000E-03 0.  1.
         11   -1    0    0    0    0 -0.00000000000E+00 -0.00000000000E+00 -0.45593999997E+02  0.45594000000E+02  0.51100000000E-03 0. -1.
    9900012    2    1    2    0    0 -0.11076749663E+02  0.41263724798E+02 -0.76310747682E+01  0.47787278009E+02  0.20000031752E+02 0.  0.
        -12    1    1    2    0    0  0.11076749663E+02 -0.41263724798E+02  0.76310747682E+01  0.43400721991E+02  0.00000000000E+00 0.  1.
         11    1    3    3    0    0 -0.65510104147E+01  0.13649619490E+02 -0.13999838595E+01  0.15204861220E+02  0.51100000000E-03 0. -1.
        -11    1    3    3    0    0  0.41137430498E+01  0.18407671458E+02 -0.91619500722E+00  0.18883979029E+02  0.51100000000E-03 0.  1.
        -12    1    3    3    0    0 -0.86394822982E+01  0.92064338496E+01 -0.53148959015E+01  0.13698437760E+02  0.00000000000E+00 0.  1.
</event>
<event>
 7    1  0.1457722E-010  0.4778728E+02  0.7816164E-02  0.1312668E+00
        -11   -1    0    0    0    0  0.00000000000E+00  0.00000000000E+00  0.45593999997E+02  0.45594000000E+02  0.51100000000E-03 0.  1.
         11   -1    0    0    0    0 -0.00000000000E+00 -0.00000000000E+00 -0.45593999997E+02  0.45594000000E+02  0.51100000000E-03 0. -1.
    9900012    2    1    2    0    0  0.19133478904E+02 -0.10863702263E+02 -0.37410056334E+02  0.47787281610E+02  0.20000048172E+02 0.  0.
        -12    1    1    2    0    0 -0.19133478904E+02  0.10863702263E+02  0.37410056334E+02  0.43400718390E+02  0.00000000000E+00 0.  1.
         11    1    3    3    0    0  0.59552443850E+01 -0.51593151812E+01 -0.15275426264E+02  0.17187847934E+02  0.51100000000E-03 0. -1.
        -11    1    3    3    0    0  0.50118158813E+01 -0.47729963697E+01  0.71102879927E-01  0.69213328668E+01  0.51100000000E-03 0.  1.
        -12    1    3    3    0    0  0.81664186380E+01 -0.93139071201E+00 -0.22205732951E+02  0.23678100809E+02  0.00000000000E+00 0.  1.
</event>
<event>
 7    1  0.1457722E-010  0.4778727E+02  0.7816164E-02  0.1312668E+00
        -11   -1    0    0    0    0  0.00000000000E+00  0.00000000000E+00  0.45593999997E+02  0.45594000000E+02  0.51100000000E-03 0. -1.
         11   -1    0    0    0    0 -0.00000000000E+00 -0.00000000000E+00 -0.45593999997E+02  0.45594000000E+02  0.51100000000E-03 0.  1.
    9900012    2    1    2    0    0 -0.19057460323E+02  0.26856646049E+02  0.28269371799E+02  0.47787267139E+02  0.19999982192E+02 0.  0.
        -12    1    1    2    0    0  0.19057460323E+02 -0.26856646049E+02 -0.28269371799E+02  0.43400732861E+02  0.00000000000E+00 0.  1.
         11    1    3    3    0    0 -0.68832856398E+01  0.54236890277E+01  0.12767273392E+02  0.15485454271E+02  0.51100000000E-03 0. -1.
        -11    1    3    3    0    0 -0.53164425574E+01  0.76728632333E+01 -0.14160468606E+01  0.94415348666E+01  0.51100000000E-03 0.  1.
         12    1    3    3    0    0 -0.68577321258E+01  0.13760093788E+02  0.16918145268E+02  0.22860278001E+02  0.00000000000E+00 0. -1.
</event>
<event>
 7    1  0.1457722E-010  0.4778730E+02  0.7816164E-02  0.1312668E+00
        -11   -1    0    0    0    0  0.00000000000E+00  0.00000000000E+00  0.45593999997E+02  0.45594000000E+02  0.51100000000E-03 0. -1.
         11   -1    0    0    0    0 -0.00000000000E+00 -0.00000000000E+00 -0.45593999997E+02  0.45594000000E+02  0.51100000000E-03 0.  1.
    9900012    2    1    2    0    0 -0.66430473197E+01  0.12555164430E+02  0.41010468386E+02  0.47787300135E+02  0.20000132635E+02 0.  0.
        -12    1    1    2    0    0  0.66430473197E+01 -0.12555164430E+02 -0.41010468386E+02  0.43400699865E+02  0.00000000000E+00 0.  1.
         11    1    3    3    0    0 -0.27842437086E+01  0.11368434995E+02  0.15781502682E+02  0.19648133612E+02  0.51100000000E-03 0. -1.
        -11    1    3    3    0    0 -0.80530877693E+01 -0.22536169128E-01  0.17464814919E+02  0.19232069335E+02  0.51100000000E-03 0.  1.
         12    1    3    3    0    0  0.41942841582E+01  0.12092656035E+01  0.77641507854E+01  0.89070971881E+01  0.00000000000E+00 0. -1.
</event>
<event>
 7    1  0.1457722E-010  0.4778725E+02  0.7816164E-02  0.1312668E+00
        -11   -1    0    0    0    0  0.00000000000E+00  0.00000000000E+00  0.45593999997E+02  0.45594000000E+02  0.51100000000E-03 0. -1.
         11   -1    0    0    0    0 -0.00000000000E+00 -0.00000000000E+00 -0.45593999997E+02  0.45594000000E+02  0.51100000000E-03 0.  1.
    9900012    2    1    2    0    0  0.16680920855E+02 -0.38205078763E+02  0.12072446783E+02  0.47787249601E+02  0.19999902230E+02 0.  0.
        -12    1    1    2    0    0 -0.16680920855E+02  0.38205078763E+02 -0.12072446783E+02  0.43400750399E+02  0.00000000000E+00 0.  1.
         11    1    3    3    0    0  0.54758463939E+00 -0.11820392310E+02  0.15985772277E+01  0.11940559983E+02  0.51100000000E-03 0. -1.
        -11    1    3    3    0    0  0.29375644475E+01 -0.18806267977E+02  0.65764592700E+01  0.20138391616E+02  0.51100000000E-03 0.  1.
        -12    1    3    3    0    0  0.13195771768E+02 -0.75784184761E+01  0.38974102857E+01  0.15708298001E+02  0.00000000000E+00 0.  1.
</event>
<event>
 7    1  0.1457722E-010  0.4778727E+02  0.7816164E-02  0.1312668E+00
        -11   -1    0    0    0    0  0.00000000000E+00  0.00000000000E+00  0.45593999997E+02  0.45594000000E+02  0.51100000000E-03 0.  1.
         11   -1    0    0    0    0 -0.00000000000E+00 -0.00000000000E+00 -0.45593999997E+02  0.45594000000E+02  0.51100000000E-03 0. -1.
    9900012    2    1    2    0    0  0.25150735749E+02 -0.21355108387E+02 -0.28196152059E+02  0.47787272427E+02  0.20000006303E+02 0.  0.
        -12    1    1    2    0    0 -0.25150735749E+02  0.21355108387E+02  0.28196152059E+02  0.43400727573E+02  0.00000000000E+00 0.  1.
         11    1    3    3    0    0  0.10410540622E+02 -0.16005367182E+02 -0.11552590651E+02  0.22316215756E+02  0.51100000000E-03 0. -1.
        -11    1    3    3    0    0  0.80941918198E+00 -0.11758514573E+01 -0.88642640683E+01  0.89784722417E+01  0.51100000000E-03 0.  1.
         12    1    3    3    0    0  0.13930775944E+02 -0.41738897480E+01 -0.77792973402E+01  0.16492584429E+02  0.00000000000E+00 0. -1.
</event>
<event>
 7    1  0.1457722E-010  0.4778727E+02  0.7816164E-02  0.1312668E+00
        -11   -1    0    0    0    0  0.00000000000E+00  0.00000000000E+00  0.45593999997E+02  0.45594000000E+02  0.51100000000E-03 0.  1.
         11   -1    0    0    0    0 -0.00000000000E+00 -0.00000000000E+00 -0.45593999997E+02  0.45594000000E+02  0.51100000000E-03 0. -1.
    9900012    2    1    2    0    0 -0.23796758939E+02 -0.29474393236E+02 -0.21180126711E+02  0.47787270050E+02  0.19999995468E+02 0.  0.
        -12    1    1    2    0    0  0.23796758939E+02  0.29474393236E+02  0.21180126711E+02  0.43400729950E+02  0.00000000000E+00 0.  1.
         11    1    3    3    0    0 -0.44482767254E+00 -0.13043827551E+01 -0.37606136031E+01  0.40051842608E+01  0.51100000000E-03 0. -1.
        -11    1    3    3    0    0  0.12165668211E+01  0.74364264322E+00  0.86109129977E+00  0.16656883558E+01  0.51100000000E-03 0.  1.
        -12    1    3    3    0    0 -0.24568498088E+02 -0.28913653124E+02 -0.18280604407E+02  0.42116397434E+02  0.00000000000E+00 0.  1.
</event>
<event>
 7    1  0.1457722E-010  0.4778727E+02  0.7816164E-02  0.1312668E+00
        -11   -1    0    0    0    0  0.00000000000E+00  0.00000000000E+00  0.45593999997E+02  0.45594000000E+02  0.51100000000E-03 0.  1.
         11   -1    0    0    0    0 -0.00000000000E+00 -0.00000000000E+00 -0.45593999997E+02  0.45594000000E+02  0.51100000000E-03 0. -1.
    9900012    2    1    2    0    0 -0.13824117733E+02 -0.80014098505E-01 -0.41140133903E+02  0.47787271309E+02  0.20000001208E+02 0.  0.
        -12    1    1    2    0    0  0.13824117733E+02  0.80014098505E-01  0.41140133903E+02  0.43400728691E+02  0.00000000000E+00 0.  1.
         11    1    3    3    0    0 -0.12055055708E+02  0.40313238250E+01 -0.34601856596E+02  0.36862778246E+02  0.51100000000E-03 0. -1.
        -11    1    3    3    0    0 -0.14655840781E+01 -0.33333306521E+00 -0.69512506695E+01  0.71118867928E+01  0.51100000000E-03 0.  1.
        -12    1    3    3    0    0 -0.30347794734E+00 -0.37780048583E+01  0.41297336261E+00  0.38126062703E+01  0.00000000000E+00 0.  1.
</event>
<event>
 7    1  0.1457722E-010  0.4778727E+02  0.7816164E-02  0.1312668E+00
        -11   -1    0    0    0    0  0.00000000000E+00  0.00000000000E+00  0.45593999997E+02  0.45594000000E+02  0.51100000000E-03 0.  1.
         11   -1    0    0    0    0 -0.00000000000E+00 -0.00000000000E+00 -0.45593999997E+02  0.45594000000E+02  0.51100000000E-03 0. -1.
    9900012    2    1    2    0    0  0.21193954603E+02  0.87436178977E+01 -0.36850904967E+02  0.47787265415E+02  0.19999974333E+02 0.  0.
        -12    1    1    2    0    0 -0.21193954603E+02 -0.87436178977E+01  0.36850904967E+02  0.43400734585E+02  0.00000000000E+00 0.  1.
         11    1    3    3    0    0  0.72860396817E+01  0.13360040036E+01 -0.22068656373E+02  0.23278678556E+02  0.51100000000E-03 0.  1.
        -11    1    3    3    0    0  0.11920779009E+02  0.21280529303E+00 -0.10595474376E+02  0.15950371023E+02  0.51100000000E-03 0. -1.
        -12    1    3    3    0    0  0.19871359122E+01  0.71948086011E+01 -0.41867742182E+01  0.85582158359E+01  0.00000000000E+00 0.  1.
</event>
<event>
 7    1  0.1457722E-010  0.4778727E+02  0.7816164E-02  0.1312668E+00
        -11   -1    0    0    0    0  0.00000000000E+00  0.00000000000E+00  0.45593999997E+02  0.45594000000E+02  0.51100000000E-03 0.  1.
         11   -1    0    0    0    0 -0.00000000000E+00 -0.00000000000E+00 -0.45593999997E+02  0.45594000000E+02  0.51100000000E-03 0. -1.
    9900012    2    1    2    0    0  0.13585353658E+02 -0.41015432821E+02  0.40982769330E+01  0.47787269161E+02  0.19999991414E+02 0.  0.
        -12    1    1    2    0    0 -0.13585353658E+02  0.41015432821E+02 -0.40982769330E+01  0.43400730839E+02  0.00000000000E+00 0.  1.
         11    1    3    3    0    0  0.43110313923E+01 -0.13159885939E+02  0.22456757724E+01  0.14028921894E+02  0.51100000000E-03 0. -1.
        -11    1    3    3    0    0  0.32659226807E+01 -0.23990241406E+02  0.67039863526E+01  0.25122527081E+02  0.51100000000E-03 0.  1.
         12    1    3    3    0    0  0.60083995847E+01 -0.38653054766E+01 -0.48513851920E+01  0.86358201856E+01  0.00000000000E+00 0. -1.
</event>
<event>
 7    1  0.1457722E-010  0.4778726E+02  0.7816164E-02  0.1312668E+00
        -11   -1    0    0    0    0  0.00000000000E+00  0.00000000000E+00  0.45593999997E+02  0.45594000000E+02  0.51100000000E-03 0.  1.
         11   -1    0    0    0    0 -0.00000000000E+00 -0.00000000000E+00 -0.45593999997E+02  0.45594000000E+02  0.51100000000E-03 0. -1.
    9900012    2    1    2    0    0  0.30176046229E+02 -0.10896258494E+02 -0.29228440349E+02  0.47787263365E+02  0.19999964989E+02 0.  0.
        -12    1    1    2    0    0 -0.30176046229E+02  0.10896258494E+02  0.29228440349E+02  0.43400736635E+02  0.00000000000E+00 0.  1.
         11    1    3    3    0    0 -0.15636449544E+01 -0.58874131904E+00 -0.34507158358E+01  0.38339329578E+01  0.51100000000E-03 0. -1.
        -11    1    3    3    0    0  0.15147628229E+02 -0.34064642986E+01 -0.19483086940E+02  0.24912754102E+02  0.51100000000E-03 0.  1.
         12    1    3    3    0    0  0.16592062954E+02 -0.69010528764E+01 -0.62946375739E+01  0.19040576306E+02  0.00000000000E+00 0. -1.
</event>
<event>
 7    1  0.1457722E-010  0.4778728E+02  0.7816164E-02  0.1312668E+00
        -11   -1    0    0    0    0  0.00000000000E+00  0.00000000000E+00  0.45593999997E+02  0.45594000000E+02  0.51100000000E-03 0.  1.
         11   -1    0    0    0    0 -0.00000000000E+00 -0.00000000000E+00 -0.45593999997E+02  0.45594000000E+02  0.51100000000E-03 0. -1.
    9900012    2    1    2    0    0  0.34414235833E+02  0.26391139345E+02  0.16706223359E+01  0.47787276010E+02  0.20000022641E+02 0.  0.
        -12    1    1    2    0    0 -0.34414235833E+02 -0.26391139345E+02 -0.16706223359E+01  0.43400723990E+02  0.00000000000E+00 0.  1.
         11    1    3    3    0    0 -0.21212049221E+01  0.91579037775E+00 -0.12556529736E+01  0.26296096647E+01  0.51100000000E-03 0. -1.
        -11    1    3    3    0    0  0.12817846436E+02  0.51735527658E+01  0.15224633722E+01  0.13906140027E+02  0.51100000000E-03 0.  1.
         12    1    3    3    0    0  0.23717594319E+02  0.20301796201E+02  0.14038119373E+01  0.31251526318E+02  0.00000000000E+00 0. -1.
</event>
<event>
 7    1  0.1457722E-010  0.4778727E+02  0.7816164E-02  0.1312668E+00
        -11   -1    0    0    0    0  0.00000000000E+00  0.00000000000E+00  0.45593999997E+02  0.45594000000E+02  0.51100000000E-03 0.  1.
         11   -1    0    0    0    0 -0.00000000000E+00 -0.00000000000E+00 -0.45593999997E+02  0.45594000000E+02  0.51100000000E-03 0. -1.
    9900012    2    1    2    0    0 -0.34617478024E+02  0.25182970594E+02 -0.71464364582E+01  0.47787270205E+02  0.19999996172E+02 0.  0.
        -12    1    1    2    0    0  0.34617478024E+02 -0.25182970594E+02  0.71464364582E+01  0.43400729795E+02  0.00000000000E+00 0.  1.
         11    1    3    3    0    0 -0.22678052197E+02  0.24134842607E+02 -0.24176644380E+01  0.33205869673E+02  0.51100000000E-03 0. -1.
        -11    1    3    3    0    0 -0.41581078970E+01  0.16577021487E+00  0.16545025197E+01  0.44782496465E+01  0.51100000000E-03 0.  1.
        -12    1    3    3    0    0 -0.77813179299E+01  0.88235777229E+00 -0.63832745399E+01  0.10103150886E+02  0.00000000000E+00 0.  1.
</event>
<event>
 7    1  0.1457722E-010  0.4778726E+02  0.7816164E-02  0.1312668E+00
        -11   -1    0    0    0    0  0.00000000000E+00  0.00000000000E+00  0.45593999997E+02  0.45594000000E+02  0.51100000000E-03 0. -1.
         11   -1    0    0    0    0 -0.00000000000E+00 -0.00000000000E+00 -0.45593999997E+02  0.45594000000E+02  0.51100000000E-03 0.  1.
    9900012    2    1    2    0    0 -0.35812137080E+02 -0.39725629845E+01  0.24193665001E+02  0.47787264464E+02  0.19999969997E+02 0.  0.
        -12    1    1    2    0    0  0.35812137080E+02  0.39725629845E+01 -0.24193665001E+02  0.43400735536E+02  0.00000000000E+00 0.  1.
         11    1    3    3    0    0 -0.38756936182E+01  0.39404683245E+01  0.33409574175E+01  0.64583502820E+01  0.51100000000E-03 0.  1.
        -11    1    3    3    0    0 -0.27729193885E+02 -0.44364662814E+01  0.11185721056E+02  0.30227649303E+02  0.51100000000E-03 0. -1.
         12    1    3    3    0    0 -0.42072495762E+01 -0.34765650276E+01  0.96669865271E+01  0.11101264878E+02  0.00000000000E+00 0. -1.
</event>
<event>
 7    1  0.1457722E-010  0.4778727E+02  0.7816164E-02  0.1312668E+00
        -11   -1    0    0    0    0  0.00000000000E+00  0.00000000000E+00  0.45593999997E+02  0.45594000000E+02  0.51100000000E-03 0.  1.
         11   -1    0    0    0    0 -0.00000000000E+00 -0.00000000000E+00 -0.45593999997E+02  0.45594000000E+02  0.51100000000E-03 0. -1.
    9900012    2    1    2    0    0  0.37465347634E+02  0.14419839808E+02  0.16493615042E+02  0.47787269700E+02  0.19999993871E+02 0.  0.
        -12    1    1    2    0    0 -0.37465347634E+02 -0.14419839808E+02 -0.16493615042E+02  0.43400730300E+02  0.00000000000E+00 0.  1.
         11    1    3    3    0    0  0.12539280031E+01  0.52971721268E+01  0.11927280849E+01  0.55726984956E+01  0.51100000000E-03 0. -1.
        -11    1    3    3    0    0  0.26123640537E+02  0.11817237035E+02  0.91531930570E+01  0.30097718010E+02  0.51100000000E-03 0.  1.
        -12    1    3    3    0    0  0.10087779094E+02 -0.26945693532E+01  0.61476938998E+01  0.12116853194E+02  0.00000000000E+00 0.  1.
</event>
<event>
 7    1  0.1457722E-010  0.4778728E+02  0.7816164E-02  0.1312668E+00
        -11   -1    0    0    0    0  0.00000000000E+00  0.00000000000E+00  0.45593999997E+02  0.45594000000E+02  0.51100000000E-03 0. -1.
         11   -1    0    0    0    0 -0.00000000000E+00 -0.00000000000E+00 -0.45593999997E+02  0.45594000000E+02  0.51100000000E-03 0.  1.
    9900012    2    1    2    0    0  0.23658106708E+02  0.97572630345E+01  0.35052995254E+02  0.47787277987E+02  0.20000031655E+02 0.  0.
        -12    1    1    2    0    0 -0.23658106708E+02 -0.97572630345E+01 -0.35052995254E+02  0.43400722013E+02  0.00000000000E+00 0.  1.
         11    1    3    3    0    0  0.11869899920E+01  0.15010768809E+00  0.13344336871E+02  0.13397865663E+02  0.51100000000E-03 0. -1.
        -11    1    3    3    0    0  0.58873492296E+01  0.56706091671E+01  0.21623035248E+01  0.84553087509E+01  0.51100000000E-03 0.  1.
        -12    1    3    3    0    0  0.16583767486E+02  0.39365461793E+01  0.19546354859E+02  0.25934103573E+02  0.00000000000E+00 0.  1.
</event>
<event>
 7    1  0.1457722E-010  0.4778726E+02  0.7816164E-02  0.1312668E+00
        -11   -1    0    0    0    0  0.00000000000E+00  0.00000000000E+00  0.45593999997E+02  0.45594000000E+02  0.51100000000E-03 0.  1.
         11   -1    0    0    0    0 -0.00000000000E+00 -0.00000000000E+00 -0.45593999997E+02  0.45594000000E+02  0.51100000000E-03 0. -1.
    9900012    2    1    2    0    0  0.33889110764E+02  0.27091408596E+02 -0.10991747003E+01  0.47787257690E+02  0.19999939110E+02 0.  0.
        -12    1    1    2    0    0 -0.33889110764E+02 -0.27091408596E+02  0.10991747003E+01  0.43400742310E+02  0.00000000000E+00 0.  1.
         11    1    3    3    0    0  0.88269431288E+01  0.55951671833E+00 -0.23858168550E+01  0.91607917935E+01  0.51100000000E-03 0.  1.
        -11    1    3    3    0    0  0.20067203512E+02  0.20612180096E+02 -0.42857690824E+01  0.29084745865E+02  0.51100000000E-03 0. -1.
        -12    1    3    3    0    0  0.49949641227E+01  0.59197117817E+01  0.55724112371E+01  0.95417200316E+01  0.00000000000E+00 0.  1.
</event>
<event>
 7    1  0.1457722E-010  0.4778726E+02  0.7816164E-02  0.1312668E+00
        -11   -1    0    0    0    0  0.00000000000E+00  0.00000000000E+00  0.45593999997E+02  0.45594000000E+02  0.51100000000E-03 0. -1.
         11   -1    0    0    0    0 -0.00000000000E+00 -0.00000000000E+00 -0.45593999997E+02  0.45594000000E+02  0.51100000000E-03 0.  1.
    9900012    2    1    2    0    0 -0.39402057114E+02 -0.15128882115E+01  0.18133202447E+02  0.47787263065E+02  0.19999963618E+02 0.  0.
        -12    1    1    2    0    0  0.39402057114E+02  0.15128882115E+01 -0.18133202447E+02  0.43400736935E+02  0.00000000000E+00 0.  1.
         11    1    3    3    0    0 -0.12830576587E+02  0.18161153866E+01  0.99994164475E+01  0.16367965671E+02  0.51100000000E-03 0. -1.
        -11    1    3    3    0    0 -0.22374771354E+02 -0.82351077238E+01  0.56548507534E+01  0.24503565652E+02  0.51100000000E-03 0.  1.
        -12    1    3    3    0    0 -0.41967091730E+01  0.49061041257E+01  0.24789352457E+01  0.69157317420E+01  0.00000000000E+00 0.  1.
</event>
<event>
 7    1  0.1457722E-010  0.4778727E+02  0.7816164E-02  0.1312668E+00
        -11   -1    0    0    0    0  0.00000000000E+00  0.00000000000E+00  0.45593999997E+02  0.45594000000E+02  0.51100000000E-03 0.  1.
         11   -1    0    0    0    0 -0.00000000000E+00 -0.00000000000E+00 -0.45593999997E+02  0.45594000000E+02  0.51100000000E-03 0. -1.
    9900012    2    1    2    0    0 -0.17545593486E+02  0.11375487152E+01 -0.39679737990E+02  0.47787268729E+02  0.19999989445E+02 0.  0.
        -12    1    1    2    0    0  0.17545593486E+02 -0.11375487152E+01  0.39679737990E+02  0.43400731271E+02  0.00000000000E+00 0.  1.
         11    1    3    3    0    0 -0.98524005581E+01  0.79791174538E+00 -0.17338146832E+02  0.19957900584E+02  0.51100000000E-03 0. -1.
        -11    1    3    3    0    0 -0.11135317451E+02  0.28793084694E+01 -0.11920710070E+02  0.16564692597E+02  0.51100000000E-03 0.  1.
        -12    1    3    3    0    0  0.34421245226E+01 -0.25396714996E+01 -0.10420881088E+02  0.11264675548E+02  0.00000000000E+00 0.  1.
</event>
<event>
 7    1  0.1457722E-010  0.4778727E+02  0.7816164E-02  0.1312668E+00
        -11   -1    0    0    0    0  0.00000000000E+00  0.00000000000E+00  0.45593999997E+02  0.45594000000E+02  0.51100000000E-03 0.  1.
         11   -1    0    0    0    0 -0.00000000000E+00 -0.00000000000E+00 -0.45593999997E+02  0.45594000000E+02  0.51100000000E-03 0. -1.
    9900012    2    1    2    0    0 -0.13017335025E+02 -0.32028851197E+02 -0.26235945999E+02  0.47787272096E+02  0.20000004794E+02 0.  0.
        -12    1    1    2    0    0  0.13017335025E+02  0.32028851197E+02  0.26235945999E+02  0.43400727904E+02  0.00000000000E+00 0.  1.
         11    1    3    3    0    0 -0.10115984027E+02 -0.15023285008E+02 -0.19551841509E+02  0.26651580290E+02  0.51100000000E-03 0. -1.
        -11    1    3    3    0    0 -0.42442479228E+01 -0.17106105560E+02 -0.79065069377E+01  0.19316970261E+02  0.51100000000E-03 0.  1.
        -12    1    3    3    0    0  0.13428969245E+01  0.10053937141E+00  0.12224024475E+01  0.18187215451E+01  0.00000000000E+00 0.  1.
</event>
<event>
 7    1  0.1457722E-010  0.4778727E+02  0.7816164E-02  0.1312668E+00
        -11   -1    0    0    0    0  0.00000000000E+00  0.00000000000E+00  0.45593999997E+02  0.45594000000E+02  0.51100000000E-03 0. -1.
         11   -1    0    0    0    0 -0.00000000000E+00 -0.00000000000E+00 -0.45593999997E+02  0.45594000000E+02  0.51100000000E-03 0.  1.
    9900012    2    1    2    0    0 -0.43353623913E+02 -0.13711232892E+01 -0.14854575708E+01  0.47787271093E+02  0.20000000222E+02 0.  0.
        -12    1    1    2    0    0  0.43353623913E+02  0.13711232892E+01  0.14854575708E+01  0.43400728907E+02  0.00000000000E+00 0.  1.
         11    1    3    3    0    0 -0.11694490373E+02 -0.45774094745E+01  0.19492451381E+01  0.12708789850E+02  0.51100000000E-03 0. -1.
        -11    1    3    3    0    0 -0.99646901120E+01 -0.54498464204E+01  0.60671402619E+00  0.11373828608E+02  0.51100000000E-03 0.  1.
        -12    1    3    3    0    0 -0.21694443428E+02  0.86561326057E+01 -0.40414167351E+01  0.23704652635E+02  0.00000000000E+00 0.  1.
</event>
<event>
 7    1  0.1457722E-010  0.4778727E+02  0.7816164E-02  0.1312668E+00
        -11   -1    0    0    0    0  0.00000000000E+00  0.00000000000E+00  0.45593999997E+02  0.45594000000E+02  0.51100000000E-03 0. -1.
         11   -1    0    0    0    0 -0.00000000000E+00 -0.00000000000E+00 -0.45593999997E+02  0.45594000000E+02  0.51100000000E-03 0.  1.
    9900012    2    1    2    0    0 -0.21400936220E+02  0.24557388294E+02  0.28680269711E+02  0.47787271186E+02  0.20000000644E+02 0.  0.
        -12    1    1    2    0    0  0.21400936220E+02 -0.24557388294E+02 -0.28680269711E+02  0.43400728814E+02  0.00000000000E+00 0.  1.
         11    1    3    3    0    0 -0.17468303784E+02  0.85233122869E+01  0.11199427016E+02  0.22432468772E+02  0.51100000000E-03 0. -1.
        -11    1    3    3    0    0  0.18509092143E+01  0.73058310369E+01  0.49117782642E+01  0.89959211889E+01  0.51100000000E-03 0.  1.
         12    1    3    3    0    0 -0.57835416497E+01  0.87282449699E+01  0.12569064431E+02  0.16358881225E+02  0.00000000000E+00 0. -1.
</event>
<event>
 7    1  0.1457722E-010  0.4778727E+02  0.7816164E-02  0.1312668E+00
        -11   -1    0    0    0    0  0.00000000000E+00  0.00000000000E+00  0.45593999997E+02  0.45594000000E+02  0.51100000000E-03 0. -1.
         11   -1    0    0    0    0 -0.00000000000E+00 -0.00000000000E+00 -0.45593999997E+02  0.45594000000E+02  0.51100000000E-03 0.  1.
    9900012    2    1    2    0    0 -0.20740051131E+01  0.43321009669E+02  0.16160874062E+01  0.47787272881E+02  0.20000008374E+02 0.  0.
        -12    1    1    2    0    0  0.20740051131E+01 -0.43321009669E+02 -0.16160874062E+01  0.43400727119E+02  0.00000000000E+00 0.  1.
         11    1    3    3    0    0 -0.77573816543E+00  0.29992872628E+02  0.14404527319E+01  0.30037461319E+02  0.51100000000E-03 0. -1.
        -11    1    3    3    0    0 -0.30192587619E+01  0.89885244134E+01 -0.50496557888E+01  0.10742835680E+02  0.51100000000E-03 0.  1.
        -12    1    3    3    0    0  0.17209918143E+01  0.43396126276E+01  0.52252904630E+01  0.70069758816E+01  0.00000000000E+00 0.  1.
</event>
<event>
 7    1  0.1457722E-010  0.4778726E+02  0.7816164E-02  0.1312668E+00
        -11   -1    0    0    0    0  0.00000000000E+00  0.00000000000E+00  0.45593999997E+02  0.45594000000E+02  0.51100000000E-03 0.  1.
         11   -1    0    0    0    0 -0.00000000000E+00 -0.00000000000E+00 -0.45593999997E+02  0.45594000000E+02  0.51100000000E-03 0. -1.
    9900012    2    1    2    0    0 -0.14681123601E+02 -0.39612948833E+02 -0.99450084947E+01  0.47787259230E+02  0.19999946133E+02 0.  0.
        -12    1    1    2    0    0  0.14681123601E+02  0.39612948833E+02  0.99450084947E+01  0.43400740770E+02  0.00000000000E+00 0.  1.
         11    1    3    3    0    0 -0.14875969411E+02 -0.37888840966E+02 -0.48123287126E+01  0.40988013413E+02  0.51100000000E-03 0. -1.
        -11    1    3    3    0    0 -0.17892255758E+01 -0.41232370829E+00 -0.33736766781E+01  0.38409677935E+01  0.51100000000E-03 0.  1.
         12    1    3    3    0    0  0.19840713857E+01 -0.13117841584E+01 -0.17590031041E+01  0.29582780231E+01  0.00000000000E+00 0. -1.
</event>
<event>
 7    1  0.1457722E-010  0.4778727E+02  0.7816164E-02  0.1312668E+00
        -11   -1    0    0    0    0  0.00000000000E+00  0.00000000000E+00  0.45593999997E+02  0.45594000000E+02  0.51100000000E-03 0.  1.
         11   -1    0    0    0    0 -0.00000000000E+00 -0.00000000000E+00 -0.45593999997E+02  0.45594000000E+02  0.51100000000E-03 0. -1.
    9900012    2    1    2    0    0  0.39340423883E+02 -0.86097595230E+01 -0.16181050425E+02  0.47787270707E+02  0.19999998460E+02 0.  0.
        -12    1    1    2    0    0 -0.39340423883E+02  0.86097595230E+01  0.16181050425E+02  0.43400729293E+02  0.00000000000E+00 0.  1.
         11    1    3    3    0    0  0.18369496248E+02 -0.15905636087E+01 -0.41608821410E+01  0.18901884177E+02  0.51100000000E-03 0. -1.
        -11    1    3    3    0    0  0.81125726461E+01 -0.43389639262E+01 -0.12758899217E+02  0.15729906306E+02  0.51100000000E-03 0.  1.
        -12    1    3    3    0    0  0.12858354989E+02 -0.26802319882E+01  0.73873093282E+00  0.13155480224E+02  0.00000000000E+00 0.  1.
</event>
<event>
 7    1  0.1457722E-010  0.4778728E+02  0.7816164E-02  0.1312668E+00
        -11   -1    0    0    0    0  0.00000000000E+00  0.00000000000E+00  0.45593999997E+02  0.45594000000E+02  0.51100000000E-03 0.  1.
         11   -1    0    0    0    0 -0.00000000000E+00 -0.00000000000E+00 -0.45593999997E+02  0.45594000000E+02  0.51100000000E-03 0. -1.
    9900012    2    1    2    0    0 -0.91338043336E+01  0.98722697738E+01 -0.41264204908E+02  0.47787277670E+02  0.20000030206E+02 0.  0.
        -12    1    1    2    0    0  0.91338043336E+01 -0.98722697738E+01  0.41264204908E+02  0.43400722330E+02  0.00000000000E+00 0.  1.
         11    1    3    3    0    0 -0.77623089293E+01  0.77035793623E+01 -0.34236475417E+02  0.35940712628E+02  0.51100000000E-03 0. -1.
        -11    1    3    3    0    0 -0.36376748365E+01 -0.22568766287E+01 -0.46976031952E+01  0.63555996077E+01  0.51100000000E-03 0.  1.
        -12    1    3    3    0    0  0.22661794322E+01  0.44255670402E+01 -0.23301262957E+01  0.54909654342E+01  0.00000000000E+00 0.  1.
</event>
<event>
 7    1  0.1457722E-010  0.4778726E+02  0.7816164E-02  0.1312668E+00
        -11   -1    0    0    0    0  0.00000000000E+00  0.00000000000E+00  0.45593999997E+02  0.45594000000E+02  0.51100000000E-03 0.  1.
         11   -1    0    0    0    0 -0.00000000000E+00 -0.00000000000E+00 -0.45593999997E+02  0.45594000000E+02  0.51100000000E-03 0. -1.
    9900012    2    1    2    0    0 -0.36335318903E+02 -0.23580975597E+02 -0.27029743189E+01  0.47787264060E+02  0.19999968157E+02 0.  0.
        -12    1    1    2    0    0  0.36335318903E+02  0.23580975597E+02  0.27029743189E+01  0.43400735940E+02  0.00000000000E+00 0.  1.
         11    1    3    3    0    0 -0.89796247088E+01 -0.70136351480E+01 -0.24796756917E+01  0.11660768830E+02  0.51100000000E-03 0. -1.
        -11    1    3    3    0    0 -0.60451014864E+01  0.65885080171E+00  0.54239265579E+01  0.81483934568E+01  0.51100000000E-03 0.  1.
        -12    1    3    3    0    0 -0.21310592708E+02 -0.17226191251E+02 -0.56472251851E+01  0.27978101774E+02  0.00000000000E+00 0.  1.
</event>
<event>
 7    1  0.1457722E-010  0.4778727E+02  0.7816164E-02  0.1312668E+00
        -11   -1    0    0    0    0  0.00000000000E+00  0.00000000000E+00  0.45593999997E+02  0.45594000000E+02  0.51100000000E-03 0. -1.
         11   -1    0    0    0    0 -0.00000000000E+00 -0.00000000000E+00 -0.45593999997E+02  0.45594000000E+02  0.51100000000E-03 0.  1.
    9900012    2    1    2    0    0  0.28179876673E+02  0.10814824054E+02  0.31185854212E+02  0.47787269919E+02  0.19999994869E+02 0.  0.
        -12    1    1    2    0    0 -0.28179876673E+02 -0.10814824054E+02 -0.31185854212E+02  0.43400730081E+02  0.00000000000E+00 0.  1.
         11    1    3    3    0    0  0.98216044972E+01 -0.51801160107E+00  0.16315277264E+01  0.99696606713E+01  0.51100000000E-03 0. -1.
        -11    1    3    3    0    0  0.38522817424E+01  0.73402004059E+01  0.79121705409E+01  0.11459540111E+02  0.51100000000E-03 0.  1.
        -12    1    3    3    0    0  0.14505990434E+02  0.39926352492E+01  0.21642155944E+02  0.26358069137E+02  0.00000000000E+00 0.  1.
</event>
<event>
 7    1  0.1457722E-010  0.4778728E+02  0.7816164E-02  0.1312668E+00
        -11   -1    0    0    0    0  0.00000000000E+00  0.00000000000E+00  0.45593999997E+02  0.45594000000E+02  0.51100000000E-03 0.  1.
         11   -1    0    0    0    0 -0.00000000000E+00 -0.00000000000E+00 -0.45593999997E+02  0.45594000000E+02  0.51100000000E-03 0. -1.
    9900012    2    1    2    0    0 -0.41288291877E+01  0.19398077286E+02 -0.38604276948E+02  0.47787276140E+02  0.20000023233E+02 0.  0.
        -12    1    1    2    0    0  0.41288291877E+01 -0.19398077286E+02  0.38604276948E+02  0.43400723860E+02  0.00000000000E+00 0.  1.
         11    1    3    3    0    0 -0.50456684270E+01  0.10848030850E+02 -0.25949962383E+02  0.28575148139E+02  0.51100000000E-03 0. -1.
        -11    1    3    3    0    0 -0.48039679563E+01  0.64971724546E+01 -0.91060834767E+01  0.12174239795E+02  0.51100000000E-03 0.  1.
        -12    1    3    3    0    0  0.57208071956E+01  0.20528739814E+01 -0.35482310883E+01  0.70378882066E+01  0.00000000000E+00 0.  1.
</event>
<event>
 7    1  0.1457722E-010  0.4778727E+02  0.7816164E-02  0.1312668E+00
        -11   -1    0    0    0    0  0.00000000000E+00  0.00000000000E+00  0.45593999997E+02  0.45594000000E+02  0.51100000000E-03 0.  1.
         11   -1    0    0    0    0 -0.00000000000E+00 -0.00000000000E+00 -0.45593999997E+02  0.45594000000E+02  0.51100000000E-03 0. -1.
    9900012    2    1    2    0    0 -0.14126962659E+02 -0.40565055640E+02 -0.62071500521E+01  0.47787268153E+02  0.19999986819E+02 0.  0.
        -12    1    1    2    0    0  0.14126962659E+02  0.40565055640E+02  0.62071500521E+01  0.43400731847E+02  0.00000000000E+00 0.  1.
         11    1    3    3    0    0 -0.10231755858E+02 -0.32437154516E+02 -0.20117327182E+01  0.34072054382E+02  0.51100000000E-03 0. -1.
        -11    1    3    3    0    0 -0.76353072812E+00 -0.83175202256E+01 -0.58218766084E+01  0.10181275430E+02  0.51100000000E-03 0.  1.
        -12    1    3    3    0    0 -0.31316760727E+01  0.18961910165E+00  0.16264592745E+01  0.35339383412E+01  0.00000000000E+00 0.  1.
</event>
<event>
 7    1  0.1457722E-010  0.4778728E+02  0.7816164E-02  0.1312668E+00
        -11   -1    0    0    0    0  0.00000000000E+00  0.00000000000E+00  0.45593999997E+02  0.45594000000E+02  0.51100000000E-03 0.  1.
         11   -1    0    0    0    0 -0.00000000000E+00 -0.00000000000E+00 -0.45593999997E+02  0.45594000000E+02  0.51100000000E-03 0. -1.
    9900012    2    1    2    0    0 -0.22781400941E+01 -0.21668782329E+02 -0.37535267848E+02  0.47787281316E+02  0.20000046830E+02 0.  0.
        -12    1    1    2    0    0  0.22781400941E+01  0.21668782329E+02  0.37535267848E+02  0.43400718684E+02  0.00000000000E+00 0.  1.
         11    1    3    3    0    0  0.50845346995E+01 -0.58538234373E+01 -0.13345276917E+02  0.15434252758E+02  0.51100000000E-03 0. -1.
        -11    1    3    3    0    0 -0.21129184597E+01 -0.85630042352E+01 -0.29446451801E+01  0.92984085438E+01  0.51100000000E-03 0.  1.
         12    1    3    3    0    0 -0.52497563340E+01 -0.72519546561E+01 -0.21245345751E+02  0.23054620013E+02  0.00000000000E+00 0. -1.
</event>
<event>
 7    1  0.1457722E-010  0.4778727E+02  0.7816164E-02  0.1312668E+00
        -11   -1    0    0    0    0  0.00000000000E+00  0.00000000000E+00  0.45593999997E+02  0.45594000000E+02  0.51100000000E-03 0.  1.
         11   -1    0    0    0    0 -0.00000000000E+00 -0.00000000000E+00 -0.45593999997E+02  0.45594000000E+02  0.51100000000E-03 0. -1.
    9900012    2    1    2    0    0 -0.37773611615E+02 -0.17833775994E+02 -0.11778536379E+02  0.47787271666E+02  0.20000002835E+02 0.  0.
        -12    1    1    2    0    0  0.37773611615E+02  0.17833775994E+02  0.11778536379E+02  0.43400728334E+02  0.00000000000E+00 0.  1.
         11    1    3    3    0    0 -0.22365826640E+02 -0.81122791227E+01 -0.11616392811E+02  0.26476024174E+02  0.51100000000E-03 0. -1.
        -11    1    3    3    0    0 -0.72796561187E+01  0.32581017535E+00  0.31985072798E+01  0.79580144858E+01  0.51100000000E-03 0.  1.
        -12    1    3    3    0    0 -0.81281288569E+01 -0.10047307047E+02 -0.33606508475E+01  0.13353233007E+02  0.00000000000E+00 0.  1.
</event>
<event>
 7    1  0.1457722E-010  0.4778727E+02  0.7816164E-02  0.1312668E+00
        -11   -1    0    0    0    0  0.00000000000E+00  0.00000000000E+00  0.45593999997E+02  0.45594000000E+02  0.51100000000E-03 0.  1.
         11   -1    0    0    0    0 -0.00000000000E+00 -0.00000000000E+00 -0.45593999997E+02  0.45594000000E+02  0.51100000000E-03 0. -1.
    9900012    2    1    2    0    0  0.38431241501E+02 -0.47080348821E+00 -0.20160392109E+02  0.47787269715E+02  0.19999993939E+02 0.  0.
        -12    1    1    2    0    0 -0.38431241501E+02  0.47080348821E+00  0.20160392109E+02  0.43400730285E+02  0.00000000000E+00 0.  1.
         11    1    3    3    0    0  0.23040229591E+02 -0.69408471134E+01 -0.14649359328E+02  0.28171461930E+02  0.51100000000E-03 0.  1.
        -11    1    3    3    0    0  0.15688904215E+02  0.38334883015E+01 -0.43987192888E+01  0.16738759801E+02  0.51100000000E-03 0. -1.
        -12    1    3    3    0    0 -0.29789230510E+00  0.26365553237E+01 -0.11123134922E+01  0.28770479845E+01  0.00000000000E+00 0.  1.
</event>
<event>
 7    1  0.1457722E-010  0.4778727E+02  0.7816164E-02  0.1312668E+00
        -11   -1    0    0    0    0  0.00000000000E+00  0.00000000000E+00  0.45593999997E+02  0.45594000000E+02  0.51100000000E-03 0.  1.
         11   -1    0    0    0    0 -0.00000000000E+00 -0.00000000000E+00 -0.45593999997E+02  0.45594000000E+02  0.51100000000E-03 0. -1.
    9900012    2    1    2    0    0  0.36640191516E+02  0.74623735158E+01 -0.22032533184E+02  0.47787272226E+02  0.20000005387E+02 0.  0.
        -12    1    1    2    0    0 -0.36640191516E+02 -0.74623735158E+01  0.22032533184E+02  0.43400727774E+02  0.00000000000E+00 0.  1.
         11    1    3    3    0    0  0.85056958101E+01  0.30247971891E+01 -0.10100434258E+02  0.13546772003E+02  0.51100000000E-03 0. -1.
        -11    1    3    3    0    0  0.16723699680E+01  0.10918436739E+01 -0.67886028494E+01  0.70763036132E+01  0.51100000000E-03 0.  1.
        -12    1    3    3    0    0  0.26462125738E+02  0.33457326529E+01 -0.51434960765E+01  0.27164196610E+02  0.00000000000E+00 0.  1.
</event>
<event>
 7    1  0.1457722E-010  0.4778727E+02  0.7816164E-02  0.1312668E+00
        -11   -1    0    0    0    0  0.00000000000E+00  0.00000000000E+00  0.45593999997E+02  0.45594000000E+02  0.51100000000E-03 0.  1.
         11   -1    0    0    0    0 -0.00000000000E+00 -0.00000000000E+00 -0.45593999997E+02  0.45594000000E+02  0.51100000000E-03 0. -1.
    9900012    2    1    2    0    0 -0.17579512080E+01  0.66099027579E+01 -0.42858395140E+02  0.47787271424E+02  0.20000001733E+02 0.  0.
        -12    1    1    2    0    0  0.17579512080E+01 -0.66099027579E+01  0.42858395140E+02  0.43400728576E+02  0.00000000000E+00 0.  1.
         11    1    3    3    0    0  0.21824318101E+01  0.68332437404E+01 -0.37671338040E+02  0.38348219497E+02  0.51100000000E-03 0. -1.
        -11    1    3    3    0    0  0.17459050067E+01  0.26314801543E+00 -0.59118466943E-01  0.17666143962E+01  0.51100000000E-03 0.  1.
        -12    1    3    3    0    0 -0.56862880249E+01 -0.48648899793E+00 -0.51279386335E+01  0.76724375316E+01  0.00000000000E+00 0.  1.
</event>
<event>
 7    1  0.1457722E-010  0.4778727E+02  0.7816164E-02  0.1312668E+00
        -11   -1    0    0    0    0  0.00000000000E+00  0.00000000000E+00  0.45593999997E+02  0.45594000000E+02  0.51100000000E-03 0. -1.
         11   -1    0    0    0    0 -0.00000000000E+00 -0.00000000000E+00 -0.45593999997E+02  0.45594000000E+02  0.51100000000E-03 0.  1.
    9900012    2    1    2    0    0  0.33835119641E+02  0.19797020199E+02 -0.18624865837E+02  0.47787274691E+02  0.20000016627E+02 0.  0.
        -12    1    1    2    0    0 -0.33835119641E+02 -0.19797020199E+02  0.18624865837E+02  0.43400725309E+02  0.00000000000E+00 0.  1.
         11    1    3    3    0    0  0.17909354117E+02  0.59893709531E+01 -0.18112541900E+02  0.26166423211E+02  0.51100000000E-03 0. -1.
        -11    1    3    3    0    0  0.42588697965E+01  0.22284147723E+01  0.15592332855E+01  0.50532180876E+01  0.51100000000E-03 0.  1.
         12    1    3    3    0    0  0.11666895727E+02  0.11579234473E+02 -0.20715572222E+01  0.16567633392E+02  0.00000000000E+00 0. -1.
</event>
<event>
 7    1  0.1457722E-010  0.4778727E+02  0.7816164E-02  0.1312668E+00
        -11   -1    0    0    0    0  0.00000000000E+00  0.00000000000E+00  0.45593999997E+02  0.45594000000E+02  0.51100000000E-03 0. -1.
         11   -1    0    0    0    0 -0.00000000000E+00 -0.00000000000E+00 -0.45593999997E+02  0.45594000000E+02  0.51100000000E-03 0.  1.
    9900012    2    1    2    0    0  0.12095700870E+02  0.31011398752E+02 -0.27849789299E+02  0.47787267332E+02  0.19999983072E+02 0.  0.
        -12    1    1    2    0    0 -0.12095700870E+02 -0.31011398752E+02  0.27849789299E+02  0.43400732668E+02  0.00000000000E+00 0.  1.
         11    1    3    3    0    0  0.74307476690E+01  0.18258064675E+02 -0.13142282902E+02  0.23691613215E+02  0.51100000000E-03 0. -1.
        -11    1    3    3    0    0  0.65957814250E+01  0.50893180503E+01 -0.13827560917E+02  0.16143324688E+02  0.51100000000E-03 0.  1.
        -12    1    3    3    0    0 -0.19308282235E+01  0.76640160267E+01 -0.87994548047E+00  0.79523294282E+01  0.00000000000E+00 0.  1.
</event>
<event>
 7    1  0.1457722E-010  0.4778726E+02  0.7816164E-02  0.1312668E+00
        -11   -1    0    0    0    0  0.00000000000E+00  0.00000000000E+00  0.45593999997E+02  0.45594000000E+02  0.51100000000E-03 0.  1.
         11   -1    0    0    0    0 -0.00000000000E+00 -0.00000000000E+00 -0.45593999997E+02  0.45594000000E+02  0.51100000000E-03 0. -1.
    9900012    2    1    2    0    0 -0.49209649977E+01 -0.58221695367E+01 -0.42725990711E+02  0.47787264559E+02  0.19999970429E+02 0.  0.
        -12    1    1    2    0    0  0.49209649977E+01  0.58221695367E+01  0.42725990711E+02  0.43400735441E+02  0.00000000000E+00 0.  1.
         11    1    3    3    0    0 -0.28229428495E+01  0.22688403188E+01 -0.35278667949E+02  0.35464081198E+02  0.51100000000E-03 0. -1.
        -11    1    3    3    0    0  0.13566528494E+01 -0.39603572921E+01 -0.19171715053E+01  0.46043982969E+01  0.51100000000E-03 0.  1.
        -12    1    3    3    0    0 -0.34546749976E+01 -0.41306525634E+01 -0.55301512566E+01  0.77187850637E+01  0.00000000000E+00 0.  1.
</event>
<event>
 7    1  0.1457722E-010  0.4778727E+02  0.7816164E-02  0.1312668E+00
        -11   -1    0    0    0    0  0.00000000000E+00  0.00000000000E+00  0.45593999997E+02  0.45594000000E+02  0.51100000000E-03 0. -1.
         11   -1    0    0    0    0 -0.00000000000E+00 -0.00000000000E+00 -0.45593999997E+02  0.45594000000E+02  0.51100000000E-03 0.  1.
    9900012    2    1    2    0    0 -0.25336709656E+02 -0.40736324917E+01  0.35001141351E+02  0.47787271507E+02  0.20000002109E+02 0.  0.
        -12    1    1    2    0    0  0.25336709656E+02  0.40736324917E+01 -0.35001141351E+02  0.43400728493E+02  0.00000000000E+00 0.  1.
         11    1    3    3    0    0  0.78139567151E-01 -0.33502125676E+00  0.81172598822E+01  0.81245463436E+01  0.51100000000E-03 0. -1.
        -11    1    3    3    0    0 -0.68448387990E+01 -0.54353001824E+01  0.15558746372E+02  0.17845696825E+02  0.51100000000E-03 0.  1.
        -12    1    3    3    0    0 -0.18570010424E+02  0.16966889475E+01  0.11325135096E+02  0.21817028338E+02  0.00000000000E+00 0.  1.
</event>
<event>
 7    1  0.1457722E-010  0.4778727E+02  0.7816164E-02  0.1312668E+00
        -11   -1    0    0    0    0  0.00000000000E+00  0.00000000000E+00  0.45593999997E+02  0.45594000000E+02  0.51100000000E-03 0.  1.
         11   -1    0    0    0    0 -0.00000000000E+00 -0.00000000000E+00 -0.45593999997E+02  0.45594000000E+02  0.51100000000E-03 0. -1.
    9900012    2    1    2    0    0 -0.17266562131E+01 -0.88106350934E+01 -0.42461922337E+02  0.47787268658E+02  0.19999989119E+02 0.  0.
        -12    1    1    2    0    0  0.17266562131E+01  0.88106350934E+01  0.42461922337E+02  0.43400731342E+02  0.00000000000E+00 0.  1.
         11    1    3    3    0    0 -0.71096914861E+01 -0.74988593531E+01 -0.19048909144E+02  0.21671214652E+02  0.51100000000E-03 0. -1.
        -11    1    3    3    0    0  0.39713849509E+01 -0.43591512267E+01 -0.61154049837E+01  0.84954267828E+01  0.51100000000E-03 0.  1.
         12    1    3    3    0    0  0.14116503220E+01  0.30473754864E+01 -0.17297608209E+02  0.17620627224E+02  0.00000000000E+00 0. -1.
</event>
<event>
 7    1  0.1457722E-010  0.4778727E+02  0.7816164E-02  0.1312668E+00
        -11   -1    0    0    0    0  0.00000000000E+00  0.00000000000E+00  0.45593999997E+02  0.45594000000E+02  0.51100000000E-03 0.  1.
         11   -1    0    0    0    0 -0.00000000000E+00 -0.00000000000E+00 -0.45593999997E+02  0.45594000000E+02  0.51100000000E-03 0. -1.
    9900012    2    1    2    0    0 -0.29004072087E+02 -0.29121540539E+02 -0.13939966748E+02  0.47787274269E+02  0.20000014703E+02 0.  0.
        -12    1    1    2    0    0  0.29004072087E+02  0.29121540539E+02  0.13939966748E+02  0.43400725731E+02  0.00000000000E+00 0.  1.
         11    1    3    3    0    0 -0.15335226296E+02 -0.12084972804E+02 -0.33269383076E+01  0.19806167019E+02  0.51100000000E-03 0. -1.
        -11    1    3    3    0    0 -0.15853888824E+02 -0.17110542011E+02 -0.10950746932E+02  0.25768882346E+02  0.51100000000E-03 0.  1.
        -12    1    3    3    0    0  0.21850430325E+01  0.73974275311E-01  0.33771849126E+00  0.22122249041E+01  0.00000000000E+00 0.  1.
</event>
<event>
 7    1  0.1521546E-010  0.4778727E+02  0.7816164E-02  0.1312668E+00
        -11   -1    0    0    0    0  0.00000000000E+00  0.00000000000E+00  0.45593999997E+02  0.45594000000E+02  0.51100000000E-03 0.  1.
         11   -1    0    0    0    0 -0.00000000000E+00 -0.00000000000E+00 -0.45593999997E+02  0.45594000000E+02  0.51100000000E-03 0. -1.
    9900012    2    1    2    0    0  0.29727000106E+02  0.19557987376E+02 -0.24847811808E+02  0.47787272389E+02  0.20000006131E+02 0.  0.
        -12    1    1    2    0    0 -0.29727000106E+02 -0.19557987376E+02  0.24847811808E+02  0.43400727611E+02  0.00000000000E+00 0.  1.
         11    1    3    3    0    0  0.12973585701E+02  0.12279317904E+02 -0.75962608930E+01  0.19411304797E+02  0.51100000000E-03 0. -1.
        -11    1    3    3    0    0  0.33821283792E+01 -0.19659978761E+01  0.89493386730E+00  0.40130844633E+01  0.51100000000E-03 0.  1.
        -12    1    3    3    0    0  0.13371286026E+02  0.92446673483E+01 -0.18146484782E+02  0.24362883129E+02  0.00000000000E+00 0.  1.
</event>
<event>
 7    1  0.1457722E-010  0.4778727E+02  0.7816164E-02  0.1312668E+00
        -11   -1    0    0    0    0  0.00000000000E+00  0.00000000000E+00  0.45593999997E+02  0.45594000000E+02  0.51100000000E-03 0. -1.
         11   -1    0    0    0    0 -0.00000000000E+00 -0.00000000000E+00 -0.45593999997E+02  0.45594000000E+02  0.51100000000E-03 0.  1.
    9900012    2    1    2    0    0  0.42864464806E+02 -0.36782652901E+01  0.57211413661E+01  0.47787269163E+02  0.19999991422E+02 0.  0.
        -12    1    1    2    0    0 -0.42864464806E+02  0.36782652901E+01 -0.57211413661E+01  0.43400730837E+02  0.00000000000E+00 0.  1.
         11    1    3    3    0    0  0.51275272084E+01  0.17700803694E+01  0.40152979439E+01  0.67488767677E+01  0.51100000000E-03 0. -1.
        -11    1    3    3    0    0  0.67106825345E+01  0.10394529474E+01  0.59872588153E+01  0.90532309642E+01  0.51100000000E-03 0.  1.
         12    1    3    3    0    0  0.31026255063E+02 -0.64877986068E+01 -0.42814153932E+01  0.31985161431E+02  0.00000000000E+00 0. -1.
</event>
<event>
 7    1  0.1457722E-010  0.4778727E+02  0.7816164E-02  0.1312668E+00
        -11   -1    0    0    0    0  0.00000000000E+00  0.00000000000E+00  0.45593999997E+02  0.45594000000E+02  0.51100000000E-03 0.  1.
         11   -1    0    0    0    0 -0.00000000000E+00 -0.00000000000E+00 -0.45593999997E+02  0.45594000000E+02  0.51100000000E-03 0. -1.
    9900012    2    1    2    0    0 -0.14507778517E+01  0.42002135237E+02 -0.10832319704E+02  0.47787271077E+02  0.20000000150E+02 0.  0.
        -12    1    1    2    0    0  0.14507778517E+01 -0.42002135237E+02  0.10832319704E+02  0.43400728923E+02  0.00000000000E+00 0.  1.
         11    1    3    3    0    0 -0.40504062285E+01  0.18585309352E+02 -0.11211371385E+02  0.22079727420E+02  0.51100000000E-03 0. -1.
        -11    1    3    3    0    0 -0.58015022718E-01  0.18299733833E+01 -0.31790560062E+01  0.36685917840E+01  0.51100000000E-03 0.  1.
        -12    1    3    3    0    0  0.26576433995E+01  0.21586852502E+02  0.35581076879E+01  0.22038951874E+02  0.00000000000E+00 0.  1.
</event>
<event>
 7    1  0.1457722E-010  0.4778727E+02  0.7816164E-02  0.1312668E+00
        -11   -1    0    0    0    0  0.00000000000E+00  0.00000000000E+00  0.45593999997E+02  0.45594000000E+02  0.51100000000E-03 0.  1.
         11   -1    0    0    0    0 -0.00000000000E+00 -0.00000000000E+00 -0.45593999997E+02  0.45594000000E+02  0.51100000000E-03 0. -1.
    9900012    2    1    2    0    0  0.39069100063E+02 -0.18734059795E+02 -0.25027047421E+01  0.47787272965E+02  0.20000008756E+02 0.  0.
        -12    1    1    2    0    0 -0.39069100063E+02  0.18734059795E+02  0.25027047421E+01  0.43400727035E+02  0.00000000000E+00 0.  1.
         11    1    3    3    0    0 -0.64510987318E+00 -0.33026509533E+01  0.74211628025E+00  0.34459261313E+01  0.51100000000E-03 0.  1.
        -11    1    3    3    0    0  0.37083254635E+02 -0.15268685163E+02  0.73211240543E-01  0.40103689121E+02  0.51100000000E-03 0. -1.
         12    1    3    3    0    0  0.26309553014E+01 -0.16272367881E+00 -0.33180322629E+01  0.42376577128E+01  0.00000000000E+00 0. -1.
</event>
<event>
 7    1  0.1457722E-010  0.4778727E+02  0.7816164E-02  0.1312668E+00
        -11   -1    0    0    0    0  0.00000000000E+00  0.00000000000E+00  0.45593999997E+02  0.45594000000E+02  0.51100000000E-03 0. -1.
         11   -1    0    0    0    0 -0.00000000000E+00 -0.00000000000E+00 -0.45593999997E+02  0.45594000000E+02  0.51100000000E-03 0.  1.
    9900012    2    1    2    0    0  0.43283223276E+02  0.17498146852E+01  0.26691006694E+01  0.47787269972E+02  0.19999995109E+02 0.  0.
        -12    1    1    2    0    0 -0.43283223276E+02 -0.17498146852E+01 -0.26691006694E+01  0.43400730028E+02  0.00000000000E+00 0.  1.
         11    1    3    3    0    0  0.23256046989E+02  0.14402404181E-01  0.44881878196E+01  0.23685180159E+02  0.51100000000E-03 0. -1.
        -11    1    3    3    0    0  0.19901939946E+02 -0.50587178533E+00  0.16428842022E+01  0.19976040364E+02  0.51100000000E-03 0.  1.
        -12    1    3    3    0    0  0.12523634118E+00  0.22412840663E+01 -0.34619713524E+01  0.41260494486E+01  0.00000000000E+00 0.  1.
</event>
<event>
 7    1  0.1457722E-010  0.4778727E+02  0.7816164E-02  0.1312668E+00
        -11   -1    0    0    0    0  0.00000000000E+00  0.00000000000E+00  0.45593999997E+02  0.45594000000E+02  0.51100000000E-03 0. -1.
         11   -1    0    0    0    0 -0.00000000000E+00 -0.00000000000E+00 -0.45593999997E+02  0.45594000000E+02  0.51100000000E-03 0.  1.
    9900012    2    1    2    0    0  0.37562457072E+02 -0.92959004218E+01 -0.19653789812E+02  0.47787269593E+02  0.19999993381E+02 0.  0.
        -12    1    1    2    0    0 -0.37562457072E+02  0.92959004218E+01  0.19653789812E+02  0.43400730407E+02  0.00000000000E+00 0.  1.
         11    1    3    3    0    0  0.33124794809E+02 -0.53631166451E+01 -0.11627702186E+02  0.35513638361E+02  0.51100000000E-03 0. -1.
        -11    1    3    3    0    0  0.56599592964E+01 -0.16686328503E+01 -0.76683014710E+01  0.96758628833E+01  0.51100000000E-03 0.  1.
        -12    1    3    3    0    0 -0.12222970337E+01 -0.22641509264E+01 -0.35778615540E+00  0.25977683478E+01  0.00000000000E+00 0.  1.
</event>
<event>
 7    1  0.1457722E-010  0.4778727E+02  0.7816164E-02  0.1312668E+00
        -11   -1    0    0    0    0  0.00000000000E+00  0.00000000000E+00  0.45593999997E+02  0.45594000000E+02  0.51100000000E-03 0. -1.
         11   -1    0    0    0    0 -0.00000000000E+00 -0.00000000000E+00 -0.45593999997E+02  0.45594000000E+02  0.51100000000E-03 0.  1.
    9900012    2    1    2    0    0  0.39821735170E+02  0.14339704834E+02 -0.96034146532E+01  0.47787270747E+02  0.19999998644E+02 0.  0.
        -12    1    1    2    0    0 -0.39821735170E+02 -0.14339704834E+02  0.96034146532E+01  0.43400729253E+02  0.00000000000E+00 0.  1.
         11    1    3    3    0    0  0.14930137249E+02  0.14768578115E+01  0.47997763174E+00  0.15010679067E+02  0.51100000000E-03 0. -1.
        -11    1    3    3    0    0  0.21283343051E+01  0.24194542824E+01  0.31022931443E+01  0.44730067017E+01  0.51100000000E-03 0.  1.
         12    1    3    3    0    0  0.22763263616E+02  0.10443392740E+02 -0.13185685429E+02  0.28303584978E+02  0.00000000000E+00 0. -1.
</event>
<event>
 7    1  0.1457722E-010  0.4778724E+02  0.7816164E-02  0.1312668E+00
        -11   -1    0    0    0    0  0.00000000000E+00  0.00000000000E+00  0.45593999997E+02  0.45594000000E+02  0.51100000000E-03 0.  1.
         11   -1    0    0    0    0 -0.00000000000E+00 -0.00000000000E+00 -0.45593999997E+02  0.45594000000E+02  0.51100000000E-03 0. -1.
    9900012    2    1    2    0    0  0.92323672553E+01  0.33926747105E+02 -0.25443378070E+02  0.47787236621E+02  0.19999843049E+02 0.  0.
        -12    1    1    2    0    0 -0.92323672553E+01 -0.33926747105E+02  0.25443378070E+02  0.43400763379E+02  0.00000000000E+00 0.  1.
         11    1    3    3    0    0  0.33660219852E+01  0.11529936207E+02 -0.57077054362E+01  0.13298399699E+02  0.51100000000E-03 0. -1.
        -11    1    3    3    0    0 -0.43632277422E+01  0.10257032070E+01 -0.20831599068E+01  0.49426085074E+01  0.51100000000E-03 0.  1.
        -12    1    3    3    0    0  0.10229573012E+02  0.21371107691E+02 -0.17652512727E+02  0.29546228415E+02  0.00000000000E+00 0.  1.
</event>
<event>
 7    1  0.1457722E-010  0.4778727E+02  0.7816164E-02  0.1312668E+00
        -11   -1    0    0    0    0  0.00000000000E+00  0.00000000000E+00  0.45593999997E+02  0.45594000000E+02  0.51100000000E-03 0.  1.
         11   -1    0    0    0    0 -0.00000000000E+00 -0.00000000000E+00 -0.45593999997E+02  0.45594000000E+02  0.51100000000E-03 0. -1.
    9900012    2    1    2    0    0  0.26933769349E+02  0.20731452844E+02 -0.26988923901E+02  0.47787273259E+02  0.20000010096E+02 0.  0.
        -12    1    1    2    0    0 -0.26933769349E+02 -0.20731452844E+02  0.26988923901E+02  0.43400726741E+02  0.00000000000E+00 0.  1.
         11    1    3    3    0    0  0.69385836026E+01  0.62004799340E+01 -0.12591585779E+02  0.15656881124E+02  0.51100000000E-03 0. -1.
        -11    1    3    3    0    0  0.21955973383E+02  0.13459985307E+02 -0.10866482127E+02  0.27952037596E+02  0.51100000000E-03 0.  1.
        -12    1    3    3    0    0 -0.19607876372E+01  0.10709876032E+01 -0.35308559944E+01  0.41783545395E+01  0.00000000000E+00 0.  1.
</event>
<event>
 7    1  0.1457722E-010  0.4778727E+02  0.7816164E-02  0.1312668E+00
        -11   -1    0    0    0    0  0.00000000000E+00  0.00000000000E+00  0.45593999997E+02  0.45594000000E+02  0.51100000000E-03 0. -1.
         11   -1    0    0    0    0 -0.00000000000E+00 -0.00000000000E+00 -0.45593999997E+02  0.45594000000E+02  0.51100000000E-03 0.  1.
    9900012    2    1    2    0    0 -0.35556146005E+02 -0.55456400700E+01  0.24261689561E+02  0.47787271632E+02  0.20000002680E+02 0.  0.
        -12    1    1    2    0    0  0.35556146005E+02  0.55456400700E+01 -0.24261689561E+02  0.43400728368E+02  0.00000000000E+00 0.  1.
         11    1    3    3    0    0 -0.12497941014E+02 -0.57414476078E+01  0.14475661365E+02  0.19967661917E+02  0.51100000000E-03 0. -1.
        -11    1    3    3    0    0  0.51874118966E+00  0.12342569488E+01  0.29659085027E+01  0.32540891422E+01  0.51100000000E-03 0.  1.
         12    1    3    3    0    0 -0.23576946181E+02 -0.10384494110E+01  0.68201196929E+01  0.24565520573E+02  0.00000000000E+00 0. -1.
</event>
<event>
 7    1  0.1457722E-010  0.4778729E+02  0.7816164E-02  0.1312668E+00
        -11   -1    0    0    0    0  0.00000000000E+00  0.00000000000E+00  0.45593999997E+02  0.45594000000E+02  0.51100000000E-03 0.  1.
         11   -1    0    0    0    0 -0.00000000000E+00 -0.00000000000E+00 -0.45593999997E+02  0.45594000000E+02  0.51100000000E-03 0. -1.
    9900012    2    1    2    0    0 -0.17846877567E+02 -0.34793259822E+02 -0.18829214862E+02  0.47787293782E+02  0.20000103669E+02 0.  0.
        -12    1    1    2    0    0  0.17846877567E+02  0.34793259822E+02  0.18829214862E+02  0.43400706218E+02  0.00000000000E+00 0.  1.
         11    1    3    3    0    0 -0.83850028139E+01 -0.87471861572E+01 -0.54042168700E+01  0.13267520420E+02  0.51100000000E-03 0. -1.
        -11    1    3    3    0    0 -0.21109650413E+01 -0.17567959234E+02 -0.91989252677E+00  0.17718226987E+02  0.51100000000E-03 0.  1.
        -12    1    3    3    0    0 -0.73509097117E+01 -0.84781144306E+01 -0.12505105465E+02  0.16801546375E+02  0.00000000000E+00 0.  1.
</event>
<event>
 7    1  0.1457722E-010  0.4778726E+02  0.7816164E-02  0.1312668E+00
        -11   -1    0    0    0    0  0.00000000000E+00  0.00000000000E+00  0.45593999997E+02  0.45594000000E+02  0.51100000000E-03 0.  1.
         11   -1    0    0    0    0 -0.00000000000E+00 -0.00000000000E+00 -0.45593999997E+02  0.45594000000E+02  0.51100000000E-03 0. -1.
    9900012    2    1    2    0    0 -0.13681467297E+02 -0.35388980759E+02 -0.21072763422E+02  0.47787264236E+02  0.19999968958E+02 0.  0.
        -12    1    1    2    0    0  0.13681467297E+02  0.35388980759E+02  0.21072763422E+02  0.43400735764E+02  0.00000000000E+00 0.  1.
         11    1    3    3    0    0 -0.12075322761E+02 -0.23595507946E+02 -0.59295079662E+01  0.27161010291E+02  0.51100000000E-03 0.  1.
        -11    1    3    3    0    0  0.22355336987E+01 -0.60228016999E+01 -0.42116153630E+01  0.76817612213E+01  0.51100000000E-03 0. -1.
        -12    1    3    3    0    0 -0.38416782348E+01 -0.57706711133E+01 -0.10931640093E+02  0.12944492724E+02  0.00000000000E+00 0.  1.
</event>
<event>
 7    1  0.1457722E-010  0.4778726E+02  0.7816164E-02  0.1312668E+00
        -11   -1    0    0    0    0  0.00000000000E+00  0.00000000000E+00  0.45593999997E+02  0.45594000000E+02  0.51100000000E-03 0.  1.
         11   -1    0    0    0    0 -0.00000000000E+00 -0.00000000000E+00 -0.45593999997E+02  0.45594000000E+02  0.51100000000E-03 0. -1.
    9900012    2    1    2    0    0 -0.90828162915E+00  0.19165829447E+02 -0.38929036726E+02  0.47787263896E+02  0.19999967407E+02 0.  0.
        -12    1    1    2    0    0  0.90828162915E+00 -0.19165829447E+02  0.38929036726E+02  0.43400736104E+02  0.00000000000E+00 0.  1.
         11    1    3    3    0    0  0.11102951343E+01  0.50858360452E+01 -0.18052597603E+02  0.18788154887E+02  0.51100000000E-03 0. -1.
        -11    1    3    3    0    0  0.22964706534E+01  0.10690963728E+01 -0.12885685993E+02  0.13132313135E+02  0.51100000000E-03 0.  1.
        -12    1    3    3    0    0 -0.43150474169E+01  0.13010897029E+02 -0.79907531307E+01  0.15866795874E+02  0.00000000000E+00 0.  1.
</event>
<event>
 7    1  0.1457722E-010  0.4778728E+02  0.7816164E-02  0.1312668E+00
        -11   -1    0    0    0    0  0.00000000000E+00  0.00000000000E+00  0.45593999997E+02  0.45594000000E+02  0.51100000000E-03 0. -1.
         11   -1    0    0    0    0 -0.00000000000E+00 -0.00000000000E+00 -0.45593999997E+02  0.45594000000E+02  0.51100000000E-03 0.  1.
    9900012    2    1    2    0    0  0.18791321583E+02  0.38183509477E+02  0.85163805755E+01  0.47787275341E+02  0.20000019591E+02 0.  0.
        -12    1    1    2    0    0 -0.18791321583E+02 -0.38183509477E+02 -0.85163805755E+01  0.43400724659E+02  0.00000000000E+00 0.  1.
         11    1    3    3    0    0  0.37782137782E+01  0.60516730181E+01  0.79646210179E+01  0.10692653267E+02  0.51100000000E-03 0. -1.
        -11    1    3    3    0    0  0.14172269767E+02  0.25908878734E+02  0.42052261655E+01  0.29829635515E+02  0.51100000000E-03 0.  1.
        -12    1    3    3    0    0  0.84083803785E+00  0.62229577249E+01 -0.36534666078E+01  0.72649865593E+01  0.00000000000E+00 0.  1.
</event>
<event>
 7    1  0.1457722E-010  0.4778727E+02  0.7816164E-02  0.1312668E+00
        -11   -1    0    0    0    0  0.00000000000E+00  0.00000000000E+00  0.45593999997E+02  0.45594000000E+02  0.51100000000E-03 0.  1.
         11   -1    0    0    0    0 -0.00000000000E+00 -0.00000000000E+00 -0.45593999997E+02  0.45594000000E+02  0.51100000000E-03 0. -1.
    9900012    2    1    2    0    0 -0.72094402154E+01  0.35962100363E+02 -0.23202906840E+02  0.47787267558E+02  0.19999984102E+02 0.  0.
        -12    1    1    2    0    0  0.72094402154E+01 -0.35962100363E+02  0.23202906840E+02  0.43400732442E+02  0.00000000000E+00 0.  1.
         11    1    3    3    0    0 -0.96614783386E+01  0.32469132297E+02 -0.13282253960E+02  0.36386906798E+02  0.51100000000E-03 0. -1.
        -11    1    3    3    0    0  0.20397141716E+01  0.24202311675E+01 -0.29210133845E+01  0.43070027002E+01  0.51100000000E-03 0.  1.
        -12    1    3    3    0    0  0.41232395156E+00  0.10727368984E+01 -0.69996394952E+01  0.70933580593E+01  0.00000000000E+00 0.  1.
</event>
<event>
 7    1  0.1457722E-010  0.4778727E+02  0.7816164E-02  0.1312668E+00
        -11   -1    0    0    0    0  0.00000000000E+00  0.00000000000E+00  0.45593999997E+02  0.45594000000E+02  0.51100000000E-03 0. -1.
         11   -1    0    0    0    0 -0.00000000000E+00 -0.00000000000E+00 -0.45593999997E+02  0.45594000000E+02  0.51100000000E-03 0.  1.
    9900012    2    1    2    0    0  0.34080202592E+02 -0.24302015011E+02 -0.11470620720E+02  0.47787270951E+02  0.19999999573E+02 0.  0.
        -12    1    1    2    0    0 -0.34080202592E+02  0.24302015011E+02  0.11470620720E+02  0.43400729049E+02  0.00000000000E+00 0.  1.
         11    1    3    3    0    0  0.36517158407E+01 -0.31336847034E+01  0.36119198892E+01  0.60167245199E+01  0.51100000000E-03 0. -1.
        -11    1    3    3    0    0  0.10973249520E+02 -0.16382236691E+01 -0.66842163469E+01  0.12952788512E+02  0.51100000000E-03 0.  1.
        -12    1    3    3    0    0  0.19455237232E+02 -0.19530106638E+02 -0.83983242623E+01  0.28817757919E+02  0.00000000000E+00 0.  1.
</event>
<event>
 7    1  0.1457722E-010  0.4778727E+02  0.7816164E-02  0.1312668E+00
        -11   -1    0    0    0    0  0.00000000000E+00  0.00000000000E+00  0.45593999997E+02  0.45594000000E+02  0.51100000000E-03 0. -1.
         11   -1    0    0    0    0 -0.00000000000E+00 -0.00000000000E+00 -0.45593999997E+02  0.45594000000E+02  0.51100000000E-03 0.  1.
    9900012    2    1    2    0    0  0.10440922217E+02 -0.38603570947E+02  0.16863410050E+02  0.47787272528E+02  0.20000006762E+02 0.  0.
        -12    1    1    2    0    0 -0.10440922217E+02  0.38603570947E+02 -0.16863410050E+02  0.43400727472E+02  0.00000000000E+00 0.  1.
         11    1    3    3    0    0  0.62984428953E+01 -0.94950987739E+01  0.23815549383E+01  0.11640407545E+02  0.51100000000E-03 0. -1.
        -11    1    3    3    0    0 -0.23885837963E+01 -0.15094576894E+01  0.58573791271E+01  0.65032826763E+01  0.51100000000E-03 0.  1.
         12    1    3    3    0    0  0.65310631181E+01 -0.27599014484E+02  0.86244759849E+01  0.29643582306E+02  0.00000000000E+00 0. -1.
</event>
<event>
 7    1  0.1457722E-010  0.4778728E+02  0.7816164E-02  0.1312668E+00
        -11   -1    0    0    0    0  0.00000000000E+00  0.00000000000E+00  0.45593999997E+02  0.45594000000E+02  0.51100000000E-03 0. -1.
         11   -1    0    0    0    0 -0.00000000000E+00 -0.00000000000E+00 -0.45593999997E+02  0.45594000000E+02  0.51100000000E-03 0.  1.
    9900012    2    1    2    0    0 -0.97221652740E+01 -0.19384380487E+02  0.37594513085E+02  0.47787284355E+02  0.20000060686E+02 0.  0.
        -12    1    1    2    0    0  0.97221652740E+01  0.19384380487E+02 -0.37594513085E+02  0.43400715645E+02  0.00000000000E+00 0.  1.
         11    1    3    3    0    0  0.35350517590E+00  0.13874174322E+01  0.61058055022E+00  0.15565031031E+01  0.51100000000E-03 0. -1.
        -11    1    3    3    0    0 -0.46655194804E+00  0.12729285989E+01 -0.70131286167E+00  0.15263872147E+01  0.51100000000E-03 0.  1.
         12    1    3    3    0    0 -0.96091185018E+01 -0.22044726518E+02  0.37685245396E+02  0.44704394037E+02  0.00000000000E+00 0. -1.
</event>
<event>
 7    1  0.1457722E-010  0.4778727E+02  0.7816164E-02  0.1312668E+00
        -11   -1    0    0    0    0  0.00000000000E+00  0.00000000000E+00  0.45593999997E+02  0.45594000000E+02  0.51100000000E-03 0.  1.
         11   -1    0    0    0    0 -0.00000000000E+00 -0.00000000000E+00 -0.45593999997E+02  0.45594000000E+02  0.51100000000E-03 0. -1.
    9900012    2    1    2    0    0 -0.34001866650E+01 -0.11299250748E+02 -0.41765880358E+02  0.47787273060E+02  0.20000009190E+02 0.  0.
        -12    1    1    2    0    0  0.34001866650E+01  0.11299250748E+02  0.41765880358E+02  0.43400726940E+02  0.00000000000E+00 0.  1.
         11    1    3    3    0    0 -0.63148322839E+01 -0.13415737020E+02 -0.28127600129E+02  0.31796556352E+02  0.51100000000E-03 0. -1.
        -11    1    3    3    0    0  0.85540066135E+00  0.31365498087E+00  0.85009860018E+00  0.12460969584E+01  0.51100000000E-03 0.  1.
         12    1    3    3    0    0  0.20592449575E+01  0.18028312911E+01 -0.14488378829E+02  0.14744619749E+02  0.00000000000E+00 0. -1.
</event>
<event>
 7    1  0.1457722E-010  0.4778727E+02  0.7816164E-02  0.1312668E+00
        -11   -1    0    0    0    0  0.00000000000E+00  0.00000000000E+00  0.45593999997E+02  0.45594000000E+02  0.51100000000E-03 0. -1.
         11   -1    0    0    0    0 -0.00000000000E+00 -0.00000000000E+00 -0.45593999997E+02  0.45594000000E+02  0.51100000000E-03 0.  1.
    9900012    2    1    2    0    0  0.19027053037E+02  0.32609214556E+02  0.21406395872E+02  0.47787269528E+02  0.19999993087E+02 0.  0.
        -12    1    1    2    0    0 -0.19027053037E+02 -0.32609214556E+02 -0.21406395872E+02  0.43400730472E+02  0.00000000000E+00 0.  1.
         11    1    3    3    0    0  0.38228603667E+01  0.35039614715E+01  0.11682853452E+02  0.12782060570E+02  0.51100000000E-03 0. -1.
        -11    1    3    3    0    0  0.65209330066E+01  0.77259667656E+01  0.40157146512E+00  0.10118023011E+02  0.51100000000E-03 0.  1.
         12    1    3    3    0    0  0.86832596640E+01  0.21379286319E+02  0.93219709544E+01  0.24887185948E+02  0.00000000000E+00 0. -1.
</event>
<event>
 7    1  0.1457722E-010  0.4778727E+02  0.7816164E-02  0.1312668E+00
        -11   -1    0    0    0    0  0.00000000000E+00  0.00000000000E+00  0.45593999997E+02  0.45594000000E+02  0.51100000000E-03 0.  1.
         11   -1    0    0    0    0 -0.00000000000E+00 -0.00000000000E+00 -0.45593999997E+02  0.45594000000E+02  0.51100000000E-03 0. -1.
    9900012    2    1    2    0    0 -0.32874708454E+02 -0.22815787459E+02 -0.16802288369E+02  0.47787268350E+02  0.19999987716E+02 0.  0.
        -12    1    1    2    0    0  0.32874708454E+02  0.22815787459E+02  0.16802288369E+02  0.43400731650E+02  0.00000000000E+00 0.  1.
         11    1    3    3    0    0 -0.66883678124E+01 -0.10651549527E+02 -0.99728055922E+01  0.16051374488E+02  0.51100000000E-03 0. -1.
        -11    1    3    3    0    0 -0.20576958692E+02 -0.13562958341E+02 -0.30591018100E+01  0.24833911736E+02  0.51100000000E-03 0.  1.
         12    1    3    3    0    0 -0.56093819497E+01  0.13987204082E+01 -0.37703809668E+01  0.69019821264E+01  0.00000000000E+00 0. -1.
</event>
<event>
 7    1  0.1457722E-010  0.4778727E+02  0.7816164E-02  0.1312668E+00
        -11   -1    0    0    0    0  0.00000000000E+00  0.00000000000E+00  0.45593999997E+02  0.45594000000E+02  0.51100000000E-03 0. -1.
         11   -1    0    0    0    0 -0.00000000000E+00 -0.00000000000E+00 -0.45593999997E+02  0.45594000000E+02  0.51100000000E-03 0.  1.
    9900012    2    1    2    0    0  0.42555923672E+02  0.22920354493E+01 -0.82075148649E+01  0.47787269979E+02  0.19999995141E+02 0.  0.
        -12    1    1    2    0    0 -0.42555923672E+02 -0.22920354493E+01  0.82075148649E+01  0.43400730021E+02  0.00000000000E+00 0.  1.
         11    1    3    3    0    0  0.11908734938E+02  0.17404335236E+01  0.15628020032E+01  0.12136285553E+02  0.51100000000E-03 0. -1.
        -11    1    3    3    0    0  0.23586838362E+02  0.90214973509E-01 -0.13979223055E+02  0.27418347145E+02  0.51100000000E-03 0.  1.
        -12    1    3    3    0    0  0.70603503727E+01  0.46138695223E+00  0.42089061872E+01  0.82326372808E+01  0.00000000000E+00 0.  1.
</event>
<event>
 7    1  0.1457722E-010  0.4778727E+02  0.7816164E-02  0.1312668E+00
        -11   -1    0    0    0    0  0.00000000000E+00  0.00000000000E+00  0.45593999997E+02  0.45594000000E+02  0.51100000000E-03 0.  1.
         11   -1    0    0    0    0 -0.00000000000E+00 -0.00000000000E+00 -0.45593999997E+02  0.45594000000E+02  0.51100000000E-03 0. -1.
    9900012    2    1    2    0    0 -0.32634350890E+01 -0.22816684277E+02 -0.36774615258E+02  0.47787269392E+02  0.19999992466E+02 0.  0.
        -12    1    1    2    0    0  0.32634350890E+01  0.22816684277E+02  0.36774615258E+02  0.43400730608E+02  0.00000000000E+00 0.  1.
         11    1    3    3    0    0  0.43460313776E+00  0.71366409651E+00  0.94234279963E-01  0.84087852311E+00  0.51100000000E-03 0.  1.
        -11    1    3    3    0    0 -0.21898877656E+01 -0.40396163432E+01 -0.21758444870E+02  0.22238345982E+02  0.51100000000E-03 0. -1.
         12    1    3    3    0    0 -0.15081504612E+01 -0.19490732030E+02 -0.15110404668E+02  0.24708044886E+02  0.00000000000E+00 0. -1.
</event>
<event>
 7    1  0.1457722E-010  0.4778727E+02  0.7816164E-02  0.1312668E+00
        -11   -1    0    0    0    0  0.00000000000E+00  0.00000000000E+00  0.45593999997E+02  0.45594000000E+02  0.51100000000E-03 0.  1.
         11   -1    0    0    0    0 -0.00000000000E+00 -0.00000000000E+00 -0.45593999997E+02  0.45594000000E+02  0.51100000000E-03 0. -1.
    9900012    2    1    2    0    0 -0.87254643980E+01 -0.31690222708E+02 -0.28341122845E+02  0.47787272030E+02  0.20000004492E+02 0.  0.
        -12    1    1    2    0    0  0.87254643980E+01  0.31690222708E+02  0.28341122845E+02  0.43400727970E+02  0.00000000000E+00 0.  1.
         11    1    3    3    0    0  0.26192361728E+01 -0.16035916793E+02 -0.11818045153E+02  0.20091720111E+02  0.51100000000E-03 0. -1.
        -11    1    3    3    0    0  0.13614900519E+01 -0.62115344461E+01 -0.40237337998E+01  0.75251079255E+01  0.51100000000E-03 0.  1.
        -12    1    3    3    0    0 -0.12706190623E+02 -0.94427714689E+01 -0.12499343892E+02  0.20170443993E+02  0.00000000000E+00 0.  1.
</event>
<event>
 7    1  0.1457722E-010  0.4778731E+02  0.7816164E-02  0.1312668E+00
        -11   -1    0    0    0    0  0.00000000000E+00  0.00000000000E+00  0.45593999997E+02  0.45594000000E+02  0.51100000000E-03 0. -1.
         11   -1    0    0    0    0 -0.00000000000E+00 -0.00000000000E+00 -0.45593999997E+02  0.45594000000E+02  0.51100000000E-03 0.  1.
    9900012    2    1    2    0    0  0.13135111578E+02  0.17052846903E+02  0.37686727637E+02  0.47787306645E+02  0.20000162318E+02 0.  0.
        -12    1    1    2    0    0 -0.13135111578E+02 -0.17052846903E+02 -0.37686727637E+02  0.43400693355E+02  0.00000000000E+00 0.  1.
         11    1    3    3    0    0  0.39268333182E+01  0.52179422046E+01  0.27070084733E+01  0.70692882170E+01  0.51100000000E-03 0.  1.
        -11    1    3    3    0    0  0.75616023848E+01  0.22625458230E+01  0.27053666389E+02  0.28181515389E+02  0.51100000000E-03 0. -1.
         12    1    3    3    0    0  0.16466758750E+01  0.95723588759E+01  0.79260527743E+01  0.12536503040E+02  0.00000000000E+00 0. -1.
</event>
<event>
 7    1  0.1457722E-010  0.4778722E+02  0.7816164E-02  0.1312668E+00
        -11   -1    0    0    0    0  0.00000000000E+00  0.00000000000E+00  0.45593999997E+02  0.45594000000E+02  0.51100000000E-03 0.  1.
         11   -1    0    0    0    0 -0.00000000000E+00 -0.00000000000E+00 -0.45593999997E+02  0.45594000000E+02  0.51100000000E-03 0. -1.
    9900012    2    1    2    0    0  0.22852927846E+02  0.30772211615E+02 -0.20357853258E+02  0.47787222264E+02  0.19999777591E+02 0.  0.
        -12    1    1    2    0    0 -0.22852927846E+02 -0.30772211615E+02  0.20357853258E+02  0.43400777736E+02  0.00000000000E+00 0.  1.
         11    1    3    3    0    0  0.24407000894E+01  0.28490974401E+01  0.19982259232E+01  0.42505623452E+01  0.51100000000E-03 0. -1.
        -11    1    3    3    0    0 -0.20070504347E+01  0.90514102534E+00 -0.82081388428E+00  0.23497377336E+01  0.51100000000E-03 0.  1.
         12    1    3    3    0    0  0.22419278191E+02  0.27017973149E+02 -0.21535265297E+02  0.41186922185E+02  0.00000000000E+00 0. -1.
</event>
<event>
 7    1  0.1457722E-010  0.4778726E+02  0.7816164E-02  0.1312668E+00
        -11   -1    0    0    0    0  0.00000000000E+00  0.00000000000E+00  0.45593999997E+02  0.45594000000E+02  0.51100000000E-03 0.  1.
         11   -1    0    0    0    0 -0.00000000000E+00 -0.00000000000E+00 -0.45593999997E+02  0.45594000000E+02  0.51100000000E-03 0. -1.
    9900012    2    1    2    0    0 -0.13468527742E+02 -0.38411378280E+02  0.15059508591E+02  0.47787262450E+02  0.19999960813E+02 0.  0.
        -12    1    1    2    0    0  0.13468527742E+02  0.38411378280E+02 -0.15059508591E+02  0.43400737550E+02  0.00000000000E+00 0.  1.
         11    1    3    3    0    0 -0.92853272408E+01 -0.23523096700E+02  0.10267882450E+02  0.27294372874E+02  0.51100000000E-03 0. -1.
        -11    1    3    3    0    0  0.16771785568E+01  0.32656339613E+00  0.37903817233E+01  0.41577115620E+01  0.51100000000E-03 0.  1.
         12    1    3    3    0    0 -0.58603790583E+01 -0.15214844976E+02  0.10012444183E+01  0.16335178014E+02  0.00000000000E+00 0. -1.
</event>
<event>
 7    1  0.1457722E-010  0.4778727E+02  0.7816164E-02  0.1312668E+00
        -11   -1    0    0    0    0  0.00000000000E+00  0.00000000000E+00  0.45593999997E+02  0.45594000000E+02  0.51100000000E-03 0.  1.
         11   -1    0    0    0    0 -0.00000000000E+00 -0.00000000000E+00 -0.45593999997E+02  0.45594000000E+02  0.51100000000E-03 0. -1.
    9900012    2    1    2    0    0 -0.19066539656E+02 -0.33926944740E+02  0.19210745505E+02  0.47787271243E+02  0.20000000904E+02 0.  0.
        -12    1    1    2    0    0  0.19066539656E+02  0.33926944740E+02 -0.19210745505E+02  0.43400728757E+02  0.00000000000E+00 0.  1.
         11    1    3    3    0    0 -0.36645202524E+01 -0.91712648494E+01 -0.31394872694E+01  0.10363261465E+02  0.51100000000E-03 0. -1.
        -11    1    3    3    0    0 -0.24743630139E+01 -0.54035928594E+01  0.84015445131E+01  0.10291124262E+02  0.51100000000E-03 0.  1.
         12    1    3    3    0    0 -0.12927656390E+02 -0.19352087031E+02  0.13948688261E+02  0.27132885515E+02  0.00000000000E+00 0. -1.
</event>
<event>
 7    1  0.1457722E-010  0.4778727E+02  0.7816164E-02  0.1312668E+00
        -11   -1    0    0    0    0  0.00000000000E+00  0.00000000000E+00  0.45593999997E+02  0.45594000000E+02  0.51100000000E-03 0.  1.
         11   -1    0    0    0    0 -0.00000000000E+00 -0.00000000000E+00 -0.45593999997E+02  0.45594000000E+02  0.51100000000E-03 0. -1.
    9900012    2    1    2    0    0 -0.39847920240E+02 -0.16516425706E+02 -0.47931939349E+01  0.47787265287E+02  0.19999973749E+02 0.  0.
        -12    1    1    2    0    0  0.39847920240E+02  0.16516425706E+02  0.47931939349E+01  0.43400734713E+02  0.00000000000E+00 0.  1.
         11    1    3    3    0    0 -0.17611917067E+02 -0.64801363663E+01 -0.37610787437E+01  0.19139422762E+02  0.51100000000E-03 0. -1.
        -11    1    3    3    0    0 -0.24021434315E+00 -0.28626416948E+00 -0.43449240922E+01  0.43609650002E+01  0.51100000000E-03 0.  1.
        -12    1    3    3    0    0 -0.21995788830E+02 -0.97500251701E+01  0.33128089010E+01  0.24286877525E+02  0.00000000000E+00 0.  1.
</event>
<event>
 7    1  0.1457722E-010  0.4778727E+02  0.7816164E-02  0.1312668E+00
        -11   -1    0    0    0    0  0.00000000000E+00  0.00000000000E+00  0.45593999997E+02  0.45594000000E+02  0.51100000000E-03 0.  1.
         11   -1    0    0    0    0 -0.00000000000E+00 -0.00000000000E+00 -0.45593999997E+02  0.45594000000E+02  0.51100000000E-03 0. -1.
    9900012    2    1    2    0    0  0.24421856394E+02  0.11497433606E+02 -0.33985367776E+02  0.47787271064E+02  0.20000000090E+02 0.  0.
        -12    1    1    2    0    0 -0.24421856394E+02 -0.11497433606E+02  0.33985367776E+02  0.43400728936E+02  0.00000000000E+00 0.  1.
         11    1    3    3    0    0  0.10930099502E+02 -0.46307216743E+00 -0.18736772314E+02  0.21696731274E+02  0.51100000000E-03 0. -1.
        -11    1    3    3    0    0 -0.55400926490E+00  0.20045683239E+01  0.10964273170E+01  0.23510366976E+01  0.51100000000E-03 0.  1.
         12    1    3    3    0    0  0.14045766157E+02  0.99559374496E+01 -0.16345022779E+02  0.23739503092E+02  0.00000000000E+00 0. -1.
</event>
<event>
 7    1  0.1457722E-010  0.4778728E+02  0.7816164E-02  0.1312668E+00
        -11   -1    0    0    0    0  0.00000000000E+00  0.00000000000E+00  0.45593999997E+02  0.45594000000E+02  0.51100000000E-03 0.  1.
         11   -1    0    0    0    0 -0.00000000000E+00 -0.00000000000E+00 -0.45593999997E+02  0.45594000000E+02  0.51100000000E-03 0. -1.
    9900012    2    1    2    0    0 -0.35944902820E+02 -0.24192190468E+02 -0.25147998944E+01  0.47787281839E+02  0.20000049218E+02 0.  0.
        -12    1    1    2    0    0  0.35944902820E+02  0.24192190468E+02  0.25147998944E+01  0.43400718161E+02  0.00000000000E+00 0.  1.
         11    1    3    3    0    0 -0.12458306271E+02 -0.16652939096E+02  0.23208429993E+01  0.20926444709E+02  0.51100000000E-03 0. -1.
        -11    1    3    3    0    0 -0.28730846009E+01  0.58895711327E+00 -0.36343605976E+01  0.46701244972E+01  0.51100000000E-03 0.  1.
        -12    1    3    3    0    0 -0.20613511948E+02 -0.81282084846E+01 -0.12012822961E+01  0.22190712633E+02  0.00000000000E+00 0.  1.
</event>
<event>
 7    1  0.1457722E-010  0.4778727E+02  0.7816164E-02  0.1312668E+00
        -11   -1    0    0    0    0  0.00000000000E+00  0.00000000000E+00  0.45593999997E+02  0.45594000000E+02  0.51100000000E-03 0.  1.
         11   -1    0    0    0    0 -0.00000000000E+00 -0.00000000000E+00 -0.45593999997E+02  0.45594000000E+02  0.51100000000E-03 0. -1.
    9900012    2    1    2    0    0 -0.31645964931E+01 -0.27680558643E+02 -0.33277550282E+02  0.47787270162E+02  0.19999995976E+02 0.  0.
        -12    1    1    2    0    0  0.31645964931E+01  0.27680558643E+02  0.33277550282E+02  0.43400729838E+02  0.00000000000E+00 0.  1.
         11    1    3    3    0    0  0.27820586288E+01 -0.80849682719E+01 -0.30591553847E+01  0.90810238465E+01  0.51100000000E-03 0. -1.
        -11    1    3    3    0    0 -0.81337709578E+01 -0.72953082480E+01 -0.93336390684E+01  0.14369988551E+02  0.51100000000E-03 0.  1.
        -12    1    3    3    0    0  0.21871158359E+01 -0.12300282123E+02 -0.20884755828E+02  0.24336257765E+02  0.00000000000E+00 0.  1.
</event>
<event>
 7    1  0.1457722E-010  0.4778727E+02  0.7816164E-02  0.1312668E+00
        -11   -1    0    0    0    0  0.00000000000E+00  0.00000000000E+00  0.45593999997E+02  0.45594000000E+02  0.51100000000E-03 0.  1.
         11   -1    0    0    0    0 -0.00000000000E+00 -0.00000000000E+00 -0.45593999997E+02  0.45594000000E+02  0.51100000000E-03 0. -1.
    9900012    2    1    2    0    0 -0.13987082257E+02  0.66477092838E+01 -0.40543715420E+02  0.47787269951E+02  0.19999995012E+02 0.  0.
        -12    1    1    2    0    0  0.13987082257E+02 -0.66477092838E+01  0.40543715420E+02  0.43400730049E+02  0.00000000000E+00 0.  1.
         11    1    3    3    0    0 -0.45393797818E+01  0.95820592918E+01 -0.18316798874E+02  0.21164284782E+02  0.51100000000E-03 0. -1.
        -11    1    3    3    0    0 -0.33383660915E+01 -0.13773162254E+01 -0.19365590412E+02  0.19699436043E+02  0.51100000000E-03 0.  1.
        -12    1    3    3    0    0 -0.61093363836E+01 -0.15570337826E+01 -0.28613261335E+01  0.69235491253E+01  0.00000000000E+00 0.  1.
</event>
<event>
 7    1  0.1457722E-010  0.4778726E+02  0.7816164E-02  0.1312668E+00
        -11   -1    0    0    0    0  0.00000000000E+00  0.00000000000E+00  0.45593999997E+02  0.45594000000E+02  0.51100000000E-03 0.  1.
         11   -1    0    0    0    0 -0.00000000000E+00 -0.00000000000E+00 -0.45593999997E+02  0.45594000000E+02  0.51100000000E-03 0. -1.
    9900012    2    1    2    0    0  0.29490451396E+02 -0.17162288840E+02 -0.26821515787E+02  0.47787255872E+02  0.19999930822E+02 0.  0.
        -12    1    1    2    0    0 -0.29490451396E+02  0.17162288840E+02  0.26821515787E+02  0.43400744128E+02  0.00000000000E+00 0.  1.
         11    1    3    3    0    0  0.45839933463E+01 -0.18142143507E+01  0.29797004231E+01  0.57604673059E+01  0.51100000000E-03 0.  1.
        -11    1    3    3    0    0  0.16993131414E+02 -0.91981629614E+01 -0.16754732865E+02  0.25575257393E+02  0.51100000000E-03 0. -1.
        -12    1    3    3    0    0  0.79133266363E+01 -0.61499115277E+01 -0.13046483345E+02  0.16451531173E+02  0.00000000000E+00 0.  1.
</event>
<event>
 7    1  0.1457722E-010  0.4778725E+02  0.7816164E-02  0.1312668E+00
        -11   -1    0    0    0    0  0.00000000000E+00  0.00000000000E+00  0.45593999997E+02  0.45594000000E+02  0.51100000000E-03 0.  1.
         11   -1    0    0    0    0 -0.00000000000E+00 -0.00000000000E+00 -0.45593999997E+02  0.45594000000E+02  0.51100000000E-03 0. -1.
    9900012    2    1    2    0    0 -0.15407303165E+02  0.28984705488E+02 -0.28392368559E+02  0.47787254207E+02  0.19999923229E+02 0.  0.
        -12    1    1    2    0    0  0.15407303165E+02 -0.28984705488E+02  0.28392368559E+02  0.43400745793E+02  0.00000000000E+00 0.  1.
         11    1    3    3    0    0 -0.11500754455E+02  0.25005351040E+02 -0.18544780776E+02  0.33188007291E+02  0.51100000000E-03 0. -1.
        -11    1    3    3    0    0 -0.55537860761E+01  0.31545640208E+01 -0.10783349161E+02  0.12533013737E+02  0.51100000000E-03 0.  1.
        -12    1    3    3    0    0  0.16472373665E+01  0.82479042769E+00  0.93576137833E+00  0.20662331786E+01  0.00000000000E+00 0.  1.
</event>
<event>
 7    1  0.1457722E-010  0.4778727E+02  0.7816164E-02  0.1312668E+00
        -11   -1    0    0    0    0  0.00000000000E+00  0.00000000000E+00  0.45593999997E+02  0.45594000000E+02  0.51100000000E-03 0. -1.
         11   -1    0    0    0    0 -0.00000000000E+00 -0.00000000000E+00 -0.45593999997E+02  0.45594000000E+02  0.51100000000E-03 0.  1.
    9900012    2    1    2    0    0 -0.38491537291E+02  0.12371522623E+02  0.15778793605E+02  0.47787270252E+02  0.19999996387E+02 0.  0.
        -12    1    1    2    0    0  0.38491537291E+02 -0.12371522623E+02 -0.15778793605E+02  0.43400729748E+02  0.00000000000E+00 0.  1.
         11    1    3    3    0    0 -0.17610363678E+02  0.38595284799E+01  0.16169764008E+02  0.24217393280E+02  0.51100000000E-03 0.  1.
        -11    1    3    3    0    0 -0.11683046756E+01 -0.13447684322E+00 -0.16283004243E+01  0.20085772002E+01  0.51100000000E-03 0. -1.
         12    1    3    3    0    0 -0.19712868938E+02  0.86464709866E+01  0.12373300218E+01  0.21561299772E+02  0.00000000000E+00 0. -1.
</event>
<event>
 7    1  0.1457722E-010  0.4778728E+02  0.7816164E-02  0.1312668E+00
        -11   -1    0    0    0    0  0.00000000000E+00  0.00000000000E+00  0.45593999997E+02  0.45594000000E+02  0.51100000000E-03 0.  1.
         11   -1    0    0    0    0 -0.00000000000E+00 -0.00000000000E+00 -0.45593999997E+02  0.45594000000E+02  0.51100000000E-03 0. -1.
    9900012    2    1    2    0    0  0.38468166393E+01 -0.37145709312E+02 -0.22113816980E+02  0.47787278578E+02  0.20000034346E+02 0.  0.
        -12    1    1    2    0    0 -0.38468166393E+01  0.37145709312E+02  0.22113816980E+02  0.43400721422E+02  0.00000000000E+00 0.  1.
         11    1    3    3    0    0  0.71846476884E+01 -0.33443962660E+02 -0.12086377166E+02  0.36279447544E+02  0.51100000000E-03 0. -1.
        -11    1    3    3    0    0 -0.50434156777E+00  0.40268111459E+00 -0.14207950773E+01  0.15605035757E+01  0.51100000000E-03 0.  1.
         12    1    3    3    0    0 -0.28334894813E+01 -0.41044277666E+01 -0.86066447370E+01  0.99473274582E+01  0.00000000000E+00 0. -1.
</event>
<event>
 7    1  0.1457722E-010  0.4778727E+02  0.7816164E-02  0.1312668E+00
        -11   -1    0    0    0    0  0.00000000000E+00  0.00000000000E+00  0.45593999997E+02  0.45594000000E+02  0.51100000000E-03 0.  1.
         11   -1    0    0    0    0 -0.00000000000E+00 -0.00000000000E+00 -0.45593999997E+02  0.45594000000E+02  0.51100000000E-03 0. -1.
    9900012    2    1    2    0    0  0.22619236955E+02  0.25110109059E+02 -0.27230050637E+02  0.47787272874E+02  0.20000008341E+02 0.  0.
        -12    1    1    2    0    0 -0.22619236955E+02 -0.25110109059E+02  0.27230050637E+02  0.43400727126E+02  0.00000000000E+00 0.  1.
         11    1    3    3    0    0  0.79626886355E+00  0.65835770091E+01 -0.74838437274E+01  0.99992723503E+01  0.51100000000E-03 0. -1.
        -11    1    3    3    0    0  0.18307532222E+02  0.61049425562E+01 -0.11363091564E+02  0.22395443952E+02  0.51100000000E-03 0.  1.
        -12    1    3    3    0    0  0.35154358696E+01  0.12421589494E+02 -0.83831153456E+01  0.15392556571E+02  0.00000000000E+00 0.  1.
</event>
<event>
 7    1  0.1457722E-010  0.4778727E+02  0.7816164E-02  0.1312668E+00
        -11   -1    0    0    0    0  0.00000000000E+00  0.00000000000E+00  0.45593999997E+02  0.45594000000E+02  0.51100000000E-03 0.  1.
         11   -1    0    0    0    0 -0.00000000000E+00 -0.00000000000E+00 -0.45593999997E+02  0.45594000000E+02  0.51100000000E-03 0. -1.
    9900012    2    1    2    0    0  0.62729111357E+01  0.23803544787E+02 -0.35744443282E+02  0.47787269774E+02  0.19999994210E+02 0.  0.
        -12    1    1    2    0    0 -0.62729111357E+01 -0.23803544787E+02  0.35744443282E+02  0.43400730226E+02  0.00000000000E+00 0.  1.
         11    1    3    3    0    0  0.29672510247E+01  0.70781497327E+01 -0.19969446124E+01  0.79304836125E+01  0.51100000000E-03 0. -1.
        -11    1    3    3    0    0 -0.23674395861E+01  0.14855844215E+02 -0.21627727031E+02  0.26345008148E+02  0.51100000000E-03 0.  1.
        -12    1    3    3    0    0  0.56730996971E+01  0.18695508394E+01 -0.12119771639E+02  0.13511778014E+02  0.00000000000E+00 0.  1.
</event>
<event>
 7    1  0.1457722E-010  0.4778728E+02  0.7816164E-02  0.1312668E+00
        -11   -1    0    0    0    0  0.00000000000E+00  0.00000000000E+00  0.45593999997E+02  0.45594000000E+02  0.51100000000E-03 0. -1.
         11   -1    0    0    0    0 -0.00000000000E+00 -0.00000000000E+00 -0.45593999997E+02  0.45594000000E+02  0.51100000000E-03 0.  1.
    9900012    2    1    2    0    0 -0.18304787631E+02  0.19333499778E+02  0.34274960321E+02  0.47787281470E+02  0.20000047534E+02 0.  0.
        -12    1    1    2    0    0  0.18304787631E+02 -0.19333499778E+02 -0.34274960321E+02  0.43400718530E+02  0.00000000000E+00 0.  1.
         11    1    3    3    0    0 -0.61519191527E+01 -0.61502058101E+00  0.87447822164E+01  0.10709602040E+02  0.51100000000E-03 0. -1.
        -11    1    3    3    0    0 -0.10448879886E+02  0.46229056068E+01  0.98465445033E+01  0.15083261783E+02  0.51100000000E-03 0.  1.
        -12    1    3    3    0    0 -0.17039885929E+01  0.15325614752E+02  0.15683633602E+02  0.21994417647E+02  0.00000000000E+00 0.  1.
</event>
<event>
 7    1  0.1457722E-010  0.4778727E+02  0.7816164E-02  0.1312668E+00
        -11   -1    0    0    0    0  0.00000000000E+00  0.00000000000E+00  0.45593999997E+02  0.45594000000E+02  0.51100000000E-03 0.  1.
         11   -1    0    0    0    0 -0.00000000000E+00 -0.00000000000E+00 -0.45593999997E+02  0.45594000000E+02  0.51100000000E-03 0. -1.
    9900012    2    1    2    0    0 -0.49767223486E+01  0.37541792872E+02 -0.21200692734E+02  0.47787270170E+02  0.19999996014E+02 0.  0.
        -12    1    1    2    0    0  0.49767223486E+01 -0.37541792872E+02  0.21200692734E+02  0.43400729830E+02  0.00000000000E+00 0.  1.
         11    1    3    3    0    0 -0.47550191275E+01  0.57810824561E+01 -0.11101428025E+02  0.13389280254E+02  0.51100000000E-03 0. -1.
        -11    1    3    3    0    0  0.37837850105E+01  0.93473296026E+01 -0.37743848487E+01  0.10767338620E+02  0.51100000000E-03 0.  1.
        -12    1    3    3    0    0 -0.40054882315E+01  0.22413380813E+02 -0.63248798601E+01  0.23630651296E+02  0.00000000000E+00 0.  1.
</event>
<event>
 7    1 -0.3577382E-010  0.4778727E+02  0.7816164E-02  0.1312668E+00
        -11   -1    0    0    0    0  0.00000000000E+00  0.00000000000E+00  0.45593999997E+02  0.45594000000E+02  0.51100000000E-03 0.  1.
         11   -1    0    0    0    0 -0.00000000000E+00 -0.00000000000E+00 -0.45593999997E+02  0.45594000000E+02  0.51100000000E-03 0. -1.
    9900012    2    1    2    0    0 -0.14424674304E+02  0.41061286094E+01 -0.40727045522E+02  0.47787265468E+02  0.19999974577E+02 0.  0.
        -12    1    1    2    0    0  0.14424674304E+02 -0.41061286094E+01  0.40727045522E+02  0.43400734532E+02  0.00000000000E+00 0.  1.
         11    1    3    3    0    0 -0.58340171239E+01 -0.35743940620E+01 -0.11100481296E+02  0.13039660041E+02  0.51100000000E-03 0. -1.
        -11    1    3    3    0    0 -0.72997999026E+01  0.68111517412E+01 -0.73029326089E+01  0.12369789473E+02  0.51100000000E-03 0.  1.
        -12    1    3    3    0    0 -0.12908572772E+01  0.86937093009E+00 -0.22323631617E+02  0.22377815954E+02  0.00000000000E+00 0.  1.
</event>
<event>
 7    1  0.1457722E-010  0.4778727E+02  0.7816164E-02  0.1312668E+00
        -11   -1    0    0    0    0  0.00000000000E+00  0.00000000000E+00  0.45593999997E+02  0.45594000000E+02  0.51100000000E-03 0.  1.
         11   -1    0    0    0    0 -0.00000000000E+00 -0.00000000000E+00 -0.45593999997E+02  0.45594000000E+02  0.51100000000E-03 0. -1.
    9900012    2    1    2    0    0 -0.43011571054E+02 -0.57980041232E+01 -0.10443059391E+00  0.47787274176E+02  0.20000014278E+02 0.  0.
        -12    1    1    2    0    0  0.43011571054E+02  0.57980041232E+01  0.10443059391E+00  0.43400725824E+02  0.00000000000E+00 0.  1.
         11    1    3    3    0    0 -0.48105653311E+01  0.24219501351E+01 -0.39690131277E+01  0.66903248599E+01  0.51100000000E-03 0. -1.
        -11    1    3    3    0    0 -0.10035019925E+02 -0.22591678901E+01  0.65302406919E+01  0.12183985728E+02  0.51100000000E-03 0.  1.
         12    1    3    3    0    0 -0.28165985797E+02 -0.59607863681E+01 -0.26656581581E+01  0.28912963588E+02  0.00000000000E+00 0. -1.
</event>
<event>
 7    1  0.1457722E-010  0.4778727E+02  0.7816164E-02  0.1312668E+00
        -11   -1    0    0    0    0  0.00000000000E+00  0.00000000000E+00  0.45593999997E+02  0.45594000000E+02  0.51100000000E-03 0. -1.
         11   -1    0    0    0    0 -0.00000000000E+00 -0.00000000000E+00 -0.45593999997E+02  0.45594000000E+02  0.51100000000E-03 0.  1.
    9900012    2    1    2    0    0 -0.20929907895E+02  0.38005226377E+02  0.10793888200E+01  0.47787270091E+02  0.19999995652E+02 0.  0.
        -12    1    1    2    0    0  0.20929907895E+02 -0.38005226377E+02 -0.10793888200E+01  0.43400729909E+02  0.00000000000E+00 0.  1.
         11    1    3    3    0    0 -0.22408262192E+02  0.31470161620E+02  0.32632191867E+01  0.38770476997E+02  0.51100000000E-03 0. -1.
        -11    1    3    3    0    0  0.17726113799E+01  0.27293700131E+01  0.16135877635E+01  0.36325304546E+01  0.51100000000E-03 0.  1.
        -12    1    3    3    0    0 -0.29425708268E+00  0.38056947438E+01 -0.37974181302E+01  0.53842626393E+01  0.00000000000E+00 0.  1.
</event>
<event>
 7    1  0.1457722E-010  0.4778727E+02  0.7816164E-02  0.1312668E+00
        -11   -1    0    0    0    0  0.00000000000E+00  0.00000000000E+00  0.45593999997E+02  0.45594000000E+02  0.51100000000E-03 0. -1.
         11   -1    0    0    0    0 -0.00000000000E+00 -0.00000000000E+00 -0.45593999997E+02  0.45594000000E+02  0.51100000000E-03 0.  1.
    9900012    2    1    2    0    0  0.56353076311E+01 -0.42851135288E+02 -0.39556150980E+01  0.47787269840E+02  0.19999994510E+02 0.  0.
        -12    1    1    2    0    0 -0.56353076311E+01  0.42851135288E+02  0.39556150980E+01  0.43400730160E+02  0.00000000000E+00 0.  1.
         11    1    3    3    0    0  0.37675062203E+01 -0.53347406004E+01  0.36668625137E+01  0.74899560312E+01  0.51100000000E-03 0. -1.
        -11    1    3    3    0    0 -0.33922473899E+01 -0.14046984508E+02 -0.74208752586E+01  0.16244830131E+02  0.51100000000E-03 0.  1.
         12    1    3    3    0    0  0.52600488006E+01 -0.23469410180E+02 -0.20160235307E+00  0.24052483678E+02  0.00000000000E+00 0. -1.
</event>
<event>
 7    1  0.1457722E-010  0.4778726E+02  0.7816164E-02  0.1312668E+00
        -11   -1    0    0    0    0  0.00000000000E+00  0.00000000000E+00  0.45593999997E+02  0.45594000000E+02  0.51100000000E-03 0.  1.
         11   -1    0    0    0    0 -0.00000000000E+00 -0.00000000000E+00 -0.45593999997E+02  0.45594000000E+02  0.51100000000E-03 0. -1.
    9900012    2    1    2    0    0 -0.14210815301E+02 -0.19630461664E+02 -0.36004465779E+02  0.47787264376E+02  0.19999969595E+02 0.  0.
        -12    1    1    2    0    0  0.14210815301E+02  0.19630461664E+02  0.36004465779E+02  0.43400735624E+02  0.00000000000E+00 0.  1.
         11    1    3    3    0    0  0.17289527411E+01 -0.39708970249E+01 -0.91319648404E+01  0.10106932416E+02  0.51100000000E-03 0. -1.
        -11    1    3    3    0    0 -0.17006859637E+02 -0.82201598491E+01 -0.18782378450E+02  0.26637981214E+02  0.51100000000E-03 0.  1.
        -12    1    3    3    0    0  0.10670915943E+01 -0.74394047901E+01 -0.80901224892E+01  0.11042350746E+02  0.00000000000E+00 0.  1.
</event>
<event>
 7    1  0.1457722E-010  0.4778727E+02  0.7816164E-02  0.1312668E+00
        -11   -1    0    0    0    0  0.00000000000E+00  0.00000000000E+00  0.45593999997E+02  0.45594000000E+02  0.51100000000E-03 0.  1.
         11   -1    0    0    0    0 -0.00000000000E+00 -0.00000000000E+00 -0.45593999997E+02  0.45594000000E+02  0.51100000000E-03 0. -1.
    9900012    2    1    2    0    0 -0.16614767237E+02 -0.10128597426E+02 -0.38794127569E+02  0.47787270628E+02  0.19999998101E+02 0.  0.
        -12    1    1    2    0    0  0.16614767237E+02  0.10128597426E+02  0.38794127569E+02  0.43400729372E+02  0.00000000000E+00 0.  1.
         11    1    3    3    0    0 -0.13628348395E+02 -0.30901668701E+01 -0.24293154790E+02  0.28025673608E+02  0.51100000000E-03 0. -1.
        -11    1    3    3    0    0  0.83004147381E+00 -0.21940015315E+01 -0.13266256080E+02  0.13472051151E+02  0.51100000000E-03 0.  1.
         12    1    3    3    0    0 -0.38164603158E+01 -0.48444290241E+01 -0.12347166991E+01  0.62895458691E+01  0.00000000000E+00 0. -1.
</event>
<event>
 7    1  0.1457722E-010  0.4778727E+02  0.7816164E-02  0.1312668E+00
        -11   -1    0    0    0    0  0.00000000000E+00  0.00000000000E+00  0.45593999997E+02  0.45594000000E+02  0.51100000000E-03 0.  1.
         11   -1    0    0    0    0 -0.00000000000E+00 -0.00000000000E+00 -0.45593999997E+02  0.45594000000E+02  0.51100000000E-03 0. -1.
    9900012    2    1    2    0    0 -0.35933750424E+02 -0.81080287066E+01 -0.22948833809E+02  0.47787268183E+02  0.19999986953E+02 0.  0.
        -12    1    1    2    0    0  0.35933750424E+02  0.81080287066E+01  0.22948833809E+02  0.43400731817E+02  0.00000000000E+00 0.  1.
         11    1    3    3    0    0 -0.16359245394E+02  0.34061221819E+01 -0.76394266515E+01  0.18373552133E+02  0.51100000000E-03 0. -1.
        -11    1    3    3    0    0  0.13388948549E+01 -0.92329153204E+00 -0.14633751318E+01  0.21878239699E+01  0.51100000000E-03 0.  1.
        -12    1    3    3    0    0 -0.20913399885E+02 -0.10590859356E+02 -0.13846032026E+02  0.27225892080E+02  0.00000000000E+00 0.  1.
</event>
<event>
 7    1  0.1457722E-010  0.4778727E+02  0.7816164E-02  0.1312668E+00
        -11   -1    0    0    0    0  0.00000000000E+00  0.00000000000E+00  0.45593999997E+02  0.45594000000E+02  0.51100000000E-03 0. -1.
         11   -1    0    0    0    0 -0.00000000000E+00 -0.00000000000E+00 -0.45593999997E+02  0.45594000000E+02  0.51100000000E-03 0.  1.
    9900012    2    1    2    0    0 -0.35488193161E+02 -0.20520671771E+02  0.14251778370E+02  0.47787274079E+02  0.20000013834E+02 0.  0.
        -12    1    1    2    0    0  0.35488193161E+02  0.20520671771E+02 -0.14251778370E+02  0.43400725921E+02  0.00000000000E+00 0.  1.
         11    1    3    3    0    0 -0.21428797379E+02 -0.39580597107E+01  0.47369020935E+01  0.22300175682E+02  0.51100000000E-03 0. -1.
        -11    1    3    3    0    0 -0.20802280542E+01 -0.39373500038E+01 -0.17179561682E+01  0.47729914590E+01  0.51100000000E-03 0.  1.
        -12    1    3    3    0    0 -0.11979167729E+02 -0.12625262057E+02  0.11232832445E+02  0.20714106937E+02  0.00000000000E+00 0.  1.
</event>
<event>
 7    1  0.1457722E-010  0.4778727E+02  0.7816164E-02  0.1312668E+00
        -11   -1    0    0    0    0  0.00000000000E+00  0.00000000000E+00  0.45593999997E+02  0.45594000000E+02  0.51100000000E-03 0.  1.
         11   -1    0    0    0    0 -0.00000000000E+00 -0.00000000000E+00 -0.45593999997E+02  0.45594000000E+02  0.51100000000E-03 0. -1.
    9900012    2    1    2    0    0 -0.35287882357E+02 -0.18816250626E+01 -0.25196192752E+02  0.47787270936E+02  0.19999999506E+02 0.  0.
        -12    1    1    2    0    0  0.35287882357E+02  0.18816250626E+01  0.25196192752E+02  0.43400729064E+02  0.00000000000E+00 0.  1.
         11    1    3    3    0    0 -0.26101996299E+02 -0.34643258614E+01 -0.16382613511E+02  0.31011381623E+02  0.51100000000E-03 0. -1.
        -11    1    3    3    0    0 -0.46191627613E+01 -0.18844486597E+01  0.12952426515E+01  0.51541696862E+01  0.51100000000E-03 0.  1.
         12    1    3    3    0    0 -0.45667232969E+01  0.34671494585E+01 -0.10108821893E+02  0.11621719627E+02  0.00000000000E+00 0. -1.
</event>
<event>
 7    1  0.1461513E-010  0.4778727E+02  0.7816164E-02  0.1312668E+00
        -11   -1    0    0    0    0  0.00000000000E+00  0.00000000000E+00  0.45593999997E+02  0.45594000000E+02  0.51100000000E-03 0.  1.
         11   -1    0    0    0    0 -0.00000000000E+00 -0.00000000000E+00 -0.45593999997E+02  0.45594000000E+02  0.51100000000E-03 0. -1.
    9900012    2    1    2    0    0 -0.16792650056E+02  0.39769196021E+02  0.44767200294E+01  0.47787273390E+02  0.20000010694E+02 0.  0.
        -12    1    1    2    0    0  0.16792650056E+02 -0.39769196021E+02 -0.44767200294E+01  0.43400726610E+02  0.00000000000E+00 0.  1.
         11    1    3    3    0    0 -0.60023819708E+01  0.20626550613E+02  0.28867824258E+01  0.21675255305E+02  0.51100000000E-03 0. -1.
        -11    1    3    3    0    0 -0.75538677213E+01  0.11477364611E+02 -0.58657584995E+01  0.14939810541E+02  0.51100000000E-03 0.  1.
         12    1    3    3    0    0 -0.32364003642E+01  0.76652807970E+01  0.74556961032E+01  0.11172207544E+02  0.00000000000E+00 0. -1.
</event>
<event>
 7    1  0.1457722E-010  0.4778727E+02  0.7816164E-02  0.1312668E+00
        -11   -1    0    0    0    0  0.00000000000E+00  0.00000000000E+00  0.45593999997E+02  0.45594000000E+02  0.51100000000E-03 0. -1.
         11   -1    0    0    0    0 -0.00000000000E+00 -0.00000000000E+00 -0.45593999997E+02  0.45594000000E+02  0.51100000000E-03 0.  1.
    9900012    2    1    2    0    0  0.13993913189E+01  0.43312432740E+02  0.23870632025E+01  0.47787271934E+02  0.20000004054E+02 0.  0.
        -12    1    1    2    0    0 -0.13993913189E+01 -0.43312432740E+02 -0.23870632025E+01  0.43400728066E+02  0.00000000000E+00 0.  1.
         11    1    3    3    0    0  0.19442893300E+01  0.21241038976E+02  0.47790853230E+01  0.21858674584E+02  0.51100000000E-03 0. -1.
        -11    1    3    3    0    0 -0.63645756899E+01  0.95453085909E+01  0.15210136725E+01  0.11572995406E+02  0.51100000000E-03 0.  1.
         12    1    3    3    0    0  0.58196776788E+01  0.12526085173E+02 -0.39130357930E+01  0.14355601944E+02  0.00000000000E+00 0. -1.
</event>
<event>
 7    1  0.1457722E-010  0.4778728E+02  0.7816164E-02  0.1312668E+00
        -11   -1    0    0    0    0  0.00000000000E+00  0.00000000000E+00  0.45593999997E+02  0.45594000000E+02  0.51100000000E-03 0. -1.
         11   -1    0    0    0    0 -0.00000000000E+00 -0.00000000000E+00 -0.45593999997E+02  0.45594000000E+02  0.51100000000E-03 0.  1.
    9900012    2    1    2    0    0  0.97736986002E+01  0.40699884396E+02  0.11472445322E+02  0.47787276782E+02  0.20000026160E+02 0.  0.
        -12    1    1    2    0    0 -0.97736986002E+01 -0.40699884396E+02 -0.11472445322E+02  0.43400723218E+02  0.00000000000E+00 0.  1.
         11    1    3    3    0    0  0.88472056301E+01  0.11594501380E+02  0.50956413111E+01  0.15448982826E+02  0.51100000000E-03 0. -1.
        -11    1    3    3    0    0 -0.24682056434E+01  0.25719856239E+01 -0.22696256361E+01  0.42259140948E+01  0.51100000000E-03 0.  1.
        -12    1    3    3    0    0  0.33946986135E+01  0.26533397392E+02  0.86464296469E+01  0.28112379862E+02  0.00000000000E+00 0.  1.
</event>
<event>
 7    1  0.1457722E-010  0.4778727E+02  0.7816164E-02  0.1312668E+00
        -11   -1    0    0    0    0  0.00000000000E+00  0.00000000000E+00  0.45593999997E+02  0.45594000000E+02  0.51100000000E-03 0.  1.
         11   -1    0    0    0    0 -0.00000000000E+00 -0.00000000000E+00 -0.45593999997E+02  0.45594000000E+02  0.51100000000E-03 0. -1.
    9900012    2    1    2    0    0 -0.25997691693E+02  0.17944769575E+02 -0.29761192758E+02  0.47787270480E+02  0.19999997428E+02 0.  0.
        -12    1    1    2    0    0  0.25997691693E+02 -0.17944769575E+02  0.29761192758E+02  0.43400729520E+02  0.00000000000E+00 0.  1.
         11    1    3    3    0    0 -0.94757096412E+01  0.12726733395E+02 -0.10180910306E+02  0.18852314209E+02  0.51100000000E-03 0. -1.
        -11    1    3    3    0    0 -0.14699159645E+01  0.59901936048E+01 -0.46937060372E+01  0.77507386094E+01  0.51100000000E-03 0.  1.
         12    1    3    3    0    0 -0.15052066088E+02 -0.77215742523E+00 -0.14886576415E+02  0.21184217662E+02  0.00000000000E+00 0. -1.
</event>
<event>
 7    1  0.1457722E-010  0.4778727E+02  0.7816164E-02  0.1312668E+00
        -11   -1    0    0    0    0  0.00000000000E+00  0.00000000000E+00  0.45593999997E+02  0.45594000000E+02  0.51100000000E-03 0. -1.
         11   -1    0    0    0    0 -0.00000000000E+00 -0.00000000000E+00 -0.45593999997E+02  0.45594000000E+02  0.51100000000E-03 0.  1.
    9900012    2    1    2    0    0  0.55134338148E+01  0.27117628398E+02 -0.33434407316E+02  0.47787270571E+02  0.19999997842E+02 0.  0.
        -12    1    1    2    0    0 -0.55134338148E+01 -0.27117628398E+02  0.33434407316E+02  0.43400729429E+02  0.00000000000E+00 0.  1.
         11    1    3    3    0    0  0.58200953737E+01  0.21822608514E+02 -0.21343699696E+02  0.31074962099E+02  0.51100000000E-03 0. -1.
        -11    1    3    3    0    0 -0.83031027598E-01  0.45491783611E+01 -0.13962436410E+02  0.14685079117E+02  0.51100000000E-03 0.  1.
         12    1    3    3    0    0 -0.22363053124E+00  0.74584152343E+00  0.18717287899E+01  0.20272293544E+01  0.00000000000E+00 0. -1.
</event>
<event>
 7    1  0.1457722E-010  0.4778729E+02  0.7816164E-02  0.1312668E+00
        -11   -1    0    0    0    0  0.00000000000E+00  0.00000000000E+00  0.45593999997E+02  0.45594000000E+02  0.51100000000E-03 0.  1.
         11   -1    0    0    0    0 -0.00000000000E+00 -0.00000000000E+00 -0.45593999997E+02  0.45594000000E+02  0.51100000000E-03 0. -1.
    9900012    2    1    2    0    0 -0.21826490631E+01  0.34424159831E+02 -0.26340750488E+02  0.47787287180E+02  0.20000073567E+02 0.  0.
        -12    1    1    2    0    0  0.21826490631E+01 -0.34424159831E+02  0.26340750488E+02  0.43400712820E+02  0.00000000000E+00 0.  1.
         11    1    3    3    0    0 -0.11310322038E+01  0.24995141828E+01  0.16385921738E+01  0.31955890801E+01  0.51100000000E-03 0.  1.
        -11    1    3    3    0    0  0.39015005033E+01  0.66030754389E+01 -0.12003939501E+02  0.14244889443E+02  0.51100000000E-03 0. -1.
        -12    1    3    3    0    0 -0.49531173626E+01  0.25321570210E+02 -0.15975403161E+02  0.30346808657E+02  0.00000000000E+00 0.  1.
</event>
<event>
 7    1  0.1457722E-010  0.4778728E+02  0.7816164E-02  0.1312668E+00
        -11   -1    0    0    0    0  0.00000000000E+00  0.00000000000E+00  0.45593999997E+02  0.45594000000E+02  0.51100000000E-03 0.  1.
         11   -1    0    0    0    0 -0.00000000000E+00 -0.00000000000E+00 -0.45593999997E+02  0.45594000000E+02  0.51100000000E-03 0. -1.
    9900012    2    1    2    0    0  0.14710791267E+02 -0.38580159066E+02 -0.13371110742E+02  0.47787278165E+02  0.20000032467E+02 0.  0.
        -12    1    1    2    0    0 -0.14710791267E+02  0.38580159066E+02  0.13371110742E+02  0.43400721835E+02  0.00000000000E+00 0.  1.
         11    1    3    3    0    0  0.18068041297E+01 -0.14421272148E+02 -0.15650305245E+01  0.14618035173E+02  0.51100000000E-03 0. -1.
        -11    1    3    3    0    0  0.72381312343E+01 -0.15154426845E+01 -0.47312889851E+01  0.87790777430E+01  0.51100000000E-03 0.  1.
        -12    1    3    3    0    0  0.56658559032E+01 -0.22643444234E+02 -0.70747912321E+01  0.24390165249E+02  0.00000000000E+00 0.  1.
</event>
<event>
 7    1  0.1457722E-010  0.4778727E+02  0.7816164E-02  0.1312668E+00
        -11   -1    0    0    0    0  0.00000000000E+00  0.00000000000E+00  0.45593999997E+02  0.45594000000E+02  0.51100000000E-03 0.  1.
         11   -1    0    0    0    0 -0.00000000000E+00 -0.00000000000E+00 -0.45593999997E+02  0.45594000000E+02  0.51100000000E-03 0. -1.
    9900012    2    1    2    0    0 -0.12680802292E+02 -0.40581903562E+02 -0.87137446440E+01  0.47787274324E+02  0.20000014952E+02 0.  0.
        -12    1    1    2    0    0  0.12680802292E+02  0.40581903562E+02  0.87137446440E+01  0.43400725676E+02  0.00000000000E+00 0.  1.
         11    1    3    3    0    0 -0.44147505100E+01 -0.70955573243E+01 -0.42741474098E+01  0.93864419324E+01  0.51100000000E-03 0. -1.
        -11    1    3    3    0    0  0.24693289907E+01 -0.17456662185E+02  0.26872845934E+01  0.17834072419E+02  0.51100000000E-03 0.  1.
        -12    1    3    3    0    0 -0.10735380772E+02 -0.16029684053E+02 -0.71268818276E+01  0.20566759972E+02  0.00000000000E+00 0.  1.
</event>
<event>
 7    1  0.1457722E-010  0.4778727E+02  0.7816164E-02  0.1312668E+00
        -11   -1    0    0    0    0  0.00000000000E+00  0.00000000000E+00  0.45593999997E+02  0.45594000000E+02  0.51100000000E-03 0. -1.
         11   -1    0    0    0    0 -0.00000000000E+00 -0.00000000000E+00 -0.45593999997E+02  0.45594000000E+02  0.51100000000E-03 0.  1.
    9900012    2    1    2    0    0 -0.28234431104E+02 -0.35594053422E+01  0.32768441881E+02  0.47787271325E+02  0.20000001281E+02 0.  0.
        -12    1    1    2    0    0  0.28234431104E+02  0.35594053422E+01 -0.32768441881E+02  0.43400728675E+02  0.00000000000E+00 0.  1.
         11    1    3    3    0    0 -0.59936190262E+01  0.43791445843E+01  0.83794185269E+01  0.11194419656E+02  0.51100000000E-03 0. -1.
        -11    1    3    3    0    0 -0.18666378222E+01  0.31869576244E+01  0.14816565870E+01  0.39794901886E+01  0.51100000000E-03 0.  1.
         12    1    3    3    0    0 -0.20374174256E+02 -0.11125507551E+02  0.22907366767E+02  0.32613361481E+02  0.00000000000E+00 0. -1.
</event>
<event>
 7    1  0.1618969E-010  0.4778727E+02  0.7816164E-02  0.1312668E+00
        -11   -1    0    0    0    0  0.00000000000E+00  0.00000000000E+00  0.45593999997E+02  0.45594000000E+02  0.51100000000E-03 0.  1.
         11   -1    0    0    0    0 -0.00000000000E+00 -0.00000000000E+00 -0.45593999997E+02  0.45594000000E+02  0.51100000000E-03 0. -1.
    9900012    2    1    2    0    0  0.39039690819E+02  0.17295145197E+02  0.77719861015E+01  0.47787271036E+02  0.19999999960E+02 0.  0.
        -12    1    1    2    0    0 -0.39039690819E+02 -0.17295145197E+02 -0.77719861015E+01  0.43400728964E+02  0.00000000000E+00 0.  1.
         11    1    3    3    0    0  0.26474808972E+02  0.11184365080E+02  0.10155245194E+02  0.30481708246E+02  0.51100000000E-03 0. -1.
        -11    1    3    3    0    0  0.10863830179E+02  0.78869177727E-01 -0.17867023971E+01  0.11010055959E+02  0.51100000000E-03 0.  1.
        -12    1    3    3    0    0  0.17010516680E+01  0.60319109397E+01 -0.59655669564E+00  0.62955068305E+01  0.00000000000E+00 0.  1.
</event>
<event>
 7    1  0.1457722E-010  0.4778727E+02  0.7816164E-02  0.1312668E+00
        -11   -1    0    0    0    0  0.00000000000E+00  0.00000000000E+00  0.45593999997E+02  0.45594000000E+02  0.51100000000E-03 0.  1.
         11   -1    0    0    0    0 -0.00000000000E+00 -0.00000000000E+00 -0.45593999997E+02  0.45594000000E+02  0.51100000000E-03 0. -1.
    9900012    2    1    2    0    0 -0.20497172790E+02  0.31146437583E+02 -0.22212356054E+02  0.47787269269E+02  0.19999991906E+02 0.  0.
        -12    1    1    2    0    0  0.20497172790E+02 -0.31146437583E+02  0.22212356054E+02  0.43400730731E+02  0.00000000000E+00 0.  1.
         11    1    3    3    0    0  0.12173786979E+01  0.88747072617E+00 -0.17110607864E+01  0.22797685101E+01  0.51100000000E-03 0. -1.
        -11    1    3    3    0    0 -0.19050695339E+02  0.22035025506E+02 -0.78198773647E+01  0.30159937404E+02  0.51100000000E-03 0.  1.
         12    1    3    3    0    0 -0.26638561491E+01  0.82239413513E+01 -0.12681417902E+02  0.15347563355E+02  0.00000000000E+00 0. -1.
</event>
<event>
 7    1  0.1457722E-010  0.4778727E+02  0.7816164E-02  0.1312668E+00
        -11   -1    0    0    0    0  0.00000000000E+00  0.00000000000E+00  0.45593999997E+02  0.45594000000E+02  0.51100000000E-03 0.  1.
         11   -1    0    0    0    0 -0.00000000000E+00 -0.00000000000E+00 -0.45593999997E+02  0.45594000000E+02  0.51100000000E-03 0. -1.
    9900012    2    1    2    0    0  0.87863015534E+01 -0.20088805522E+02 -0.37454829529E+02  0.47787268931E+02  0.19999990363E+02 0.  0.
        -12    1    1    2    0    0 -0.87863015534E+01  0.20088805522E+02  0.37454829529E+02  0.43400731069E+02  0.00000000000E+00 0.  1.
         11    1    3    3    0    0  0.36466515703E+01 -0.13023293748E+02 -0.36437849180E+02  0.38866709417E+02  0.51100000000E-03 0. -1.
        -11    1    3    3    0    0  0.11494609910E+01 -0.26238782587E+01 -0.46830449024E-02  0.28646151362E+01  0.51100000000E-03 0.  1.
         12    1    3    3    0    0  0.39901889922E+01 -0.44416335153E+01 -0.10122973035E+01  0.60559443779E+01  0.00000000000E+00 0. -1.
</event>
<event>
 7    1  0.1457722E-010  0.4778727E+02  0.7816164E-02  0.1312668E+00
        -11   -1    0    0    0    0  0.00000000000E+00  0.00000000000E+00  0.45593999997E+02  0.45594000000E+02  0.51100000000E-03 0.  1.
         11   -1    0    0    0    0 -0.00000000000E+00 -0.00000000000E+00 -0.45593999997E+02  0.45594000000E+02  0.51100000000E-03 0. -1.
    9900012    2    1    2    0    0  0.33405841962E+02  0.23552877810E+02 -0.14592281371E+02  0.47787274131E+02  0.20000014071E+02 0.  0.
        -12    1    1    2    0    0 -0.33405841962E+02 -0.23552877810E+02  0.14592281371E+02  0.43400725869E+02  0.00000000000E+00 0.  1.
         11    1    3    3    0    0 -0.12831681916E+01 -0.41607750626E+00 -0.20658968174E+01  0.24673003507E+01  0.51100000000E-03 0.  1.
        -11    1    3    3    0    0  0.17605870802E+02  0.56494199577E+01 -0.59207444813E+01  0.19414887279E+02  0.51100000000E-03 0. -1.
         12    1    3    3    0    0  0.17083139352E+02  0.18319535359E+02 -0.66056400727E+01  0.25905086501E+02  0.00000000000E+00 0. -1.
</event>
<event>
 7    1  0.1457722E-010  0.4778727E+02  0.7816164E-02  0.1312668E+00
        -11   -1    0    0    0    0  0.00000000000E+00  0.00000000000E+00  0.45593999997E+02  0.45594000000E+02  0.51100000000E-03 0.  1.
         11   -1    0    0    0    0 -0.00000000000E+00 -0.00000000000E+00 -0.45593999997E+02  0.45594000000E+02  0.51100000000E-03 0. -1.
    9900012    2    1    2    0    0  0.10199463742E+02 -0.40812681387E+02 -0.10673303391E+02  0.47787269270E+02  0.19999991912E+02 0.  0.
        -12    1    1    2    0    0 -0.10199463742E+02  0.40812681387E+02  0.10673303391E+02  0.43400730730E+02  0.00000000000E+00 0.  1.
         11    1    3    3    0    0  0.23614481852E+01 -0.41794419797E+01 -0.57797944274E+01  0.75133345911E+01  0.51100000000E-03 0.  1.
        -11    1    3    3    0    0  0.13982635270E+01 -0.31636598399E+02 -0.53230382325E+01  0.32111746066E+02  0.51100000000E-03 0. -1.
         12    1    3    3    0    0  0.64397520294E+01 -0.49966410081E+01  0.42952926867E+00  0.81621886132E+01  0.00000000000E+00 0. -1.
</event>
<event>
 7    1  0.1457722E-010  0.4778728E+02  0.7816164E-02  0.1312668E+00
        -11   -1    0    0    0    0  0.00000000000E+00  0.00000000000E+00  0.45593999997E+02  0.45594000000E+02  0.51100000000E-03 0. -1.
         11   -1    0    0    0    0 -0.00000000000E+00 -0.00000000000E+00 -0.45593999997E+02  0.45594000000E+02  0.51100000000E-03 0.  1.
    9900012    2    1    2    0    0 -0.18127056903E+02  0.36406183509E+02 -0.15153298842E+02  0.47787275865E+02  0.20000021980E+02 0.  0.
        -12    1    1    2    0    0  0.18127056903E+02 -0.36406183509E+02  0.15153298842E+02  0.43400724135E+02  0.00000000000E+00 0.  1.
         11    1    3    3    0    0 -0.47131491014E+00  0.70827158822E+01 -0.40428790443E+00  0.71098840345E+01  0.51100000000E-03 0. -1.
        -11    1    3    3    0    0 -0.10145577140E+01 -0.27098586108E+00  0.24147944462E+01  0.26332476470E+01  0.51100000000E-03 0.  1.
         12    1    3    3    0    0 -0.16641184279E+02  0.29594453487E+02 -0.17163805384E+02  0.38044144184E+02  0.00000000000E+00 0. -1.
</event>
<event>
 7    1  0.1457722E-010  0.4778727E+02  0.7816164E-02  0.1312668E+00
        -11   -1    0    0    0    0  0.00000000000E+00  0.00000000000E+00  0.45593999997E+02  0.45594000000E+02  0.51100000000E-03 0. -1.
         11   -1    0    0    0    0 -0.00000000000E+00 -0.00000000000E+00 -0.45593999997E+02  0.45594000000E+02  0.51100000000E-03 0.  1.
    9900012    2    1    2    0    0 -0.38330220612E+02 -0.12340044301E+02  0.16190774288E+02  0.47787266393E+02  0.19999978793E+02 0.  0.
        -12    1    1    2    0    0  0.38330220612E+02  0.12340044301E+02 -0.16190774288E+02  0.43400733607E+02  0.00000000000E+00 0.  1.
         11    1    3    3    0    0 -0.13263741858E+02 -0.41586857494E+01  0.34736323358E+01  0.14327862265E+02  0.51100000000E-03 0. -1.
        -11    1    3    3    0    0  0.82177906926E+00  0.22811965674E+01 -0.63823688565E+00  0.25072943985E+01  0.51100000000E-03 0.  1.
         12    1    3    3    0    0 -0.25888257824E+02 -0.10462555119E+02  0.13355378838E+02  0.30952109729E+02  0.00000000000E+00 0. -1.
</event>
<event>
 7    1  0.1457722E-010  0.4778725E+02  0.7816164E-02  0.1312668E+00
        -11   -1    0    0    0    0  0.00000000000E+00  0.00000000000E+00  0.45593999997E+02  0.45594000000E+02  0.51100000000E-03 0.  1.
         11   -1    0    0    0    0 -0.00000000000E+00 -0.00000000000E+00 -0.45593999997E+02  0.45594000000E+02  0.51100000000E-03 0. -1.
    9900012    2    1    2    0    0  0.27812034640E+01 -0.32168060918E+02 -0.29001829073E+02  0.47787247409E+02  0.19999892234E+02 0.  0.
        -12    1    1    2    0    0 -0.27812034640E+01  0.32168060918E+02  0.29001829073E+02  0.43400752591E+02  0.00000000000E+00 0.  1.
         11    1    3    3    0    0 -0.30382187025E+01 -0.10392710041E+02 -0.34096308509E+01  0.11351862300E+02  0.51100000000E-03 0. -1.
        -11    1    3    3    0    0 -0.84970315186E+00  0.12732682488E+01 -0.27639683092E+00  0.15555072963E+01  0.51100000000E-03 0.  1.
         12    1    3    3    0    0  0.66691253184E+01 -0.23048619126E+02 -0.25315801391E+02  0.34879877812E+02  0.00000000000E+00 0. -1.
</event>
<event>
 7    1  0.1457722E-010  0.4778727E+02  0.7816164E-02  0.1312668E+00
        -11   -1    0    0    0    0  0.00000000000E+00  0.00000000000E+00  0.45593999997E+02  0.45594000000E+02  0.51100000000E-03 0. -1.
         11   -1    0    0    0    0 -0.00000000000E+00 -0.00000000000E+00 -0.45593999997E+02  0.45594000000E+02  0.51100000000E-03 0.  1.
    9900012    2    1    2    0    0  0.28366448868E+02  0.16366478260E+02  0.28479922592E+02  0.47787273936E+02  0.20000013183E+02 0.  0.
        -12    1    1    2    0    0 -0.28366448868E+02 -0.16366478260E+02 -0.28479922592E+02  0.43400726064E+02  0.00000000000E+00 0.  1.
         11    1    3    3    0    0  0.43567237622E+01  0.55397121797E+00  0.74309634131E+01  0.86317520561E+01  0.51100000000E-03 0. -1.
        -11    1    3    3    0    0  0.84375293579E+01  0.84343476494E+01  0.18092841117E+02  0.21672125458E+02  0.51100000000E-03 0.  1.
        -12    1    3    3    0    0  0.15572195748E+02  0.73781593924E+01  0.29561180626E+01  0.17483396422E+02  0.00000000000E+00 0.  1.
</event>
<event>
 7    1  0.1457722E-010  0.4778727E+02  0.7816164E-02  0.1312668E+00
        -11   -1    0    0    0    0  0.00000000000E+00  0.00000000000E+00  0.45593999997E+02  0.45594000000E+02  0.51100000000E-03 0.  1.
         11   -1    0    0    0    0 -0.00000000000E+00 -0.00000000000E+00 -0.45593999997E+02  0.45594000000E+02  0.51100000000E-03 0. -1.
    9900012    2    1    2    0    0  0.29030179334E+01 -0.19029607973E+02 -0.38898197234E+02  0.47787271425E+02  0.20000001737E+02 0.  0.
        -12    1    1    2    0    0 -0.29030179334E+01  0.19029607973E+02  0.38898197234E+02  0.43400728575E+02  0.00000000000E+00 0.  1.
         11    1    3    3    0    0 -0.55270634400E+01 -0.85159464568E+01 -0.95813794601E+01  0.13959677895E+02  0.51100000000E-03 0.  1.
        -11    1    3    3    0    0  0.67071771017E+01 -0.87684269247E+01 -0.11873389004E+02  0.16212615523E+02  0.51100000000E-03 0. -1.
        -12    1    3    3    0    0  0.17229042717E+01 -0.17452345916E+01 -0.17443428771E+02  0.17614978007E+02  0.00000000000E+00 0.  1.
</event>
<event>
 7    1  0.1457722E-010  0.4778727E+02  0.7816164E-02  0.1312668E+00
        -11   -1    0    0    0    0  0.00000000000E+00  0.00000000000E+00  0.45593999997E+02  0.45594000000E+02  0.51100000000E-03 0.  1.
         11   -1    0    0    0    0 -0.00000000000E+00 -0.00000000000E+00 -0.45593999997E+02  0.45594000000E+02  0.51100000000E-03 0. -1.
    9900012    2    1    2    0    0 -0.21581665050E+02 -0.34471912693E+02 -0.15150653345E+02  0.47787270423E+02  0.19999997169E+02 0.  0.
        -12    1    1    2    0    0  0.21581665050E+02  0.34471912693E+02  0.15150653345E+02  0.43400729577E+02  0.00000000000E+00 0.  1.
         11    1    3    3    0    0 -0.12180454185E+02 -0.25094276297E+02 -0.13777004242E+02  0.31110962910E+02  0.51100000000E-03 0. -1.
        -11    1    3    3    0    0  0.20365820860E+01 -0.15148273615E+01 -0.11705444699E+01  0.27950926900E+01  0.51100000000E-03 0.  1.
        -12    1    3    3    0    0 -0.11437792951E+02 -0.78628090339E+01 -0.20310463274E+00  0.13881214824E+02  0.00000000000E+00 0.  1.
</event>
<event>
 7    1  0.1457722E-010  0.4778727E+02  0.7816164E-02  0.1312668E+00
        -11   -1    0    0    0    0  0.00000000000E+00  0.00000000000E+00  0.45593999997E+02  0.45594000000E+02  0.51100000000E-03 0.  1.
         11   -1    0    0    0    0 -0.00000000000E+00 -0.00000000000E+00 -0.45593999997E+02  0.45594000000E+02  0.51100000000E-03 0. -1.
    9900012    2    1    2    0    0 -0.22798118866E+02  0.35976532175E+02  0.83401443654E+01  0.47787273057E+02  0.20000009174E+02 0.  0.
        -12    1    1    2    0    0  0.22798118866E+02 -0.35976532175E+02 -0.83401443654E+01  0.43400726943E+02  0.00000000000E+00 0.  1.
         11    1    3    3    0    0 -0.47344993553E+01  0.85409895602E+00  0.31213422789E+01  0.57347839589E+01  0.51100000000E-03 0. -1.
        -11    1    3    3    0    0  0.10647546019E+01  0.37186244181E+01  0.35398957665E+01  0.52433512398E+01  0.51100000000E-03 0.  1.
         12    1    3    3    0    0 -0.19128374113E+02  0.31403808801E+02  0.16789063199E+01  0.36809137858E+02  0.00000000000E+00 0. -1.
</event>
<event>
 7    1  0.1457722E-010  0.4778727E+02  0.7816164E-02  0.1312668E+00
        -11   -1    0    0    0    0  0.00000000000E+00  0.00000000000E+00  0.45593999997E+02  0.45594000000E+02  0.51100000000E-03 0.  1.
         11   -1    0    0    0    0 -0.00000000000E+00 -0.00000000000E+00 -0.45593999997E+02  0.45594000000E+02  0.51100000000E-03 0. -1.
    9900012    2    1    2    0    0  0.36355076589E+02  0.14885903352E+02 -0.18448341484E+02  0.47787274016E+02  0.20000013550E+02 0.  0.
        -12    1    1    2    0    0 -0.36355076589E+02 -0.14885903352E+02  0.18448341484E+02  0.43400725984E+02  0.00000000000E+00 0.  1.
         11    1    3    3    0    0  0.17015164060E+01  0.24764141209E+01 -0.72720467767E+01  0.78683193607E+01  0.51100000000E-03 0.  1.
        -11    1    3    3    0    0  0.20780414642E+02  0.26041741309E+01 -0.89878380472E+01  0.22790098478E+02  0.51100000000E-03 0. -1.
        -12    1    3    3    0    0  0.13873145541E+02  0.98053150998E+01 -0.21884566599E+01  0.17128856178E+02  0.00000000000E+00 0.  1.
</event>
<event>
 7    1  0.1457722E-010  0.4778727E+02  0.7816164E-02  0.1312668E+00
        -11   -1    0    0    0    0  0.00000000000E+00  0.00000000000E+00  0.45593999997E+02  0.45594000000E+02  0.51100000000E-03 0.  1.
         11   -1    0    0    0    0 -0.00000000000E+00 -0.00000000000E+00 -0.45593999997E+02  0.45594000000E+02  0.51100000000E-03 0. -1.
    9900012    2    1    2    0    0  0.74562187586E+01  0.29155083032E+02 -0.31273139616E+02  0.47787270441E+02  0.19999997250E+02 0.  0.
        -12    1    1    2    0    0 -0.74562187586E+01 -0.29155083032E+02  0.31273139616E+02  0.43400729559E+02  0.00000000000E+00 0.  1.
         11    1    3    3    0    0  0.23596174165E+01  0.17398999492E+02 -0.10567516744E+02  0.20493057070E+02  0.51100000000E-03 0. -1.
        -11    1    3    3    0    0  0.50692410046E+01  0.12630256188E+01 -0.15439384353E+01  0.54475851741E+01  0.51100000000E-03 0.  1.
        -12    1    3    3    0    0  0.27360337552E-01  0.10493057921E+02 -0.19161684437E+02  0.21846628197E+02  0.00000000000E+00 0.  1.
</event>
<event>
 7    1  0.1457722E-010  0.4778727E+02  0.7816164E-02  0.1312668E+00
        -11   -1    0    0    0    0  0.00000000000E+00  0.00000000000E+00  0.45593999997E+02  0.45594000000E+02  0.51100000000E-03 0. -1.
         11   -1    0    0    0    0 -0.00000000000E+00 -0.00000000000E+00 -0.45593999997E+02  0.45594000000E+02  0.51100000000E-03 0.  1.
    9900012    2    1    2    0    0  0.77215162764E+01 -0.37801047360E+02  0.19876679793E+02  0.47787269652E+02  0.19999993652E+02 0.  0.
        -12    1    1    2    0    0 -0.77215162764E+01  0.37801047360E+02 -0.19876679793E+02  0.43400730348E+02  0.00000000000E+00 0.  1.
         11    1    3    3    0    0  0.45281013895E+01 -0.12422383311E+01  0.41483956613E+01  0.62654644751E+01  0.51100000000E-03 0. -1.
        -11    1    3    3    0    0  0.36647931636E+01 -0.20239035346E+02  0.29278151745E+01  0.20775499095E+02  0.51100000000E-03 0.  1.
         12    1    3    3    0    0 -0.47137827671E+00 -0.16319773683E+02  0.12800468957E+02  0.20746306082E+02  0.00000000000E+00 0. -1.
</event>
<event>
 7    1  0.1457722E-010  0.4778727E+02  0.7816164E-02  0.1312668E+00
        -11   -1    0    0    0    0  0.00000000000E+00  0.00000000000E+00  0.45593999997E+02  0.45594000000E+02  0.51100000000E-03 0.  1.
         11   -1    0    0    0    0 -0.00000000000E+00 -0.00000000000E+00 -0.45593999997E+02  0.45594000000E+02  0.51100000000E-03 0. -1.
    9900012    2    1    2    0    0  0.17465868886E+02 -0.85682998158E+01 -0.38796278707E+02  0.47787267527E+02  0.19999983962E+02 0.  0.
        -12    1    1    2    0    0 -0.17465868886E+02  0.85682998158E+01  0.38796278707E+02  0.43400732473E+02  0.00000000000E+00 0.  1.
         11    1    3    3    0    0  0.13059592999E+01  0.28668807230E+01 -0.12286534672E+02  0.12683984756E+02  0.51100000000E-03 0. -1.
        -11    1    3    3    0    0  0.13763088752E+02 -0.39859460996E+01 -0.21411851716E+02  0.25763885042E+02  0.51100000000E-03 0.  1.
        -12    1    3    3    0    0  0.23968208342E+01 -0.74492344392E+01 -0.50978923192E+01  0.93393977290E+01  0.00000000000E+00 0.  1.
</event>
<event>
 7    1  0.1457722E-010  0.4778727E+02  0.7816164E-02  0.1312668E+00
        -11   -1    0    0    0    0  0.00000000000E+00  0.00000000000E+00  0.45593999997E+02  0.45594000000E+02  0.51100000000E-03 0. -1.
         11   -1    0    0    0    0 -0.00000000000E+00 -0.00000000000E+00 -0.45593999997E+02  0.45594000000E+02  0.51100000000E-03 0.  1.
    9900012    2    1    2    0    0 -0.42829835673E+02 -0.52208596035E+01  0.46873193094E+01  0.47787272344E+02  0.20000005923E+02 0.  0.
        -12    1    1    2    0    0  0.42829835673E+02  0.52208596035E+01 -0.46873193094E+01  0.43400727656E+02  0.00000000000E+00 0.  1.
         11    1    3    3    0    0 -0.38415905146E+02 -0.19166661767E+01  0.66563529095E+01  0.39035399469E+02  0.51100000000E-03 0. -1.
        -11    1    3    3    0    0 -0.31816157822E+00  0.70370804855E+00  0.17551439630E+01  0.19175407165E+01  0.51100000000E-03 0.  1.
         12    1    3    3    0    0 -0.40957689492E+01 -0.40079014754E+01 -0.37241775630E+01  0.68343321577E+01  0.00000000000E+00 0. -1.
</event>
<event>
 7    1  0.1457722E-010  0.4778727E+02  0.7816164E-02  0.1312668E+00
        -11   -1    0    0    0    0  0.00000000000E+00  0.00000000000E+00  0.45593999997E+02  0.45594000000E+02  0.51100000000E-03 0. -1.
         11   -1    0    0    0    0 -0.00000000000E+00 -0.00000000000E+00 -0.45593999997E+02  0.45594000000E+02  0.51100000000E-03 0.  1.
    9900012    2    1    2    0    0 -0.21384091875E+02  0.43217650954E+01  0.37518878397E+02  0.47787271031E+02  0.19999999937E+02 0.  0.
        -12    1    1    2    0    0  0.21384091875E+02 -0.43217650954E+01 -0.37518878397E+02  0.43400728969E+02  0.00000000000E+00 0.  1.
         11    1    3    3    0    0 -0.55770519538E+01 -0.36250874579E+01  0.12316649003E+02  0.13998021663E+02  0.51100000000E-03 0. -1.
        -11    1    3    3    0    0 -0.54439871601E+01  0.87374034762E+01  0.58965192155E+01  0.11863732753E+02  0.51100000000E-03 0.  1.
        -12    1    3    3    0    0 -0.10363052762E+02 -0.79055092289E+00  0.19305710179E+02  0.21925516615E+02  0.00000000000E+00 0.  1.
</event>
<event>
 7    1  0.1457722E-010  0.4778726E+02  0.7816164E-02  0.1312668E+00
        -11   -1    0    0    0    0  0.00000000000E+00  0.00000000000E+00  0.45593999997E+02  0.45594000000E+02  0.51100000000E-03 0.  1.
         11   -1    0    0    0    0 -0.00000000000E+00 -0.00000000000E+00 -0.45593999997E+02  0.45594000000E+02  0.51100000000E-03 0. -1.
    9900012    2    1    2    0    0  0.30568206923E+00 -0.36572665389E+02 -0.23366020625E+02  0.47787260202E+02  0.19999950564E+02 0.  0.
        -12    1    1    2    0    0 -0.30568206923E+00  0.36572665389E+02  0.23366020625E+02  0.43400739798E+02  0.00000000000E+00 0.  1.
         11    1    3    3    0    0 -0.21494246863E+01 -0.61334383253E+01 -0.48344713855E+01  0.81000744448E+01  0.51100000000E-03 0. -1.
        -11    1    3    3    0    0 -0.70193248487E+01 -0.94044396889E+01 -0.87059322554E+01  0.14611901447E+02  0.51100000000E-03 0.  1.
        -12    1    3    3    0    0  0.94744316043E+01 -0.21034787375E+02 -0.98256169840E+01  0.25075284310E+02  0.00000000000E+00 0.  1.
</event>
<event>
 7    1  0.1457722E-010  0.4778727E+02  0.7816164E-02  0.1312668E+00
        -11   -1    0    0    0    0  0.00000000000E+00  0.00000000000E+00  0.45593999997E+02  0.45594000000E+02  0.51100000000E-03 0.  1.
         11   -1    0    0    0    0 -0.00000000000E+00 -0.00000000000E+00 -0.45593999997E+02  0.45594000000E+02  0.51100000000E-03 0. -1.
    9900012    2    1    2    0    0 -0.18075298161E+02 -0.22534025890E+02 -0.32390189127E+02  0.47787273300E+02  0.20000010282E+02 0.  0.
        -12    1    1    2    0    0  0.18075298161E+02  0.22534025890E+02  0.32390189127E+02  0.43400726700E+02  0.00000000000E+00 0.  1.
         11    1    3    3    0    0 -0.10541904009E+01  0.44177163014E+00 -0.63158867404E+01  0.64184815302E+01  0.51100000000E-03 0. -1.
        -11    1    3    3    0    0 -0.14982762021E+00  0.37499621125E+00  0.14622883877E+01  0.15170227632E+01  0.51100000000E-03 0.  1.
         12    1    3    3    0    0 -0.16871280139E+02 -0.23350793732E+02 -0.27536590775E+02  0.39851769006E+02  0.00000000000E+00 0. -1.
</event>
<event>
 7    1  0.1457722E-010  0.4778726E+02  0.7816164E-02  0.1312668E+00
        -11   -1    0    0    0    0  0.00000000000E+00  0.00000000000E+00  0.45593999997E+02  0.45594000000E+02  0.51100000000E-03 0.  1.
         11   -1    0    0    0    0 -0.00000000000E+00 -0.00000000000E+00 -0.45593999997E+02  0.45594000000E+02  0.51100000000E-03 0. -1.
    9900012    2    1    2    0    0  0.20544867223E+02  0.34937385588E+02 -0.15521325045E+02  0.47787262540E+02  0.19999961225E+02 0.  0.
        -12    1    1    2    0    0 -0.20544867223E+02 -0.34937385588E+02  0.15521325045E+02  0.43400737460E+02  0.00000000000E+00 0.  1.
         11    1    3    3    0    0  0.11262734945E+02  0.23244807021E+02 -0.11715905611E+02  0.28362522744E+02  0.51100000000E-03 0. -1.
        -11    1    3    3    0    0  0.10696018445E+02  0.11492311317E+02 -0.59994827951E+01  0.16806898109E+02  0.51100000000E-03 0.  1.
        -12    1    3    3    0    0 -0.14138861667E+01  0.20026724992E+00  0.21940633611E+01  0.26178416867E+01  0.00000000000E+00 0.  1.
</event>
<event>
 7    1  0.1457722E-010  0.4778727E+02  0.7816164E-02  0.1312668E+00
        -11   -1    0    0    0    0  0.00000000000E+00  0.00000000000E+00  0.45593999997E+02  0.45594000000E+02  0.51100000000E-03 0.  1.
         11   -1    0    0    0    0 -0.00000000000E+00 -0.00000000000E+00 -0.45593999997E+02  0.45594000000E+02  0.51100000000E-03 0. -1.
    9900012    2    1    2    0    0 -0.40864185628E+02 -0.61935278072E+01 -0.13243183682E+02  0.47787269962E+02  0.19999995065E+02 0.  0.
        -12    1    1    2    0    0  0.40864185628E+02  0.61935278072E+01  0.13243183682E+02  0.43400730038E+02  0.00000000000E+00 0.  1.
         11    1    3    3    0    0 -0.17389534627E+02 -0.71886189016E+01 -0.75778296649E+01  0.20285355776E+02  0.51100000000E-03 0. -1.
        -11    1    3    3    0    0  0.29912478416E+00  0.17477141163E+01  0.18447907093E+01  0.25587562000E+01  0.51100000000E-03 0.  1.
         12    1    3    3    0    0 -0.23773775786E+02 -0.75262302198E+00 -0.75101447269E+01  0.24943157986E+02  0.00000000000E+00 0. -1.
</event>
<event>
 7    1  0.1457722E-010  0.4778731E+02  0.7816164E-02  0.1312668E+00
        -11   -1    0    0    0    0  0.00000000000E+00  0.00000000000E+00  0.45593999997E+02  0.45594000000E+02  0.51100000000E-03 0.  1.
         11   -1    0    0    0    0 -0.00000000000E+00 -0.00000000000E+00 -0.45593999997E+02  0.45594000000E+02  0.51100000000E-03 0. -1.
    9900012    2    1    2    0    0  0.65408101706E+00 -0.36952861427E+02 -0.22752548858E+02  0.47787305661E+02  0.20000157828E+02 0.  0.
        -12    1    1    2    0    0 -0.65408101706E+00  0.36952861427E+02  0.22752548858E+02  0.43400694339E+02  0.00000000000E+00 0.  1.
         11    1    3    3    0    0 -0.19068766053E+00 -0.76962242817E+01 -0.88876269665E+01  0.11758322301E+02  0.51100000000E-03 0. -1.
        -11    1    3    3    0    0 -0.38866722505E+01 -0.22199071250E+02 -0.37962616746E+01  0.22854246619E+02  0.51100000000E-03 0.  1.
        -12    1    3    3    0    0  0.47314409281E+01 -0.70575658948E+01 -0.10068660217E+02  0.13174736741E+02  0.00000000000E+00 0.  1.
</event>
<event>
 7    1  0.1457722E-010  0.4778727E+02  0.7816164E-02  0.1312668E+00
        -11   -1    0    0    0    0  0.00000000000E+00  0.00000000000E+00  0.45593999997E+02  0.45594000000E+02  0.51100000000E-03 0.  1.
         11   -1    0    0    0    0 -0.00000000000E+00 -0.00000000000E+00 -0.45593999997E+02  0.45594000000E+02  0.51100000000E-03 0. -1.
    9900012    2    1    2    0    0 -0.28794792191E+02 -0.21306668751E+02 -0.24505282029E+02  0.47787273763E+02  0.20000012396E+02 0.  0.
        -12    1    1    2    0    0  0.28794792191E+02  0.21306668751E+02  0.24505282029E+02  0.43400726237E+02  0.00000000000E+00 0.  1.
         11    1    3    3    0    0 -0.18866259845E+02 -0.96390630475E+01 -0.65258410080E+01  0.22168308418E+02  0.51100000000E-03 0. -1.
        -11    1    3    3    0    0 -0.26843889583E+00  0.14496625485E+01 -0.35992323367E+01  0.38894799935E+01  0.51100000000E-03 0.  1.
        -12    1    3    3    0    0 -0.96600934495E+01 -0.13117268252E+02 -0.14380208684E+02  0.21729485352E+02  0.00000000000E+00 0.  1.
</event>
<event>
 7    1  0.1457722E-010  0.4778727E+02  0.7816164E-02  0.1312668E+00
        -11   -1    0    0    0    0  0.00000000000E+00  0.00000000000E+00  0.45593999997E+02  0.45594000000E+02  0.51100000000E-03 0.  1.
         11   -1    0    0    0    0 -0.00000000000E+00 -0.00000000000E+00 -0.45593999997E+02  0.45594000000E+02  0.51100000000E-03 0. -1.
    9900012    2    1    2    0    0 -0.50467788056E+01 -0.33721991777E+02 -0.26851087469E+02  0.47787267242E+02  0.19999982662E+02 0.  0.
        -12    1    1    2    0    0  0.50467788056E+01  0.33721991777E+02  0.26851087469E+02  0.43400732758E+02  0.00000000000E+00 0.  1.
         11    1    3    3    0    0  0.23906422811E+01 -0.29539691896E+02 -0.19729812247E+02  0.35603006326E+02  0.51100000000E-03 0. -1.
        -11    1    3    3    0    0 -0.24440353412E+01 -0.11962583737E+01  0.31848354626E+00  0.27396669280E+01  0.51100000000E-03 0.  1.
         12    1    3    3    0    0 -0.49933857455E+01 -0.29860415066E+01 -0.74397587676E+01  0.94445939882E+01  0.00000000000E+00 0. -1.
</event>
<event>
 7    1  0.1457722E-010  0.4778727E+02  0.7816164E-02  0.1312668E+00
        -11   -1    0    0    0    0  0.00000000000E+00  0.00000000000E+00  0.45593999997E+02  0.45594000000E+02  0.51100000000E-03 0.  1.
         11   -1    0    0    0    0 -0.00000000000E+00 -0.00000000000E+00 -0.45593999997E+02  0.45594000000E+02  0.51100000000E-03 0. -1.
    9900012    2    1    2    0    0 -0.11721300350E+02 -0.32753762888E+02 -0.25950439004E+02  0.47787272475E+02  0.20000006521E+02 0.  0.
        -12    1    1    2    0    0  0.11721300350E+02  0.32753762888E+02  0.25950439004E+02  0.43400727525E+02  0.00000000000E+00 0.  1.
         11    1    3    3    0    0 -0.12548927157E+02 -0.23624800153E+02 -0.19502773062E+02  0.33105360781E+02  0.51100000000E-03 0. -1.
        -11    1    3    3    0    0 -0.39172272895E+01 -0.29864227106E+01 -0.45178147161E+01  0.66838641753E+01  0.51100000000E-03 0.  1.
        -12    1    3    3    0    0  0.47448540969E+01 -0.61425400241E+01 -0.19298512263E+01  0.79980475182E+01  0.00000000000E+00 0.  1.
</event>
<event>
 7    1  0.1457722E-010  0.4778727E+02  0.7816164E-02  0.1312668E+00
        -11   -1    0    0    0    0  0.00000000000E+00  0.00000000000E+00  0.45593999997E+02  0.45594000000E+02  0.51100000000E-03 0. -1.
         11   -1    0    0    0    0 -0.00000000000E+00 -0.00000000000E+00 -0.45593999997E+02  0.45594000000E+02  0.51100000000E-03 0.  1.
    9900012    2    1    2    0    0  0.16856606289E+02  0.36509055522E+02  0.16326879294E+02  0.47787270764E+02  0.19999998723E+02 0.  0.
        -12    1    1    2    0    0 -0.16856606289E+02 -0.36509055522E+02 -0.16326879294E+02  0.43400729236E+02  0.00000000000E+00 0.  1.
         11    1    3    3    0    0  0.29568939909E+00  0.64628621321E+01  0.72839533329E+01  0.97422787671E+01  0.51100000000E-03 0. -1.
        -11    1    3    3    0    0 -0.35883240171E+00  0.33746478473E+01  0.52237692259E+01  0.62293477967E+01  0.51100000000E-03 0.  1.
         12    1    3    3    0    0  0.16919749292E+02  0.26671545543E+02  0.38191567348E+01  0.31815644201E+02  0.00000000000E+00 0. -1.
</event>
<event>
 7    1  0.1457722E-010  0.4778727E+02  0.7816164E-02  0.1312668E+00
        -11   -1    0    0    0    0  0.00000000000E+00  0.00000000000E+00  0.45593999997E+02  0.45594000000E+02  0.51100000000E-03 0. -1.
         11   -1    0    0    0    0 -0.00000000000E+00 -0.00000000000E+00 -0.45593999997E+02  0.45594000000E+02  0.51100000000E-03 0.  1.
    9900012    2    1    2    0    0  0.79206839479E+01 -0.41507752076E+02  0.98991181222E+01  0.47787271248E+02  0.20000000929E+02 0.  0.
        -12    1    1    2    0    0 -0.79206839479E+01  0.41507752076E+02 -0.98991181222E+01  0.43400728752E+02  0.00000000000E+00 0.  1.
         11    1    3    3    0    0  0.11111168874E+02 -0.22214370384E+02  0.14303237018E+01  0.24879351910E+02  0.51100000000E-03 0. -1.
        -11    1    3    3    0    0 -0.30819178721E+00 -0.17810002010E+02  0.58756278339E+01  0.18756709639E+02  0.51100000000E-03 0.  1.
         12    1    3    3    0    0 -0.28822931392E+01 -0.14833796812E+01  0.25931665864E+01  0.41512096988E+01  0.00000000000E+00 0. -1.
</event>
<event>
 7    1  0.1660543E-010  0.4778727E+02  0.7816164E-02  0.1312668E+00
        -11   -1    0    0    0    0  0.00000000000E+00  0.00000000000E+00  0.45593999997E+02  0.45594000000E+02  0.51100000000E-03 0. -1.
         11   -1    0    0    0    0 -0.00000000000E+00 -0.00000000000E+00 -0.45593999997E+02  0.45594000000E+02  0.51100000000E-03 0.  1.
    9900012    2    1    2    0    0  0.53916662189E+01 -0.38183598947E+02  0.19913957016E+02  0.47787274462E+02  0.20000015582E+02 0.  0.
        -12    1    1    2    0    0 -0.53916662189E+01  0.38183598947E+02 -0.19913957016E+02  0.43400725538E+02  0.00000000000E+00 0.  1.
         11    1    3    3    0    0  0.73901460124E+01 -0.23141702890E+02  0.92989399415E+01  0.26011977146E+02  0.51100000000E-03 0. -1.
        -11    1    3    3    0    0  0.17040339789E+01  0.11338390472E+01 -0.53786066807E-01  0.20474901680E+01  0.51100000000E-03 0.  1.
         12    1    3    3    0    0 -0.37025137724E+01 -0.16175735104E+02  0.10668803141E+02  0.19727807148E+02  0.00000000000E+00 0. -1.
</event>
<event>
 7    1  0.1457722E-010  0.4778727E+02  0.7816164E-02  0.1312668E+00
        -11   -1    0    0    0    0  0.00000000000E+00  0.00000000000E+00  0.45593999997E+02  0.45594000000E+02  0.51100000000E-03 0.  1.
         11   -1    0    0    0    0 -0.00000000000E+00 -0.00000000000E+00 -0.45593999997E+02  0.45594000000E+02  0.51100000000E-03 0. -1.
    9900012    2    1    2    0    0 -0.14707208236E+02  0.20306532355E+02 -0.35425500618E+02  0.47787270463E+02  0.19999997347E+02 0.  0.
        -12    1    1    2    0    0  0.14707208236E+02 -0.20306532355E+02  0.35425500618E+02  0.43400729537E+02  0.00000000000E+00 0.  1.
         11    1    3    3    0    0 -0.75879546996E+01  0.10438984156E+02 -0.23577391819E+02  0.26878297044E+02  0.51100000000E-03 0. -1.
        -11    1    3    3    0    0  0.16725168547E+01  0.74663621791E+01 -0.30361649870E+01  0.82317783563E+01  0.51100000000E-03 0.  1.
         12    1    3    3    0    0 -0.87917703907E+01  0.24011860196E+01 -0.88119438113E+01  0.12677195062E+02  0.00000000000E+00 0. -1.
</event>
<event>
 7    1  0.1457722E-010  0.4778727E+02  0.7816164E-02  0.1312668E+00
        -11   -1    0    0    0    0  0.00000000000E+00  0.00000000000E+00  0.45593999997E+02  0.45594000000E+02  0.51100000000E-03 0.  1.
         11   -1    0    0    0    0 -0.00000000000E+00 -0.00000000000E+00 -0.45593999997E+02  0.45594000000E+02  0.51100000000E-03 0. -1.
    9900012    2    1    2    0    0  0.20628508427E+02 -0.37410551799E+02 -0.76510568132E+01  0.47787269404E+02  0.19999992522E+02 0.  0.
        -12    1    1    2    0    0 -0.20628508427E+02  0.37410551799E+02  0.76510568132E+01  0.43400730596E+02  0.00000000000E+00 0.  1.
         11    1    3    3    0    0  0.77826975840E+01 -0.22120335118E+02  0.29689894740E+01  0.23636719446E+02  0.51100000000E-03 0. -1.
        -11    1    3    3    0    0  0.60641093865E+01 -0.20183864469E+01 -0.11543337096E+01  0.64945972219E+01  0.51100000000E-03 0.  1.
         12    1    3    3    0    0  0.67817014568E+01 -0.13271830234E+02 -0.94657125776E+01  0.17655952736E+02  0.00000000000E+00 0. -1.
</event>
<event>
 7    1  0.1457722E-010  0.4778728E+02  0.7816164E-02  0.1312668E+00
        -11   -1    0    0    0    0  0.00000000000E+00  0.00000000000E+00  0.45593999997E+02  0.45594000000E+02  0.51100000000E-03 0. -1.
         11   -1    0    0    0    0 -0.00000000000E+00 -0.00000000000E+00 -0.45593999997E+02  0.45594000000E+02  0.51100000000E-03 0.  1.
    9900012    2    1    2    0    0 -0.87781903553E+01  0.16768209607E+02  0.39056283546E+02  0.47787276921E+02  0.20000026795E+02 0.  0.
        -12    1    1    2    0    0  0.87781903553E+01 -0.16768209607E+02 -0.39056283546E+02  0.43400723079E+02  0.00000000000E+00 0.  1.
         11    1    3    3    0    0 -0.26925874598E+01  0.84122662397E+01  0.17880517468E+02  0.19943148089E+02  0.51100000000E-03 0. -1.
        -11    1    3    3    0    0  0.29833856581E+01  0.67038818229E+01  0.15143468103E+02  0.16827574036E+02  0.51100000000E-03 0.  1.
        -12    1    3    3    0    0 -0.90689885536E+01  0.16520615448E+01  0.60322979748E+01  0.11016554797E+02  0.00000000000E+00 0.  1.
</event>
<event>
 7    1  0.1457722E-010  0.4778727E+02  0.7816164E-02  0.1312668E+00
        -11   -1    0    0    0    0  0.00000000000E+00  0.00000000000E+00  0.45593999997E+02  0.45594000000E+02  0.51100000000E-03 0. -1.
         11   -1    0    0    0    0 -0.00000000000E+00 -0.00000000000E+00 -0.45593999997E+02  0.45594000000E+02  0.51100000000E-03 0.  1.
    9900012    2    1    2    0    0  0.32308293937E+02  0.63907283664E+01  0.28265808911E+02  0.47787271670E+02  0.20000002853E+02 0.  0.
        -12    1    1    2    0    0 -0.32308293937E+02 -0.63907283664E+01 -0.28265808911E+02  0.43400728330E+02  0.00000000000E+00 0.  1.
         11    1    3    3    0    0  0.40687441720E+01  0.82265084575E+01  0.11114949702E+02  0.14414306354E+02  0.51100000000E-03 0. -1.
        -11    1    3    3    0    0  0.75956654312E+01 -0.23077203250E+01  0.55727468783E+01  0.96992378294E+01  0.51100000000E-03 0.  1.
         12    1    3    3    0    0  0.20643884333E+02  0.47194023399E+00  0.11578112331E+02  0.23673727486E+02  0.00000000000E+00 0. -1.
</event>
<event>
 7    1  0.1457722E-010  0.4778727E+02  0.7816164E-02  0.1312668E+00
        -11   -1    0    0    0    0  0.00000000000E+00  0.00000000000E+00  0.45593999997E+02  0.45594000000E+02  0.51100000000E-03 0.  1.
         11   -1    0    0    0    0 -0.00000000000E+00 -0.00000000000E+00 -0.45593999997E+02  0.45594000000E+02  0.51100000000E-03 0. -1.
    9900012    2    1    2    0    0  0.22450602475E+02  0.32125149875E+02 -0.18643184001E+02  0.47787272867E+02  0.20000008310E+02 0.  0.
        -12    1    1    2    0    0 -0.22450602475E+02 -0.32125149875E+02  0.18643184001E+02  0.43400727133E+02  0.00000000000E+00 0.  1.
         11    1    3    3    0    0  0.74850091084E+01  0.14409767237E+02 -0.44807598015E+01  0.16844701298E+02  0.51100000000E-03 0. -1.
        -11    1    3    3    0    0  0.69807107471E+01  0.91686692792E+01 -0.15340984966E+02  0.19186991397E+02  0.51100000000E-03 0.  1.
        -12    1    3    3    0    0  0.79848826194E+01  0.85467133590E+01  0.11785607667E+01  0.11755580171E+02  0.00000000000E+00 0.  1.
</event>
<event>
 7    1  0.1457722E-010  0.4778727E+02  0.7816164E-02  0.1312668E+00
        -11   -1    0    0    0    0  0.00000000000E+00  0.00000000000E+00  0.45593999997E+02  0.45594000000E+02  0.51100000000E-03 0.  1.
         11   -1    0    0    0    0 -0.00000000000E+00 -0.00000000000E+00 -0.45593999997E+02  0.45594000000E+02  0.51100000000E-03 0. -1.
    9900012    2    1    2    0    0 -0.65692732466E+01 -0.38792991756E+02 -0.18318607977E+02  0.47787274677E+02  0.20000016561E+02 0.  0.
        -12    1    1    2    0    0  0.65692732466E+01  0.38792991756E+02  0.18318607977E+02  0.43400725323E+02  0.00000000000E+00 0.  1.
         11    1    3    3    0    0 -0.49210925286E+01 -0.62336069517E+01 -0.60464067607E+01  0.99816853427E+01  0.51100000000E-03 0. -1.
        -11    1    3    3    0    0 -0.21594766447E+01 -0.16089410371E+02  0.15371481931E+01  0.16306296032E+02  0.51100000000E-03 0.  1.
        -12    1    3    3    0    0  0.51129592673E+00 -0.16469974434E+02 -0.13809349409E+02  0.21499293302E+02  0.00000000000E+00 0.  1.
</event>
<event>
 7    1  0.1457722E-010  0.4778727E+02  0.7816164E-02  0.1312668E+00
        -11   -1    0    0    0    0  0.00000000000E+00  0.00000000000E+00  0.45593999997E+02  0.45594000000E+02  0.51100000000E-03 0.  1.
         11   -1    0    0    0    0 -0.00000000000E+00 -0.00000000000E+00 -0.45593999997E+02  0.45594000000E+02  0.51100000000E-03 0. -1.
    9900012    2    1    2    0    0  0.26686819825E+02  0.34185372649E+02 -0.16724059297E+01  0.47787274233E+02  0.20000014537E+02 0.  0.
        -12    1    1    2    0    0 -0.26686819825E+02 -0.34185372649E+02  0.16724059297E+01  0.43400725767E+02  0.00000000000E+00 0.  1.
         11    1    3    3    0    0 -0.14631347725E+01  0.24452762371E+01  0.18438727290E+00  0.28555451609E+01  0.51100000000E-03 0. -1.
        -11    1    3    3    0    0 -0.12553632379E+00  0.61694693994E+01  0.22942410349E+01  0.65834378728E+01  0.51100000000E-03 0.  1.
         12    1    3    3    0    0  0.28275490921E+02  0.25570627013E+02 -0.41510342375E+01  0.38348291199E+02  0.00000000000E+00 0. -1.
</event>
<event>
 7    1  0.1457722E-010  0.4778727E+02  0.7816164E-02  0.1312668E+00
        -11   -1    0    0    0    0  0.00000000000E+00  0.00000000000E+00  0.45593999997E+02  0.45594000000E+02  0.51100000000E-03 0.  1.
         11   -1    0    0    0    0 -0.00000000000E+00 -0.00000000000E+00 -0.45593999997E+02  0.45594000000E+02  0.51100000000E-03 0. -1.
    9900012    2    1    2    0    0  0.24788902844E+02 -0.23688551657E+02 -0.26608008977E+02  0.47787270450E+02  0.19999997289E+02 0.  0.
        -12    1    1    2    0    0 -0.24788902844E+02  0.23688551657E+02  0.26608008977E+02  0.43400729550E+02  0.00000000000E+00 0.  1.
         11    1    3    3    0    0  0.21089695564E+01 -0.46766694049E+01  0.23537646312E+01  0.56443952300E+01  0.51100000000E-03 0.  1.
        -11    1    3    3    0    0  0.14663259491E+02 -0.12808315993E+02 -0.13642451048E+02  0.23773527469E+02  0.51100000000E-03 0. -1.
        -12    1    3    3    0    0  0.80166737967E+01 -0.62035662587E+01 -0.15319322560E+02  0.18369347751E+02  0.00000000000E+00 0.  1.
</event>
<event>
 7    1  0.1457722E-010  0.4778727E+02  0.7816164E-02  0.1312668E+00
        -11   -1    0    0    0    0  0.00000000000E+00  0.00000000000E+00  0.45593999997E+02  0.45594000000E+02  0.51100000000E-03 0. -1.
         11   -1    0    0    0    0 -0.00000000000E+00 -0.00000000000E+00 -0.45593999997E+02  0.45594000000E+02  0.51100000000E-03 0.  1.
    9900012    2    1    2    0    0 -0.16253580971E+02 -0.63295542519E+01  0.39741431440E+02  0.47787268159E+02  0.19999986844E+02 0.  0.
        -12    1    1    2    0    0  0.16253580971E+02  0.63295542519E+01 -0.39741431440E+02  0.43400731841E+02  0.00000000000E+00 0.  1.
         11    1    3    3    0    0 -0.84703467028E+01  0.24760295522E+00  0.59569133284E+01  0.10358228476E+02  0.51100000000E-03 0. -1.
        -11    1    3    3    0    0 -0.63448084230E+01 -0.30900954063E+00  0.54376876306E+01  0.83618495472E+01  0.51100000000E-03 0.  1.
         12    1    3    3    0    0 -0.14384258450E+01 -0.62681476665E+01  0.28346830481E+02  0.29067190136E+02  0.00000000000E+00 0. -1.
</event>
<event>
 7    1  0.1457722E-010  0.4778727E+02  0.7816164E-02  0.1312668E+00
        -11   -1    0    0    0    0  0.00000000000E+00  0.00000000000E+00  0.45593999997E+02  0.45594000000E+02  0.51100000000E-03 0.  1.
         11   -1    0    0    0    0 -0.00000000000E+00 -0.00000000000E+00 -0.45593999997E+02  0.45594000000E+02  0.51100000000E-03 0. -1.
    9900012    2    1    2    0    0  0.33628243145E+02 -0.24494134928E+02 -0.12361319066E+02  0.47787267380E+02  0.19999983293E+02 0.  0.
        -12    1    1    2    0    0 -0.33628243145E+02  0.24494134928E+02  0.12361319066E+02  0.43400732620E+02  0.00000000000E+00 0.  1.
         11    1    3    3    0    0  0.13583920576E+02 -0.79342096360E+01 -0.10348038100E-01  0.15731328237E+02  0.51100000000E-03 0. -1.
        -11    1    3    3    0    0 -0.88828787444E+00  0.15752712209E+01 -0.13433228285E+01  0.22527874400E+01  0.51100000000E-03 0.  1.
        -12    1    3    3    0    0  0.20932610443E+02 -0.18135196513E+02 -0.11007648199E+02  0.29803151703E+02  0.00000000000E+00 0.  1.
</event>
<event>
 7    1  0.1457722E-010  0.4778727E+02  0.7816164E-02  0.1312668E+00
        -11   -1    0    0    0    0  0.00000000000E+00  0.00000000000E+00  0.45593999997E+02  0.45594000000E+02  0.51100000000E-03 0. -1.
         11   -1    0    0    0    0 -0.00000000000E+00 -0.00000000000E+00 -0.45593999997E+02  0.45594000000E+02  0.51100000000E-03 0.  1.
    9900012    2    1    2    0    0 -0.30423941008E+02 -0.25553350153E+02 -0.17465211057E+02  0.47787268580E+02  0.19999988766E+02 0.  0.
        -12    1    1    2    0    0  0.30423941008E+02  0.25553350153E+02  0.17465211057E+02  0.43400731420E+02  0.00000000000E+00 0.  1.
         11    1    3    3    0    0 -0.38393450036E+01 -0.20316690888E+01 -0.71854397426E+00  0.44027894621E+01  0.51100000000E-03 0. -1.
        -11    1    3    3    0    0 -0.22200781578E+01  0.30750138387E+01 -0.27922589307E+01  0.47096886662E+01  0.51100000000E-03 0.  1.
         12    1    3    3    0    0 -0.24364517846E+02 -0.26596694903E+02 -0.13954408152E+02  0.38674790452E+02  0.00000000000E+00 0. -1.
</event>
<event>
 7    1  0.1457722E-010  0.4778726E+02  0.7816164E-02  0.1312668E+00
        -11   -1    0    0    0    0  0.00000000000E+00  0.00000000000E+00  0.45593999997E+02  0.45594000000E+02  0.51100000000E-03 0.  1.
         11   -1    0    0    0    0 -0.00000000000E+00 -0.00000000000E+00 -0.45593999997E+02  0.45594000000E+02  0.51100000000E-03 0. -1.
    9900012    2    1    2    0    0 -0.82869762457E+01 -0.93716061742E+01 -0.41558675905E+02  0.47787256682E+02  0.19999934514E+02 0.  0.
        -12    1    1    2    0    0  0.82869762457E+01  0.93716061742E+01  0.41558675905E+02  0.43400743318E+02  0.00000000000E+00 0.  1.
         11    1    3    3    0    0 -0.13166869426E+01 -0.91142143910E+01 -0.32164731975E+02  0.33457025447E+02  0.51100000000E-03 0. -1.
        -11    1    3    3    0    0  0.16553023858E+01 -0.13383130733E+01 -0.18396388086E+01  0.28134283495E+01  0.51100000000E-03 0.  1.
        -12    1    3    3    0    0 -0.86255916890E+01  0.10809212901E+01 -0.75543051215E+01  0.11516802885E+02  0.00000000000E+00 0.  1.
</event>
<event>
 7    1  0.1457722E-010  0.4778727E+02  0.7816164E-02  0.1312668E+00
        -11   -1    0    0    0    0  0.00000000000E+00  0.00000000000E+00  0.45593999997E+02  0.45594000000E+02  0.51100000000E-03 0. -1.
         11   -1    0    0    0    0 -0.00000000000E+00 -0.00000000000E+00 -0.45593999997E+02  0.45594000000E+02  0.51100000000E-03 0.  1.
    9900012    2    1    2    0    0 -0.28707747161E+02 -0.10333801265E+02  0.30865861169E+02  0.47787267502E+02  0.19999983849E+02 0.  0.
        -12    1    1    2    0    0  0.28707747161E+02  0.10333801265E+02 -0.30865861169E+02  0.43400732498E+02  0.00000000000E+00 0.  1.
         11    1    3    3    0    0 -0.32700557374E+01 -0.43447962271E+01  0.13685131650E+01  0.56074367874E+01  0.51100000000E-03 0. -1.
        -11    1    3    3    0    0 -0.49584513959E+01  0.29406895464E+01  0.13565614216E+02  0.14739734889E+02  0.51100000000E-03 0.  1.
         12    1    3    3    0    0 -0.20479240027E+02 -0.89296945845E+01  0.15931733788E+02  0.27440095826E+02  0.00000000000E+00 0. -1.
</event>
<event>
 7    1  0.1587530E-010  0.4778728E+02  0.7816164E-02  0.1312668E+00
        -11   -1    0    0    0    0  0.00000000000E+00  0.00000000000E+00  0.45593999997E+02  0.45594000000E+02  0.51100000000E-03 0.  1.
         11   -1    0    0    0    0 -0.00000000000E+00 -0.00000000000E+00 -0.45593999997E+02  0.45594000000E+02  0.51100000000E-03 0. -1.
    9900012    2    1    2    0    0  0.33471740277E+02 -0.27336123029E+02  0.40002213144E+01  0.47787276619E+02  0.20000025416E+02 0.  0.
        -12    1    1    2    0    0 -0.33471740277E+02  0.27336123029E+02 -0.40002213144E+01  0.43400723381E+02  0.00000000000E+00 0.  1.
         11    1    3    3    0    0  0.25402823203E+02 -0.14683128815E+02 -0.27460329650E+01  0.29469278847E+02  0.51100000000E-03 0. -1.
        -11    1    3    3    0    0  0.22129081862E+00  0.10235491904E+01  0.12240571841E+01  0.16108813807E+01  0.51100000000E-03 0.  1.
         12    1    3    3    0    0  0.78476262560E+01 -0.13676543404E+02  0.55221970952E+01  0.16707116391E+02  0.00000000000E+00 0. -1.
</event>
<event>
 7    1  0.1457722E-010  0.4778727E+02  0.7816164E-02  0.1312668E+00
        -11   -1    0    0    0    0  0.00000000000E+00  0.00000000000E+00  0.45593999997E+02  0.45594000000E+02  0.51100000000E-03 0.  1.
         11   -1    0    0    0    0 -0.00000000000E+00 -0.00000000000E+00 -0.45593999997E+02  0.45594000000E+02  0.51100000000E-03 0. -1.
    9900012    2    1    2    0    0 -0.34879947760E+02 -0.25816059596E+02 -0.73737903326E+00  0.47787269400E+02  0.19999992500E+02 0.  0.
        -12    1    1    2    0    0  0.34879947760E+02  0.25816059596E+02  0.73737903326E+00  0.43400730600E+02  0.00000000000E+00 0.  1.
         11    1    3    3    0    0 -0.28181301802E+01 -0.50342700371E+01 -0.60849294095E+01  0.83852309866E+01  0.51100000000E-03 0. -1.
        -11    1    3    3    0    0 -0.16810498592E+02 -0.15445329825E+02  0.21405716587E+01  0.22928870962E+02  0.51100000000E-03 0.  1.
        -12    1    3    3    0    0 -0.15251318988E+02 -0.53364597340E+01  0.32069787175E+01  0.16473167451E+02  0.00000000000E+00 0.  1.
</event>
<event>
 7    1  0.1457722E-010  0.4778727E+02  0.7816164E-02  0.1312668E+00
        -11   -1    0    0    0    0  0.00000000000E+00  0.00000000000E+00  0.45593999997E+02  0.45594000000E+02  0.51100000000E-03 0. -1.
         11   -1    0    0    0    0 -0.00000000000E+00 -0.00000000000E+00 -0.45593999997E+02  0.45594000000E+02  0.51100000000E-03 0.  1.
    9900012    2    1    2    0    0  0.30093048884E+02 -0.28312536273E+02  0.13282761368E+02  0.47787273613E+02  0.20000011711E+02 0.  0.
        -12    1    1    2    0    0 -0.30093048884E+02  0.28312536273E+02 -0.13282761368E+02  0.43400726387E+02  0.00000000000E+00 0.  1.
         11    1    3    3    0    0  0.12350132255E+02 -0.23817882746E+01  0.65400225441E+01  0.14176409180E+02  0.51100000000E-03 0. -1.
        -11    1    3    3    0    0 -0.34738958851E-01 -0.36071671544E+01 -0.15000790423E+01  0.39068016419E+01  0.51100000000E-03 0.  1.
        -12    1    3    3    0    0  0.17777655588E+02 -0.22323580845E+02  0.82428178666E+01  0.29704062791E+02  0.00000000000E+00 0.  1.
</event>
<event>
 7    1  0.1457722E-010  0.4778727E+02  0.7816164E-02  0.1312668E+00
        -11   -1    0    0    0    0  0.00000000000E+00  0.00000000000E+00  0.45593999997E+02  0.45594000000E+02  0.51100000000E-03 0.  1.
         11   -1    0    0    0    0 -0.00000000000E+00 -0.00000000000E+00 -0.45593999997E+02  0.45594000000E+02  0.51100000000E-03 0. -1.
    9900012    2    1    2    0    0 -0.16188322714E+02 -0.37442302071E+02  0.14820111787E+02  0.47787268554E+02  0.19999988644E+02 0.  0.
        -12    1    1    2    0    0  0.16188322714E+02  0.37442302071E+02 -0.14820111787E+02  0.43400731446E+02  0.00000000000E+00 0.  1.
         11    1    3    3    0    0 -0.10832536221E+02 -0.26900016673E+02  0.14424969749E+02  0.32388801931E+02  0.51100000000E-03 0.  1.
        -11    1    3    3    0    0 -0.11232641460E+01 -0.22286128906E+01  0.45472797911E+01  0.51871178430E+01  0.51100000000E-03 0. -1.
         12    1    3    3    0    0 -0.42325223463E+01 -0.83136725080E+01 -0.41521377536E+01  0.10211348780E+02  0.00000000000E+00 0. -1.
</event>
<event>
 7    1  0.1457722E-010  0.4778727E+02  0.7816164E-02  0.1312668E+00
        -11   -1    0    0    0    0  0.00000000000E+00  0.00000000000E+00  0.45593999997E+02  0.45594000000E+02  0.51100000000E-03 0. -1.
         11   -1    0    0    0    0 -0.00000000000E+00 -0.00000000000E+00 -0.45593999997E+02  0.45594000000E+02  0.51100000000E-03 0.  1.
    9900012    2    1    2    0    0 -0.35618329306E+01  0.42518262346E+02 -0.79457014422E+01  0.47787268921E+02  0.19999990319E+02 0.  0.
        -12    1    1    2    0    0  0.35618329306E+01 -0.42518262346E+02  0.79457014422E+01  0.43400731079E+02  0.00000000000E+00 0.  1.
         11    1    3    3    0    0  0.48925810435E+01  0.22008103456E+02 -0.21226379877E+01  0.22645078037E+02  0.51100000000E-03 0. -1.
        -11    1    3    3    0    0 -0.43989780430E+01  0.18928404935E+02 -0.69626105957E+01  0.20642516024E+02  0.51100000000E-03 0.  1.
        -12    1    3    3    0    0 -0.40554359312E+01  0.15817539549E+01  0.11395471412E+01  0.44996748608E+01  0.00000000000E+00 0.  1.
</event>
<event>
 7    1  0.1457722E-010  0.4778727E+02  0.7816164E-02  0.1312668E+00
        -11   -1    0    0    0    0  0.00000000000E+00  0.00000000000E+00  0.45593999997E+02  0.45594000000E+02  0.51100000000E-03 0. -1.
         11   -1    0    0    0    0 -0.00000000000E+00 -0.00000000000E+00 -0.45593999997E+02  0.45594000000E+02  0.51100000000E-03 0.  1.
    9900012    2    1    2    0    0  0.14249128877E+02 -0.34839282027E+02  0.21605794074E+02  0.47787267478E+02  0.19999983737E+02 0.  0.
        -12    1    1    2    0    0 -0.14249128877E+02  0.34839282027E+02 -0.21605794074E+02  0.43400732522E+02  0.00000000000E+00 0.  1.
         11    1    3    3    0    0  0.87549250643E+00 -0.94162546371E-01 -0.93573985602E+00  0.12848980711E+01  0.51100000000E-03 0. -1.
        -11    1    3    3    0    0 -0.37511092940E+01 -0.83114612795E+01  0.40334603967E+01  0.99709584579E+01  0.51100000000E-03 0.  1.
         12    1    3    3    0    0  0.17124745664E+02 -0.26433658201E+02  0.18508073533E+02  0.36531410948E+02  0.00000000000E+00 0. -1.
</event>
<event>
 7    1  0.1457722E-010  0.4778727E+02  0.7816164E-02  0.1312668E+00
        -11   -1    0    0    0    0  0.00000000000E+00  0.00000000000E+00  0.45593999997E+02  0.45594000000E+02  0.51100000000E-03 0. -1.
         11   -1    0    0    0    0 -0.00000000000E+00 -0.00000000000E+00 -0.45593999997E+02  0.45594000000E+02  0.51100000000E-03 0.  1.
    9900012    2    1    2    0    0 -0.39687414476E+02 -0.13269297704E+02 -0.11509046226E+02  0.47787271038E+02  0.19999999973E+02 0.  0.
        -12    1    1    2    0    0  0.39687414476E+02  0.13269297704E+02  0.11509046226E+02  0.43400728962E+02  0.00000000000E+00 0.  1.
         11    1    3    3    0    0 -0.69375682659E+01 -0.68058996750E+01  0.16223274698E+01  0.98530234198E+01  0.51100000000E-03 0. -1.
        -11    1    3    3    0    0 -0.34042815412E+01 -0.36418914493E+01  0.12398085412E+01  0.51370839608E+01  0.51100000000E-03 0.  1.
        -12    1    3    3    0    0 -0.29345564669E+02 -0.28215065800E+01 -0.14371182237E+02  0.32797163658E+02  0.00000000000E+00 0.  1.
</event>
<event>
 7    1  0.1457722E-010  0.4778727E+02  0.7816164E-02  0.1312668E+00
        -11   -1    0    0    0    0  0.00000000000E+00  0.00000000000E+00  0.45593999997E+02  0.45594000000E+02  0.51100000000E-03 0.  1.
         11   -1    0    0    0    0 -0.00000000000E+00 -0.00000000000E+00 -0.45593999997E+02  0.45594000000E+02  0.51100000000E-03 0. -1.
    9900012    2    1    2    0    0  0.15667858329E+02  0.33685945422E+01 -0.40333539406E+02  0.47787267116E+02  0.19999982090E+02 0.  0.
        -12    1    1    2    0    0 -0.15667858329E+02 -0.33685945422E+01  0.40333539406E+02  0.43400732884E+02  0.00000000000E+00 0.  1.
         11    1    3    3    0    0  0.11788128955E+02 -0.20703438415E+01 -0.11868097418E+02  0.16855208230E+02  0.51100000000E-03 0. -1.
        -11    1    3    3    0    0  0.49195445649E+01  0.69838595797E+01 -0.14395219398E+02  0.16739132449E+02  0.51100000000E-03 0.  1.
        -12    1    3    3    0    0 -0.10398151911E+01 -0.15449211960E+01 -0.14070222590E+02  0.14192926438E+02  0.00000000000E+00 0.  1.
</event>
<event>
 7    1  0.1457722E-010  0.4778729E+02  0.7816164E-02  0.1312668E+00
        -11   -1    0    0    0    0  0.00000000000E+00  0.00000000000E+00  0.45593999997E+02  0.45594000000E+02  0.51100000000E-03 0.  1.
         11   -1    0    0    0    0 -0.00000000000E+00 -0.00000000000E+00 -0.45593999997E+02  0.45594000000E+02  0.51100000000E-03 0. -1.
    9900012    2    1    2    0    0  0.16499534551E+02 -0.58180562771E+01 -0.39718225372E+02  0.47787287495E+02  0.20000075005E+02 0.  0.
        -12    1    1    2    0    0 -0.16499534551E+02  0.58180562771E+01  0.39718225372E+02  0.43400712505E+02  0.00000000000E+00 0.  1.
         11    1    3    3    0    0  0.39864456720E+01 -0.47806292499E+01 -0.16262442492E+02  0.17413018153E+02  0.51100000000E-03 0.  1.
        -11    1    3    3    0    0  0.11453926189E+02 -0.39725308879E+01 -0.78117931243E+01  0.14422119777E+02  0.51100000000E-03 0. -1.
         12    1    3    3    0    0  0.10591626904E+01  0.29351038607E+01 -0.15643989755E+02  0.15952149565E+02  0.00000000000E+00 0. -1.
</event>
<event>
 7    1  0.1457722E-010  0.4778727E+02  0.7816164E-02  0.1312668E+00
        -11   -1    0    0    0    0  0.00000000000E+00  0.00000000000E+00  0.45593999997E+02  0.45594000000E+02  0.51100000000E-03 0. -1.
         11   -1    0    0    0    0 -0.00000000000E+00 -0.00000000000E+00 -0.45593999997E+02  0.45594000000E+02  0.51100000000E-03 0.  1.
    9900012    2    1    2    0    0  0.43007124073E+02  0.24456916235E+01 -0.52942891961E+01  0.47787266981E+02  0.19999981472E+02 0.  0.
        -12    1    1    2    0    0 -0.43007124073E+02 -0.24456916235E+01  0.52942891961E+01  0.43400733019E+02  0.00000000000E+00 0.  1.
         11    1    3    3    0    0 -0.10558808166E+01 -0.36886161455E+00 -0.12088143698E+01  0.16468684317E+01  0.51100000000E-03 0. -1.
        -11    1    3    3    0    0  0.10612066134E+02 -0.52242186384E+00 -0.64685074165E+01  0.12439069928E+02  0.51100000000E-03 0.  1.
         12    1    3    3    0    0  0.33450938756E+02  0.33369751019E+01  0.23830325902E+01  0.33701328621E+02  0.00000000000E+00 0. -1.
</event>
<event>
 7    1  0.1457722E-010  0.4778727E+02  0.7816164E-02  0.1312668E+00
        -11   -1    0    0    0    0  0.00000000000E+00  0.00000000000E+00  0.45593999997E+02  0.45594000000E+02  0.51100000000E-03 0. -1.
         11   -1    0    0    0    0 -0.00000000000E+00 -0.00000000000E+00 -0.45593999997E+02  0.45594000000E+02  0.51100000000E-03 0.  1.
    9900012    2    1    2    0    0 -0.35567738814E+01  0.11961876359E+02  0.41567848359E+02  0.47787272545E+02  0.20000006841E+02 0.  0.
        -12    1    1    2    0    0  0.35567738814E+01 -0.11961876359E+02 -0.41567848359E+02  0.43400727455E+02  0.00000000000E+00 0.  1.
         11    1    3    3    0    0 -0.93003954648E+01  0.48280751036E+01  0.12604094523E+02  0.16391182508E+02  0.51100000000E-03 0.  1.
        -11    1    3    3    0    0  0.21323182338E+01  0.80981839193E+01  0.19618004098E+02  0.21330575447E+02  0.51100000000E-03 0. -1.
        -12    1    3    3    0    0  0.36113033495E+01 -0.96438266395E+00  0.93457497373E+01  0.10065514590E+02  0.00000000000E+00 0.  1.
</event>
<event>
 7    1  0.1457722E-010  0.4778727E+02  0.7816164E-02  0.1312668E+00
        -11   -1    0    0    0    0  0.00000000000E+00  0.00000000000E+00  0.45593999997E+02  0.45594000000E+02  0.51100000000E-03 0.  1.
         11   -1    0    0    0    0 -0.00000000000E+00 -0.00000000000E+00 -0.45593999997E+02  0.45594000000E+02  0.51100000000E-03 0. -1.
    9900012    2    1    2    0    0 -0.98344439365E+01  0.39930905771E+02 -0.13871910757E+02  0.47787269231E+02  0.19999991734E+02 0.  0.
        -12    1    1    2    0    0  0.98344439365E+01 -0.39930905771E+02  0.13871910757E+02  0.43400730769E+02  0.00000000000E+00 0.  1.
         11    1    3    3    0    0  0.66314164630E+00  0.28709715667E+02 -0.81284529456E+01  0.29845590597E+02  0.51100000000E-03 0. -1.
        -11    1    3    3    0    0 -0.30685663261E+01 -0.20876864180E+00  0.17412767609E+00  0.30805850665E+01  0.51100000000E-03 0.  1.
        -12    1    3    3    0    0 -0.74290192567E+01  0.11429958745E+02 -0.59175854871E+01  0.14861093568E+02  0.00000000000E+00 0.  1.
</event>
<event>
 7    1  0.1457722E-010  0.4778727E+02  0.7816164E-02  0.1312668E+00
        -11   -1    0    0    0    0  0.00000000000E+00  0.00000000000E+00  0.45593999997E+02  0.45594000000E+02  0.51100000000E-03 0. -1.
         11   -1    0    0    0    0 -0.00000000000E+00 -0.00000000000E+00 -0.45593999997E+02  0.45594000000E+02  0.51100000000E-03 0.  1.
    9900012    2    1    2    0    0 -0.27242507175E+02 -0.47462449918E+01  0.33450591050E+02  0.47787273274E+02  0.20000010167E+02 0.  0.
        -12    1    1    2    0    0  0.27242507175E+02  0.47462449918E+01 -0.33450591050E+02  0.43400726726E+02  0.00000000000E+00 0.  1.
         11    1    3    3    0    0 -0.19477475506E+02  0.38320216890E+01  0.18642507045E+02  0.27232324754E+02  0.51100000000E-03 0. -1.
        -11    1    3    3    0    0  0.57275152013E+00 -0.16798452612E+01  0.69714586223E+01  0.71938279094E+01  0.51100000000E-03 0.  1.
        -12    1    3    3    0    0 -0.83377831889E+01 -0.68984214195E+01  0.78366253828E+01  0.13361120611E+02  0.00000000000E+00 0.  1.
</event>
<event>
 7    1  0.1457722E-010  0.4778727E+02  0.7816164E-02  0.1312668E+00
        -11   -1    0    0    0    0  0.00000000000E+00  0.00000000000E+00  0.45593999997E+02  0.45594000000E+02  0.51100000000E-03 0.  1.
         11   -1    0    0    0    0 -0.00000000000E+00 -0.00000000000E+00 -0.45593999997E+02  0.45594000000E+02  0.51100000000E-03 0. -1.
    9900012    2    1    2    0    0 -0.34852265271E+01 -0.14448063119E+02 -0.40776585371E+02  0.47787271362E+02  0.20000001447E+02 0.  0.
        -12    1    1    2    0    0  0.34852265271E+01  0.14448063119E+02  0.40776585371E+02  0.43400728638E+02  0.00000000000E+00 0.  1.
         11    1    3    3    0    0  0.26157516056E+01 -0.11505711319E+01 -0.73652917945E+01  0.79002211280E+01  0.51100000000E-03 0. -1.
        -11    1    3    3    0    0  0.15072517402E-01  0.60870628670E+00 -0.18797654055E+02  0.18807513094E+02  0.51100000000E-03 0.  1.
         12    1    3    3    0    0 -0.61160506502E+01 -0.13906198274E+02 -0.14613639521E+02  0.21079537140E+02  0.00000000000E+00 0. -1.
</event>
<event>
 7    1  0.1457722E-010  0.4778728E+02  0.7816164E-02  0.1312668E+00
        -11   -1    0    0    0    0  0.00000000000E+00  0.00000000000E+00  0.45593999997E+02  0.45594000000E+02  0.51100000000E-03 0.  1.
         11   -1    0    0    0    0 -0.00000000000E+00 -0.00000000000E+00 -0.45593999997E+02  0.45594000000E+02  0.51100000000E-03 0. -1.
    9900012    2    1    2    0    0 -0.35359108978E+02 -0.16622600866E+02 -0.18895639574E+02  0.47787278322E+02  0.20000033181E+02 0.  0.
        -12    1    1    2    0    0  0.35359108978E+02  0.16622600866E+02  0.18895639574E+02  0.43400721678E+02  0.00000000000E+00 0.  1.
         11    1    3    3    0    0 -0.15142270657E+02 -0.12511011778E+02 -0.14024111594E+02  0.24134818886E+02  0.51100000000E-03 0.  1.
        -11    1    3    3    0    0 -0.55823574039E+01 -0.61583339344E+01 -0.25501962632E+01  0.86943252915E+01  0.51100000000E-03 0. -1.
        -12    1    3    3    0    0 -0.14634480917E+02  0.20467448461E+01 -0.23213317165E+01  0.14958134145E+02  0.00000000000E+00 0.  1.
</event>
<event>
 7    1  0.1457722E-010  0.4778727E+02  0.7816164E-02  0.1312668E+00
        -11   -1    0    0    0    0  0.00000000000E+00  0.00000000000E+00  0.45593999997E+02  0.45594000000E+02  0.51100000000E-03 0. -1.
         11   -1    0    0    0    0 -0.00000000000E+00 -0.00000000000E+00 -0.45593999997E+02  0.45594000000E+02  0.51100000000E-03 0.  1.
    9900012    2    1    2    0    0  0.14286394287E+02  0.23922795313E+02  0.33274947575E+02  0.47787270358E+02  0.19999996872E+02 0.  0.
        -12    1    1    2    0    0 -0.14286394287E+02 -0.23922795313E+02 -0.33274947575E+02  0.43400729642E+02  0.00000000000E+00 0.  1.
         11    1    3    3    0    0  0.10386738218E+02  0.12447707407E+02  0.19612595555E+02  0.25445700131E+02  0.51100000000E-03 0. -1.
        -11    1    3    3    0    0  0.80152018561E+01  0.84884487870E+01  0.12541676928E+02  0.17134493982E+02  0.51100000000E-03 0.  1.
        -12    1    3    3    0    0 -0.41155457874E+01  0.29866391194E+01  0.11206750921E+01  0.52070762449E+01  0.00000000000E+00 0.  1.
</event>
<event>
 7    1  0.1457722E-010  0.4778726E+02  0.7816164E-02  0.1312668E+00
        -11   -1    0    0    0    0  0.00000000000E+00  0.00000000000E+00  0.45593999997E+02  0.45594000000E+02  0.51100000000E-03 0. -1.
         11   -1    0    0    0    0 -0.00000000000E+00 -0.00000000000E+00 -0.45593999997E+02  0.45594000000E+02  0.51100000000E-03 0.  1.
    9900012    2    1    2    0    0  0.36699777210E+02 -0.19220590172E+02 -0.12935206016E+02  0.47787259356E+02  0.19999946706E+02 0.  0.
        -12    1    1    2    0    0 -0.36699777210E+02  0.19220590172E+02  0.12935206016E+02  0.43400740644E+02  0.00000000000E+00 0.  1.
         11    1    3    3    0    0  0.13317872600E+02 -0.83707685014E+01 -0.11495665998E+02  0.19482962632E+02  0.51100000000E-03 0. -1.
        -11    1    3    3    0    0  0.72182842134E+00  0.17006677257E+01  0.12959334017E+01  0.22567123489E+01  0.51100000000E-03 0.  1.
        -12    1    3    3    0    0  0.22660076188E+02 -0.12550489397E+02 -0.27354734188E+01  0.26047584375E+02  0.00000000000E+00 0.  1.
</event>
<event>
 7    1  0.1457722E-010  0.4778728E+02  0.7816164E-02  0.1312668E+00
        -11   -1    0    0    0    0  0.00000000000E+00  0.00000000000E+00  0.45593999997E+02  0.45594000000E+02  0.51100000000E-03 0.  1.
         11   -1    0    0    0    0 -0.00000000000E+00 -0.00000000000E+00 -0.45593999997E+02  0.45594000000E+02  0.51100000000E-03 0. -1.
    9900012    2    1    2    0    0  0.34549271486E+02 -0.87038285589E+01 -0.24783338492E+02  0.47787278132E+02  0.20000032317E+02 0.  0.
        -12    1    1    2    0    0 -0.34549271486E+02  0.87038285589E+01  0.24783338492E+02  0.43400721868E+02  0.00000000000E+00 0.  1.
         11    1    3    3    0    0  0.21181592532E+02 -0.12037862706E+02 -0.20539202377E+02  0.31865794125E+02  0.51100000000E-03 0. -1.
        -11    1    3    3    0    0  0.10443453360E+02  0.17486187832E+01 -0.59890921914E+01  0.12165221382E+02  0.51100000000E-03 0.  1.
        -12    1    3    3    0    0  0.29242255938E+01  0.15854153641E+01  0.17449560755E+01  0.37562626247E+01  0.00000000000E+00 0.  1.
</event>
<event>
 7    1  0.1457722E-010  0.4778727E+02  0.7816164E-02  0.1312668E+00
        -11   -1    0    0    0    0  0.00000000000E+00  0.00000000000E+00  0.45593999997E+02  0.45594000000E+02  0.51100000000E-03 0. -1.
         11   -1    0    0    0    0 -0.00000000000E+00 -0.00000000000E+00 -0.45593999997E+02  0.45594000000E+02  0.51100000000E-03 0.  1.
    9900012    2    1    2    0    0  0.18269162327E+02 -0.35858277226E+02 -0.16249468779E+02  0.47787267594E+02  0.19999984270E+02 0.  0.
        -12    1    1    2    0    0 -0.18269162327E+02  0.35858277226E+02  0.16249468779E+02  0.43400732406E+02  0.00000000000E+00 0.  1.
         11    1    3    3    0    0  0.73846652188E+01 -0.27789978529E+02 -0.12278244545E+02  0.31266139455E+02  0.51100000000E-03 0. -1.
        -11    1    3    3    0    0  0.31427025640E+01 -0.49674371404E+01 -0.54912911464E+01  0.80440219955E+01  0.51100000000E-03 0.  1.
        -12    1    3    3    0    0  0.77417945442E+01 -0.31008615570E+01  0.15200669130E+01  0.84771061442E+01  0.00000000000E+00 0.  1.
</event>
<event>
 7    1  0.1457722E-010  0.4778727E+02  0.7816164E-02  0.1312668E+00
        -11   -1    0    0    0    0  0.00000000000E+00  0.00000000000E+00  0.45593999997E+02  0.45594000000E+02  0.51100000000E-03 0.  1.
         11   -1    0    0    0    0 -0.00000000000E+00 -0.00000000000E+00 -0.45593999997E+02  0.45594000000E+02  0.51100000000E-03 0. -1.
    9900012    2    1    2    0    0  0.12432626690E+02  0.39401912931E+02  0.13286928066E+02  0.47787269517E+02  0.19999993037E+02 0.  0.
        -12    1    1    2    0    0 -0.12432626690E+02 -0.39401912931E+02 -0.13286928066E+02  0.43400730483E+02  0.00000000000E+00 0.  1.
         11    1    3    3    0    0  0.59987948420E+01  0.65949981876E+01  0.65046340436E+01  0.11035841833E+02  0.51100000000E-03 0. -1.
        -11    1    3    3    0    0 -0.42595239687E+01  0.72372254941E+01  0.12750656851E+01  0.84939254798E+01  0.51100000000E-03 0.  1.
        -12    1    3    3    0    0  0.10693355817E+02  0.25569689249E+02  0.55072283370E+01  0.28257502205E+02  0.00000000000E+00 0.  1.
</event>
<event>
 7    1  0.1457722E-010  0.4778727E+02  0.7816164E-02  0.1312668E+00
        -11   -1    0    0    0    0  0.00000000000E+00  0.00000000000E+00  0.45593999997E+02  0.45594000000E+02  0.51100000000E-03 0.  1.
         11   -1    0    0    0    0 -0.00000000000E+00 -0.00000000000E+00 -0.45593999997E+02  0.45594000000E+02  0.51100000000E-03 0. -1.
    9900012    2    1    2    0    0  0.68688460756E+01 -0.30737867641E+02 -0.29860100852E+02  0.47787272168E+02  0.20000005121E+02 0.  0.
        -12    1    1    2    0    0 -0.68688460756E+01  0.30737867641E+02  0.29860100852E+02  0.43400727832E+02  0.00000000000E+00 0.  1.
         11    1    3    3    0    0  0.28354061693E+01 -0.10157395483E+02 -0.46182847187E+01  0.11512635022E+02  0.51100000000E-03 0. -1.
        -11    1    3    3    0    0  0.81073293561E+00 -0.18030370259E+02 -0.26422818698E+02  0.31998701345E+02  0.51100000000E-03 0.  1.
        -12    1    3    3    0    0  0.32227069707E+01 -0.25501018980E+01  0.11810025650E+01  0.42759358002E+01  0.00000000000E+00 0.  1.
</event>
<event>
 7    1  0.1457722E-010  0.4778727E+02  0.7816164E-02  0.1312668E+00
        -11   -1    0    0    0    0  0.00000000000E+00  0.00000000000E+00  0.45593999997E+02  0.45594000000E+02  0.51100000000E-03 0. -1.
         11   -1    0    0    0    0 -0.00000000000E+00 -0.00000000000E+00 -0.45593999997E+02  0.45594000000E+02  0.51100000000E-03 0.  1.
    9900012    2    1    2    0    0  0.61905030093E+01  0.55018645188E+01  0.42603178977E+02  0.47787266140E+02  0.19999977638E+02 0.  0.
        -12    1    1    2    0    0 -0.61905030093E+01 -0.55018645188E+01 -0.42603178977E+02  0.43400733860E+02  0.00000000000E+00 0.  1.
         11    1    3    3    0    0  0.36494250245E+01  0.26970620258E+01  0.25592113148E+02  0.25991319747E+02  0.51100000000E-03 0. -1.
        -11    1    3    3    0    0 -0.29874752647E+01 -0.35923639191E+01  0.34226595154E+01  0.57917773959E+01  0.51100000000E-03 0.  1.
         12    1    3    3    0    0  0.55285532494E+01  0.63971664121E+01  0.13588406313E+02  0.16004168997E+02  0.00000000000E+00 0. -1.
</event>
<event>
 7    1  0.1457722E-010  0.4778727E+02  0.7816164E-02  0.1312668E+00
        -11   -1    0    0    0    0  0.00000000000E+00  0.00000000000E+00  0.45593999997E+02  0.45594000000E+02  0.51100000000E-03 0.  1.
         11   -1    0    0    0    0 -0.00000000000E+00 -0.00000000000E+00 -0.45593999997E+02  0.45594000000E+02  0.51100000000E-03 0. -1.
    9900012    2    1    2    0    0 -0.40319419005E+02 -0.11684311598E+01 -0.16018810231E+02  0.47787273491E+02  0.20000011157E+02 0.  0.
        -12    1    1    2    0    0  0.40319419005E+02  0.11684311598E+01  0.16018810231E+02  0.43400726509E+02  0.00000000000E+00 0.  1.
         11    1    3    3    0    0 -0.27445066415E+02  0.66306216194E+01 -0.13547391467E+02  0.31316587129E+02  0.51100000000E-03 0. -1.
        -11    1    3    3    0    0 -0.11063822457E+02 -0.35982792097E+01 -0.10545492004E+01  0.11681945682E+02  0.51100000000E-03 0.  1.
         12    1    3    3    0    0 -0.18105301322E+01 -0.42007735695E+01 -0.14168695635E+01  0.47887406802E+01  0.00000000000E+00 0. -1.
</event>
<event>
 7    1  0.1457722E-010  0.4778727E+02  0.7816164E-02  0.1312668E+00
        -11   -1    0    0    0    0  0.00000000000E+00  0.00000000000E+00  0.45593999997E+02  0.45594000000E+02  0.51100000000E-03 0.  1.
         11   -1    0    0    0    0 -0.00000000000E+00 -0.00000000000E+00 -0.45593999997E+02  0.45594000000E+02  0.51100000000E-03 0. -1.
    9900012    2    1    2    0    0  0.73225743576E+00 -0.42221205706E+02 -0.10022832481E+02  0.47787267482E+02  0.19999983756E+02 0.  0.
        -12    1    1    2    0    0 -0.73225743576E+00  0.42221205706E+02  0.10022832481E+02  0.43400732518E+02  0.00000000000E+00 0.  1.
         11    1    3    3    0    0  0.96379922869E+00 -0.64563668041E+01 -0.96363628389E+01  0.11639289939E+02  0.51100000000E-03 0. -1.
        -11    1    3    3    0    0 -0.21883287387E+01 -0.24328891688E+02 -0.16180553524E+01  0.24480642492E+02  0.51100000000E-03 0.  1.
        -12    1    3    3    0    0  0.19567869457E+01 -0.11435947213E+02  0.12315857106E+01  0.11667335050E+02  0.00000000000E+00 0.  1.
</event>
<event>
 7    1  0.1457722E-010  0.4778727E+02  0.7816164E-02  0.1312668E+00
        -11   -1    0    0    0    0  0.00000000000E+00  0.00000000000E+00  0.45593999997E+02  0.45594000000E+02  0.51100000000E-03 0. -1.
         11   -1    0    0    0    0 -0.00000000000E+00 -0.00000000000E+00 -0.45593999997E+02  0.45594000000E+02  0.51100000000E-03 0.  1.
    9900012    2    1    2    0    0  0.32459283271E+02  0.27137688743E+02  0.96728460721E+01  0.47787272219E+02  0.20000005353E+02 0.  0.
        -12    1    1    2    0    0 -0.32459283271E+02 -0.27137688743E+02 -0.96728460721E+01  0.43400727781E+02  0.00000000000E+00 0.  1.
         11    1    3    3    0    0  0.33254964396E+01  0.12087410995E+01 -0.31102492150E+01  0.47110117869E+01  0.51100000000E-03 0. -1.
        -11    1    3    3    0    0  0.35659742664E+01  0.62870910254E+01 -0.21548681359E+01  0.75423565928E+01  0.51100000000E-03 0.  1.
         12    1    3    3    0    0  0.25567812566E+02  0.19641856618E+02  0.14937963423E+02  0.35533903839E+02  0.00000000000E+00 0. -1.
</event>
<event>
 7    1  0.1457722E-010  0.4778727E+02  0.7816164E-02  0.1312668E+00
        -11   -1    0    0    0    0  0.00000000000E+00  0.00000000000E+00  0.45593999997E+02  0.45594000000E+02  0.51100000000E-03 0. -1.
         11   -1    0    0    0    0 -0.00000000000E+00 -0.00000000000E+00 -0.45593999997E+02  0.45594000000E+02  0.51100000000E-03 0.  1.
    9900012    2    1    2    0    0  0.36415794564E+02 -0.20331701083E+02 -0.12005642071E+02  0.47787267239E+02  0.19999982648E+02 0.  0.
        -12    1    1    2    0    0 -0.36415794564E+02  0.20331701083E+02  0.12005642071E+02  0.43400732761E+02  0.00000000000E+00 0.  1.
         11    1    3    3    0    0  0.43788053741E+01 -0.45591669166E+00  0.18844989726E+01  0.47888551004E+01  0.51100000000E-03 0. -1.
        -11    1    3    3    0    0  0.53809969494E+01 -0.10526587102E+02 -0.76130475281E+01  0.14061388876E+02  0.51100000000E-03 0.  1.
        -12    1    3    3    0    0  0.26655992241E+02 -0.93491972892E+01 -0.62770935155E+01  0.28937023263E+02  0.00000000000E+00 0.  1.
</event>
<event>
 7    1  0.1457722E-010  0.4778727E+02  0.7816164E-02  0.1312668E+00
        -11   -1    0    0    0    0  0.00000000000E+00  0.00000000000E+00  0.45593999997E+02  0.45594000000E+02  0.51100000000E-03 0. -1.
         11   -1    0    0    0    0 -0.00000000000E+00 -0.00000000000E+00 -0.45593999997E+02  0.45594000000E+02  0.51100000000E-03 0.  1.
    9900012    2    1    2    0    0  0.40464669279E+02 -0.12298897019E+02  0.97453037673E+01  0.47787271051E+02  0.20000000032E+02 0.  0.
        -12    1    1    2    0    0 -0.40464669279E+02  0.12298897019E+02 -0.97453037673E+01  0.43400728949E+02  0.00000000000E+00 0.  1.
         11    1    3    3    0    0  0.98815934853E+01 -0.32170434577E+01 -0.45431005940E+01  0.11341738036E+02  0.51100000000E-03 0.  1.
        -11    1    3    3    0    0  0.73196958069E+01 -0.70635674589E+01  0.46256192884E+01  0.11174447906E+02  0.51100000000E-03 0. -1.
         12    1    3    3    0    0  0.23263379987E+02 -0.20182861022E+01  0.96627850729E+01  0.25271085109E+02  0.00000000000E+00 0. -1.
</event>
<event>
 7    1  0.1457722E-010  0.4778727E+02  0.7816164E-02  0.1312668E+00
        -11   -1    0    0    0    0  0.00000000000E+00  0.00000000000E+00  0.45593999997E+02  0.45594000000E+02  0.51100000000E-03 0.  1.
         11   -1    0    0    0    0 -0.00000000000E+00 -0.00000000000E+00 -0.45593999997E+02  0.45594000000E+02  0.51100000000E-03 0. -1.
    9900012    2    1    2    0    0 -0.20029718832E+02  0.18773666867E+02 -0.33615219483E+02  0.47787272068E+02  0.20000004669E+02 0.  0.
        -12    1    1    2    0    0  0.20029718832E+02 -0.18773666867E+02  0.33615219483E+02  0.43400727932E+02  0.00000000000E+00 0.  1.
         11    1    3    3    0    0 -0.54939157778E+01 -0.27122560796E+01 -0.89857103082E+01  0.10875772783E+02  0.51100000000E-03 0. -1.
        -11    1    3    3    0    0 -0.11429697589E+02  0.10519280354E+02 -0.17796521536E+02  0.23622223121E+02  0.51100000000E-03 0.  1.
        -12    1    3    3    0    0 -0.31061054654E+01  0.10966642593E+02 -0.68329876388E+01  0.13289276165E+02  0.00000000000E+00 0.  1.
</event>
<event>
 7    1  0.1457722E-010  0.4778727E+02  0.7816164E-02  0.1312668E+00
        -11   -1    0    0    0    0  0.00000000000E+00  0.00000000000E+00  0.45593999997E+02  0.45594000000E+02  0.51100000000E-03 0. -1.
         11   -1    0    0    0    0 -0.00000000000E+00 -0.00000000000E+00 -0.45593999997E+02  0.45594000000E+02  0.51100000000E-03 0.  1.
    9900012    2    1    2    0    0  0.39578835303E+02  0.81851281744E+01  0.15815903881E+02  0.47787270251E+02  0.19999996385E+02 0.  0.
        -12    1    1    2    0    0 -0.39578835303E+02 -0.81851281744E+01 -0.15815903881E+02  0.43400729749E+02  0.00000000000E+00 0.  1.
         11    1    3    3    0    0  0.15437465948E+02  0.15134904882E+01  0.96986540943E+01  0.18293985347E+02  0.51100000000E-03 0. -1.
        -11    1    3    3    0    0  0.16519305814E+02  0.17825814496E+01 -0.27246714688E+01  0.16837128498E+02  0.51100000000E-03 0.  1.
         12    1    3    3    0    0  0.76220635404E+01  0.48890562367E+01  0.88419212553E+01  0.12656156406E+02  0.00000000000E+00 0. -1.
</event>
<event>
 7    1  0.1457722E-010  0.4778725E+02  0.7816164E-02  0.1312668E+00
        -11   -1    0    0    0    0  0.00000000000E+00  0.00000000000E+00  0.45593999997E+02  0.45594000000E+02  0.51100000000E-03 0. -1.
         11   -1    0    0    0    0 -0.00000000000E+00 -0.00000000000E+00 -0.45593999997E+02  0.45594000000E+02  0.51100000000E-03 0.  1.
    9900012    2    1    2    0    0 -0.41348158633E+02 -0.86288207178E+01 -0.99748649646E+01  0.47787254610E+02  0.19999925068E+02 0.  0.
        -12    1    1    2    0    0  0.41348158633E+02  0.86288207178E+01  0.99748649646E+01  0.43400745390E+02  0.00000000000E+00 0.  1.
         11    1    3    3    0    0 -0.26381666751E+02 -0.52237536846E+01 -0.11939675206E+02  0.29425087721E+02  0.51100000000E-03 0. -1.
        -11    1    3    3    0    0 -0.16226632547E+02 -0.21914688742E+01  0.11007163429E+01  0.16410902363E+02  0.51100000000E-03 0.  1.
        -12    1    3    3    0    0  0.12601406643E+01 -0.12135981590E+01  0.86409389812E+00  0.19512645259E+01  0.00000000000E+00 0.  1.
</event>
<event>
 7    1  0.1457722E-010  0.4778728E+02  0.7816164E-02  0.1312668E+00
        -11   -1    0    0    0    0  0.00000000000E+00  0.00000000000E+00  0.45593999997E+02  0.45594000000E+02  0.51100000000E-03 0. -1.
         11   -1    0    0    0    0 -0.00000000000E+00 -0.00000000000E+00 -0.45593999997E+02  0.45594000000E+02  0.51100000000E-03 0.  1.
    9900012    2    1    2    0    0  0.22333846151E+02  0.26785701561E+02  0.25833076802E+02  0.47787281698E+02  0.20000048575E+02 0.  0.
        -12    1    1    2    0    0 -0.22333846151E+02 -0.26785701561E+02 -0.25833076802E+02  0.43400718302E+02  0.00000000000E+00 0.  1.
         11    1    3    3    0    0  0.90221553373E+01  0.69335179084E+01  0.14998945339E+02  0.18826611991E+02  0.51100000000E-03 0. -1.
        -11    1    3    3    0    0  0.58840495341E+00  0.10960939999E+02  0.68380577683E+01  0.12932418967E+02  0.51100000000E-03 0.  1.
        -12    1    3    3    0    0  0.12723285861E+02  0.88912436541E+01  0.39960736948E+01  0.16028250740E+02  0.00000000000E+00 0.  1.
</event>
<event>
 7    1  0.1457722E-010  0.4778727E+02  0.7816164E-02  0.1312668E+00
        -11   -1    0    0    0    0  0.00000000000E+00  0.00000000000E+00  0.45593999997E+02  0.45594000000E+02  0.51100000000E-03 0.  1.
         11   -1    0    0    0    0 -0.00000000000E+00 -0.00000000000E+00 -0.45593999997E+02  0.45594000000E+02  0.51100000000E-03 0. -1.
    9900012    2    1    2    0    0 -0.16678973547E+02  0.87695395435E+01  0.39096425461E+02  0.47787268828E+02  0.19999989896E+02 0.  0.
        -12    1    1    2    0    0  0.16678973547E+02 -0.87695395435E+01 -0.39096425461E+02  0.43400731172E+02  0.00000000000E+00 0.  1.
         11    1    3    3    0    0 -0.78239317335E+01  0.35576569992E+01  0.71845580201E+01  0.11202174133E+02  0.51100000000E-03 0. -1.
        -11    1    3    3    0    0 -0.30694275365E+01 -0.36427553606E+01  0.20412589104E+02  0.20961031612E+02  0.51100000000E-03 0.  1.
        -12    1    3    3    0    0 -0.57856142766E+01  0.88546379049E+01  0.11499278337E+02  0.15624063084E+02  0.00000000000E+00 0.  1.
</event>
<event>
 7    1  0.1457722E-010  0.4778727E+02  0.7816164E-02  0.1312668E+00
        -11   -1    0    0    0    0  0.00000000000E+00  0.00000000000E+00  0.45593999997E+02  0.45594000000E+02  0.51100000000E-03 0. -1.
         11   -1    0    0    0    0 -0.00000000000E+00 -0.00000000000E+00 -0.45593999997E+02  0.45594000000E+02  0.51100000000E-03 0.  1.
    9900012    2    1    2    0    0  0.32032789002E+02  0.21414281238E+02  0.19973786387E+02  0.47787272416E+02  0.20000006252E+02 0.  0.
        -12    1    1    2    0    0 -0.32032789002E+02 -0.21414281238E+02 -0.19973786387E+02  0.43400727584E+02  0.00000000000E+00 0.  1.
         11    1    3    3    0    0  0.10832689299E+02  0.34952436314E+01 -0.24679003620E+00  0.11385288362E+02  0.51100000000E-03 0. -1.
        -11    1    3    3    0    0  0.13523552999E+02  0.15810732905E+02  0.90584804279E+01  0.22691889050E+02  0.51100000000E-03 0.  1.
         12    1    3    3    0    0  0.76765467046E+01  0.21083047015E+01  0.11162095995E+02  0.13710095004E+02  0.00000000000E+00 0. -1.
</event>
<event>
 7    1  0.1457722E-010  0.4778727E+02  0.7816164E-02  0.1312668E+00
        -11   -1    0    0    0    0  0.00000000000E+00  0.00000000000E+00  0.45593999997E+02  0.45594000000E+02  0.51100000000E-03 0. -1.
         11   -1    0    0    0    0 -0.00000000000E+00 -0.00000000000E+00 -0.45593999997E+02  0.45594000000E+02  0.51100000000E-03 0.  1.
    9900012    2    1    2    0    0  0.36552239751E+02 -0.71204396123E+01  0.22290274271E+02  0.47787271686E+02  0.20000002927E+02 0.  0.
        -12    1    1    2    0    0 -0.36552239751E+02  0.71204396123E+01 -0.22290274271E+02  0.43400728314E+02  0.00000000000E+00 0.  1.
         11    1    3    3    0    0  0.73508216134E+01 -0.71978174287E+01  0.11231918248E+01  0.10349140750E+02  0.51100000000E-03 0. -1.
        -11    1    3    3    0    0  0.16266220074E+02  0.16535965113E+01  0.59379700800E+01  0.17394935638E+02  0.51100000000E-03 0.  1.
         12    1    3    3    0    0  0.12935198064E+02 -0.15762186949E+01  0.15229112366E+02  0.20043195298E+02  0.00000000000E+00 0. -1.
</event>
<event>
 7    1  0.1457722E-010  0.4778727E+02  0.7816164E-02  0.1312668E+00
        -11   -1    0    0    0    0  0.00000000000E+00  0.00000000000E+00  0.45593999997E+02  0.45594000000E+02  0.51100000000E-03 0.  1.
         11   -1    0    0    0    0 -0.00000000000E+00 -0.00000000000E+00 -0.45593999997E+02  0.45594000000E+02  0.51100000000E-03 0. -1.
    9900012    2    1    2    0    0  0.67236277454E+01  0.42052696474E+02 -0.83658358176E+01  0.47787266599E+02  0.19999979733E+02 0.  0.
        -12    1    1    2    0    0 -0.67236277454E+01 -0.42052696474E+02  0.83658358176E+01  0.43400733401E+02  0.00000000000E+00 0.  1.
         11    1    3    3    0    0 -0.71818663888E+00  0.79295618603E+01  0.97604468039E+00  0.80216212092E+01  0.51100000000E-03 0.  1.
        -11    1    3    3    0    0  0.97209408551E+01  0.28300875047E+02 -0.18125030794E+01  0.29978682212E+02  0.51100000000E-03 0. -1.
         12    1    3    3    0    0 -0.22791264708E+01  0.58222595668E+01 -0.75293774186E+01  0.97869631778E+01  0.00000000000E+00 0. -1.
</event>
<event>
 7    1  0.1457722E-010  0.4778722E+02  0.7816164E-02  0.1312668E+00
        -11   -1    0    0    0    0  0.00000000000E+00  0.00000000000E+00  0.45593999997E+02  0.45594000000E+02  0.51100000000E-03 0.  1.
         11   -1    0    0    0    0 -0.00000000000E+00 -0.00000000000E+00 -0.45593999997E+02  0.45594000000E+02  0.51100000000E-03 0. -1.
    9900012    2    1    2    0    0 -0.18523463920E+02 -0.35692162822E+02 -0.16327235856E+02  0.47787218519E+02  0.19999760513E+02 0.  0.
        -12    1    1    2    0    0  0.18523463920E+02  0.35692162822E+02  0.16327235856E+02  0.43400781481E+02  0.00000000000E+00 0.  1.
         11    1    3    3    0    0 -0.15507881664E+01 -0.18426294494E+02 -0.89758176531E+01  0.20554770140E+02  0.51100000000E-03 0. -1.
        -11    1    3    3    0    0 -0.70671218725E+01 -0.53466160766E+01 -0.76864408582E+01  0.11730809365E+02  0.51100000000E-03 0.  1.
         12    1    3    3    0    0 -0.99055538816E+01 -0.11919252251E+02  0.33502265542E+00  0.15501639013E+02  0.00000000000E+00 0. -1.
</event>
<event>
 7    1  0.1457722E-010  0.4778726E+02  0.7816164E-02  0.1312668E+00
        -11   -1    0    0    0    0  0.00000000000E+00  0.00000000000E+00  0.45593999997E+02  0.45594000000E+02  0.51100000000E-03 0.  1.
         11   -1    0    0    0    0 -0.00000000000E+00 -0.00000000000E+00 -0.45593999997E+02  0.45594000000E+02  0.51100000000E-03 0. -1.
    9900012    2    1    2    0    0 -0.14842173597E+02  0.19877939892E+02 -0.35611822132E+02  0.47787257069E+02  0.19999936278E+02 0.  0.
        -12    1    1    2    0    0  0.14842173597E+02 -0.19877939892E+02  0.35611822132E+02  0.43400742931E+02  0.00000000000E+00 0.  1.
         11    1    3    3    0    0 -0.11217876817E+02  0.80102253280E+01 -0.20369005507E+02  0.24594732275E+02  0.51100000000E-03 0. -1.
        -11    1    3    3    0    0 -0.50646454504E+01  0.12969508792E+02 -0.87344105524E+01  0.16436201501E+02  0.51100000000E-03 0.  1.
        -12    1    3    3    0    0  0.14403486710E+01 -0.11017942279E+01 -0.65084060729E+01  0.67563232919E+01  0.00000000000E+00 0.  1.
</event>
<event>
 7    1  0.1871974E-010  0.4778727E+02  0.7816164E-02  0.1312668E+00
        -11   -1    0    0    0    0  0.00000000000E+00  0.00000000000E+00  0.45593999997E+02  0.45594000000E+02  0.51100000000E-03 0.  1.
         11   -1    0    0    0    0 -0.00000000000E+00 -0.00000000000E+00 -0.45593999997E+02  0.45594000000E+02  0.51100000000E-03 0. -1.
    9900012    2    1    2    0    0 -0.96891322879E+01  0.40658524758E+02 -0.11688815500E+02  0.47787270423E+02  0.19999997167E+02 0.  0.
        -12    1    1    2    0    0  0.96891322879E+01 -0.40658524758E+02  0.11688815500E+02  0.43400729577E+02  0.00000000000E+00 0.  1.
         11    1    3    3    0    0 -0.68230253101E+01  0.27245893853E+02 -0.99551330853E+01  0.29799279878E+02  0.51100000000E-03 0. -1.
        -11    1    3    3    0    0  0.15512504842E+01  0.29957897367E+01 -0.51607794043E+01  0.61656125837E+01  0.51100000000E-03 0.  1.
        -12    1    3    3    0    0 -0.44173574621E+01  0.10416841169E+02  0.34270969901E+01  0.11822377961E+02  0.00000000000E+00 0.  1.
</event>
<event>
 7    1  0.1457722E-010  0.4778727E+02  0.7816164E-02  0.1312668E+00
        -11   -1    0    0    0    0  0.00000000000E+00  0.00000000000E+00  0.45593999997E+02  0.45594000000E+02  0.51100000000E-03 0.  1.
         11   -1    0    0    0    0 -0.00000000000E+00 -0.00000000000E+00 -0.45593999997E+02  0.45594000000E+02  0.51100000000E-03 0. -1.
    9900012    2    1    2    0    0 -0.24016391062E+02 -0.14511530541E+02 -0.33109691942E+02  0.47787271218E+02  0.20000000793E+02 0.  0.
        -12    1    1    2    0    0  0.24016391062E+02  0.14511530541E+02  0.33109691942E+02  0.43400728782E+02  0.00000000000E+00 0.  1.
         11    1    3    3    0    0 -0.31671582382E+01 -0.59279520755E+01 -0.40396727582E+01  0.78415855138E+01  0.51100000000E-03 0. -1.
        -11    1    3    3    0    0 -0.21070053798E+02 -0.38292784116E+01 -0.18293346556E+02  0.28164819699E+02  0.51100000000E-03 0.  1.
        -12    1    3    3    0    0  0.22082097485E+00 -0.47543000535E+01 -0.10776672629E+02  0.11780866006E+02  0.00000000000E+00 0.  1.
</event>
<event>
 7    1  0.1457722E-010  0.4778727E+02  0.7816164E-02  0.1312668E+00
        -11   -1    0    0    0    0  0.00000000000E+00  0.00000000000E+00  0.45593999997E+02  0.45594000000E+02  0.51100000000E-03 0. -1.
         11   -1    0    0    0    0 -0.00000000000E+00 -0.00000000000E+00 -0.45593999997E+02  0.45594000000E+02  0.51100000000E-03 0.  1.
    9900012    2    1    2    0    0 -0.25580227798E+01  0.10894545454E+02  0.41933147698E+02  0.47787268703E+02  0.19999989326E+02 0.  0.
        -12    1    1    2    0    0  0.25580227798E+01 -0.10894545454E+02 -0.41933147698E+02  0.43400731297E+02  0.00000000000E+00 0.  1.
         11    1    3    3    0    0  0.31022960221E+01  0.57165504430E+01  0.93997433224E+01  0.11430588977E+02  0.51100000000E-03 0. -1.
        -11    1    3    3    0    0 -0.90259063600E+00 -0.49501232835E+01  0.10607871261E+02  0.11740754803E+02  0.51100000000E-03 0.  1.
        -12    1    3    3    0    0 -0.47577281659E+01  0.10128118295E+02  0.21925533114E+02  0.24615924924E+02  0.00000000000E+00 0.  1.
</event>
<event>
 7    1  0.1457722E-010  0.4778726E+02  0.7816164E-02  0.1312668E+00
        -11   -1    0    0    0    0  0.00000000000E+00  0.00000000000E+00  0.45593999997E+02  0.45594000000E+02  0.51100000000E-03 0.  1.
         11   -1    0    0    0    0 -0.00000000000E+00 -0.00000000000E+00 -0.45593999997E+02  0.45594000000E+02  0.51100000000E-03 0. -1.
    9900012    2    1    2    0    0  0.30699724037E+02  0.16103097276E+00 -0.30677769325E+02  0.47787256715E+02  0.19999934664E+02 0.  0.
        -12    1    1    2    0    0 -0.30699724037E+02 -0.16103097276E+00  0.30677769325E+02  0.43400743285E+02  0.00000000000E+00 0.  1.
         11    1    3    3    0    0  0.25116462109E+01 -0.12637300672E+00 -0.11591458835E+02  0.11861123682E+02  0.51100000000E-03 0. -1.
        -11    1    3    3    0    0  0.96065834802E+01  0.53068355991E+01 -0.90157821785E+01  0.14203284085E+02  0.51100000000E-03 0.  1.
         12    1    3    3    0    0  0.18581494346E+02 -0.50194316197E+01 -0.10070528312E+02  0.21722848948E+02  0.00000000000E+00 0. -1.
</event>
<event>
 7    1  0.1457722E-010  0.4778722E+02  0.7816164E-02  0.1312668E+00
        -11   -1    0    0    0    0  0.00000000000E+00  0.00000000000E+00  0.45593999997E+02  0.45594000000E+02  0.51100000000E-03 0. -1.
         11   -1    0    0    0    0 -0.00000000000E+00 -0.00000000000E+00 -0.45593999997E+02  0.45594000000E+02  0.51100000000E-03 0.  1.
    9900012    2    1    2    0    0 -0.31071490327E+02  0.31056183797E+01 -0.30142085143E+02  0.47787220359E+02  0.19999768904E+02 0.  0.
        -12    1    1    2    0    0  0.31071490327E+02 -0.31056183797E+01  0.30142085143E+02  0.43400779641E+02  0.00000000000E+00 0.  1.
         11    1    3    3    0    0 -0.25444891496E+02  0.45862089671E+01 -0.19352565954E+02  0.32295473757E+02  0.51100000000E-03 0. -1.
        -11    1    3    3    0    0 -0.24025281123E+01  0.14573937930E+00  0.13959727014E+01  0.27824667727E+01  0.51100000000E-03 0.  1.
        -12    1    3    3    0    0 -0.32240707186E+01 -0.16263299667E+01 -0.12185491891E+02  0.12709279829E+02  0.00000000000E+00 0.  1.
</event>
<event>
 7    1  0.1457722E-010  0.4778728E+02  0.7816164E-02  0.1312668E+00
        -11   -1    0    0    0    0  0.00000000000E+00  0.00000000000E+00  0.45593999997E+02  0.45594000000E+02  0.51100000000E-03 0.  1.
         11   -1    0    0    0    0 -0.00000000000E+00 -0.00000000000E+00 -0.45593999997E+02  0.45594000000E+02  0.51100000000E-03 0. -1.
    9900012    2    1    2    0    0 -0.26674632342E+02 -0.15114530061E+02 -0.30718685102E+02  0.47787278301E+02  0.20000033087E+02 0.  0.
        -12    1    1    2    0    0  0.26674632342E+02  0.15114530061E+02  0.30718685102E+02  0.43400721699E+02  0.00000000000E+00 0.  1.
         11    1    3    3    0    0 -0.17453736512E+02 -0.11988660295E+02 -0.95693110388E+01  0.23236449985E+02  0.51100000000E-03 0. -1.
        -11    1    3    3    0    0 -0.39168619794E+00 -0.20153787106E+01 -0.10377597819E+02  0.10578738402E+02  0.51100000000E-03 0.  1.
        -12    1    3    3    0    0 -0.88292096324E+01 -0.11104910556E+01 -0.10771776244E+02  0.13972089914E+02  0.00000000000E+00 0.  1.
</event>
<event>
 7    1  0.1457722E-010  0.4778727E+02  0.7816164E-02  0.1312668E+00
        -11   -1    0    0    0    0  0.00000000000E+00  0.00000000000E+00  0.45593999997E+02  0.45594000000E+02  0.51100000000E-03 0.  1.
         11   -1    0    0    0    0 -0.00000000000E+00 -0.00000000000E+00 -0.45593999997E+02  0.45594000000E+02  0.51100000000E-03 0. -1.
    9900012    2    1    2    0    0 -0.36894977394E+02  0.16030678073E+02 -0.16291137438E+02  0.47787272410E+02  0.20000006224E+02 0.  0.
        -12    1    1    2    0    0  0.36894977394E+02 -0.16030678073E+02  0.16291137438E+02  0.43400727590E+02  0.00000000000E+00 0.  1.
         11    1    3    3    0    0 -0.55652733745E+01  0.57849692257E+01 -0.97995028505E+01  0.12667611971E+02  0.51100000000E-03 0. -1.
        -11    1    3    3    0    0 -0.11014622099E+02  0.66214040420E+01  0.16065882589E+01  0.12951680106E+02  0.51100000000E-03 0.  1.
        -12    1    3    3    0    0 -0.20315081920E+02  0.36243048053E+01 -0.80982228463E+01  0.22167980332E+02  0.00000000000E+00 0.  1.
</event>
<event>
 7    1  0.1457722E-010  0.4778727E+02  0.7816164E-02  0.1312668E+00
        -11   -1    0    0    0    0  0.00000000000E+00  0.00000000000E+00  0.45593999997E+02  0.45594000000E+02  0.51100000000E-03 0.  1.
         11   -1    0    0    0    0 -0.00000000000E+00 -0.00000000000E+00 -0.45593999997E+02  0.45594000000E+02  0.51100000000E-03 0. -1.
    9900012    2    1    2    0    0  0.26927321285E+02  0.30510108029E+02 -0.15088951344E+02  0.47787265257E+02  0.19999973615E+02 0.  0.
        -12    1    1    2    0    0 -0.26927321285E+02 -0.30510108029E+02  0.15088951344E+02  0.43400734743E+02  0.00000000000E+00 0.  1.
         11    1    3    3    0    0  0.12123446778E+02  0.14096540533E+02 -0.69229369283E+01  0.19839795179E+02  0.51100000000E-03 0. -1.
        -11    1    3    3    0    0  0.37413435873E+01  0.57244934050E+01  0.43594849715E+01  0.81100299667E+01  0.51100000000E-03 0.  1.
        -12    1    3    3    0    0  0.11062530920E+02  0.10689074090E+02 -0.12525499387E+02  0.19837440111E+02  0.00000000000E+00 0.  1.
</event>
<event>
 7    1  0.1457722E-010  0.4778727E+02  0.7816164E-02  0.1312668E+00
        -11   -1    0    0    0    0  0.00000000000E+00  0.00000000000E+00  0.45593999997E+02  0.45594000000E+02  0.51100000000E-03 0.  1.
         11   -1    0    0    0    0 -0.00000000000E+00 -0.00000000000E+00 -0.45593999997E+02  0.45594000000E+02  0.51100000000E-03 0. -1.
    9900012    2    1    2    0    0  0.57959108558E+01 -0.89145053974E+01 -0.42078048402E+02  0.47787272513E+02  0.20000006695E+02 0.  0.
        -12    1    1    2    0    0 -0.57959108558E+01  0.89145053974E+01  0.42078048402E+02  0.43400727487E+02  0.00000000000E+00 0.  1.
         11    1    3    3    0    0 -0.35458671306E+00 -0.25915913251E+01 -0.15932659803E+02  0.16145950761E+02  0.51100000000E-03 0. -1.
        -11    1    3    3    0    0  0.58000252552E+01 -0.10542134017E+02 -0.12482574575E+02  0.17337576269E+02  0.51100000000E-03 0.  1.
         12    1    3    3    0    0  0.35047231365E+00  0.42192199448E+01 -0.13662814024E+02  0.14303745483E+02  0.00000000000E+00 0. -1.
</event>
<event>
 7    1  0.1457722E-010  0.4778727E+02  0.7816164E-02  0.1312668E+00
        -11   -1    0    0    0    0  0.00000000000E+00  0.00000000000E+00  0.45593999997E+02  0.45594000000E+02  0.51100000000E-03 0. -1.
         11   -1    0    0    0    0 -0.00000000000E+00 -0.00000000000E+00 -0.45593999997E+02  0.45594000000E+02  0.51100000000E-03 0.  1.
    9900012    2    1    2    0    0  0.13100210413E+02  0.32035379459E+02  0.26186680573E+02  0.47787270865E+02  0.19999999183E+02 0.  0.
        -12    1    1    2    0    0 -0.13100210413E+02 -0.32035379459E+02 -0.26186680573E+02  0.43400729135E+02  0.00000000000E+00 0.  1.
         11    1    3    3    0    0  0.37970339319E+01  0.12775849418E+02  0.12370415993E+02  0.18184251074E+02  0.51100000000E-03 0. -1.
        -11    1    3    3    0    0  0.63107280667E+01  0.75634300866E+01 -0.16447503730E+01  0.99867896472E+01  0.51100000000E-03 0.  1.
        -12    1    3    3    0    0  0.29924484148E+01  0.11696099955E+02  0.15461014954E+02  0.19616230144E+02  0.00000000000E+00 0.  1.
</event>
<event>
 7    1  0.1457722E-010  0.4778727E+02  0.7816164E-02  0.1312668E+00
        -11   -1    0    0    0    0  0.00000000000E+00  0.00000000000E+00  0.45593999997E+02  0.45594000000E+02  0.51100000000E-03 0.  1.
         11   -1    0    0    0    0 -0.00000000000E+00 -0.00000000000E+00 -0.45593999997E+02  0.45594000000E+02  0.51100000000E-03 0. -1.
    9900012    2    1    2    0    0 -0.22533008028E+02 -0.23371539466E+02 -0.28803787583E+02  0.47787268590E+02  0.19999988811E+02 0.  0.
        -12    1    1    2    0    0  0.22533008028E+02  0.23371539466E+02  0.28803787583E+02  0.43400731410E+02  0.00000000000E+00 0.  1.
         11    1    3    3    0    0 -0.20048711432E+01 -0.85699807232E+01 -0.85472809478E+01  0.12268662917E+02  0.51100000000E-03 0. -1.
        -11    1    3    3    0    0 -0.18729634130E+01 -0.54767868815E+01  0.84524684274E+00  0.58495836586E+01  0.51100000000E-03 0.  1.
        -12    1    3    3    0    0 -0.18655173471E+02 -0.93247718609E+01 -0.21101753478E+02  0.29669022015E+02  0.00000000000E+00 0.  1.
</event>
<event>
 7    1  0.1457722E-010  0.4778728E+02  0.7816164E-02  0.1312668E+00
        -11   -1    0    0    0    0  0.00000000000E+00  0.00000000000E+00  0.45593999997E+02  0.45594000000E+02  0.51100000000E-03 0.  1.
         11   -1    0    0    0    0 -0.00000000000E+00 -0.00000000000E+00 -0.45593999997E+02  0.45594000000E+02  0.51100000000E-03 0. -1.
    9900012    2    1    2    0    0  0.24677490724E+02 -0.21538552737E+02 -0.28473405761E+02  0.47787278369E+02  0.20000033397E+02 0.  0.
        -12    1    1    2    0    0 -0.24677490724E+02  0.21538552737E+02  0.28473405761E+02  0.43400721631E+02  0.00000000000E+00 0.  1.
         11    1    3    3    0    0  0.74814377643E+01 -0.73883087478E+01 -0.85405478173E+01  0.13546216241E+02  0.51100000000E-03 0. -1.
        -11    1    3    3    0    0  0.18625766789E+02 -0.79617020010E+01 -0.19089560990E+02  0.27833778513E+02  0.51100000000E-03 0.  1.
        -12    1    3    3    0    0 -0.14297138291E+01 -0.61885419887E+01 -0.84329695311E+00  0.64072836155E+01  0.00000000000E+00 0.  1.
</event>
<event>
 7    1  0.1457722E-010  0.4778726E+02  0.7816164E-02  0.1312668E+00
        -11   -1    0    0    0    0  0.00000000000E+00  0.00000000000E+00  0.45593999997E+02  0.45594000000E+02  0.51100000000E-03 0.  1.
         11   -1    0    0    0    0 -0.00000000000E+00 -0.00000000000E+00 -0.45593999997E+02  0.45594000000E+02  0.51100000000E-03 0. -1.
    9900012    2    1    2    0    0  0.15600227879E+02 -0.26046722287E+02 -0.31013311035E+02  0.47787259072E+02  0.19999945411E+02 0.  0.
        -12    1    1    2    0    0 -0.15600227879E+02  0.26046722287E+02  0.31013311035E+02  0.43400740928E+02  0.00000000000E+00 0.  1.
         11    1    3    3    0    0  0.80676459046E+01 -0.21481313942E+02 -0.19464777700E+02  0.30090053678E+02  0.51100000000E-03 0. -1.
        -11    1    3    3    0    0 -0.23320295580E+01 -0.10125320553E+01 -0.41424564716E+01  0.48604041912E+01  0.51100000000E-03 0.  1.
         12    1    3    3    0    0  0.98646115326E+01 -0.35528762896E+01 -0.74060768628E+01  0.12836801203E+02  0.00000000000E+00 0. -1.
</event>
<event>
 7    1  0.1457722E-010  0.4778726E+02  0.7816164E-02  0.1312668E+00
        -11   -1    0    0    0    0  0.00000000000E+00  0.00000000000E+00  0.45593999997E+02  0.45594000000E+02  0.51100000000E-03 0. -1.
         11   -1    0    0    0    0 -0.00000000000E+00 -0.00000000000E+00 -0.45593999997E+02  0.45594000000E+02  0.51100000000E-03 0.  1.
    9900012    2    1    2    0    0  0.12154517753E+02  0.19318077839E+02  0.36914813310E+02  0.47787264120E+02  0.19999968430E+02 0.  0.
        -12    1    1    2    0    0 -0.12154517753E+02 -0.19318077839E+02 -0.36914813310E+02  0.43400735880E+02  0.00000000000E+00 0.  1.
         11    1    3    3    0    0  0.28012522133E+01 -0.67815312866E+00  0.13221564344E+02  0.13532060803E+02  0.51100000000E-03 0. -1.
        -11    1    3    3    0    0  0.72069221903E+01  0.72576619614E+01  0.46298431089E+01  0.11227147103E+02  0.51100000000E-03 0.  1.
         12    1    3    3    0    0  0.21463433497E+01  0.12738569007E+02  0.19063405857E+02  0.23028056214E+02  0.00000000000E+00 0. -1.
</event>
<event>
 7    1  0.1895200E-010  0.4778727E+02  0.7816164E-02  0.1312668E+00
        -11   -1    0    0    0    0  0.00000000000E+00  0.00000000000E+00  0.45593999997E+02  0.45594000000E+02  0.51100000000E-03 0.  1.
         11   -1    0    0    0    0 -0.00000000000E+00 -0.00000000000E+00 -0.45593999997E+02  0.45594000000E+02  0.51100000000E-03 0. -1.
    9900012    2    1    2    0    0  0.42948045864E+02 -0.54335818632E+01  0.30926919511E+01  0.47787271908E+02  0.20000003939E+02 0.  0.
        -12    1    1    2    0    0 -0.42948045864E+02  0.54335818632E+01 -0.30926919511E+01  0.43400728092E+02  0.00000000000E+00 0.  1.
         11    1    3    3    0    0  0.25045869145E+02 -0.59812872905E+01  0.43596915664E+01  0.26116628222E+02  0.51100000000E-03 0. -1.
        -11    1    3    3    0    0  0.12935991880E+01  0.23619312774E+00  0.40267564166E+01  0.42360304004E+01  0.51100000000E-03 0.  1.
        -12    1    3    3    0    0  0.16608577531E+02  0.31151229949E+00 -0.52937560319E+01  0.17434613286E+02  0.00000000000E+00 0.  1.
</event>
<event>
 7    1  0.1457722E-010  0.4778727E+02  0.7816164E-02  0.1312668E+00
        -11   -1    0    0    0    0  0.00000000000E+00  0.00000000000E+00  0.45593999997E+02  0.45594000000E+02  0.51100000000E-03 0. -1.
         11   -1    0    0    0    0 -0.00000000000E+00 -0.00000000000E+00 -0.45593999997E+02  0.45594000000E+02  0.51100000000E-03 0.  1.
    9900012    2    1    2    0    0  0.34744704656E+01 -0.36839550183E+02  0.22680372214E+02  0.47787266291E+02  0.19999978328E+02 0.  0.
        -12    1    1    2    0    0 -0.34744704656E+01  0.36839550183E+02 -0.22680372214E+02  0.43400733709E+02  0.00000000000E+00 0.  1.
         11    1    3    3    0    0  0.60145565058E+01 -0.11669076333E+02  0.80086271921E+01  0.15377917355E+02  0.51100000000E-03 0. -1.
        -11    1    3    3    0    0  0.29868975983E+00 -0.77381583480E+01  0.12375620852E+02  0.14598777412E+02  0.51100000000E-03 0.  1.
         12    1    3    3    0    0 -0.28387758000E+01 -0.17432315503E+02  0.22961241699E+01  0.17810571524E+02  0.00000000000E+00 0. -1.
</event>
<event>
 7    1  0.1457722E-010  0.4778727E+02  0.7816164E-02  0.1312668E+00
        -11   -1    0    0    0    0  0.00000000000E+00  0.00000000000E+00  0.45593999997E+02  0.45594000000E+02  0.51100000000E-03 0.  1.
         11   -1    0    0    0    0 -0.00000000000E+00 -0.00000000000E+00 -0.45593999997E+02  0.45594000000E+02  0.51100000000E-03 0. -1.
    9900012    2    1    2    0    0  0.39656565263E+02  0.16910088431E+02  0.50028797392E+01  0.47787273452E+02  0.20000010976E+02 0.  0.
        -12    1    1    2    0    0 -0.39656565263E+02 -0.16910088431E+02 -0.50028797392E+01  0.43400726548E+02  0.00000000000E+00 0.  1.
         11    1    3    3    0    0  0.81729387419E+01 -0.41319082422E+01  0.51467431430E+00  0.91724851219E+01  0.51100000000E-03 0. -1.
        -11    1    3    3    0    0  0.88738663578E+01  0.78350797579E+01 -0.93486212576E+00  0.11874676686E+02  0.51100000000E-03 0.  1.
         12    1    3    3    0    0  0.22609760164E+02  0.13206916915E+02  0.54230675506E+01  0.26740111644E+02  0.00000000000E+00 0. -1.
</event>
<event>
 7    1  0.2480681E-010  0.4778727E+02  0.7816164E-02  0.1312668E+00
        -11   -1    0    0    0    0  0.00000000000E+00  0.00000000000E+00  0.45593999997E+02  0.45594000000E+02  0.51100000000E-03 0. -1.
         11   -1    0    0    0    0 -0.00000000000E+00 -0.00000000000E+00 -0.45593999997E+02  0.45594000000E+02  0.51100000000E-03 0.  1.
    9900012    2    1    2    0    0  0.41326868214E+02  0.11974245754E+02 -0.56859830814E+01  0.47787274184E+02  0.20000014314E+02 0.  0.
        -12    1    1    2    0    0 -0.41326868214E+02 -0.11974245754E+02  0.56859830814E+01  0.43400725816E+02  0.00000000000E+00 0.  1.
         11    1    3    3    0    0  0.20903189705E+02  0.22396498306E-01 -0.26062097225E+01  0.21065046186E+02  0.51100000000E-03 0. -1.
        -11    1    3    3    0    0 -0.69837871521E+00 -0.20371655742E+00  0.17347898930E+01  0.18811511103E+01  0.51100000000E-03 0.  1.
         12    1    3    3    0    0  0.21122057224E+02  0.12155565813E+02 -0.48145632520E+01  0.24841076887E+02  0.00000000000E+00 0. -1.
</event>
<event>
 7    1  0.1457722E-010  0.4778728E+02  0.7816164E-02  0.1312668E+00
        -11   -1    0    0    0    0  0.00000000000E+00  0.00000000000E+00  0.45593999997E+02  0.45594000000E+02  0.51100000000E-03 0.  1.
         11   -1    0    0    0    0 -0.00000000000E+00 -0.00000000000E+00 -0.45593999997E+02  0.45594000000E+02  0.51100000000E-03 0. -1.
    9900012    2    1    2    0    0 -0.12270094166E+02 -0.29680691594E+02 -0.29191160014E+02  0.47787280106E+02  0.20000041315E+02 0.  0.
        -12    1    1    2    0    0  0.12270094166E+02  0.29680691594E+02  0.29191160014E+02  0.43400719894E+02  0.00000000000E+00 0.  1.
         11    1    3    3    0    0  0.20835813404E+01  0.51881674061E+00 -0.69565401124E+01  0.72803799769E+01  0.51100000000E-03 0. -1.
        -11    1    3    3    0    0 -0.59398744163E+01 -0.84770459927E+01 -0.47980083663E+01  0.11408913243E+02  0.51100000000E-03 0.  1.
         12    1    3    3    0    0 -0.84138010903E+01 -0.21722462342E+02 -0.17436611535E+02  0.29097986886E+02  0.00000000000E+00 0. -1.
</event>
<event>
 7    1  0.1457722E-010  0.4778726E+02  0.7816164E-02  0.1312668E+00
        -11   -1    0    0    0    0  0.00000000000E+00  0.00000000000E+00  0.45593999997E+02  0.45594000000E+02  0.51100000000E-03 0.  1.
         11   -1    0    0    0    0 -0.00000000000E+00 -0.00000000000E+00 -0.45593999997E+02  0.45594000000E+02  0.51100000000E-03 0. -1.
    9900012    2    1    2    0    0 -0.60119715892E+01 -0.28086557649E+02 -0.32536528533E+02  0.47787260237E+02  0.19999950725E+02 0.  0.
        -12    1    1    2    0    0  0.60119715892E+01  0.28086557649E+02  0.32536528533E+02  0.43400739763E+02  0.00000000000E+00 0.  1.
         11    1    3    3    0    0  0.41312856525E+01 -0.40164455418E+01 -0.10433275988E+02  0.11918582300E+02  0.51100000000E-03 0. -1.
        -11    1    3    3    0    0 -0.19865057289E+01 -0.68192756123E+01 -0.61282366001E+00  0.71291148109E+01  0.51100000000E-03 0.  1.
         12    1    3    3    0    0 -0.81567515127E+01 -0.17250836495E+02 -0.21490428885E+02  0.28739563126E+02  0.00000000000E+00 0. -1.
</event>
<event>
 7    1  0.1457722E-010  0.4778727E+02  0.7816164E-02  0.1312668E+00
        -11   -1    0    0    0    0  0.00000000000E+00  0.00000000000E+00  0.45593999997E+02  0.45594000000E+02  0.51100000000E-03 0.  1.
         11   -1    0    0    0    0 -0.00000000000E+00 -0.00000000000E+00 -0.45593999997E+02  0.45594000000E+02  0.51100000000E-03 0. -1.
    9900012    2    1    2    0    0  0.25707822689E+02 -0.20192248786E+02 -0.28548276412E+02  0.47787272534E+02  0.20000006793E+02 0.  0.
        -12    1    1    2    0    0 -0.25707822689E+02  0.20192248786E+02  0.28548276412E+02  0.43400727466E+02  0.00000000000E+00 0.  1.
         11    1    3    3    0    0  0.13357006391E+02 -0.97323404968E+00 -0.90276100481E+01  0.16150992158E+02  0.51100000000E-03 0. -1.
        -11    1    3    3    0    0 -0.15454068239E+01 -0.21056334023E+01 -0.35817614601E+01  0.44329436827E+01  0.51100000000E-03 0.  1.
        -12    1    3    3    0    0  0.13896223122E+02 -0.17113381334E+02 -0.15938904904E+02  0.27203336694E+02  0.00000000000E+00 0.  1.
</event>
<event>
 7    1  0.1457722E-010  0.4778727E+02  0.7816164E-02  0.1312668E+00
        -11   -1    0    0    0    0  0.00000000000E+00  0.00000000000E+00  0.45593999997E+02  0.45594000000E+02  0.51100000000E-03 0. -1.
         11   -1    0    0    0    0 -0.00000000000E+00 -0.00000000000E+00 -0.45593999997E+02  0.45594000000E+02  0.51100000000E-03 0.  1.
    9900012    2    1    2    0    0 -0.36029152494E+02 -0.19953724904E+02  0.13688400775E+02  0.47787270943E+02  0.19999999536E+02 0.  0.
        -12    1    1    2    0    0  0.36029152494E+02  0.19953724904E+02 -0.13688400775E+02  0.43400729057E+02  0.00000000000E+00 0.  1.
         11    1    3    3    0    0 -0.22374640021E+02 -0.12650473810E+02  0.86595930373E+01  0.27122823517E+02  0.51100000000E-03 0. -1.
        -11    1    3    3    0    0 -0.10774060317E+02 -0.12036744247E+01 -0.18865500452E+01  0.11004011958E+02  0.51100000000E-03 0.  1.
        -12    1    3    3    0    0 -0.28804521553E+01 -0.60995766685E+01  0.69153577831E+01  0.96604354675E+01  0.00000000000E+00 0.  1.
</event>
<event>
 7    1  0.1457722E-010  0.4778728E+02  0.7816164E-02  0.1312668E+00
        -11   -1    0    0    0    0  0.00000000000E+00  0.00000000000E+00  0.45593999997E+02  0.45594000000E+02  0.51100000000E-03 0. -1.
         11   -1    0    0    0    0 -0.00000000000E+00 -0.00000000000E+00 -0.45593999997E+02  0.45594000000E+02  0.51100000000E-03 0.  1.
    9900012    2    1    2    0    0 -0.28462788332E+02 -0.20281044896E+02  0.25732697578E+02  0.47787276200E+02  0.20000023506E+02 0.  0.
        -12    1    1    2    0    0  0.28462788332E+02  0.20281044896E+02 -0.25732697578E+02  0.43400723800E+02  0.00000000000E+00 0.  1.
         11    1    3    3    0    0 -0.79940933729E+01 -0.78458104012E+01  0.17321330136E+01  0.11334132289E+02  0.51100000000E-03 0. -1.
        -11    1    3    3    0    0 -0.14643130112E+02 -0.11323731259E+01  0.11948257830E+02  0.18933155939E+02  0.51100000000E-03 0.  1.
         12    1    3    3    0    0 -0.58255648473E+01 -0.11302861369E+02  0.12052306734E+02  0.17519987972E+02  0.00000000000E+00 0. -1.
</event>
<event>
 7    1  0.1457722E-010  0.4778727E+02  0.7816164E-02  0.1312668E+00
        -11   -1    0    0    0    0  0.00000000000E+00  0.00000000000E+00  0.45593999997E+02  0.45594000000E+02  0.51100000000E-03 0.  1.
         11   -1    0    0    0    0 -0.00000000000E+00 -0.00000000000E+00 -0.45593999997E+02  0.45594000000E+02  0.51100000000E-03 0. -1.
    9900012    2    1    2    0    0  0.12269579429E+02 -0.14694648046E+02 -0.38950584051E+02  0.47787271222E+02  0.20000000810E+02 0.  0.
        -12    1    1    2    0    0 -0.12269579429E+02  0.14694648046E+02  0.38950584051E+02  0.43400728778E+02  0.00000000000E+00 0.  1.
         11    1    3    3    0    0  0.95550707147E+01 -0.82696901539E+01 -0.11176194844E+02  0.16869928366E+02  0.51100000000E-03 0.  1.
        -11    1    3    3    0    0  0.22516671923E+01 -0.67090547286E+01 -0.28853820405E+02  0.29708994811E+02  0.51100000000E-03 0. -1.
         12    1    3    3    0    0  0.46284152222E+00  0.28409683686E+00  0.10794311979E+01  0.12083480452E+01  0.00000000000E+00 0. -1.
</event>
<event>
 7    1  0.1457722E-010  0.4778727E+02  0.7816164E-02  0.1312668E+00
        -11   -1    0    0    0    0  0.00000000000E+00  0.00000000000E+00  0.45593999997E+02  0.45594000000E+02  0.51100000000E-03 0.  1.
         11   -1    0    0    0    0 -0.00000000000E+00 -0.00000000000E+00 -0.45593999997E+02  0.45594000000E+02  0.51100000000E-03 0. -1.
    9900012    2    1    2    0    0 -0.17231060991E+02 -0.13813605828E+02 -0.37361721439E+02  0.47787269617E+02  0.19999993494E+02 0.  0.
        -12    1    1    2    0    0  0.17231060991E+02  0.13813605828E+02  0.37361721439E+02  0.43400730383E+02  0.00000000000E+00 0.  1.
         11    1    3    3    0    0 -0.17533343328E+02 -0.58602543110E+01 -0.24437221634E+02  0.30642103556E+02  0.51100000000E-03 0. -1.
        -11    1    3    3    0    0 -0.13904472941E+01 -0.45616918800E+01 -0.13360573142E+01  0.49525171270E+01  0.51100000000E-03 0.  1.
        -12    1    3    3    0    0  0.16927296307E+01 -0.33916596370E+01 -0.11588442490E+02  0.12192648935E+02  0.00000000000E+00 0.  1.
</event>
<event>
 7    1  0.1457722E-010  0.4778727E+02  0.7816164E-02  0.1312668E+00
        -11   -1    0    0    0    0  0.00000000000E+00  0.00000000000E+00  0.45593999997E+02  0.45594000000E+02  0.51100000000E-03 0. -1.
         11   -1    0    0    0    0 -0.00000000000E+00 -0.00000000000E+00 -0.45593999997E+02  0.45594000000E+02  0.51100000000E-03 0.  1.
    9900012    2    1    2    0    0 -0.38178501557E+02 -0.15101898523E+02  0.14069747241E+02  0.47787272961E+02  0.20000008739E+02 0.  0.
        -12    1    1    2    0    0  0.38178501557E+02  0.15101898523E+02 -0.14069747241E+02  0.43400727039E+02  0.00000000000E+00 0.  1.
         11    1    3    3    0    0 -0.13006699849E+02 -0.35642951385E+01  0.74353361899E+00  0.13506712528E+02  0.51100000000E-03 0.  1.
        -11    1    3    3    0    0 -0.13488513186E+01 -0.72551733146E+01  0.31308696130E+01  0.80161889012E+01  0.51100000000E-03 0. -1.
        -12    1    3    3    0    0 -0.23822950389E+02 -0.42824300697E+01  0.10195344009E+02  0.26264371532E+02  0.00000000000E+00 0.  1.
</event>
<event>
 7    1  0.1457722E-010  0.4778725E+02  0.7816164E-02  0.1312668E+00
        -11   -1    0    0    0    0  0.00000000000E+00  0.00000000000E+00  0.45593999997E+02  0.45594000000E+02  0.51100000000E-03 0.  1.
         11   -1    0    0    0    0 -0.00000000000E+00 -0.00000000000E+00 -0.45593999997E+02  0.45594000000E+02  0.51100000000E-03 0. -1.
    9900012    2    1    2    0    0  0.28977184878E+02 -0.32162740392E+02  0.30832024629E+01  0.47787248274E+02  0.19999896181E+02 0.  0.
        -12    1    1    2    0    0 -0.28977184878E+02  0.32162740392E+02 -0.30832024629E+01  0.43400751726E+02  0.00000000000E+00 0.  1.
         11    1    3    3    0    0  0.11458523289E+02 -0.16230208973E+02  0.51649720401E+01  0.20527892628E+02  0.51100000000E-03 0. -1.
        -11    1    3    3    0    0  0.16331998315E+02 -0.11940153985E+02  0.32532215609E+01  0.20491093112E+02  0.51100000000E-03 0.  1.
        -12    1    3    3    0    0  0.11866632735E+01 -0.39923774329E+01 -0.53349911381E+01  0.67682625345E+01  0.00000000000E+00 0.  1.
</event>
<event>
 7    1  0.1457722E-010  0.4778727E+02  0.7816164E-02  0.1312668E+00
        -11   -1    0    0    0    0  0.00000000000E+00  0.00000000000E+00  0.45593999997E+02  0.45594000000E+02  0.51100000000E-03 0. -1.
         11   -1    0    0    0    0 -0.00000000000E+00 -0.00000000000E+00 -0.45593999997E+02  0.45594000000E+02  0.51100000000E-03 0.  1.
    9900012    2    1    2    0    0 -0.16879691395E+02  0.19320239467E+02  0.35006111215E+02  0.47787268935E+02  0.19999990381E+02 0.  0.
        -12    1    1    2    0    0  0.16879691395E+02 -0.19320239467E+02 -0.35006111215E+02  0.43400731065E+02  0.00000000000E+00 0.  1.
         11    1    3    3    0    0 -0.17279178755E+00  0.11678852475E+02  0.15883731574E+02  0.19715942309E+02  0.51100000000E-03 0. -1.
        -11    1    3    3    0    0 -0.38091206239E+01  0.28527128625E+01  0.31555050686E+00  0.47693755342E+01  0.51100000000E-03 0.  1.
        -12    1    3    3    0    0 -0.12897778983E+02  0.47886741290E+01  0.18806829134E+02  0.23301951092E+02  0.00000000000E+00 0.  1.
</event>
<event>
 7    1  0.1457722E-010  0.4778727E+02  0.7816164E-02  0.1312668E+00
        -11   -1    0    0    0    0  0.00000000000E+00  0.00000000000E+00  0.45593999997E+02  0.45594000000E+02  0.51100000000E-03 0.  1.
         11   -1    0    0    0    0 -0.00000000000E+00 -0.00000000000E+00 -0.45593999997E+02  0.45594000000E+02  0.51100000000E-03 0. -1.
    9900012    2    1    2    0    0 -0.22998334189E+02  0.79124102515E+01 -0.35945706535E+02  0.47787269248E+02  0.19999991811E+02 0.  0.
        -12    1    1    2    0    0  0.22998334189E+02 -0.79124102515E+01  0.35945706535E+02  0.43400730752E+02  0.00000000000E+00 0.  1.
         11    1    3    3    0    0 -0.57993084928E+01 -0.15276329320E+01 -0.24249284361E+01  0.64688422110E+01  0.51100000000E-03 0. -1.
        -11    1    3    3    0    0 -0.16904214547E+02  0.66531735670E+01 -0.33929141213E+02  0.38486410740E+02  0.51100000000E-03 0.  1.
         12    1    3    3    0    0 -0.29481114887E+00  0.27868696166E+01  0.40836311370E+00  0.28320162969E+01  0.00000000000E+00 0. -1.
</event>
<event>
 7    1  0.1457722E-010  0.4778727E+02  0.7816164E-02  0.1312668E+00
        -11   -1    0    0    0    0  0.00000000000E+00  0.00000000000E+00  0.45593999997E+02  0.45594000000E+02  0.51100000000E-03 0. -1.
         11   -1    0    0    0    0 -0.00000000000E+00 -0.00000000000E+00 -0.45593999997E+02  0.45594000000E+02  0.51100000000E-03 0.  1.
    9900012    2    1    2    0    0 -0.16387450088E+02  0.67709264671E+01  0.39613499317E+02  0.47787270815E+02  0.19999998955E+02 0.  0.
        -12    1    1    2    0    0  0.16387450088E+02 -0.67709264671E+01 -0.39613499317E+02  0.43400729185E+02  0.00000000000E+00 0.  1.
         11    1    3    3    0    0 -0.15577060673E+01  0.10581341418E+01  0.16004427801E+02  0.16114831850E+02  0.51100000000E-03 0. -1.
        -11    1    3    3    0    0 -0.24109857247E+01  0.36599395526E+01  0.16798440973E+02  0.17360749669E+02  0.51100000000E-03 0.  1.
         12    1    3    3    0    0 -0.12418758296E+02  0.20528527727E+01  0.68106305436E+01  0.14311689296E+02  0.00000000000E+00 0. -1.
</event>
<event>
 7    1  0.1457722E-010  0.4778728E+02  0.7816164E-02  0.1312668E+00
        -11   -1    0    0    0    0  0.00000000000E+00  0.00000000000E+00  0.45593999997E+02  0.45594000000E+02  0.51100000000E-03 0. -1.
         11   -1    0    0    0    0 -0.00000000000E+00 -0.00000000000E+00 -0.45593999997E+02  0.45594000000E+02  0.51100000000E-03 0.  1.
    9900012    2    1    2    0    0 -0.69385136750E+01 -0.24212251660E+02  0.35344684148E+02  0.47787276504E+02  0.20000024892E+02 0.  0.
        -12    1    1    2    0    0  0.69385136750E+01  0.24212251660E+02 -0.35344684148E+02  0.43400723496E+02  0.00000000000E+00 0.  1.
         11    1    3    3    0    0 -0.32142676551E+01 -0.17532942883E+02  0.28372471423E+02  0.33507204265E+02  0.51100000000E-03 0. -1.
        -11    1    3    3    0    0 -0.12061822045E+01  0.19236599922E+01  0.44050747673E+01  0.49558074259E+01  0.51100000000E-03 0.  1.
        -12    1    3    3    0    0 -0.25180638154E+01 -0.86029687689E+01  0.25671379573E+01  0.93242648133E+01  0.00000000000E+00 0.  1.
</event>
<event>
 7    1  0.1457722E-010  0.4778727E+02  0.7816164E-02  0.1312668E+00
        -11   -1    0    0    0    0  0.00000000000E+00  0.00000000000E+00  0.45593999997E+02  0.45594000000E+02  0.51100000000E-03 0.  1.
         11   -1    0    0    0    0 -0.00000000000E+00 -0.00000000000E+00 -0.45593999997E+02  0.45594000000E+02  0.51100000000E-03 0. -1.
    9900012    2    1    2    0    0  0.18732518603E+02 -0.12285059465E+02 -0.37172483108E+02  0.47787269134E+02  0.19999991290E+02 0.  0.
        -12    1    1    2    0    0 -0.18732518603E+02  0.12285059465E+02  0.37172483108E+02  0.43400730866E+02  0.00000000000E+00 0.  1.
         11    1    3    3    0    0  0.12570494260E+02 -0.13999560183E+02 -0.28206899505E+02  0.33906255930E+02  0.51100000000E-03 0. -1.
        -11    1    3    3    0    0 -0.46502121251E-01  0.13496244523E+01 -0.73258040478E+01  0.74492317602E+01  0.51100000000E-03 0.  1.
         12    1    3    3    0    0  0.62085264645E+01  0.36487626615E+00 -0.16397795555E+01  0.64317814438E+01  0.00000000000E+00 0. -1.
</event>
<event>
 7    1  0.1457722E-010  0.4778727E+02  0.7816164E-02  0.1312668E+00
        -11   -1    0    0    0    0  0.00000000000E+00  0.00000000000E+00  0.45593999997E+02  0.45594000000E+02  0.51100000000E-03 0.  1.
         11   -1    0    0    0    0 -0.00000000000E+00 -0.00000000000E+00 -0.45593999997E+02  0.45594000000E+02  0.51100000000E-03 0. -1.
    9900012    2    1    2    0    0  0.11904538101E+01  0.25473928052E+02 -0.35118162260E+02  0.47787268311E+02  0.19999987535E+02 0.  0.
        -12    1    1    2    0    0 -0.11904538101E+01 -0.25473928052E+02  0.35118162260E+02  0.43400731689E+02  0.00000000000E+00 0.  1.
         11    1    3    3    0    0  0.45422953644E+01 -0.10009801418E+01 -0.80251354835E+01  0.92756244109E+01  0.51100000000E-03 0. -1.
        -11    1    3    3    0    0 -0.18087609474E+01  0.30616188543E+01 -0.17130182036E+01  0.39470948558E+01  0.51100000000E-03 0.  1.
         12    1    3    3    0    0 -0.15430806069E+01  0.23413289340E+02 -0.25380008573E+02  0.34564549044E+02  0.00000000000E+00 0. -1.
</event>
<event>
 7    1  0.1457722E-010  0.4778727E+02  0.7816164E-02  0.1312668E+00
        -11   -1    0    0    0    0  0.00000000000E+00  0.00000000000E+00  0.45593999997E+02  0.45594000000E+02  0.51100000000E-03 0.  1.
         11   -1    0    0    0    0 -0.00000000000E+00 -0.00000000000E+00 -0.45593999997E+02  0.45594000000E+02  0.51100000000E-03 0. -1.
    9900012    2    1    2    0    0 -0.12672798018E+02  0.20052146303E+01 -0.41460860361E+02  0.47787266859E+02  0.19999980916E+02 0.  0.
        -12    1    1    2    0    0  0.12672798018E+02 -0.20052146303E+01  0.41460860361E+02  0.43400733141E+02  0.00000000000E+00 0.  1.
         11    1    3    3    0    0 -0.50993085122E+01  0.91383231499E+01 -0.19976740234E+02  0.22551763743E+02  0.51100000000E-03 0. -1.
        -11    1    3    3    0    0 -0.50747610198E+01  0.60098097235E+00 -0.81620447881E+01  0.96298158301E+01  0.51100000000E-03 0.  1.
        -12    1    3    3    0    0 -0.24987284862E+01 -0.77340894919E+01 -0.13322075339E+02  0.15605687285E+02  0.00000000000E+00 0.  1.
</event>
<event>
 7    1  0.1457722E-010  0.4778727E+02  0.7816164E-02  0.1312668E+00
        -11   -1    0    0    0    0  0.00000000000E+00  0.00000000000E+00  0.45593999997E+02  0.45594000000E+02  0.51100000000E-03 0. -1.
         11   -1    0    0    0    0 -0.00000000000E+00 -0.00000000000E+00 -0.45593999997E+02  0.45594000000E+02  0.51100000000E-03 0.  1.
    9900012    2    1    2    0    0  0.19376862530E+02  0.28948113614E+02  0.25887581727E+02  0.47787274534E+02  0.20000015910E+02 0.  0.
        -12    1    1    2    0    0 -0.19376862530E+02 -0.28948113614E+02 -0.25887581727E+02  0.43400725466E+02  0.00000000000E+00 0.  1.
         11    1    3    3    0    0  0.13021004645E+01  0.44507111787E+01  0.12229088828E+00  0.46388846653E+01  0.51100000000E-03 0.  1.
        -11    1    3    3    0    0  0.55982523561E+01  0.90178622114E+01  0.19673919638E+02  0.22354538297E+02  0.51100000000E-03 0. -1.
         12    1    3    3    0    0  0.12476509709E+02  0.15479540223E+02  0.60913712012E+01  0.20793851571E+02  0.00000000000E+00 0. -1.
</event>
<event>
 7    1  0.1457722E-010  0.4778727E+02  0.7816164E-02  0.1312668E+00
        -11   -1    0    0    0    0  0.00000000000E+00  0.00000000000E+00  0.45593999997E+02  0.45594000000E+02  0.51100000000E-03 0.  1.
         11   -1    0    0    0    0 -0.00000000000E+00 -0.00000000000E+00 -0.45593999997E+02  0.45594000000E+02  0.51100000000E-03 0. -1.
    9900012    2    1    2    0    0  0.14035287838E+02 -0.12126844968E+01 -0.41050740750E+02  0.47787271613E+02  0.20000002592E+02 0.  0.
        -12    1    1    2    0    0 -0.14035287838E+02  0.12126844968E+01  0.41050740750E+02  0.43400728387E+02  0.00000000000E+00 0.  1.
         11    1    3    3    0    0  0.63781108769E+01 -0.87769291809E+01 -0.12399311536E+02  0.16475973751E+02  0.51100000000E-03 0. -1.
        -11    1    3    3    0    0  0.14299216826E+00  0.11206425367E+01 -0.11129262712E+02  0.11186454990E+02  0.51100000000E-03 0.  1.
         12    1    3    3    0    0  0.75141847928E+01  0.64436021474E+01 -0.17522166502E+02  0.20124842872E+02  0.00000000000E+00 0. -1.
</event>
<event>
 7    1  0.1457722E-010  0.4778727E+02  0.7816164E-02  0.1312668E+00
        -11   -1    0    0    0    0  0.00000000000E+00  0.00000000000E+00  0.45593999997E+02  0.45594000000E+02  0.51100000000E-03 0. -1.
         11   -1    0    0    0    0 -0.00000000000E+00 -0.00000000000E+00 -0.45593999997E+02  0.45594000000E+02  0.51100000000E-03 0.  1.
    9900012    2    1    2    0    0 -0.98745140586E+01  0.16442811908E+02  0.38932649233E+02  0.47787271116E+02  0.20000000328E+02 0.  0.
        -12    1    1    2    0    0  0.98745140586E+01 -0.16442811908E+02 -0.38932649233E+02  0.43400728884E+02  0.00000000000E+00 0.  1.
         11    1    3    3    0    0 -0.26184068108E+01  0.86729316352E+01  0.27221065809E+02  0.28689061007E+02  0.51100000000E-03 0. -1.
        -11    1    3    3    0    0 -0.11781537349E+01  0.20298429580E+01  0.10368750184E+02  0.10631053067E+02  0.51100000000E-03 0.  1.
        -12    1    3    3    0    0 -0.60779535130E+01  0.57400373151E+01  0.13428332388E+01  0.84671570431E+01  0.00000000000E+00 0.  1.
</event>
<event>
 7    1  0.1457722E-010  0.4778728E+02  0.7816164E-02  0.1312668E+00
        -11   -1    0    0    0    0  0.00000000000E+00  0.00000000000E+00  0.45593999997E+02  0.45594000000E+02  0.51100000000E-03 0.  1.
         11   -1    0    0    0    0 -0.00000000000E+00 -0.00000000000E+00 -0.45593999997E+02  0.45594000000E+02  0.51100000000E-03 0. -1.
    9900012    2    1    2    0    0 -0.15247818366E+01 -0.57246594354E+01 -0.42994488773E+02  0.47787277078E+02  0.20000027511E+02 0.  0.
        -12    1    1    2    0    0  0.15247818366E+01  0.57246594354E+01  0.42994488773E+02  0.43400722922E+02  0.00000000000E+00 0.  1.
         11    1    3    3    0    0 -0.42485099135E+01  0.25507692051E+01 -0.22925079583E+02  0.23454541867E+02  0.51100000000E-03 0. -1.
        -11    1    3    3    0    0 -0.12386796493E+01 -0.97669678228E+00  0.87358862070E+00  0.18031697695E+01  0.51100000000E-03 0.  1.
         12    1    3    3    0    0  0.39624077262E+01 -0.72987318582E+01 -0.20942997810E+02  0.22529565442E+02  0.00000000000E+00 0. -1.
</event>
<event>
 7    1  0.1457722E-010  0.4778727E+02  0.7816164E-02  0.1312668E+00
        -11   -1    0    0    0    0  0.00000000000E+00  0.00000000000E+00  0.45593999997E+02  0.45594000000E+02  0.51100000000E-03 0.  1.
         11   -1    0    0    0    0 -0.00000000000E+00 -0.00000000000E+00 -0.45593999997E+02  0.45594000000E+02  0.51100000000E-03 0. -1.
    9900012    2    1    2    0    0  0.27962145446E+02 -0.59776108312E+01 -0.32649810933E+02  0.47787267712E+02  0.19999984804E+02 0.  0.
        -12    1    1    2    0    0 -0.27962145446E+02  0.59776108312E+01  0.32649810933E+02  0.43400732288E+02  0.00000000000E+00 0.  1.
         11    1    3    3    0    0  0.69481152232E+00 -0.32307664102E+00  0.12383418561E+01  0.14562391222E+01  0.51100000000E-03 0. -1.
        -11    1    3    3    0    0  0.64917515850E+01  0.50227551531E+01 -0.96647612348E+01  0.12679846922E+02  0.51100000000E-03 0.  1.
         12    1    3    3    0    0  0.20775582339E+02 -0.10677289343E+02 -0.24223391554E+02  0.33651181668E+02  0.00000000000E+00 0. -1.
</event>
<event>
 7    1  0.1457722E-010  0.4778727E+02  0.7816164E-02  0.1312668E+00
        -11   -1    0    0    0    0  0.00000000000E+00  0.00000000000E+00  0.45593999997E+02  0.45594000000E+02  0.51100000000E-03 0.  1.
         11   -1    0    0    0    0 -0.00000000000E+00 -0.00000000000E+00 -0.45593999997E+02  0.45594000000E+02  0.51100000000E-03 0. -1.
    9900012    2    1    2    0    0  0.62945568116E+01  0.31670326799E+02 -0.28999874975E+02  0.47787265057E+02  0.19999972701E+02 0.  0.
        -12    1    1    2    0    0 -0.62945568116E+01 -0.31670326799E+02  0.28999874975E+02  0.43400734943E+02  0.00000000000E+00 0.  1.
         11    1    3    3    0    0  0.53993886208E+01  0.15968331560E+02 -0.15519900771E+02  0.22913060260E+02  0.51100000000E-03 0. -1.
        -11    1    3    3    0    0 -0.26324748725E+01  0.16868989691E+02 -0.12029633913E+02  0.20885517219E+02  0.51100000000E-03 0.  1.
        -12    1    3    3    0    0  0.35276430633E+01 -0.11669944522E+01 -0.14503402910E+01  0.39886875778E+01  0.00000000000E+00 0.  1.
</event>
<event>
 7    1  0.1457722E-010  0.4778725E+02  0.7816164E-02  0.1312668E+00
        -11   -1    0    0    0    0  0.00000000000E+00  0.00000000000E+00  0.45593999997E+02  0.45594000000E+02  0.51100000000E-03 0.  1.
         11   -1    0    0    0    0 -0.00000000000E+00 -0.00000000000E+00 -0.45593999997E+02  0.45594000000E+02  0.51100000000E-03 0. -1.
    9900012    2    1    2    0    0 -0.29152294807E+02  0.16249666568E+02 -0.27743773745E+02  0.47787251876E+02  0.19999912603E+02 0.  0.
        -12    1    1    2    0    0  0.29152294807E+02 -0.16249666568E+02  0.27743773745E+02  0.43400748124E+02  0.00000000000E+00 0.  1.
         11    1    3    3    0    0 -0.74474879920E+01 -0.22140726778E+01 -0.40953588249E+01  0.87828901495E+01  0.51100000000E-03 0. -1.
        -11    1    3    3    0    0 -0.32447682314E+01  0.28140565789E+01  0.10541741546E+01  0.44225240207E+01  0.51100000000E-03 0.  1.
         12    1    3    3    0    0 -0.18460038584E+02  0.15649682667E+02 -0.24702589075E+02  0.34581837706E+02  0.00000000000E+00 0. -1.
</event>
<event>
 7    1  0.1457722E-010  0.4778727E+02  0.7816164E-02  0.1312668E+00
        -11   -1    0    0    0    0  0.00000000000E+00  0.00000000000E+00  0.45593999997E+02  0.45594000000E+02  0.51100000000E-03 0.  1.
         11   -1    0    0    0    0 -0.00000000000E+00 -0.00000000000E+00 -0.45593999997E+02  0.45594000000E+02  0.51100000000E-03 0. -1.
    9900012    2    1    2    0    0 -0.33617589098E+02 -0.22416591705E+02 -0.15842261533E+02  0.47787272692E+02  0.20000007511E+02 0.  0.
        -12    1    1    2    0    0  0.33617589098E+02  0.22416591705E+02  0.15842261533E+02  0.43400727308E+02  0.00000000000E+00 0.  1.
         11    1    3    3    0    0 -0.86479775276E+01 -0.11121558201E+02 -0.59523166626E+01  0.15294006867E+02  0.51100000000E-03 0. -1.
        -11    1    3    3    0    0 -0.85351782363E+01  0.11319413773E+01  0.18115567176E+01  0.87984258142E+01  0.51100000000E-03 0.  1.
        -12    1    3    3    0    0 -0.16434433334E+02 -0.12426974881E+02 -0.11701501588E+02  0.23694840010E+02  0.00000000000E+00 0.  1.
</event>
<event>
 7    1  0.1457722E-010  0.4778727E+02  0.7816164E-02  0.1312668E+00
        -11   -1    0    0    0    0  0.00000000000E+00  0.00000000000E+00  0.45593999997E+02  0.45594000000E+02  0.51100000000E-03 0. -1.
         11   -1    0    0    0    0 -0.00000000000E+00 -0.00000000000E+00 -0.45593999997E+02  0.45594000000E+02  0.51100000000E-03 0.  1.
    9900012    2    1    2    0    0  0.25682630408E+02  0.30172096441E+02  0.17710740133E+02  0.47787271615E+02  0.20000002601E+02 0.  0.
        -12    1    1    2    0    0 -0.25682630408E+02 -0.30172096441E+02 -0.17710740133E+02  0.43400728385E+02  0.00000000000E+00 0.  1.
         11    1    3    3    0    0  0.25073597226E+01 -0.12191297616E+01  0.11952878223E+01  0.30334540368E+01  0.51100000000E-03 0.  1.
        -11    1    3    3    0    0  0.19244787825E+02  0.14485681955E+02  0.11470729227E+02  0.26679101735E+02  0.51100000000E-03 0. -1.
        -12    1    3    3    0    0  0.39304828605E+01  0.16905544248E+02  0.50447230836E+01  0.18074715843E+02  0.00000000000E+00 0.  1.
</event>
<event>
 7    1  0.1457722E-010  0.4778728E+02  0.7816164E-02  0.1312668E+00
        -11   -1    0    0    0    0  0.00000000000E+00  0.00000000000E+00  0.45593999997E+02  0.45594000000E+02  0.51100000000E-03 0. -1.
         11   -1    0    0    0    0 -0.00000000000E+00 -0.00000000000E+00 -0.45593999997E+02  0.45594000000E+02  0.51100000000E-03 0.  1.
    9900012    2    1    2    0    0 -0.42508251188E+02 -0.45720488169E+01  0.74677853217E+01  0.47787275731E+02  0.20000021369E+02 0.  0.
        -12    1    1    2    0    0  0.42508251188E+02  0.45720488169E+01 -0.74677853217E+01  0.43400724269E+02  0.00000000000E+00 0.  1.
         11    1    3    3    0    0 -0.95832046641E+01  0.39589608048E+01  0.14178411335E+01  0.10465249927E+02  0.51100000000E-03 0. -1.
        -11    1    3    3    0    0 -0.24162958511E+02 -0.64844458229E+01 -0.22000123726E+01  0.25114471055E+02  0.51100000000E-03 0.  1.
         12    1    3    3    0    0 -0.87620880125E+01 -0.20465637988E+01  0.82499565607E+01  0.12207554750E+02  0.00000000000E+00 0. -1.
</event>
<event>
 7    1  0.1457722E-010  0.4778728E+02  0.7816164E-02  0.1312668E+00
        -11   -1    0    0    0    0  0.00000000000E+00  0.00000000000E+00  0.45593999997E+02  0.45594000000E+02  0.51100000000E-03 0.  1.
         11   -1    0    0    0    0 -0.00000000000E+00 -0.00000000000E+00 -0.45593999997E+02  0.45594000000E+02  0.51100000000E-03 0. -1.
    9900012    2    1    2    0    0 -0.39326295003E+02 -0.10977458663E+02 -0.14716005128E+02  0.47787275533E+02  0.20000020466E+02 0.  0.
        -12    1    1    2    0    0  0.39326295003E+02  0.10977458663E+02  0.14716005128E+02  0.43400724467E+02  0.00000000000E+00 0.  1.
         11    1    3    3    0    0 -0.24098302082E+02  0.11246166191E+01 -0.10252970549E+02  0.26212903905E+02  0.51100000000E-03 0. -1.
        -11    1    3    3    0    0 -0.15173199089E+02 -0.82808651455E+01 -0.36991131296E+01  0.17677164262E+02  0.51100000000E-03 0.  1.
         12    1    3    3    0    0 -0.54793831403E-01 -0.38212101368E+01 -0.76392144955E+00  0.38972073662E+01  0.00000000000E+00 0. -1.
</event>
<event>
 7    1  0.1457722E-010  0.4778727E+02  0.7816164E-02  0.1312668E+00
        -11   -1    0    0    0    0  0.00000000000E+00  0.00000000000E+00  0.45593999997E+02  0.45594000000E+02  0.51100000000E-03 0.  1.
         11   -1    0    0    0    0 -0.00000000000E+00 -0.00000000000E+00 -0.45593999997E+02  0.45594000000E+02  0.51100000000E-03 0. -1.
    9900012    2    1    2    0    0  0.25322436549E+02  0.27878212551E+02 -0.21568557125E+02  0.47787272076E+02  0.20000004705E+02 0.  0.
        -12    1    1    2    0    0 -0.25322436549E+02 -0.27878212551E+02  0.21568557125E+02  0.43400727924E+02  0.00000000000E+00 0.  1.
         11    1    3    3    0    0 -0.55588888376E+00  0.59281098775E+01 -0.39893444810E+01  0.71670334742E+01  0.51100000000E-03 0.  1.
        -11    1    3    3    0    0  0.34650317047E+00  0.25785406099E+01 -0.60067798965E+01  0.65460171945E+01  0.51100000000E-03 0. -1.
         12    1    3    3    0    0  0.25531822263E+02  0.19371562064E+02 -0.11572432747E+02  0.34074221408E+02  0.00000000000E+00 0. -1.
</event>
<event>
 7    1  0.1457722E-010  0.4778727E+02  0.7816164E-02  0.1312668E+00
        -11   -1    0    0    0    0  0.00000000000E+00  0.00000000000E+00  0.45593999997E+02  0.45594000000E+02  0.51100000000E-03 0.  1.
         11   -1    0    0    0    0 -0.00000000000E+00 -0.00000000000E+00 -0.45593999997E+02  0.45594000000E+02  0.51100000000E-03 0. -1.
    9900012    2    1    2    0    0  0.34301129260E+01  0.19242516164E+02 -0.38750268537E+02  0.47787269422E+02  0.19999992603E+02 0.  0.
        -12    1    1    2    0    0 -0.34301129260E+01 -0.19242516164E+02  0.38750268537E+02  0.43400730578E+02  0.00000000000E+00 0.  1.
         11    1    3    3    0    0 -0.54447587232E+00  0.38214739606E+01 -0.19847672077E+00  0.38651662936E+01  0.51100000000E-03 0. -1.
        -11    1    3    3    0    0  0.36605339945E+01  0.17226818993E+02 -0.27068421332E+02  0.32293377578E+02  0.51100000000E-03 0.  1.
         12    1    3    3    0    0  0.31405480383E+00 -0.18057767902E+01 -0.11483370485E+02  0.11628725550E+02  0.00000000000E+00 0. -1.
</event>
<event>
 7    1  0.1457722E-010  0.4778727E+02  0.7816164E-02  0.1312668E+00
        -11   -1    0    0    0    0  0.00000000000E+00  0.00000000000E+00  0.45593999997E+02  0.45594000000E+02  0.51100000000E-03 0.  1.
         11   -1    0    0    0    0 -0.00000000000E+00 -0.00000000000E+00 -0.45593999997E+02  0.45594000000E+02  0.51100000000E-03 0. -1.
    9900012    2    1    2    0    0  0.91411073393E+01 -0.24464167392E+02 -0.34663641845E+02  0.47787269643E+02  0.19999993609E+02 0.  0.
        -12    1    1    2    0    0 -0.91411073393E+01  0.24464167392E+02  0.34663641845E+02  0.43400730357E+02  0.00000000000E+00 0.  1.
         11    1    3    3    0    0  0.43154244712E+01 -0.11077457458E+01 -0.14115538544E+01  0.46735932160E+01  0.51100000000E-03 0.  1.
        -11    1    3    3    0    0  0.67426654906E+01 -0.22000018078E+02 -0.22770371271E+02  0.32372119817E+02  0.51100000000E-03 0. -1.
         12    1    3    3    0    0 -0.19169826225E+01 -0.13564035688E+01 -0.10481716719E+02  0.10741556610E+02  0.00000000000E+00 0. -1.
</event>
<event>
 7    1  0.1457722E-010  0.4778726E+02  0.7816164E-02  0.1312668E+00
        -11   -1    0    0    0    0  0.00000000000E+00  0.00000000000E+00  0.45593999997E+02  0.45594000000E+02  0.51100000000E-03 0. -1.
         11   -1    0    0    0    0 -0.00000000000E+00 -0.00000000000E+00 -0.45593999997E+02  0.45594000000E+02  0.51100000000E-03 0.  1.
    9900012    2    1    2    0    0 -0.36438837102E+02 -0.23572177193E+02 -0.43298981429E+00  0.47787264210E+02  0.19999968838E+02 0.  0.
        -12    1    1    2    0    0  0.36438837102E+02  0.23572177193E+02  0.43298981429E+00  0.43400735790E+02  0.00000000000E+00 0.  1.
         11    1    3    3    0    0 -0.20395524276E+02 -0.19670554807E+02 -0.34775356634E+00  0.28337767550E+02  0.51100000000E-03 0. -1.
        -11    1    3    3    0    0  0.74363474059E+00 -0.11601885805E+01 -0.18961807098E+01  0.23440417477E+01  0.51100000000E-03 0.  1.
        -12    1    3    3    0    0 -0.16786947566E+02 -0.27414338053E+01  0.18109444618E+01  0.17105454912E+02  0.00000000000E+00 0.  1.
</event>
<event>
 7    1  0.1457722E-010  0.4778727E+02  0.7816164E-02  0.1312668E+00
        -11   -1    0    0    0    0  0.00000000000E+00  0.00000000000E+00  0.45593999997E+02  0.45594000000E+02  0.51100000000E-03 0.  1.
         11   -1    0    0    0    0 -0.00000000000E+00 -0.00000000000E+00 -0.45593999997E+02  0.45594000000E+02  0.51100000000E-03 0. -1.
    9900012    2    1    2    0    0  0.82088490486E+01 -0.23647608290E+02 -0.35454600342E+02  0.47787271136E+02  0.20000000418E+02 0.  0.
        -12    1    1    2    0    0 -0.82088490486E+01  0.23647608290E+02  0.35454600342E+02  0.43400728864E+02  0.00000000000E+00 0.  1.
         11    1    3    3    0    0 -0.16832046713E+01  0.13151558433E+01 -0.20740109328E+01  0.29773032207E+01  0.51100000000E-03 0. -1.
        -11    1    3    3    0    0  0.38675092417E+01 -0.41269785499E+01 -0.86116184202E+00  0.57211169945E+01  0.51100000000E-03 0.  1.
         12    1    3    3    0    0  0.60245444782E+01 -0.20835785583E+02 -0.32519427567E+02  0.39088850921E+02  0.00000000000E+00 0. -1.
</event>
<event>
 7    1  0.1457722E-010  0.4778734E+02  0.7816164E-02  0.1312667E+00
        -11   -1    0    0    0    0  0.00000000000E+00  0.00000000000E+00  0.45593999997E+02  0.45594000000E+02  0.51100000000E-03 0.  1.
         11   -1    0    0    0    0 -0.00000000000E+00 -0.00000000000E+00 -0.45593999997E+02  0.45594000000E+02  0.51100000000E-03 0. -1.
    9900012    2    1    2    0    0  0.27118638674E+02  0.29226628120E+02 -0.17146464095E+02  0.47787336575E+02  0.20000298776E+02 0.  0.
        -12    1    1    2    0    0 -0.27118638674E+02 -0.29226628120E+02  0.17146464095E+02  0.43400663425E+02  0.00000000000E+00 0.  1.
         11    1    3    3    0    0  0.12990090078E+02  0.35486233372E+01 -0.60791432861E+01  0.14774679393E+02  0.51100000000E-03 0.  1.
        -11    1    3    3    0    0  0.24235020417E+01  0.47476124471E+01 -0.68240039181E+01  0.86591117229E+01  0.51100000000E-03 0. -1.
        -12    1    3    3    0    0  0.11705046554E+02  0.20930392336E+02 -0.42433168911E+01  0.24353545459E+02  0.00000000000E+00 0.  1.
</event>
<event>
 7    1  0.1457722E-010  0.4778728E+02  0.7816164E-02  0.1312668E+00
        -11   -1    0    0    0    0  0.00000000000E+00  0.00000000000E+00  0.45593999997E+02  0.45594000000E+02  0.51100000000E-03 0.  1.
         11   -1    0    0    0    0 -0.00000000000E+00 -0.00000000000E+00 -0.45593999997E+02  0.45594000000E+02  0.51100000000E-03 0. -1.
    9900012    2    1    2    0    0 -0.23145937507E+02  0.35594759257E+02 -0.89945260229E+01  0.47787276411E+02  0.20000024470E+02 0.  0.
        -12    1    1    2    0    0  0.23145937507E+02 -0.35594759257E+02  0.89945260229E+01  0.43400723589E+02  0.00000000000E+00 0.  1.
         11    1    3    3    0    0 -0.92599683351E+01  0.14602951259E+02 -0.40493849806E+01  0.17759243171E+02  0.51100000000E-03 0. -1.
        -11    1    3    3    0    0 -0.22656046863E+01  0.34985740626E+01  0.52333348092E+01  0.66903496585E+01  0.51100000000E-03 0.  1.
        -12    1    3    3    0    0 -0.11620364486E+02  0.17493233935E+02 -0.10178475852E+02  0.23337683582E+02  0.00000000000E+00 0.  1.
</event>
<event>
 7    1  0.1457722E-010  0.4778727E+02  0.7816164E-02  0.1312668E+00
        -11   -1    0    0    0    0  0.00000000000E+00  0.00000000000E+00  0.45593999997E+02  0.45594000000E+02  0.51100000000E-03 0.  1.
         11   -1    0    0    0    0 -0.00000000000E+00 -0.00000000000E+00 -0.45593999997E+02  0.45594000000E+02  0.51100000000E-03 0. -1.
    9900012    2    1    2    0    0  0.14380687682E+02  0.22569001564E+02 -0.34168107796E+02  0.47787267285E+02  0.19999982860E+02 0.  0.
        -12    1    1    2    0    0 -0.14380687682E+02 -0.22569001564E+02  0.34168107796E+02  0.43400732715E+02  0.00000000000E+00 0.  1.
         11    1    3    3    0    0  0.51840091936E+01  0.15993498224E+02 -0.10502634651E+02  0.19823503011E+02  0.51100000000E-03 0. -1.
        -11    1    3    3    0    0  0.10978090089E+02  0.65752671359E+01 -0.18457620040E+02  0.22459660231E+02  0.51100000000E-03 0.  1.
        -12    1    3    3    0    0 -0.17814115998E+01  0.23620380548E-03 -0.52078531060E+01  0.55041040431E+01  0.00000000000E+00 0.  1.
</event>
<event>
 7    1  0.1523387E-010  0.4778728E+02  0.7816164E-02  0.1312668E+00
        -11   -1    0    0    0    0  0.00000000000E+00  0.00000000000E+00  0.45593999997E+02  0.45594000000E+02  0.51100000000E-03 0.  1.
         11   -1    0    0    0    0 -0.00000000000E+00 -0.00000000000E+00 -0.45593999997E+02  0.45594000000E+02  0.51100000000E-03 0. -1.
    9900012    2    1    2    0    0 -0.21438775587E+02 -0.36676788066E+02 -0.88777819942E+01  0.47787275414E+02  0.20000019921E+02 0.  0.
        -12    1    1    2    0    0  0.21438775587E+02  0.36676788066E+02  0.88777819942E+01  0.43400724586E+02  0.00000000000E+00 0.  1.
         11    1    3    3    0    0 -0.10697639220E+02 -0.11917524383E+02  0.12119808417E+01  0.16060378891E+02  0.51100000000E-03 0.  1.
        -11    1    3    3    0    0  0.76200732164E+00 -0.59730717926E+00 -0.42207867957E+01  0.43304125047E+01  0.51100000000E-03 0. -1.
         12    1    3    3    0    0 -0.11503143689E+02 -0.24161956504E+02 -0.58689760403E+01  0.27396484018E+02  0.00000000000E+00 0. -1.
</event>
<event>
 7    1  0.1457722E-010  0.4778727E+02  0.7816164E-02  0.1312668E+00
        -11   -1    0    0    0    0  0.00000000000E+00  0.00000000000E+00  0.45593999997E+02  0.45594000000E+02  0.51100000000E-03 0.  1.
         11   -1    0    0    0    0 -0.00000000000E+00 -0.00000000000E+00 -0.45593999997E+02  0.45594000000E+02  0.51100000000E-03 0. -1.
    9900012    2    1    2    0    0 -0.30982828995E+02  0.14716888081E+02 -0.26591368731E+02  0.47787269841E+02  0.19999994514E+02 0.  0.
        -12    1    1    2    0    0  0.30982828995E+02 -0.14716888081E+02  0.26591368731E+02  0.43400730159E+02  0.00000000000E+00 0.  1.
         11    1    3    3    0    0 -0.11360782624E+02  0.26720247035E+01 -0.50649286145E+01  0.12722444733E+02  0.51100000000E-03 0. -1.
        -11    1    3    3    0    0 -0.15617657045E+02  0.14646410255E+02 -0.21423384327E+02  0.30288445672E+02  0.51100000000E-03 0.  1.
         12    1    3    3    0    0 -0.40043893252E+01 -0.26015468771E+01 -0.10305578969E+00  0.47763794361E+01  0.00000000000E+00 0. -1.
</event>
<event>
 7    1  0.1457722E-010  0.4778727E+02  0.7816164E-02  0.1312668E+00
        -11   -1    0    0    0    0  0.00000000000E+00  0.00000000000E+00  0.45593999997E+02  0.45594000000E+02  0.51100000000E-03 0. -1.
         11   -1    0    0    0    0 -0.00000000000E+00 -0.00000000000E+00 -0.45593999997E+02  0.45594000000E+02  0.51100000000E-03 0.  1.
    9900012    2    1    2    0    0  0.22846002381E+02  0.33897884195E+02  0.14581389436E+02  0.47787270795E+02  0.19999998862E+02 0.  0.
        -12    1    1    2    0    0 -0.22846002381E+02 -0.33897884195E+02 -0.14581389436E+02  0.43400729205E+02  0.00000000000E+00 0.  1.
         11    1    3    3    0    0  0.22530248918E+01  0.99273199884E+00  0.41233235461E+01  0.48024405578E+01  0.51100000000E-03 0.  1.
        -11    1    3    3    0    0  0.22612936271E+02  0.29200328187E+02  0.11418321847E+02  0.38657238999E+02  0.51100000000E-03 0. -1.
         12    1    3    3    0    0 -0.20199587815E+01  0.37048240089E+01 -0.96025595679E+00  0.43275912375E+01  0.00000000000E+00 0. -1.
</event>
<event>
 7    1  0.1457722E-010  0.4778727E+02  0.7816164E-02  0.1312668E+00
        -11   -1    0    0    0    0  0.00000000000E+00  0.00000000000E+00  0.45593999997E+02  0.45594000000E+02  0.51100000000E-03 0.  1.
         11   -1    0    0    0    0 -0.00000000000E+00 -0.00000000000E+00 -0.45593999997E+02  0.45594000000E+02  0.51100000000E-03 0. -1.
    9900012    2    1    2    0    0  0.41831996699E+02  0.19955349195E+01 -0.11389705936E+02  0.47787268339E+02  0.19999987664E+02 0.  0.
        -12    1    1    2    0    0 -0.41831996699E+02 -0.19955349195E+01  0.11389705936E+02  0.43400731661E+02  0.00000000000E+00 0.  1.
         11    1    3    3    0    0  0.12636703145E+02  0.12023198615E+01 -0.83820977172E+01  0.15211554879E+02  0.51100000000E-03 0. -1.
        -11    1    3    3    0    0  0.22155159799E+02  0.30825019935E+01  0.35955854496E+01  0.22655709197E+02  0.51100000000E-03 0.  1.
        -12    1    3    3    0    0  0.70401337550E+01 -0.22892869355E+01 -0.66031936679E+01  0.99200042630E+01  0.00000000000E+00 0.  1.
</event>
<event>
 7    1  0.1639386E-010  0.4778727E+02  0.7816164E-02  0.1312668E+00
        -11   -1    0    0    0    0  0.00000000000E+00  0.00000000000E+00  0.45593999997E+02  0.45594000000E+02  0.51100000000E-03 0.  1.
         11   -1    0    0    0    0 -0.00000000000E+00 -0.00000000000E+00 -0.45593999997E+02  0.45594000000E+02  0.51100000000E-03 0. -1.
    9900012    2    1    2    0    0 -0.28880867410E+02 -0.31497044362E+02 -0.75799085862E+01  0.47787270512E+02  0.19999997573E+02 0.  0.
        -12    1    1    2    0    0  0.28880867410E+02  0.31497044362E+02  0.75799085862E+01  0.43400729488E+02  0.00000000000E+00 0.  1.
         11    1    3    3    0    0 -0.10041202469E+02 -0.15815964933E+02  0.15240713445E+01  0.18796097667E+02  0.51100000000E-03 0. -1.
        -11    1    3    3    0    0  0.58869967142E+00  0.12921321202E+01 -0.15666446290E+01  0.21143671332E+01  0.51100000000E-03 0.  1.
         12    1    3    3    0    0 -0.19428364613E+02 -0.16973211549E+02 -0.75373353017E+01  0.26876805712E+02  0.00000000000E+00 0. -1.
</event>
<event>
 7    1  0.1457722E-010  0.4778727E+02  0.7816164E-02  0.1312668E+00
        -11   -1    0    0    0    0  0.00000000000E+00  0.00000000000E+00  0.45593999997E+02  0.45594000000E+02  0.51100000000E-03 0.  1.
         11   -1    0    0    0    0 -0.00000000000E+00 -0.00000000000E+00 -0.45593999997E+02  0.45594000000E+02  0.51100000000E-03 0. -1.
    9900012    2    1    2    0    0 -0.37760038565E+02  0.20684412393E+02  0.54733871736E+01  0.47787269642E+02  0.19999993607E+02 0.  0.
        -12    1    1    2    0    0  0.37760038565E+02 -0.20684412393E+02 -0.54733871736E+01  0.43400730358E+02  0.00000000000E+00 0.  1.
         11    1    3    3    0    0 -0.17559429597E+02  0.58160549210E+01  0.59897185483E+00  0.18507264254E+02  0.51100000000E-03 0. -1.
        -11    1    3    3    0    0 -0.14478490806E+01  0.39457321463E+01  0.62531849544E+01  0.75344138103E+01  0.51100000000E-03 0.  1.
         12    1    3    3    0    0 -0.18752759887E+02  0.10922625325E+02 -0.13787696356E+01  0.21745591578E+02  0.00000000000E+00 0. -1.
</event>
<event>
 7    1  0.1457722E-010  0.4778728E+02  0.7816164E-02  0.1312668E+00
        -11   -1    0    0    0    0  0.00000000000E+00  0.00000000000E+00  0.45593999997E+02  0.45594000000E+02  0.51100000000E-03 0. -1.
         11   -1    0    0    0    0 -0.00000000000E+00 -0.00000000000E+00 -0.45593999997E+02  0.45594000000E+02  0.51100000000E-03 0.  1.
    9900012    2    1    2    0    0 -0.26206972599E+02 -0.70004840818E+01 -0.33879352876E+02  0.47787277177E+02  0.20000027963E+02 0.  0.
        -12    1    1    2    0    0  0.26206972599E+02  0.70004840818E+01  0.33879352876E+02  0.43400722823E+02  0.00000000000E+00 0.  1.
         11    1    3    3    0    0 -0.82629369531E+01 -0.55786636510E+01 -0.98137214173E+01  0.13989522634E+02  0.51100000000E-03 0. -1.
        -11    1    3    3    0    0 -0.15629735348E+02  0.35079578439E+01 -0.10430253003E+02  0.19115035267E+02  0.51100000000E-03 0.  1.
        -12    1    3    3    0    0 -0.23143002985E+01 -0.49297782747E+01 -0.13635378456E+02  0.14682719276E+02  0.00000000000E+00 0.  1.
</event>
<event>
 7    1  0.1457722E-010  0.4778727E+02  0.7816164E-02  0.1312668E+00
        -11   -1    0    0    0    0  0.00000000000E+00  0.00000000000E+00  0.45593999997E+02  0.45594000000E+02  0.51100000000E-03 0. -1.
         11   -1    0    0    0    0 -0.00000000000E+00 -0.00000000000E+00 -0.45593999997E+02  0.45594000000E+02  0.51100000000E-03 0.  1.
    9900012    2    1    2    0    0 -0.39155686183E+02 -0.18183927522E+02 -0.44497617782E+01  0.47787270047E+02  0.19999995452E+02 0.  0.
        -12    1    1    2    0    0  0.39155686183E+02  0.18183927522E+02  0.44497617782E+01  0.43400729953E+02  0.00000000000E+00 0.  1.
         11    1    3    3    0    0 -0.11873116526E+01  0.11716989507E+01  0.17842447053E+01  0.24425635756E+01  0.51100000000E-03 0.  1.
        -11    1    3    3    0    0 -0.28718906755E+02 -0.20730660652E+02 -0.34451873789E+01  0.35586587538E+02  0.51100000000E-03 0. -1.
         12    1    3    3    0    0 -0.92494677754E+01  0.13750341792E+01 -0.27888191046E+01  0.97581189335E+01  0.00000000000E+00 0. -1.
</event>
<event>
 7    1  0.1457722E-010  0.4778727E+02  0.7816164E-02  0.1312668E+00
        -11   -1    0    0    0    0  0.00000000000E+00  0.00000000000E+00  0.45593999997E+02  0.45594000000E+02  0.51100000000E-03 0.  1.
         11   -1    0    0    0    0 -0.00000000000E+00 -0.00000000000E+00 -0.45593999997E+02  0.45594000000E+02  0.51100000000E-03 0. -1.
    9900012    2    1    2    0    0 -0.23964887014E+02 -0.94112547826E+01 -0.34939030689E+02  0.47787269687E+02  0.19999993812E+02 0.  0.
        -12    1    1    2    0    0  0.23964887014E+02  0.94112547826E+01  0.34939030689E+02  0.43400730313E+02  0.00000000000E+00 0.  1.
         11    1    3    3    0    0 -0.22157722461E+02 -0.10180389051E+01 -0.22107673989E+02  0.31316933396E+02  0.51100000000E-03 0. -1.
        -11    1    3    3    0    0 -0.28840743094E+00 -0.42437717566E+01 -0.18597091833E+01  0.46423373505E+01  0.51100000000E-03 0.  1.
         12    1    3    3    0    0 -0.15187571224E+01 -0.41494441209E+01 -0.10971647516E+02  0.11827998940E+02  0.00000000000E+00 0. -1.
</event>
<event>
 7    1  0.1457722E-010  0.4778727E+02  0.7816164E-02  0.1312668E+00
        -11   -1    0    0    0    0  0.00000000000E+00  0.00000000000E+00  0.45593999997E+02  0.45594000000E+02  0.51100000000E-03 0.  1.
         11   -1    0    0    0    0 -0.00000000000E+00 -0.00000000000E+00 -0.45593999997E+02  0.45594000000E+02  0.51100000000E-03 0. -1.
    9900012    2    1    2    0    0 -0.43132404208E+02 -0.26600314769E+01 -0.40178956683E+01  0.47787267912E+02  0.19999985716E+02 0.  0.
        -12    1    1    2    0    0  0.43132404208E+02  0.26600314769E+01  0.40178956683E+01  0.43400732088E+02  0.00000000000E+00 0.  1.
         11    1    3    3    0    0 -0.11740503121E+02 -0.41374015177E+01  0.44720825338E+00  0.12456223358E+02  0.51100000000E-03 0. -1.
        -11    1    3    3    0    0 -0.98702116106E+00  0.37936667590E+01 -0.27528610339E+01  0.47900273886E+01  0.51100000000E-03 0.  1.
        -12    1    3    3    0    0 -0.30404879925E+02 -0.23162967183E+01 -0.17122428878E+01  0.30541017165E+02  0.00000000000E+00 0.  1.
</event>
<event>
 7    1  0.1457722E-010  0.4778727E+02  0.7816164E-02  0.1312668E+00
        -11   -1    0    0    0    0  0.00000000000E+00  0.00000000000E+00  0.45593999997E+02  0.45594000000E+02  0.51100000000E-03 0. -1.
         11   -1    0    0    0    0 -0.00000000000E+00 -0.00000000000E+00 -0.45593999997E+02  0.45594000000E+02  0.51100000000E-03 0.  1.
    9900012    2    1    2    0    0  0.12615571627E+02 -0.36416158785E+02  0.19958305426E+02  0.47787271624E+02  0.20000002641E+02 0.  0.
        -12    1    1    2    0    0 -0.12615571627E+02  0.36416158785E+02 -0.19958305426E+02  0.43400728376E+02  0.00000000000E+00 0.  1.
         11    1    3    3    0    0  0.78508241445E+01 -0.71593903594E+01  0.84173922198E+01  0.13555249983E+02  0.51100000000E-03 0.  1.
        -11    1    3    3    0    0  0.61751109680E+01 -0.29492437503E+02  0.12377767387E+02  0.32575220507E+02  0.51100000000E-03 0. -1.
         12    1    3    3    0    0 -0.14103634857E+01  0.23566907754E+00 -0.83685418072E+00  0.16568011334E+01  0.00000000000E+00 0. -1.
</event>
<event>
 7    1  0.1457722E-010  0.4778728E+02  0.7816164E-02  0.1312668E+00
        -11   -1    0    0    0    0  0.00000000000E+00  0.00000000000E+00  0.45593999997E+02  0.45594000000E+02  0.51100000000E-03 0.  1.
         11   -1    0    0    0    0 -0.00000000000E+00 -0.00000000000E+00 -0.45593999997E+02  0.45594000000E+02  0.51100000000E-03 0. -1.
    9900012    2    1    2    0    0  0.58641332273E+01  0.41569718567E+02  0.11008778621E+02  0.47787276884E+02  0.20000026625E+02 0.  0.
        -12    1    1    2    0    0 -0.58641332273E+01 -0.41569718567E+02 -0.11008778621E+02  0.43400723116E+02  0.00000000000E+00 0.  1.
         11    1    3    3    0    0  0.86257857944E+01  0.26418991762E+02 -0.11153379503E+01  0.27813868578E+02  0.51100000000E-03 0. -1.
        -11    1    3    3    0    0  0.60139906573E+00  0.35299812549E+00  0.50818030111E+00  0.86286499084E+00  0.51100000000E-03 0.  1.
         12    1    3    3    0    0 -0.33630516328E+01  0.14797728680E+02  0.11615936270E+02  0.19110543315E+02  0.00000000000E+00 0. -1.
</event>
<event>
 7    1  0.1457722E-010  0.4778727E+02  0.7816164E-02  0.1312668E+00
        -11   -1    0    0    0    0  0.00000000000E+00  0.00000000000E+00  0.45593999997E+02  0.45594000000E+02  0.51100000000E-03 0. -1.
         11   -1    0    0    0    0 -0.00000000000E+00 -0.00000000000E+00 -0.45593999997E+02  0.45594000000E+02  0.51100000000E-03 0.  1.
    9900012    2    1    2    0    0 -0.18683786930E+02 -0.21647464086E+02  0.32648538893E+02  0.47787266283E+02  0.19999978288E+02 0.  0.
        -12    1    1    2    0    0  0.18683786930E+02  0.21647464086E+02 -0.32648538893E+02  0.43400733717E+02  0.00000000000E+00 0.  1.
         11    1    3    3    0    0 -0.17032792567E+01  0.68848093255E+00 -0.12408833125E+01  0.22169704277E+01  0.51100000000E-03 0. -1.
        -11    1    3    3    0    0 -0.26854174079E+01  0.69976683149E+00  0.10053917771E+01  0.29516017956E+01  0.51100000000E-03 0.  1.
         12    1    3    3    0    0 -0.14295090265E+02 -0.23035711850E+02  0.32884030428E+02  0.42618694059E+02  0.00000000000E+00 0. -1.
</event>
<event>
 7    1  0.1457722E-010  0.4778727E+02  0.7816164E-02  0.1312668E+00
        -11   -1    0    0    0    0  0.00000000000E+00  0.00000000000E+00  0.45593999997E+02  0.45594000000E+02  0.51100000000E-03 0. -1.
         11   -1    0    0    0    0 -0.00000000000E+00 -0.00000000000E+00 -0.45593999997E+02  0.45594000000E+02  0.51100000000E-03 0.  1.
    9900012    2    1    2    0    0 -0.91884885824E+01  0.40048500217E+02 -0.13975427053E+02  0.47787271281E+02  0.20000001077E+02 0.  0.
        -12    1    1    2    0    0  0.91884885824E+01 -0.40048500217E+02  0.13975427053E+02  0.43400728719E+02  0.00000000000E+00 0.  1.
         11    1    3    3    0    0  0.57563916104E+00  0.28129982095E+02 -0.13327147861E+02  0.31132621532E+02  0.51100000000E-03 0. -1.
        -11    1    3    3    0    0 -0.56457123615E+01  0.10927614644E+02  0.34147258847E+00  0.12304610261E+02  0.51100000000E-03 0.  1.
        -12    1    3    3    0    0 -0.41184153819E+01  0.99090347829E+00 -0.98975178041E+00  0.43500394881E+01  0.00000000000E+00 0.  1.
</event>
<event>
 7    1  0.1457722E-010  0.4778727E+02  0.7816164E-02  0.1312668E+00
        -11   -1    0    0    0    0  0.00000000000E+00  0.00000000000E+00  0.45593999997E+02  0.45594000000E+02  0.51100000000E-03 0.  1.
         11   -1    0    0    0    0 -0.00000000000E+00 -0.00000000000E+00 -0.45593999997E+02  0.45594000000E+02  0.51100000000E-03 0. -1.
    9900012    2    1    2    0    0 -0.35020139126E+02  0.61082276042E+01 -0.24897847081E+02  0.47787269843E+02  0.19999994524E+02 0.  0.
        -12    1    1    2    0    0  0.35020139126E+02 -0.61082276042E+01  0.24897847081E+02  0.43400730157E+02  0.00000000000E+00 0.  1.
         11    1    3    3    0    0 -0.22137717164E+02 -0.40361860119E+00 -0.18400837404E+02  0.28789446793E+02  0.51100000000E-03 0. -1.
        -11    1    3    3    0    0 -0.58008291711E+01  0.66170658466E+01 -0.78442537722E+01  0.11788447607E+02  0.51100000000E-03 0.  1.
         12    1    3    3    0    0 -0.70815927907E+01 -0.10521964117E+00  0.13472440953E+01  0.72093754431E+01  0.00000000000E+00 0. -1.
</event>
<event>
 7    1  0.1457722E-010  0.4778727E+02  0.7816164E-02  0.1312668E+00
        -11   -1    0    0    0    0  0.00000000000E+00  0.00000000000E+00  0.45593999997E+02  0.45594000000E+02  0.51100000000E-03 0. -1.
         11   -1    0    0    0    0 -0.00000000000E+00 -0.00000000000E+00 -0.45593999997E+02  0.45594000000E+02  0.51100000000E-03 0.  1.
    9900012    2    1    2    0    0  0.14983661092E+02 -0.33474212957E+02  0.23207544854E+02  0.47787272230E+02  0.20000005405E+02 0.  0.
        -12    1    1    2    0    0 -0.14983661092E+02  0.33474212957E+02 -0.23207544854E+02  0.43400727770E+02  0.00000000000E+00 0.  1.
         11    1    3    3    0    0  0.11334871101E+02 -0.14301027098E+02  0.11203567077E+02  0.21413047295E+02  0.51100000000E-03 0. -1.
        -11    1    3    3    0    0  0.50844268554E+00 -0.20158107541E+02  0.98580074218E+01  0.22445224975E+02  0.51100000000E-03 0.  1.
         12    1    3    3    0    0  0.31403473053E+01  0.98492168235E+00  0.21459703555E+01  0.39289999599E+01  0.00000000000E+00 0. -1.
</event>
<event>
 7    1  0.1457722E-010  0.4778727E+02  0.7816164E-02  0.1312668E+00
        -11   -1    0    0    0    0  0.00000000000E+00  0.00000000000E+00  0.45593999997E+02  0.45594000000E+02  0.51100000000E-03 0.  1.
         11   -1    0    0    0    0 -0.00000000000E+00 -0.00000000000E+00 -0.45593999997E+02  0.45594000000E+02  0.51100000000E-03 0. -1.
    9900012    2    1    2    0    0  0.26476431881E+02  0.16980200359E+02 -0.29904761992E+02  0.47787269139E+02  0.19999991314E+02 0.  0.
        -12    1    1    2    0    0 -0.26476431881E+02 -0.16980200359E+02  0.29904761992E+02  0.43400730861E+02  0.00000000000E+00 0.  1.
         11    1    3    3    0    0  0.22307767186E+02  0.82485201168E+01 -0.20029791374E+02  0.31094486709E+02  0.51100000000E-03 0. -1.
        -11    1    3    3    0    0  0.58749325719E+01  0.98136797827E+01 -0.84378193962E+01  0.14213371874E+02  0.51100000000E-03 0.  1.
         12    1    3    3    0    0 -0.17062678769E+01 -0.10819995400E+01 -0.14371512223E+01  0.24794105566E+01  0.00000000000E+00 0. -1.
</event>
<event>
 7    1  0.1457722E-010  0.4778728E+02  0.7816164E-02  0.1312668E+00
        -11   -1    0    0    0    0  0.00000000000E+00  0.00000000000E+00  0.45593999997E+02  0.45594000000E+02  0.51100000000E-03 0.  1.
         11   -1    0    0    0    0 -0.00000000000E+00 -0.00000000000E+00 -0.45593999997E+02  0.45594000000E+02  0.51100000000E-03 0. -1.
    9900012    2    1    2    0    0  0.23205402983E+02  0.27708995223E+02 -0.24027974380E+02  0.47787277694E+02  0.20000030319E+02 0.  0.
        -12    1    1    2    0    0 -0.23205402983E+02 -0.27708995223E+02  0.24027974380E+02  0.43400722306E+02  0.00000000000E+00 0.  1.
         11    1    3    3    0    0 -0.39246867514E+00  0.68185244825E+01 -0.20216612838E+01  0.71227398090E+01  0.51100000000E-03 0. -1.
        -11    1    3    3    0    0  0.16071476185E+02  0.79388839258E+01 -0.64030072150E+01  0.19034619156E+02  0.51100000000E-03 0.  1.
         12    1    3    3    0    0  0.75263954736E+01  0.12951586815E+02 -0.15603305881E+02  0.21629918730E+02  0.00000000000E+00 0. -1.
</event>
<event>
 7    1  0.1457722E-010  0.4778727E+02  0.7816164E-02  0.1312668E+00
        -11   -1    0    0    0    0  0.00000000000E+00  0.00000000000E+00  0.45593999997E+02  0.45594000000E+02  0.51100000000E-03 0.  1.
         11   -1    0    0    0    0 -0.00000000000E+00 -0.00000000000E+00 -0.45593999997E+02  0.45594000000E+02  0.51100000000E-03 0. -1.
    9900012    2    1    2    0    0  0.27584441633E+02 -0.31817945929E+02 -0.10504288062E+02  0.47787272229E+02  0.20000005402E+02 0.  0.
        -12    1    1    2    0    0 -0.27584441633E+02  0.31817945929E+02  0.10504288062E+02  0.43400727771E+02  0.00000000000E+00 0.  1.
         11    1    3    3    0    0  0.16501280409E+02 -0.16415157657E+02 -0.43481336382E+01  0.23678173968E+02  0.51100000000E-03 0. -1.
        -11    1    3    3    0    0  0.76903584447E+01 -0.13020463239E+01 -0.55877619654E+01  0.95947913829E+01  0.51100000000E-03 0.  1.
         12    1    3    3    0    0  0.33928027792E+01 -0.14100741948E+02 -0.56839245802E+00  0.14514306879E+02  0.00000000000E+00 0. -1.
</event>
<event>
 7    1  0.1457722E-010  0.4778727E+02  0.7816164E-02  0.1312668E+00
        -11   -1    0    0    0    0  0.00000000000E+00  0.00000000000E+00  0.45593999997E+02  0.45594000000E+02  0.51100000000E-03 0. -1.
         11   -1    0    0    0    0 -0.00000000000E+00 -0.00000000000E+00 -0.45593999997E+02  0.45594000000E+02  0.51100000000E-03 0.  1.
    9900012    2    1    2    0    0 -0.46789806802E+01 -0.17050264857E+02  0.39636081260E+02  0.47787270403E+02  0.19999997077E+02 0.  0.
        -12    1    1    2    0    0  0.46789806802E+01  0.17050264857E+02 -0.39636081260E+02  0.43400729597E+02  0.00000000000E+00 0.  1.
         11    1    3    3    0    0 -0.71879810939E+01 -0.15196950211E+02  0.23399128396E+02  0.28812038766E+02  0.51100000000E-03 0. -1.
        -11    1    3    3    0    0 -0.19246742276E+01  0.11980750402E+01  0.47049358746E+00  0.23154090699E+01  0.51100000000E-03 0.  1.
        -12    1    3    3    0    0  0.44336746413E+01 -0.30513896855E+01  0.15766459277E+02  0.16659822567E+02  0.00000000000E+00 0.  1.
</event>
<event>
 7    1  0.1457722E-010  0.4778728E+02  0.7816164E-02  0.1312668E+00
        -11   -1    0    0    0    0  0.00000000000E+00  0.00000000000E+00  0.45593999997E+02  0.45594000000E+02  0.51100000000E-03 0.  1.
         11   -1    0    0    0    0 -0.00000000000E+00 -0.00000000000E+00 -0.45593999997E+02  0.45594000000E+02  0.51100000000E-03 0. -1.
    9900012    2    1    2    0    0 -0.18609377399E+02  0.23886467497E+02 -0.31092608633E+02  0.47787279173E+02  0.20000037062E+02 0.  0.
        -12    1    1    2    0    0  0.18609377399E+02 -0.23886467497E+02  0.31092608633E+02  0.43400720827E+02  0.00000000000E+00 0.  1.
         11    1    3    3    0    0 -0.11009589586E+02  0.66779109548E+01 -0.47609161108E+01  0.13728506111E+02  0.51100000000E-03 0. -1.
        -11    1    3    3    0    0 -0.87464852470E+01  0.15835356489E+02 -0.17936359700E+02  0.25474939036E+02  0.51100000000E-03 0.  1.
        -12    1    3    3    0    0  0.11466974338E+01  0.13732000530E+01 -0.83953328221E+01  0.85838340259E+01  0.00000000000E+00 0.  1.
</event>
<event>
 7    1  0.1457722E-010  0.4778727E+02  0.7816164E-02  0.1312668E+00
        -11   -1    0    0    0    0  0.00000000000E+00  0.00000000000E+00  0.45593999997E+02  0.45594000000E+02  0.51100000000E-03 0. -1.
         11   -1    0    0    0    0 -0.00000000000E+00 -0.00000000000E+00 -0.45593999997E+02  0.45594000000E+02  0.51100000000E-03 0.  1.
    9900012    2    1    2    0    0  0.41250680996E+02 -0.12400392248E+02  0.53136297106E+01  0.47787273379E+02  0.20000010645E+02 0.  0.
        -12    1    1    2    0    0 -0.41250680996E+02  0.12400392248E+02 -0.53136297106E+01  0.43400726621E+02  0.00000000000E+00 0.  1.
         11    1    3    3    0    0  0.11800849157E+02 -0.11150961835E+02  0.27532092022E+01  0.16467669897E+02  0.51100000000E-03 0. -1.
        -11    1    3    3    0    0  0.10950626630E+02  0.14030221605E+01  0.56104829255E+01  0.12383949842E+02  0.51100000000E-03 0.  1.
        -12    1    3    3    0    0  0.18499205209E+02 -0.26524525731E+01 -0.30500624171E+01  0.18935653640E+02  0.00000000000E+00 0.  1.
</event>
<event>
 7    1  0.1457722E-010  0.4778727E+02  0.7816164E-02  0.1312668E+00
        -11   -1    0    0    0    0  0.00000000000E+00  0.00000000000E+00  0.45593999997E+02  0.45594000000E+02  0.51100000000E-03 0. -1.
         11   -1    0    0    0    0 -0.00000000000E+00 -0.00000000000E+00 -0.45593999997E+02  0.45594000000E+02  0.51100000000E-03 0.  1.
    9900012    2    1    2    0    0 -0.21063988389E+02  0.32898621825E+02  0.18910633312E+02  0.47787274463E+02  0.20000015588E+02 0.  0.
        -12    1    1    2    0    0  0.21063988389E+02 -0.32898621825E+02 -0.18910633312E+02  0.43400725537E+02  0.00000000000E+00 0.  1.
         11    1    3    3    0    0 -0.48476443103E+01  0.45268559449E+01  0.78398309896E+01  0.10269129969E+02  0.51100000000E-03 0. -1.
        -11    1    3    3    0    0  0.20560943986E-01  0.13966004211E+02  0.25370133554E+01  0.14194581128E+02  0.51100000000E-03 0.  1.
         12    1    3    3    0    0 -0.16236905023E+02  0.14405761670E+02  0.85337889668E+01  0.23323563367E+02  0.00000000000E+00 0. -1.
</event>
<event>
 7    1  0.1457722E-010  0.4778728E+02  0.7816164E-02  0.1312668E+00
        -11   -1    0    0    0    0  0.00000000000E+00  0.00000000000E+00  0.45593999997E+02  0.45594000000E+02  0.51100000000E-03 0. -1.
         11   -1    0    0    0    0 -0.00000000000E+00 -0.00000000000E+00 -0.45593999997E+02  0.45594000000E+02  0.51100000000E-03 0.  1.
    9900012    2    1    2    0    0 -0.25225721733E+02 -0.18913639916E+02  0.29825484083E+02  0.47787282118E+02  0.20000050491E+02 0.  0.
        -12    1    1    2    0    0  0.25225721733E+02  0.18913639916E+02 -0.29825484083E+02  0.43400717882E+02  0.00000000000E+00 0.  1.
         11    1    3    3    0    0 -0.19429186149E+02 -0.51356795560E+01  0.23383579805E+02  0.30832779370E+02  0.51100000000E-03 0. -1.
        -11    1    3    3    0    0 -0.53438705064E+01 -0.84075261187E+01  0.57985051470E+01  0.11526756249E+02  0.51100000000E-03 0.  1.
         12    1    3    3    0    0 -0.45266507729E+00 -0.53704342418E+01  0.64339913125E+00  0.54277464993E+01  0.00000000000E+00 0. -1.
</event>
<event>
 7    1  0.1457722E-010  0.4778728E+02  0.7816164E-02  0.1312668E+00
        -11   -1    0    0    0    0  0.00000000000E+00  0.00000000000E+00  0.45593999997E+02  0.45594000000E+02  0.51100000000E-03 0.  1.
         11   -1    0    0    0    0 -0.00000000000E+00 -0.00000000000E+00 -0.45593999997E+02  0.45594000000E+02  0.51100000000E-03 0. -1.
    9900012    2    1    2    0    0 -0.21133488365E+02 -0.37275275725E+02 -0.68957864040E+01  0.47787281331E+02  0.20000046902E+02 0.  0.
        -12    1    1    2    0    0  0.21133488365E+02  0.37275275725E+02  0.68957864040E+01  0.43400718669E+02  0.00000000000E+00 0.  1.
         11    1    3    3    0    0 -0.12050453090E+02 -0.22794406782E+02 -0.40425719720E+01  0.26098674078E+02  0.51100000000E-03 0. -1.
        -11    1    3    3    0    0 -0.91839399739E+01 -0.25286678056E+01 -0.17507020934E+01  0.96852399245E+01  0.51100000000E-03 0.  1.
         12    1    3    3    0    0  0.10090469875E+00 -0.11952201137E+02 -0.11025123386E+01  0.12003367329E+02  0.00000000000E+00 0. -1.
</event>
<event>
 7    1  0.1457722E-010  0.4778728E+02  0.7816164E-02  0.1312668E+00
        -11   -1    0    0    0    0  0.00000000000E+00  0.00000000000E+00  0.45593999997E+02  0.45594000000E+02  0.51100000000E-03 0.  1.
         11   -1    0    0    0    0 -0.00000000000E+00 -0.00000000000E+00 -0.45593999997E+02  0.45594000000E+02  0.51100000000E-03 0. -1.
    9900012    2    1    2    0    0 -0.84402016179E+01  0.73985540673E+01 -0.41924301655E+02  0.47787277945E+02  0.20000031462E+02 0.  0.
        -12    1    1    2    0    0  0.84402016179E+01 -0.73985540673E+01  0.41924301655E+02  0.43400722055E+02  0.00000000000E+00 0.  1.
         11    1    3    3    0    0 -0.10539082468E+02  0.45291789490E+01 -0.12538220758E+02  0.16993901884E+02  0.51100000000E-03 0. -1.
        -11    1    3    3    0    0  0.10737067315E+01  0.54667377601E+01 -0.12601337268E+02  0.13777945024E+02  0.51100000000E-03 0.  1.
        -12    1    3    3    0    0  0.10251741182E+01 -0.25973626419E+01 -0.16784743629E+02  0.17015431036E+02  0.00000000000E+00 0.  1.
</event>
<event>
 7    1  0.1457722E-010  0.4778727E+02  0.7816164E-02  0.1312668E+00
        -11   -1    0    0    0    0  0.00000000000E+00  0.00000000000E+00  0.45593999997E+02  0.45594000000E+02  0.51100000000E-03 0. -1.
         11   -1    0    0    0    0 -0.00000000000E+00 -0.00000000000E+00 -0.45593999997E+02  0.45594000000E+02  0.51100000000E-03 0.  1.
    9900012    2    1    2    0    0 -0.42099330987E+02 -0.35621573146E+01  0.99287722362E+01  0.47787272444E+02  0.20000006380E+02 0.  0.
        -12    1    1    2    0    0  0.42099330987E+02  0.35621573146E+01 -0.99287722362E+01  0.43400727556E+02  0.00000000000E+00 0.  1.
         11    1    3    3    0    0 -0.18588258435E+02  0.21248146624E+00  0.45081860162E+00  0.18594938497E+02  0.51100000000E-03 0. -1.
        -11    1    3    3    0    0 -0.17148111957E+02  0.15847514952E+01  0.11401714224E+02  0.20653529203E+02  0.51100000000E-03 0.  1.
         12    1    3    3    0    0 -0.63629605944E+01 -0.53593902760E+01 -0.19237605899E+01  0.85388047444E+01  0.00000000000E+00 0. -1.
</event>
<event>
 7    1  0.1457722E-010  0.4778727E+02  0.7816164E-02  0.1312668E+00
        -11   -1    0    0    0    0  0.00000000000E+00  0.00000000000E+00  0.45593999997E+02  0.45594000000E+02  0.51100000000E-03 0.  1.
         11   -1    0    0    0    0 -0.00000000000E+00 -0.00000000000E+00 -0.45593999997E+02  0.45594000000E+02  0.51100000000E-03 0. -1.
    9900012    2    1    2    0    0  0.21223897370E+02 -0.26258598208E+02 -0.27270048803E+02  0.47787270039E+02  0.19999995416E+02 0.  0.
        -12    1    1    2    0    0 -0.21223897370E+02  0.26258598208E+02  0.27270048803E+02  0.43400729961E+02  0.00000000000E+00 0.  1.
         11    1    3    3    0    0  0.13604154153E+02 -0.13886890875E+02 -0.12706043610E+02  0.23224174752E+02  0.51100000000E-03 0. -1.
        -11    1    3    3    0    0  0.51700034247E+01  0.16795537624E+01 -0.50359088539E+01  0.74101426773E+01  0.51100000000E-03 0.  1.
         12    1    3    3    0    0  0.24497397925E+01 -0.14051261095E+02 -0.95280963390E+01  0.17152952610E+02  0.00000000000E+00 0. -1.
</event>
<event>
 7    1  0.1457722E-010  0.4778728E+02  0.7816164E-02  0.1312668E+00
        -11   -1    0    0    0    0  0.00000000000E+00  0.00000000000E+00  0.45593999997E+02  0.45594000000E+02  0.51100000000E-03 0.  1.
         11   -1    0    0    0    0 -0.00000000000E+00 -0.00000000000E+00 -0.45593999997E+02  0.45594000000E+02  0.51100000000E-03 0. -1.
    9900012    2    1    2    0    0 -0.40648135416E+02  0.15206174672E+02  0.35192656783E+00  0.47787279807E+02  0.20000039954E+02 0.  0.
        -12    1    1    2    0    0  0.40648135416E+02 -0.15206174672E+02 -0.35192656783E+00  0.43400720193E+02  0.00000000000E+00 0.  1.
         11    1    3    3    0    0 -0.41727203579E+01  0.36286898153E+01 -0.61087551321E+01  0.82398952958E+01  0.51100000000E-03 0. -1.
        -11    1    3    3    0    0 -0.84283285973E+01  0.31865412935E+01  0.48375565340E+01  0.10227058318E+02  0.51100000000E-03 0.  1.
         12    1    3    3    0    0 -0.28047086461E+02  0.83909435628E+01  0.16231251660E+01  0.29320326194E+02  0.00000000000E+00 0. -1.
</event>
<event>
 7    1  0.1457722E-010  0.4778727E+02  0.7816164E-02  0.1312668E+00
        -11   -1    0    0    0    0  0.00000000000E+00  0.00000000000E+00  0.45593999997E+02  0.45594000000E+02  0.51100000000E-03 0.  1.
         11   -1    0    0    0    0 -0.00000000000E+00 -0.00000000000E+00 -0.45593999997E+02  0.45594000000E+02  0.51100000000E-03 0. -1.
    9900012    2    1    2    0    0  0.18898246723E+02  0.35836443543E+02 -0.15563719010E+02  0.47787265393E+02  0.19999974232E+02 0.  0.
        -12    1    1    2    0    0 -0.18898246723E+02 -0.35836443543E+02  0.15563719010E+02  0.43400734607E+02  0.00000000000E+00 0.  1.
         11    1    3    3    0    0  0.28817293897E+01 -0.37862636877E-01 -0.26451095232E+01  0.39118285373E+01  0.51100000000E-03 0. -1.
        -11    1    3    3    0    0  0.10445763162E+02  0.27081569593E+02 -0.24768619545E+01  0.29131773463E+02  0.51100000000E-03 0.  1.
         12    1    3    3    0    0  0.55707541711E+01  0.87927365866E+01 -0.10441747532E+02  0.14743663393E+02  0.00000000000E+00 0. -1.
</event>
<event>
 7    1  0.1457722E-010  0.4778727E+02  0.7816164E-02  0.1312668E+00
        -11   -1    0    0    0    0  0.00000000000E+00  0.00000000000E+00  0.45593999997E+02  0.45594000000E+02  0.51100000000E-03 0.  1.
         11   -1    0    0    0    0 -0.00000000000E+00 -0.00000000000E+00 -0.45593999997E+02  0.45594000000E+02  0.51100000000E-03 0. -1.
    9900012    2    1    2    0    0  0.77234030251E+00  0.42096829179E+02 -0.10530122056E+02  0.47787274119E+02  0.20000014017E+02 0.  0.
        -12    1    1    2    0    0 -0.77234030251E+00 -0.42096829179E+02  0.10530122056E+02  0.43400725881E+02  0.00000000000E+00 0.  1.
         11    1    3    3    0    0  0.54691460850E+01  0.22603403427E+02 -0.12818197517E+02  0.26554314023E+02  0.51100000000E-03 0. -1.
        -11    1    3    3    0    0 -0.72583646756E-01  0.13627360791E+02  0.11321665474E+01  0.13674502984E+02  0.51100000000E-03 0.  1.
         12    1    3    3    0    0 -0.46242221357E+01  0.58660649609E+01  0.11559089136E+01  0.75584571113E+01  0.00000000000E+00 0. -1.
</event>
<event>
 7    1  0.1457722E-010  0.4778727E+02  0.7816164E-02  0.1312668E+00
        -11   -1    0    0    0    0  0.00000000000E+00  0.00000000000E+00  0.45593999997E+02  0.45594000000E+02  0.51100000000E-03 0.  1.
         11   -1    0    0    0    0 -0.00000000000E+00 -0.00000000000E+00 -0.45593999997E+02  0.45594000000E+02  0.51100000000E-03 0. -1.
    9900012    2    1    2    0    0 -0.45672834319E+01 -0.11601461522E+02 -0.41571256746E+02  0.47787269881E+02  0.19999994697E+02 0.  0.
        -12    1    1    2    0    0  0.45672834319E+01  0.11601461522E+02  0.41571256746E+02  0.43400730119E+02  0.00000000000E+00 0.  1.
         11    1    3    3    0    0  0.34498635231E+01 -0.82288814456E+01 -0.72624643954E+01  0.11504757169E+02  0.51100000000E-03 0. -1.
        -11    1    3    3    0    0  0.19468468485E+00  0.16693210152E+01 -0.98792278210E+01  0.10021161479E+02  0.51100000000E-03 0.  1.
        -12    1    3    3    0    0 -0.82118316398E+01 -0.50419010914E+01 -0.24429564530E+02  0.26261351233E+02  0.00000000000E+00 0.  1.
</event>
<event>
 7    1  0.1457722E-010  0.4778727E+02  0.7816164E-02  0.1312668E+00
        -11   -1    0    0    0    0  0.00000000000E+00  0.00000000000E+00  0.45593999997E+02  0.45594000000E+02  0.51100000000E-03 0.  1.
         11   -1    0    0    0    0 -0.00000000000E+00 -0.00000000000E+00 -0.45593999997E+02  0.45594000000E+02  0.51100000000E-03 0. -1.
    9900012    2    1    2    0    0  0.91165279103E+01 -0.21913513810E+02 -0.36336074206E+02  0.47787268931E+02  0.19999990365E+02 0.  0.
        -12    1    1    2    0    0 -0.91165279103E+01  0.21913513810E+02  0.36336074206E+02  0.43400731069E+02  0.00000000000E+00 0.  1.
         11    1    3    3    0    0  0.25457861022E+01 -0.14162296331E+01 -0.11529541997E+02  0.11891891026E+02  0.51100000000E-03 0. -1.
        -11    1    3    3    0    0 -0.74824988739E+00 -0.13111468210E+02 -0.60716268349E+01  0.14468418338E+02  0.51100000000E-03 0.  1.
        -12    1    3    3    0    0  0.73189916955E+01 -0.73858159661E+01 -0.18734905374E+02  0.21426959567E+02  0.00000000000E+00 0.  1.
</event>
<event>
 7    1  0.1457722E-010  0.4778727E+02  0.7816164E-02  0.1312668E+00
        -11   -1    0    0    0    0  0.00000000000E+00  0.00000000000E+00  0.45593999997E+02  0.45594000000E+02  0.51100000000E-03 0. -1.
         11   -1    0    0    0    0 -0.00000000000E+00 -0.00000000000E+00 -0.45593999997E+02  0.45594000000E+02  0.51100000000E-03 0.  1.
    9900012    2    1    2    0    0  0.42648005141E+02  0.18460820262E+01 -0.78334400583E+01  0.47787272535E+02  0.20000006797E+02 0.  0.
        -12    1    1    2    0    0 -0.42648005141E+02 -0.18460820262E+01  0.78334400583E+01  0.43400727465E+02  0.00000000000E+00 0.  1.
         11    1    3    3    0    0  0.17113130452E+02  0.52547125495E+01 -0.24112353745E+01  0.18063368848E+02  0.51100000000E-03 0. -1.
        -11    1    3    3    0    0  0.27680257619E+01 -0.53322427453E+01  0.75623167590E+00  0.60553006467E+01  0.51100000000E-03 0.  1.
         12    1    3    3    0    0  0.22766848926E+02  0.19236122219E+01 -0.61784363597E+01  0.23668603040E+02  0.00000000000E+00 0. -1.
</event>
<event>
 7    1  0.1457722E-010  0.4778721E+02  0.7816164E-02  0.1312668E+00
        -11   -1    0    0    0    0  0.00000000000E+00  0.00000000000E+00  0.45593999997E+02  0.45594000000E+02  0.51100000000E-03 0. -1.
         11   -1    0    0    0    0 -0.00000000000E+00 -0.00000000000E+00 -0.45593999997E+02  0.45594000000E+02  0.51100000000E-03 0.  1.
    9900012    2    1    2    0    0  0.38786136192E+02 -0.14372322620E+02  0.13141549660E+02  0.47787212615E+02  0.19999733594E+02 0.  0.
        -12    1    1    2    0    0 -0.38786136192E+02  0.14372322620E+02 -0.13141549660E+02  0.43400787385E+02  0.00000000000E+00 0.  1.
         11    1    3    3    0    0  0.92976086836E+00 -0.31657864656E+01  0.18915351944E+01  0.38032308464E+01  0.51100000000E-03 0.  1.
        -11    1    3    3    0    0  0.13607496672E+02 -0.65290408307E+00  0.11043765959E+02  0.17537246541E+02  0.51100000000E-03 0. -1.
         12    1    3    3    0    0  0.24248878652E+02 -0.10553632071E+02  0.20624850648E+00  0.26446735228E+02  0.00000000000E+00 0. -1.
</event>
<event>
 7    1  0.1457722E-010  0.4778727E+02  0.7816164E-02  0.1312668E+00
        -11   -1    0    0    0    0  0.00000000000E+00  0.00000000000E+00  0.45593999997E+02  0.45594000000E+02  0.51100000000E-03 0.  1.
         11   -1    0    0    0    0 -0.00000000000E+00 -0.00000000000E+00 -0.45593999997E+02  0.45594000000E+02  0.51100000000E-03 0. -1.
    9900012    2    1    2    0    0 -0.26867876967E+02 -0.18014059505E+02 -0.28935003417E+02  0.47787267572E+02  0.19999984168E+02 0.  0.
        -12    1    1    2    0    0  0.26867876967E+02  0.18014059505E+02  0.28935003417E+02  0.43400732428E+02  0.00000000000E+00 0.  1.
         11    1    3    3    0    0 -0.41999682801E+01 -0.42421753629E+01 -0.15949642737E+02  0.17030175838E+02  0.51100000000E-03 0. -1.
        -11    1    3    3    0    0 -0.15569194565E+02 -0.12343937147E+02 -0.12555419869E+02  0.23503428943E+02  0.51100000000E-03 0.  1.
        -12    1    3    3    0    0 -0.70987141212E+01 -0.14279469946E+01 -0.42994081093E+00  0.72536627916E+01  0.00000000000E+00 0.  1.
</event>
<event>
 7    1  0.1457722E-010  0.4778727E+02  0.7816164E-02  0.1312668E+00
        -11   -1    0    0    0    0  0.00000000000E+00  0.00000000000E+00  0.45593999997E+02  0.45594000000E+02  0.51100000000E-03 0.  1.
         11   -1    0    0    0    0 -0.00000000000E+00 -0.00000000000E+00 -0.45593999997E+02  0.45594000000E+02  0.51100000000E-03 0. -1.
    9900012    2    1    2    0    0 -0.12060728668E+02 -0.27590972013E+02 -0.31255406433E+02  0.47787270238E+02  0.19999996323E+02 0.  0.
        -12    1    1    2    0    0  0.12060728668E+02  0.27590972013E+02  0.31255406433E+02  0.43400729762E+02  0.00000000000E+00 0.  1.
         11    1    3    3    0    0  0.98825392801E+00 -0.12047681822E+02 -0.13283068425E+02  0.17960044269E+02  0.51100000000E-03 0. -1.
        -11    1    3    3    0    0 -0.34887426783E+01  0.14108998398E+01 -0.56571202658E+01  0.67944811278E+01  0.51100000000E-03 0.  1.
         12    1    3    3    0    0 -0.95602399180E+01 -0.16954190030E+02 -0.12315217742E+02  0.23032744841E+02  0.00000000000E+00 0. -1.
</event>
<event>
 7    1  0.1457722E-010  0.4778727E+02  0.7816164E-02  0.1312668E+00
        -11   -1    0    0    0    0  0.00000000000E+00  0.00000000000E+00  0.45593999997E+02  0.45594000000E+02  0.51100000000E-03 0.  1.
         11   -1    0    0    0    0 -0.00000000000E+00 -0.00000000000E+00 -0.45593999997E+02  0.45594000000E+02  0.51100000000E-03 0. -1.
    9900012    2    1    2    0    0 -0.17501446431E+01  0.56353388216E+01 -0.42997713203E+02  0.47787269700E+02  0.19999993871E+02 0.  0.
        -12    1    1    2    0    0  0.17501446431E+01 -0.56353388216E+01  0.42997713203E+02  0.43400730300E+02  0.00000000000E+00 0.  1.
         11    1    3    3    0    0  0.17340945904E+01 -0.30808500159E+01 -0.83306549490E+01  0.90497808266E+01  0.51100000000E-03 0. -1.
        -11    1    3    3    0    0 -0.76308692966E+01  0.37873666763E+01 -0.95044975812E+01  0.12763611836E+02  0.51100000000E-03 0.  1.
        -12    1    3    3    0    0  0.41466300631E+01  0.49288221612E+01 -0.25162560672E+02  0.25973877038E+02  0.00000000000E+00 0.  1.
</event>
<event>
 7    1  0.1457722E-010  0.4778733E+02  0.7816164E-02  0.1312667E+00
        -11   -1    0    0    0    0  0.00000000000E+00  0.00000000000E+00  0.45593999997E+02  0.45594000000E+02  0.51100000000E-03 0.  1.
         11   -1    0    0    0    0 -0.00000000000E+00 -0.00000000000E+00 -0.45593999997E+02  0.45594000000E+02  0.51100000000E-03 0. -1.
    9900012    2    1    2    0    0 -0.20750222550E+02 -0.25480307041E+01 -0.38033590070E+02  0.47787329845E+02  0.20000268092E+02 0.  0.
        -12    1    1    2    0    0  0.20750222550E+02  0.25480307041E+01  0.38033590070E+02  0.43400670155E+02  0.00000000000E+00 0.  1.
         11    1    3    3    0    0 -0.19629970811E+01  0.39692763683E+01 -0.87828017521E+01  0.98359605177E+01  0.51100000000E-03 0. -1.
        -11    1    3    3    0    0 -0.16205805756E+02 -0.78018304509E+00 -0.13911490591E+02  0.21372093873E+02  0.51100000000E-03 0.  1.
         12    1    3    3    0    0 -0.25814197125E+01 -0.57371240273E+01 -0.15339297727E+02  0.16579275454E+02  0.00000000000E+00 0. -1.
</event>
<event>
 7    1  0.1457722E-010  0.4778727E+02  0.7816164E-02  0.1312668E+00
        -11   -1    0    0    0    0  0.00000000000E+00  0.00000000000E+00  0.45593999997E+02  0.45594000000E+02  0.51100000000E-03 0.  1.
         11   -1    0    0    0    0 -0.00000000000E+00 -0.00000000000E+00 -0.45593999997E+02  0.45594000000E+02  0.51100000000E-03 0. -1.
    9900012    2    1    2    0    0  0.91900463310E+01 -0.20715605793E+02 -0.37013917120E+02  0.47787270334E+02  0.19999996761E+02 0.  0.
        -12    1    1    2    0    0 -0.91900463310E+01  0.20715605793E+02  0.37013917120E+02  0.43400729666E+02  0.00000000000E+00 0.  1.
         11    1    3    3    0    0  0.38066449572E+00 -0.60380611629E+01 -0.12582210718E+02  0.13961200338E+02  0.51100000000E-03 0. -1.
        -11    1    3    3    0    0 -0.35657583344E+01 -0.25956581434E-01 -0.72384519860E+01  0.80691073644E+01  0.51100000000E-03 0.  1.
        -12    1    3    3    0    0  0.12375140170E+02 -0.14651588049E+02 -0.17193254417E+02  0.25756962632E+02  0.00000000000E+00 0.  1.
</event>
<event>
 7    1  0.1457722E-010  0.4778729E+02  0.7816164E-02  0.1312668E+00
        -11   -1    0    0    0    0  0.00000000000E+00  0.00000000000E+00  0.45593999997E+02  0.45594000000E+02  0.51100000000E-03 0.  1.
         11   -1    0    0    0    0 -0.00000000000E+00 -0.00000000000E+00 -0.45593999997E+02  0.45594000000E+02  0.51100000000E-03 0. -1.
    9900012    2    1    2    0    0  0.31807836287E+01  0.16616219343E+02 -0.39967555179E+02  0.47787290366E+02  0.20000088097E+02 0.  0.
        -12    1    1    2    0    0 -0.31807836287E+01 -0.16616219343E+02  0.39967555179E+02  0.43400709634E+02  0.00000000000E+00 0.  1.
         11    1    3    3    0    0 -0.34746616906E+01  0.14635335983E+02 -0.27996056017E+02  0.31781212783E+02  0.51100000000E-03 0. -1.
        -11    1    3    3    0    0 -0.38406930162E+00  0.20035791693E+00  0.10282993206E+01  0.11158191059E+01  0.51100000000E-03 0.  1.
         12    1    3    3    0    0  0.70395146209E+01  0.17805254431E+01 -0.12999798482E+02  0.14890258478E+02  0.00000000000E+00 0. -1.
</event>
<event>
 7    1  0.1457722E-010  0.4778727E+02  0.7816164E-02  0.1312668E+00
        -11   -1    0    0    0    0  0.00000000000E+00  0.00000000000E+00  0.45593999997E+02  0.45594000000E+02  0.51100000000E-03 0. -1.
         11   -1    0    0    0    0 -0.00000000000E+00 -0.00000000000E+00 -0.45593999997E+02  0.45594000000E+02  0.51100000000E-03 0.  1.
    9900012    2    1    2    0    0  0.42693323954E+02  0.28976133662E+01  0.72461911412E+01  0.47787270058E+02  0.19999995501E+02 0.  0.
        -12    1    1    2    0    0 -0.42693323954E+02 -0.28976133662E+01 -0.72461911412E+01  0.43400729942E+02  0.00000000000E+00 0.  1.
         11    1    3    3    0    0  0.13860283625E+02 -0.17618724616E+01  0.81943527483E+01  0.16197502090E+02  0.51100000000E-03 0. -1.
        -11    1    3    3    0    0  0.29776493735E+00  0.24175574525E+01 -0.16769787125E+01  0.29572801452E+01  0.51100000000E-03 0.  1.
        -12    1    3    3    0    0  0.28535275392E+02  0.22419283753E+01  0.72881710541E+00  0.28632487823E+02  0.00000000000E+00 0.  1.
</event>
<event>
 7    1  0.1457722E-010  0.4778727E+02  0.7816164E-02  0.1312668E+00
        -11   -1    0    0    0    0  0.00000000000E+00  0.00000000000E+00  0.45593999997E+02  0.45594000000E+02  0.51100000000E-03 0.  1.
         11   -1    0    0    0    0 -0.00000000000E+00 -0.00000000000E+00 -0.45593999997E+02  0.45594000000E+02  0.51100000000E-03 0. -1.
    9900012    2    1    2    0    0 -0.37219306130E+02 -0.20386334731E+02 -0.90963538790E+01  0.47787273664E+02  0.20000011944E+02 0.  0.
        -12    1    1    2    0    0  0.37219306130E+02  0.20386334731E+02  0.90963538790E+01  0.43400726336E+02  0.00000000000E+00 0.  1.
         11    1    3    3    0    0 -0.20237269476E+02 -0.16338426822E+02 -0.74071981952E+01  0.27043628680E+02  0.51100000000E-03 0. -1.
        -11    1    3    3    0    0 -0.58413747216E+01 -0.48936850304E+01  0.35462758375E+01  0.84051106115E+01  0.51100000000E-03 0.  1.
         12    1    3    3    0    0 -0.11140661933E+02  0.84577712064E+00 -0.52354315214E+01  0.12338534372E+02  0.00000000000E+00 0. -1.
</event>
<event>
 7    1  0.1457722E-010  0.4778723E+02  0.7816164E-02  0.1312668E+00
        -11   -1    0    0    0    0  0.00000000000E+00  0.00000000000E+00  0.45593999997E+02  0.45594000000E+02  0.51100000000E-03 0. -1.
         11   -1    0    0    0    0 -0.00000000000E+00 -0.00000000000E+00 -0.45593999997E+02  0.45594000000E+02  0.51100000000E-03 0.  1.
    9900012    2    1    2    0    0  0.41272192463E+02 -0.11532276699E+02  0.68730831811E+01  0.47787233314E+02  0.19999827971E+02 0.  0.
        -12    1    1    2    0    0 -0.41272192463E+02  0.11532276699E+02 -0.68730831811E+01  0.43400766686E+02  0.00000000000E+00 0.  1.
         11    1    3    3    0    0  0.50409525395E+01  0.39861406841E+00 -0.39178675556E+01  0.63968572068E+01  0.51100000000E-03 0.  1.
        -11    1    3    3    0    0  0.28062385668E+02 -0.36197125565E+01  0.72103360765E+01  0.29199122503E+02  0.51100000000E-03 0. -1.
         12    1    3    3    0    0  0.81688542552E+01 -0.83111782105E+01  0.35806146602E+01  0.12191253604E+02  0.00000000000E+00 0. -1.
</event>
<event>
 7    1  0.1457722E-010  0.4778727E+02  0.7816164E-02  0.1312668E+00
        -11   -1    0    0    0    0  0.00000000000E+00  0.00000000000E+00  0.45593999997E+02  0.45594000000E+02  0.51100000000E-03 0.  1.
         11   -1    0    0    0    0 -0.00000000000E+00 -0.00000000000E+00 -0.45593999997E+02  0.45594000000E+02  0.51100000000E-03 0. -1.
    9900012    2    1    2    0    0 -0.19747049838E+02 -0.11305085450E+02 -0.36957713422E+02  0.47787268258E+02  0.19999987296E+02 0.  0.
        -12    1    1    2    0    0  0.19747049838E+02  0.11305085450E+02  0.36957713422E+02  0.43400731742E+02  0.00000000000E+00 0.  1.
         11    1    3    3    0    0  0.97087609999E-01 -0.10883228491E+01  0.13950626342E+01  0.17720250118E+01  0.51100000000E-03 0. -1.
        -11    1    3    3    0    0 -0.15847483240E+02 -0.10278013147E+02 -0.21160993453E+02  0.28364906548E+02  0.51100000000E-03 0.  1.
         12    1    3    3    0    0 -0.39966542081E+01  0.61250546669E-01 -0.17191782603E+02  0.17650336698E+02  0.00000000000E+00 0. -1.
</event>
<event>
 7    1  0.1457722E-010  0.4778727E+02  0.7816164E-02  0.1312668E+00
        -11   -1    0    0    0    0  0.00000000000E+00  0.00000000000E+00  0.45593999997E+02  0.45594000000E+02  0.51100000000E-03 0.  1.
         11   -1    0    0    0    0 -0.00000000000E+00 -0.00000000000E+00 -0.45593999997E+02  0.45594000000E+02  0.51100000000E-03 0. -1.
    9900012    2    1    2    0    0  0.15277210520E+02  0.56720985678E+00 -0.40619065737E+02  0.47787269711E+02  0.19999993921E+02 0.  0.
        -12    1    1    2    0    0 -0.15277210520E+02 -0.56720985678E+00  0.40619065737E+02  0.43400730289E+02  0.00000000000E+00 0.  1.
         11    1    3    3    0    0  0.16708110705E+01  0.27624393356E+01 -0.64871794070E+01  0.72461146579E+01  0.51100000000E-03 0. -1.
        -11    1    3    3    0    0  0.12135018145E+02  0.25000802755E+01 -0.10026272009E+02  0.15938481654E+02  0.51100000000E-03 0.  1.
         12    1    3    3    0    0  0.14713813040E+01 -0.46953097542E+01 -0.24105614320E+02  0.24602673399E+02  0.00000000000E+00 0. -1.
</event>
<event>
 7    1  0.1457722E-010  0.4778727E+02  0.7816164E-02  0.1312668E+00
        -11   -1    0    0    0    0  0.00000000000E+00  0.00000000000E+00  0.45593999997E+02  0.45594000000E+02  0.51100000000E-03 0. -1.
         11   -1    0    0    0    0 -0.00000000000E+00 -0.00000000000E+00 -0.45593999997E+02  0.45594000000E+02  0.51100000000E-03 0.  1.
    9900012    2    1    2    0    0 -0.31005035371E+02  0.20054815446E+02 -0.22806043778E+02  0.47787268742E+02  0.19999989501E+02 0.  0.
        -12    1    1    2    0    0  0.31005035371E+02 -0.20054815446E+02  0.22806043778E+02  0.43400731258E+02  0.00000000000E+00 0.  1.
         11    1    3    3    0    0 -0.26438402954E+02  0.11243797058E+02 -0.21443059028E+02  0.35849921949E+02  0.51100000000E-03 0. -1.
        -11    1    3    3    0    0 -0.41879459362E+01  0.68644680625E+01  0.17661085353E+01  0.82327973718E+01  0.51100000000E-03 0.  1.
         12    1    3    3    0    0 -0.37868648141E+00  0.19465503255E+01 -0.31290932854E+01  0.37045494206E+01  0.00000000000E+00 0. -1.
</event>
<event>
 7    1  0.1457722E-010  0.4778727E+02  0.7816164E-02  0.1312668E+00
        -11   -1    0    0    0    0  0.00000000000E+00  0.00000000000E+00  0.45593999997E+02  0.45594000000E+02  0.51100000000E-03 0.  1.
         11   -1    0    0    0    0 -0.00000000000E+00 -0.00000000000E+00 -0.45593999997E+02  0.45594000000E+02  0.51100000000E-03 0. -1.
    9900012    2    1    2    0    0 -0.66255671340E+01  0.36485568763E+02 -0.22550574060E+02  0.47787271224E+02  0.20000000820E+02 0.  0.
        -12    1    1    2    0    0  0.66255671340E+01 -0.36485568763E+02  0.22550574060E+02  0.43400728776E+02  0.00000000000E+00 0.  1.
         11    1    3    3    0    0  0.32650252731E+01  0.25847792513E+01 -0.14122186839E+01  0.43972531976E+01  0.51100000000E-03 0. -1.
        -11    1    3    3    0    0  0.30211037918E+01  0.40993778078E+01 -0.49467847431E+01  0.70994821000E+01  0.51100000000E-03 0.  1.
         12    1    3    3    0    0 -0.12911696199E+02  0.29801411704E+02 -0.16191570633E+02  0.36290535927E+02  0.00000000000E+00 0. -1.
</event>
<event>
 7    1  0.1457722E-010  0.4778727E+02  0.7816164E-02  0.1312668E+00
        -11   -1    0    0    0    0  0.00000000000E+00  0.00000000000E+00  0.45593999997E+02  0.45594000000E+02  0.51100000000E-03 0.  1.
         11   -1    0    0    0    0 -0.00000000000E+00 -0.00000000000E+00 -0.45593999997E+02  0.45594000000E+02  0.51100000000E-03 0. -1.
    9900012    2    1    2    0    0 -0.23441638038E+02 -0.34174480020E+02 -0.12892544159E+02  0.47787272201E+02  0.20000005274E+02 0.  0.
        -12    1    1    2    0    0  0.23441638038E+02  0.34174480020E+02  0.12892544159E+02  0.43400727799E+02  0.00000000000E+00 0.  1.
         11    1    3    3    0    0 -0.14488046553E+02 -0.22065405095E+02 -0.68214921343E+01  0.27263865282E+02  0.51100000000E-03 0. -1.
        -11    1    3    3    0    0 -0.26100631857E+00  0.73057430685E+00  0.26309940031E+01  0.27429897597E+01  0.51100000000E-03 0.  1.
         12    1    3    3    0    0 -0.86925851670E+01 -0.12839649232E+02 -0.87020460276E+01  0.17780417159E+02  0.00000000000E+00 0. -1.
</event>
<event>
 7    1  0.1555289E-010  0.4778727E+02  0.7816164E-02  0.1312668E+00
        -11   -1    0    0    0    0  0.00000000000E+00  0.00000000000E+00  0.45593999997E+02  0.45594000000E+02  0.51100000000E-03 0.  1.
         11   -1    0    0    0    0 -0.00000000000E+00 -0.00000000000E+00 -0.45593999997E+02  0.45594000000E+02  0.51100000000E-03 0. -1.
    9900012    2    1    2    0    0 -0.15186845754E+02  0.40563576370E+02 -0.27530605590E+01  0.47787270117E+02  0.19999995773E+02 0.  0.
        -12    1    1    2    0    0  0.15186845754E+02 -0.40563576370E+02  0.27530605590E+01  0.43400729883E+02  0.00000000000E+00 0.  1.
         11    1    3    3    0    0  0.11461983326E+01 -0.94901716689E+00 -0.95581182344E+00  0.17686098223E+01  0.51100000000E-03 0.  1.
        -11    1    3    3    0    0 -0.26429184876E+01  0.21563362888E+02  0.36104715637E+00  0.21727724052E+02  0.51100000000E-03 0. -1.
         12    1    3    3    0    0 -0.13690125599E+02  0.19949230650E+02 -0.21582958919E+01  0.24290936243E+02  0.00000000000E+00 0. -1.
</event>
<event>
 7    1  0.1457722E-010  0.4778727E+02  0.7816164E-02  0.1312668E+00
        -11   -1    0    0    0    0  0.00000000000E+00  0.00000000000E+00  0.45593999997E+02  0.45594000000E+02  0.51100000000E-03 0.  1.
         11   -1    0    0    0    0 -0.00000000000E+00 -0.00000000000E+00 -0.45593999997E+02  0.45594000000E+02  0.51100000000E-03 0. -1.
    9900012    2    1    2    0    0 -0.21655062908E+02 -0.28364889603E+02 -0.24700498080E+02  0.47787270546E+02  0.19999997729E+02 0.  0.
        -12    1    1    2    0    0  0.21655062908E+02  0.28364889603E+02  0.24700498080E+02  0.43400729454E+02  0.00000000000E+00 0.  1.
         11    1    3    3    0    0 -0.14921736472E+02 -0.11675779284E+02 -0.14731323176E+02  0.23999873417E+02  0.51100000000E-03 0. -1.
        -11    1    3    3    0    0 -0.25050603290E+01 -0.17420499403E+01 -0.74502865219E+01  0.80508903089E+01  0.51100000000E-03 0.  1.
         12    1    3    3    0    0 -0.42282661066E+01 -0.14947060379E+02 -0.25188883813E+01  0.15736506821E+02  0.00000000000E+00 0. -1.
</event>
<event>
 7    1  0.1457722E-010  0.4778726E+02  0.7816164E-02  0.1312668E+00
        -11   -1    0    0    0    0  0.00000000000E+00  0.00000000000E+00  0.45593999997E+02  0.45594000000E+02  0.51100000000E-03 0.  1.
         11   -1    0    0    0    0 -0.00000000000E+00 -0.00000000000E+00 -0.45593999997E+02  0.45594000000E+02  0.51100000000E-03 0. -1.
    9900012    2    1    2    0    0  0.56978860595E+01 -0.16912375515E+02 -0.39561719968E+02  0.47787262242E+02  0.19999959865E+02 0.  0.
        -12    1    1    2    0    0 -0.56978860595E+01  0.16912375515E+02  0.39561719968E+02  0.43400737758E+02  0.00000000000E+00 0.  1.
         11    1    3    3    0    0  0.61894005112E+00 -0.93032858622E+01 -0.10832557040E+02  0.14292603224E+02  0.51100000000E-03 0. -1.
        -11    1    3    3    0    0  0.26258777656E+01 -0.41751488303E+01 -0.28854161145E+02  0.29272678685E+02  0.51100000000E-03 0.  1.
        -12    1    3    3    0    0  0.24530682428E+01 -0.34339408224E+01  0.12499821662E+00  0.42219803327E+01  0.00000000000E+00 0.  1.
</event>
<event>
 7    1  0.1457722E-010  0.4778727E+02  0.7816164E-02  0.1312668E+00
        -11   -1    0    0    0    0  0.00000000000E+00  0.00000000000E+00  0.45593999997E+02  0.45594000000E+02  0.51100000000E-03 0.  1.
         11   -1    0    0    0    0 -0.00000000000E+00 -0.00000000000E+00 -0.45593999997E+02  0.45594000000E+02  0.51100000000E-03 0. -1.
    9900012    2    1    2    0    0  0.21643052108E+02  0.34778662187E+02  0.14340361421E+02  0.47787274042E+02  0.20000013666E+02 0.  0.
        -12    1    1    2    0    0 -0.21643052108E+02 -0.34778662187E+02 -0.14340361421E+02  0.43400725958E+02  0.00000000000E+00 0.  1.
         11    1    3    3    0    0  0.13233882151E+02  0.18930233938E+02  0.43090435635E+01  0.23495898587E+02  0.51100000000E-03 0. -1.
        -11    1    3    3    0    0  0.10524934799E+02  0.16628176003E+02  0.99091389294E+01  0.22033191423E+02  0.51100000000E-03 0.  1.
         12    1    3    3    0    0 -0.21157648427E+01 -0.77974775402E+00  0.12217892793E+00  0.22581840315E+01  0.00000000000E+00 0. -1.
</event>
<event>
 7    1  0.1457722E-010  0.4778728E+02  0.7816164E-02  0.1312668E+00
        -11   -1    0    0    0    0  0.00000000000E+00  0.00000000000E+00  0.45593999997E+02  0.45594000000E+02  0.51100000000E-03 0.  1.
         11   -1    0    0    0    0 -0.00000000000E+00 -0.00000000000E+00 -0.45593999997E+02  0.45594000000E+02  0.51100000000E-03 0. -1.
    9900012    2    1    2    0    0  0.15896724359E+02 -0.38576456982E+02  0.11948803054E+02  0.47787276814E+02  0.20000026306E+02 0.  0.
        -12    1    1    2    0    0 -0.15896724359E+02  0.38576456982E+02 -0.11948803054E+02  0.43400723186E+02  0.00000000000E+00 0.  1.
         11    1    3    3    0    0  0.65087437582E+01 -0.23159298070E+01  0.19797031761E+01  0.71865500143E+01  0.51100000000E-03 0.  1.
        -11    1    3    3    0    0  0.10525699606E+02 -0.23805566232E+02  0.27847165169E+01  0.26177279885E+02  0.51100000000E-03 0. -1.
         12    1    3    3    0    0 -0.11377190055E+01 -0.12454960943E+02  0.71843833611E+01  0.14423446915E+02  0.00000000000E+00 0. -1.
</event>
<event>
 7    1  0.1457722E-010  0.4778728E+02  0.7816164E-02  0.1312668E+00
        -11   -1    0    0    0    0  0.00000000000E+00  0.00000000000E+00  0.45593999997E+02  0.45594000000E+02  0.51100000000E-03 0.  1.
         11   -1    0    0    0    0 -0.00000000000E+00 -0.00000000000E+00 -0.45593999997E+02  0.45594000000E+02  0.51100000000E-03 0. -1.
    9900012    2    1    2    0    0 -0.25565276194E+02 -0.34973531454E+02 -0.26250747449E+01  0.47787282648E+02  0.20000052904E+02 0.  0.
        -12    1    1    2    0    0  0.25565276194E+02  0.34973531454E+02  0.26250747449E+01  0.43400717352E+02  0.00000000000E+00 0.  1.
         11    1    3    3    0    0 -0.17152906040E+02 -0.24720838568E+02 -0.14423579335E+01  0.30123453351E+02  0.51100000000E-03 0. -1.
        -11    1    3    3    0    0 -0.88591619277E+00 -0.60257720594E+01 -0.53241671505E+01  0.80895940887E+01  0.51100000000E-03 0.  1.
        -12    1    3    3    0    0 -0.75264539613E+01 -0.42269208269E+01  0.41414503391E+01  0.95742352081E+01  0.00000000000E+00 0.  1.
</event>
<event>
 7    1  0.1457722E-010  0.4778727E+02  0.7816164E-02  0.1312668E+00
        -11   -1    0    0    0    0  0.00000000000E+00  0.00000000000E+00  0.45593999997E+02  0.45594000000E+02  0.51100000000E-03 0. -1.
         11   -1    0    0    0    0 -0.00000000000E+00 -0.00000000000E+00 -0.45593999997E+02  0.45594000000E+02  0.51100000000E-03 0.  1.
    9900012    2    1    2    0    0  0.26661628995E+01 -0.29458971955E+02  0.31759782822E+02  0.47787271225E+02  0.20000000825E+02 0.  0.
        -12    1    1    2    0    0 -0.26661628995E+01  0.29458971955E+02 -0.31759782822E+02  0.43400728775E+02  0.00000000000E+00 0.  1.
         11    1    3    3    0    0  0.49584143394E+01 -0.18840132988E+02  0.30400933089E+02  0.36107522993E+02  0.51100000000E-03 0. -1.
        -11    1    3    3    0    0 -0.18921749973E+01 -0.13550239442E+01  0.32270374661E+00  0.23495859378E+01  0.51100000000E-03 0.  1.
         12    1    3    3    0    0 -0.40007644261E+00 -0.92638150228E+01  0.10361459866E+01  0.93301622945E+01  0.00000000000E+00 0. -1.
</event>
<event>
 7    1  0.1457722E-010  0.4778727E+02  0.7816164E-02  0.1312668E+00
        -11   -1    0    0    0    0  0.00000000000E+00  0.00000000000E+00  0.45593999997E+02  0.45594000000E+02  0.51100000000E-03 0.  1.
         11   -1    0    0    0    0 -0.00000000000E+00 -0.00000000000E+00 -0.45593999997E+02  0.45594000000E+02  0.51100000000E-03 0. -1.
    9900012    2    1    2    0    0  0.19475331046E+02  0.93001152199E+01 -0.37654247543E+02  0.47787273963E+02  0.20000013309E+02 0.  0.
        -12    1    1    2    0    0 -0.19475331046E+02 -0.93001152199E+01  0.37654247543E+02  0.43400726037E+02  0.00000000000E+00 0.  1.
         11    1    3    3    0    0  0.90300210465E+01  0.28469787606E+01 -0.18097267465E+02  0.20424437768E+02  0.51100000000E-03 0. -1.
        -11    1    3    3    0    0  0.94785110106E+01  0.66244552791E+01 -0.21931417724E+02  0.24793399573E+02  0.51100000000E-03 0.  1.
        -12    1    3    3    0    0  0.96679898888E+00 -0.17131881981E+00  0.23744376462E+01  0.25694366228E+01  0.00000000000E+00 0.  1.
</event>
<event>
 7    1  0.1457722E-010  0.4778729E+02  0.7816164E-02  0.1312668E+00
        -11   -1    0    0    0    0  0.00000000000E+00  0.00000000000E+00  0.45593999997E+02  0.45594000000E+02  0.51100000000E-03 0.  1.
         11   -1    0    0    0    0 -0.00000000000E+00 -0.00000000000E+00 -0.45593999997E+02  0.45594000000E+02  0.51100000000E-03 0. -1.
    9900012    2    1    2    0    0  0.25898400860E+02 -0.82205706348E+01 -0.33842533733E+02  0.47787285281E+02  0.20000064909E+02 0.  0.
        -12    1    1    2    0    0 -0.25898400860E+02  0.82205706348E+01  0.33842533733E+02  0.43400714719E+02  0.00000000000E+00 0.  1.
         11    1    3    3    0    0 -0.34083501243E+00  0.26974109297E+01 -0.79258306012E+00  0.28320279655E+01  0.51100000000E-03 0. -1.
        -11    1    3    3    0    0  0.10632978983E+02 -0.54285759626E+01 -0.22092785550E+02  0.25112165432E+02  0.51100000000E-03 0.  1.
         12    1    3    3    0    0  0.15606256890E+02 -0.54894056019E+01 -0.10957165122E+02  0.19843091884E+02  0.00000000000E+00 0. -1.
</event>
<event>
 7    1  0.1457722E-010  0.4778726E+02  0.7816164E-02  0.1312668E+00
        -11   -1    0    0    0    0  0.00000000000E+00  0.00000000000E+00  0.45593999997E+02  0.45594000000E+02  0.51100000000E-03 0. -1.
         11   -1    0    0    0    0 -0.00000000000E+00 -0.00000000000E+00 -0.45593999997E+02  0.45594000000E+02  0.51100000000E-03 0.  1.
    9900012    2    1    2    0    0  0.32742263796E+02 -0.17028131381E+02  0.22838798355E+02  0.47787264902E+02  0.19999971992E+02 0.  0.
        -12    1    1    2    0    0 -0.32742263796E+02  0.17028131381E+02 -0.22838798355E+02  0.43400735098E+02  0.00000000000E+00 0.  1.
         11    1    3    3    0    0  0.30920051949E+01  0.74581641018E-01 -0.11950874932E+01  0.33157643046E+01  0.51100000000E-03 0. -1.
        -11    1    3    3    0    0  0.12225719250E+02 -0.10613783388E+02  0.31211706235E+01  0.16488247794E+02  0.51100000000E-03 0.  1.
         12    1    3    3    0    0  0.17424539351E+02 -0.64889296342E+01  0.20912715225E+02  0.27983252803E+02  0.00000000000E+00 0. -1.
</event>
<event>
 7    1  0.1457722E-010  0.4778728E+02  0.7816164E-02  0.1312668E+00
        -11   -1    0    0    0    0  0.00000000000E+00  0.00000000000E+00  0.45593999997E+02  0.45594000000E+02  0.51100000000E-03 0.  1.
         11   -1    0    0    0    0 -0.00000000000E+00 -0.00000000000E+00 -0.45593999997E+02  0.45594000000E+02  0.51100000000E-03 0. -1.
    9900012    2    1    2    0    0  0.86384282131E+01 -0.40065291576E+02 -0.14274904503E+02  0.47787275010E+02  0.20000018082E+02 0.  0.
        -12    1    1    2    0    0 -0.86384282131E+01  0.40065291576E+02  0.14274904503E+02  0.43400724990E+02  0.00000000000E+00 0.  1.
         11    1    3    3    0    0  0.96832267983E+00 -0.19332257811E+01 -0.42321546778E+01  0.47524882126E+01  0.51100000000E-03 0. -1.
        -11    1    3    3    0    0  0.69166485962E+01 -0.36663916904E+02 -0.13114068301E+02  0.39548218900E+02  0.51100000000E-03 0.  1.
        -12    1    3    3    0    0  0.75345693700E+00 -0.14681488914E+01  0.30713184761E+01  0.34865678976E+01  0.00000000000E+00 0.  1.
</event>
<event>
 7    1  0.1457722E-010  0.4778727E+02  0.7816164E-02  0.1312668E+00
        -11   -1    0    0    0    0  0.00000000000E+00  0.00000000000E+00  0.45593999997E+02  0.45594000000E+02  0.51100000000E-03 0. -1.
         11   -1    0    0    0    0 -0.00000000000E+00 -0.00000000000E+00 -0.45593999997E+02  0.45594000000E+02  0.51100000000E-03 0.  1.
    9900012    2    1    2    0    0  0.20679438139E+02 -0.33154420708E+02 -0.18888312319E+02  0.47787272858E+02  0.20000008269E+02 0.  0.
        -12    1    1    2    0    0 -0.20679438139E+02  0.33154420708E+02  0.18888312319E+02  0.43400727142E+02  0.00000000000E+00 0.  1.
         11    1    3    3    0    0  0.58515284136E+01 -0.12202083233E+02 -0.96783453299E+01  0.16637355216E+02  0.51100000000E-03 0. -1.
        -11    1    3    3    0    0  0.80538556922E+01 -0.47986132740E+00 -0.37963061679E+01  0.89166585214E+01  0.51100000000E-03 0.  1.
        -12    1    3    3    0    0  0.67740540327E+01 -0.20472476148E+02 -0.54136608210E+01  0.22233259121E+02  0.00000000000E+00 0.  1.
</event>
<event>
 7    1  0.1457722E-010  0.4778727E+02  0.7816164E-02  0.1312668E+00
        -11   -1    0    0    0    0  0.00000000000E+00  0.00000000000E+00  0.45593999997E+02  0.45594000000E+02  0.51100000000E-03 0.  1.
         11   -1    0    0    0    0 -0.00000000000E+00 -0.00000000000E+00 -0.45593999997E+02  0.45594000000E+02  0.51100000000E-03 0. -1.
    9900012    2    1    2    0    0 -0.31683898209E+02  0.47631747836E+01 -0.29275690473E+02  0.47787270831E+02  0.19999999025E+02 0.  0.
        -12    1    1    2    0    0  0.31683898209E+02 -0.47631747836E+01  0.29275690473E+02  0.43400729169E+02  0.00000000000E+00 0.  1.
         11    1    3    3    0    0  0.12431768105E+01 -0.22004417393E+01 -0.19765352972E+01  0.32084458033E+01  0.51100000000E-03 0.  1.
        -11    1    3    3    0    0 -0.90872280505E+01  0.59897242650E+01 -0.52200414789E+01  0.12070764007E+02  0.51100000000E-03 0. -1.
         12    1    3    3    0    0 -0.23839846969E+02  0.97389225800E+00 -0.22079113697E+02  0.32508061020E+02  0.00000000000E+00 0. -1.
</event>
<event>
 7    1  0.1457722E-010  0.4778726E+02  0.7816164E-02  0.1312668E+00
        -11   -1    0    0    0    0  0.00000000000E+00  0.00000000000E+00  0.45593999997E+02  0.45594000000E+02  0.51100000000E-03 0.  1.
         11   -1    0    0    0    0 -0.00000000000E+00 -0.00000000000E+00 -0.45593999997E+02  0.45594000000E+02  0.51100000000E-03 0. -1.
    9900012    2    1    2    0    0 -0.86496364846E+01 -0.21481972337E+02 -0.36706028039E+02  0.47787264509E+02  0.19999970200E+02 0.  0.
        -12    1    1    2    0    0  0.86496364846E+01  0.21481972337E+02  0.36706028039E+02  0.43400735491E+02  0.00000000000E+00 0.  1.
         11    1    3    3    0    0  0.37569189007E+00 -0.35030727957E+01 -0.22030880405E+02  0.22310812515E+02  0.51100000000E-03 0. -1.
        -11    1    3    3    0    0 -0.80486774161E+00 -0.42758744976E+01 -0.10482239938E+01  0.44754540108E+01  0.51100000000E-03 0.  1.
         12    1    3    3    0    0 -0.82204606330E+01 -0.13703025044E+02 -0.13626923640E+02  0.21000997983E+02  0.00000000000E+00 0. -1.
</event>
<event>
 7    1  0.1457722E-010  0.4778728E+02  0.7816164E-02  0.1312668E+00
        -11   -1    0    0    0    0  0.00000000000E+00  0.00000000000E+00  0.45593999997E+02  0.45594000000E+02  0.51100000000E-03 0.  1.
         11   -1    0    0    0    0 -0.00000000000E+00 -0.00000000000E+00 -0.45593999997E+02  0.45594000000E+02  0.51100000000E-03 0. -1.
    9900012    2    1    2    0    0  0.11459467225E+02 -0.23904606065E+02 -0.34363835595E+02  0.47787276769E+02  0.20000026099E+02 0.  0.
        -12    1    1    2    0    0 -0.11459467225E+02  0.23904606065E+02  0.34363835595E+02  0.43400723231E+02  0.00000000000E+00 0.  1.
         11    1    3    3    0    0 -0.26840838509E+01 -0.70202181214E+00  0.21039065945E+00  0.27823380876E+01  0.51100000000E-03 0. -1.
        -11    1    3    3    0    0  0.81959549059E+01 -0.54303506242E+01 -0.92396980397E+01  0.13492012631E+02  0.51100000000E-03 0.  1.
         12    1    3    3    0    0  0.59475961698E+01 -0.17772233629E+02 -0.25334528214E+02  0.31512926050E+02  0.00000000000E+00 0. -1.
</event>
<event>
 7    1  0.1457722E-010  0.4778727E+02  0.7816164E-02  0.1312668E+00
        -11   -1    0    0    0    0  0.00000000000E+00  0.00000000000E+00  0.45593999997E+02  0.45594000000E+02  0.51100000000E-03 0. -1.
         11   -1    0    0    0    0 -0.00000000000E+00 -0.00000000000E+00 -0.45593999997E+02  0.45594000000E+02  0.51100000000E-03 0.  1.
    9900012    2    1    2    0    0  0.17038849577E+02 -0.35634902335E+02 -0.17984839310E+02  0.47787272998E+02  0.20000008905E+02 0.  0.
        -12    1    1    2    0    0 -0.17038849577E+02  0.35634902335E+02  0.17984839310E+02  0.43400727002E+02  0.00000000000E+00 0.  1.
         11    1    3    3    0    0  0.32572664584E+01 -0.14300927656E+02 -0.78482360904E+01  0.16634936928E+02  0.51100000000E-03 0. -1.
        -11    1    3    3    0    0  0.11714853437E+02 -0.12900465237E+02 -0.13288971216E+02  0.21914756459E+02  0.51100000000E-03 0.  1.
        -12    1    3    3    0    0  0.20667296810E+01 -0.84335094423E+01  0.31523679968E+01  0.92375796113E+01  0.00000000000E+00 0.  1.
</event>
<event>
 7    1  0.1457722E-010  0.4778727E+02  0.7816164E-02  0.1312668E+00
        -11   -1    0    0    0    0  0.00000000000E+00  0.00000000000E+00  0.45593999997E+02  0.45594000000E+02  0.51100000000E-03 0.  1.
         11   -1    0    0    0    0 -0.00000000000E+00 -0.00000000000E+00 -0.45593999997E+02  0.45594000000E+02  0.51100000000E-03 0. -1.
    9900012    2    1    2    0    0 -0.33125645172E+02 -0.70754853787E+01 -0.27133973726E+02  0.47787269689E+02  0.19999993818E+02 0.  0.
        -12    1    1    2    0    0  0.33125645172E+02  0.70754853787E+01  0.27133973726E+02  0.43400730311E+02  0.00000000000E+00 0.  1.
         11    1    3    3    0    0 -0.12514842748E+02 -0.46936187045E+01 -0.18416672240E+02  0.22755772063E+02  0.51100000000E-03 0. -1.
        -11    1    3    3    0    0 -0.41387918875E+01 -0.40861888135E+00 -0.72740658632E+01  0.83790573527E+01  0.51100000000E-03 0.  1.
        -12    1    3    3    0    0 -0.16472010536E+02 -0.19732477928E+01 -0.14432356232E+01  0.16652440272E+02  0.00000000000E+00 0.  1.
</event>
<event>
 7    1  0.1457722E-010  0.4778727E+02  0.7816164E-02  0.1312668E+00
        -11   -1    0    0    0    0  0.00000000000E+00  0.00000000000E+00  0.45593999997E+02  0.45594000000E+02  0.51100000000E-03 0.  1.
         11   -1    0    0    0    0 -0.00000000000E+00 -0.00000000000E+00 -0.45593999997E+02  0.45594000000E+02  0.51100000000E-03 0. -1.
    9900012    2    1    2    0    0 -0.20762773123E+02 -0.33273648114E+02 -0.18584803932E+02  0.47787270240E+02  0.19999996331E+02 0.  0.
        -12    1    1    2    0    0  0.20762773123E+02  0.33273648114E+02  0.18584803932E+02  0.43400729760E+02  0.00000000000E+00 0.  1.
         11    1    3    3    0    0 -0.11461064229E+02 -0.13902071539E+02 -0.44705065404E+01  0.18563647684E+02  0.51100000000E-03 0. -1.
        -11    1    3    3    0    0  0.15140506569E+01 -0.13957580337E+01  0.19226570049E+01  0.28172859457E+01  0.51100000000E-03 0.  1.
        -12    1    3    3    0    0 -0.10815759551E+02 -0.17975818541E+02 -0.16036954396E+02  0.26406336610E+02  0.00000000000E+00 0.  1.
</event>
<event>
 7    1  0.1457722E-010  0.4778727E+02  0.7816164E-02  0.1312668E+00
        -11   -1    0    0    0    0  0.00000000000E+00  0.00000000000E+00  0.45593999997E+02  0.45594000000E+02  0.51100000000E-03 0. -1.
         11   -1    0    0    0    0 -0.00000000000E+00 -0.00000000000E+00 -0.45593999997E+02  0.45594000000E+02  0.51100000000E-03 0.  1.
    9900012    2    1    2    0    0  0.25353135504E+02 -0.36708018704E+01  0.35033794470E+02  0.47787273955E+02  0.20000013270E+02 0.  0.
        -12    1    1    2    0    0 -0.25353135504E+02  0.36708018704E+01 -0.35033794470E+02  0.43400726045E+02  0.00000000000E+00 0.  1.
         11    1    3    3    0    0  0.94746819613E+01 -0.10138588565E+02  0.16188320697E+02  0.21321873829E+02  0.51100000000E-03 0. -1.
        -11    1    3    3    0    0  0.40436650974E+01  0.23290263676E+01  0.11981830828E+01  0.48178038775E+01  0.51100000000E-03 0.  1.
         12    1    3    3    0    0  0.11834788445E+02  0.41387603269E+01  0.17647290691E+02  0.21647596248E+02  0.00000000000E+00 0. -1.
</event>
<event>
 7    1  0.1457722E-010  0.4778727E+02  0.7816164E-02  0.1312668E+00
        -11   -1    0    0    0    0  0.00000000000E+00  0.00000000000E+00  0.45593999997E+02  0.45594000000E+02  0.51100000000E-03 0.  1.
         11   -1    0    0    0    0 -0.00000000000E+00 -0.00000000000E+00 -0.45593999997E+02  0.45594000000E+02  0.51100000000E-03 0. -1.
    9900012    2    1    2    0    0  0.35494081347E+02  0.32002748387E+01 -0.24769971871E+02  0.47787273322E+02  0.20000010382E+02 0.  0.
        -12    1    1    2    0    0 -0.35494081347E+02 -0.32002748387E+01  0.24769971871E+02  0.43400726678E+02  0.00000000000E+00 0.  1.
         11    1    3    3    0    0  0.22448258568E+02 -0.46303777685E+01 -0.13495471392E+02  0.26598730409E+02  0.51100000000E-03 0.  1.
        -11    1    3    3    0    0  0.85863130562E+01  0.75101814455E+00 -0.91201400558E+01  0.12548535972E+02  0.51100000000E-03 0. -1.
        -12    1    3    3    0    0  0.44595097236E+01  0.70796344627E+01 -0.21543604232E+01  0.86400069406E+01  0.00000000000E+00 0.  1.
</event>
<event>
 7    1  0.1457722E-010  0.4778727E+02  0.7816164E-02  0.1312668E+00
        -11   -1    0    0    0    0  0.00000000000E+00  0.00000000000E+00  0.45593999997E+02  0.45594000000E+02  0.51100000000E-03 0. -1.
         11   -1    0    0    0    0 -0.00000000000E+00 -0.00000000000E+00 -0.45593999997E+02  0.45594000000E+02  0.51100000000E-03 0.  1.
    9900012    2    1    2    0    0 -0.42848830950E+02  0.43460496338E+01  0.53584433080E+01  0.47787269870E+02  0.19999994644E+02 0.  0.
        -12    1    1    2    0    0  0.42848830950E+02 -0.43460496338E+01 -0.53584433080E+01  0.43400730130E+02  0.00000000000E+00 0.  1.
         11    1    3    3    0    0 -0.12615263343E+02 -0.14459046729E+01  0.54716220933E+01  0.13826574345E+02  0.51100000000E-03 0. -1.
        -11    1    3    3    0    0 -0.14370418622E+02 -0.41859713821E+01 -0.21045156189E+01  0.15114902382E+02  0.51100000000E-03 0.  1.
        -12    1    3    3    0    0 -0.15863148985E+02  0.99779256888E+01  0.19913368336E+01  0.18845793142E+02  0.00000000000E+00 0.  1.
</event>
<event>
 7    1  0.1457722E-010  0.4778728E+02  0.7816164E-02  0.1312668E+00
        -11   -1    0    0    0    0  0.00000000000E+00  0.00000000000E+00  0.45593999997E+02  0.45594000000E+02  0.51100000000E-03 0. -1.
         11   -1    0    0    0    0 -0.00000000000E+00 -0.00000000000E+00 -0.45593999997E+02  0.45594000000E+02  0.51100000000E-03 0.  1.
    9900012    2    1    2    0    0  0.37478828667E+02 -0.21848093169E+02  0.12729157566E+01  0.47787284708E+02  0.20000062296E+02 0.  0.
        -12    1    1    2    0    0 -0.37478828667E+02  0.21848093169E+02 -0.12729157566E+01  0.43400715292E+02  0.00000000000E+00 0.  1.
         11    1    3    3    0    0  0.88275087209E+01 -0.24231159779E+01  0.60568668813E+01  0.10976431020E+02  0.51100000000E-03 0. -1.
        -11    1    3    3    0    0  0.72136851304E+00  0.14564972914E+01 -0.25011532213E+00  0.16444801084E+01  0.51100000000E-03 0.  1.
         12    1    3    3    0    0  0.27929951433E+02 -0.20881474483E+02 -0.45338358025E+01  0.35166373579E+02  0.00000000000E+00 0. -1.
</event>
<event>
 7    1  0.1457722E-010  0.4778727E+02  0.7816164E-02  0.1312668E+00
        -11   -1    0    0    0    0  0.00000000000E+00  0.00000000000E+00  0.45593999997E+02  0.45594000000E+02  0.51100000000E-03 0. -1.
         11   -1    0    0    0    0 -0.00000000000E+00 -0.00000000000E+00 -0.45593999997E+02  0.45594000000E+02  0.51100000000E-03 0.  1.
    9900012    2    1    2    0    0 -0.96404709534E+01  0.26118484192E+02  0.33294283797E+02  0.47787271547E+02  0.20000002290E+02 0.  0.
        -12    1    1    2    0    0  0.96404709534E+01 -0.26118484192E+02 -0.33294283797E+02  0.43400728453E+02  0.00000000000E+00 0.  1.
         11    1    3    3    0    0 -0.91020299342E+01  0.28317136520E+02  0.26749614758E+02  0.40003113124E+02  0.51100000000E-03 0.  1.
        -11    1    3    3    0    0  0.81731969415E+00  0.48984176509E+00  0.29226065136E+01  0.30740178158E+01  0.51100000000E-03 0. -1.
        -12    1    3    3    0    0 -0.13557607133E+01 -0.26884940930E+01  0.36220625257E+01  0.47101406072E+01  0.00000000000E+00 0.  1.
</event>
<event>
 7    1  0.1457722E-010  0.4778727E+02  0.7816164E-02  0.1312668E+00
        -11   -1    0    0    0    0  0.00000000000E+00  0.00000000000E+00  0.45593999997E+02  0.45594000000E+02  0.51100000000E-03 0.  1.
         11   -1    0    0    0    0 -0.00000000000E+00 -0.00000000000E+00 -0.45593999997E+02  0.45594000000E+02  0.51100000000E-03 0. -1.
    9900012    2    1    2    0    0 -0.37268483606E+02  0.21946771416E+02 -0.36087313103E+01  0.47787267430E+02  0.19999983522E+02 0.  0.
        -12    1    1    2    0    0  0.37268483606E+02 -0.21946771416E+02  0.36087313103E+01  0.43400732570E+02  0.00000000000E+00 0.  1.
         11    1    3    3    0    0 -0.11156357335E+02  0.92297637276E+01 -0.43117510431E+01  0.15107747839E+02  0.51100000000E-03 0. -1.
        -11    1    3    3    0    0 -0.20936854196E+02  0.23409484635E+01  0.75288411983E-01  0.21067452906E+02  0.51100000000E-03 0.  1.
        -12    1    3    3    0    0 -0.51752720759E+01  0.10376059225E+02  0.62773132078E+00  0.11612066686E+02  0.00000000000E+00 0.  1.
</event>
<event>
 7    1  0.1457722E-010  0.4778727E+02  0.7816164E-02  0.1312668E+00
        -11   -1    0    0    0    0  0.00000000000E+00  0.00000000000E+00  0.45593999997E+02  0.45594000000E+02  0.51100000000E-03 0.  1.
         11   -1    0    0    0    0 -0.00000000000E+00 -0.00000000000E+00 -0.45593999997E+02  0.45594000000E+02  0.51100000000E-03 0. -1.
    9900012    2    1    2    0    0  0.34697497353E+02 -0.18482656452E+02 -0.18387450323E+02  0.47787271418E+02  0.20000001702E+02 0.  0.
        -12    1    1    2    0    0 -0.34697497353E+02  0.18482656452E+02  0.18387450323E+02  0.43400728582E+02  0.00000000000E+00 0.  1.
         11    1    3    3    0    0  0.41375962436E+01  0.12284774046E+01 -0.31840267365E+01  0.53634770372E+01  0.51100000000E-03 0. -1.
        -11    1    3    3    0    0 -0.13520728250E+01  0.13320385306E+00 -0.23371660679E+01  0.27033663608E+01  0.51100000000E-03 0.  1.
         12    1    3    3    0    0  0.31911973935E+02 -0.19844337710E+02 -0.12866257518E+02  0.39720428020E+02  0.00000000000E+00 0. -1.
</event>
<event>
 7    1  0.1457722E-010  0.4778731E+02  0.7816164E-02  0.1312668E+00
        -11   -1    0    0    0    0  0.00000000000E+00  0.00000000000E+00  0.45593999997E+02  0.45594000000E+02  0.51100000000E-03 0.  1.
         11   -1    0    0    0    0 -0.00000000000E+00 -0.00000000000E+00 -0.45593999997E+02  0.45594000000E+02  0.51100000000E-03 0. -1.
    9900012    2    1    2    0    0 -0.20598920982E+02  0.12787054641E+02 -0.35997165509E+02  0.47787306035E+02  0.20000159533E+02 0.  0.
        -12    1    1    2    0    0  0.20598920982E+02 -0.12787054641E+02  0.35997165509E+02  0.43400693965E+02  0.00000000000E+00 0.  1.
         11    1    3    3    0    0 -0.17053312533E+02  0.12027757850E+02 -0.18318154257E+02  0.27767556660E+02  0.51100000000E-03 0. -1.
        -11    1    3    3    0    0 -0.33504836786E+01  0.41229255924E+01 -0.67900078895E+01  0.86213956945E+01  0.51100000000E-03 0.  1.
        -12    1    3    3    0    0 -0.19512477110E+00 -0.33636288016E+01 -0.10889003362E+02  0.11398353680E+02  0.00000000000E+00 0.  1.
</event>
<event>
 7    1  0.1457722E-010  0.4778727E+02  0.7816164E-02  0.1312668E+00
        -11   -1    0    0    0    0  0.00000000000E+00  0.00000000000E+00  0.45593999997E+02  0.45594000000E+02  0.51100000000E-03 0. -1.
         11   -1    0    0    0    0 -0.00000000000E+00 -0.00000000000E+00 -0.45593999997E+02  0.45594000000E+02  0.51100000000E-03 0.  1.
    9900012    2    1    2    0    0  0.27402788946E+02 -0.31640599598E+02  0.11470966334E+02  0.47787268975E+02  0.19999990563E+02 0.  0.
        -12    1    1    2    0    0 -0.27402788946E+02  0.31640599598E+02 -0.11470966334E+02  0.43400731025E+02  0.00000000000E+00 0.  1.
         11    1    3    3    0    0  0.15892731993E+02 -0.17614706970E+02  0.23963781951E+01  0.23845323662E+02  0.51100000000E-03 0. -1.
        -11    1    3    3    0    0  0.53953252350E+01 -0.13977828526E+02  0.96157231732E+01  0.17803127734E+02  0.51100000000E-03 0.  1.
         12    1    3    3    0    0  0.61147317176E+01 -0.48064101158E-01 -0.54113503419E+00  0.61388175785E+01  0.00000000000E+00 0. -1.
</event>
<event>
 7    1  0.1457722E-010  0.4778726E+02  0.7816164E-02  0.1312668E+00
        -11   -1    0    0    0    0  0.00000000000E+00  0.00000000000E+00  0.45593999997E+02  0.45594000000E+02  0.51100000000E-03 0.  1.
         11   -1    0    0    0    0 -0.00000000000E+00 -0.00000000000E+00 -0.45593999997E+02  0.45594000000E+02  0.51100000000E-03 0. -1.
    9900012    2    1    2    0    0  0.43473341839E+01 -0.25035413571E+02 -0.35184560594E+02  0.47787256326E+02  0.19999932895E+02 0.  0.
        -12    1    1    2    0    0 -0.43473341839E+01  0.25035413571E+02  0.35184560594E+02  0.43400743674E+02  0.00000000000E+00 0.  1.
         11    1    3    3    0    0 -0.24962041431E+01 -0.10414956530E+02 -0.13779943869E+02  0.17452484291E+02  0.51100000000E-03 0. -1.
        -11    1    3    3    0    0 -0.28388167945E+01 -0.10624040467E+02 -0.10250783919E+02  0.15033552070E+02  0.51100000000E-03 0.  1.
         12    1    3    3    0    0  0.96823551215E+01 -0.39964165742E+01 -0.11153832807E+02  0.15301219965E+02  0.00000000000E+00 0. -1.
</event>
<event>
 7    1  0.1457722E-010  0.4778727E+02  0.7816164E-02  0.1312668E+00
        -11   -1    0    0    0    0  0.00000000000E+00  0.00000000000E+00  0.45593999997E+02  0.45594000000E+02  0.51100000000E-03 0.  1.
         11   -1    0    0    0    0 -0.00000000000E+00 -0.00000000000E+00 -0.45593999997E+02  0.45594000000E+02  0.51100000000E-03 0. -1.
    9900012    2    1    2    0    0 -0.25719435682E+02  0.28673802500E+02 -0.19998672772E+02  0.47787271501E+02  0.20000002083E+02 0.  0.
        -12    1    1    2    0    0  0.25719435682E+02 -0.28673802500E+02  0.19998672772E+02  0.43400728499E+02  0.00000000000E+00 0.  1.
         11    1    3    3    0    0 -0.26908982553E+01  0.45290366547E+01 -0.95616240065E+00  0.53541902504E+01  0.51100000000E-03 0. -1.
        -11    1    3    3    0    0 -0.21026457395E+02  0.23567178214E+02 -0.22231726967E+02  0.38623483579E+02  0.51100000000E-03 0.  1.
        -12    1    3    3    0    0 -0.20020800315E+01  0.57758763136E+00  0.31892165963E+01  0.38095976720E+01  0.00000000000E+00 0.  1.
</event>
<event>
 7    1  0.1457722E-010  0.4778727E+02  0.7816164E-02  0.1312668E+00
        -11   -1    0    0    0    0  0.00000000000E+00  0.00000000000E+00  0.45593999997E+02  0.45594000000E+02  0.51100000000E-03 0. -1.
         11   -1    0    0    0    0 -0.00000000000E+00 -0.00000000000E+00 -0.45593999997E+02  0.45594000000E+02  0.51100000000E-03 0.  1.
    9900012    2    1    2    0    0  0.28889397573E+02 -0.30696795717E+02 -0.10331150019E+02  0.47787271663E+02  0.20000002822E+02 0.  0.
        -12    1    1    2    0    0 -0.28889397573E+02  0.30696795717E+02  0.10331150019E+02  0.43400728337E+02  0.00000000000E+00 0.  1.
         11    1    3    3    0    0  0.34357810735E+01 -0.98256851460E+01 -0.82500824857E+00  0.10441710542E+02  0.51100000000E-03 0. -1.
        -11    1    3    3    0    0  0.67183903457E+01  0.14912213626E+01 -0.97624248644E+00  0.69507956122E+01  0.51100000000E-03 0.  1.
         12    1    3    3    0    0  0.18735226154E+02 -0.22362331934E+02 -0.85298992838E+01  0.30394765509E+02  0.00000000000E+00 0. -1.
</event>
<event>
 7    1  0.1457722E-010  0.4778728E+02  0.7816164E-02  0.1312668E+00
        -11   -1    0    0    0    0  0.00000000000E+00  0.00000000000E+00  0.45593999997E+02  0.45594000000E+02  0.51100000000E-03 0.  1.
         11   -1    0    0    0    0 -0.00000000000E+00 -0.00000000000E+00 -0.45593999997E+02  0.45594000000E+02  0.51100000000E-03 0. -1.
    9900012    2    1    2    0    0  0.32477408119E+02  0.10973831242E+02 -0.26616079307E+02  0.47787277795E+02  0.20000030777E+02 0.  0.
        -12    1    1    2    0    0 -0.32477408119E+02 -0.10973831242E+02  0.26616079307E+02  0.43400722205E+02  0.00000000000E+00 0.  1.
         11    1    3    3    0    0  0.69278373969E+01  0.73934276403E+01 -0.63782487667E+01  0.11972458430E+02  0.51100000000E-03 0. -1.
        -11    1    3    3    0    0  0.59917024156E+01 -0.98479170116E+00  0.14638120220E+01  0.62460434219E+01  0.51100000000E-03 0.  1.
        -12    1    3    3    0    0  0.19557868307E+02  0.45651953027E+01 -0.21701642562E+02  0.29568775943E+02  0.00000000000E+00 0.  1.
</event>
<event>
 7    1  0.2136687E-010  0.4778727E+02  0.7816164E-02  0.1312668E+00
        -11   -1    0    0    0    0  0.00000000000E+00  0.00000000000E+00  0.45593999997E+02  0.45594000000E+02  0.51100000000E-03 0.  1.
         11   -1    0    0    0    0 -0.00000000000E+00 -0.00000000000E+00 -0.45593999997E+02  0.45594000000E+02  0.51100000000E-03 0. -1.
    9900012    2    1    2    0    0 -0.39804663236E+01 -0.42877492987E+02  0.54129179528E+01  0.47787271921E+02  0.20000003997E+02 0.  0.
        -12    1    1    2    0    0  0.39804663236E+01  0.42877492987E+02 -0.54129179528E+01  0.43400728079E+02  0.00000000000E+00 0.  1.
         11    1    3    3    0    0 -0.50690642849E+01 -0.24066674692E+02  0.12519884473E+02  0.27597966427E+02  0.51100000000E-03 0. -1.
        -11    1    3    3    0    0 -0.24412684595E+00 -0.59195643839E+01 -0.25722313017E+01  0.64588864785E+01  0.51100000000E-03 0.  1.
         12    1    3    3    0    0  0.13327248072E+01 -0.12891253912E+02 -0.45347352191E+01  0.13730419015E+02  0.00000000000E+00 0. -1.
</event>
<event>
 7    1  0.1457722E-010  0.4778727E+02  0.7816164E-02  0.1312668E+00
        -11   -1    0    0    0    0  0.00000000000E+00  0.00000000000E+00  0.45593999997E+02  0.45594000000E+02  0.51100000000E-03 0.  1.
         11   -1    0    0    0    0 -0.00000000000E+00 -0.00000000000E+00 -0.45593999997E+02  0.45594000000E+02  0.51100000000E-03 0. -1.
    9900012    2    1    2    0    0 -0.35696455126E+02  0.23394180058E+02 -0.78802672130E+01  0.47787272120E+02  0.20000004905E+02 0.  0.
        -12    1    1    2    0    0  0.35696455126E+02 -0.23394180058E+02  0.78802672130E+01  0.43400727880E+02  0.00000000000E+00 0.  1.
         11    1    3    3    0    0 -0.85286861445E+01  0.13224542197E+02 -0.57825739855E+01  0.16764998236E+02  0.51100000000E-03 0. -1.
        -11    1    3    3    0    0 -0.11360402779E+01  0.29776921014E+01  0.19161003548E+01  0.37186931300E+01  0.51100000000E-03 0.  1.
        -12    1    3    3    0    0 -0.26031728704E+02  0.71919457587E+01 -0.40137935823E+01  0.27303580755E+02  0.00000000000E+00 0.  1.
</event>
<event>
 7    1  0.1457722E-010  0.4778727E+02  0.7816164E-02  0.1312668E+00
        -11   -1    0    0    0    0  0.00000000000E+00  0.00000000000E+00  0.45593999997E+02  0.45594000000E+02  0.51100000000E-03 0. -1.
         11   -1    0    0    0    0 -0.00000000000E+00 -0.00000000000E+00 -0.45593999997E+02  0.45594000000E+02  0.51100000000E-03 0.  1.
    9900012    2    1    2    0    0 -0.68123669987E+01 -0.12643684971E+02  0.40955490527E+02  0.47787270535E+02  0.19999997676E+02 0.  0.
        -12    1    1    2    0    0  0.68123669987E+01  0.12643684971E+02 -0.40955490527E+02  0.43400729465E+02  0.00000000000E+00 0.  1.
         11    1    3    3    0    0 -0.39415447668E+01 -0.82120804403E+01  0.11135978109E+02  0.14386940224E+02  0.51100000000E-03 0. -1.
        -11    1    3    3    0    0 -0.60268851034E+01 -0.40773694905E+01  0.61751296140E+01  0.95436110578E+01  0.51100000000E-03 0.  1.
        -12    1    3    3    0    0  0.31560628715E+01 -0.35423504069E+00  0.23644382804E+02  0.23856719253E+02  0.00000000000E+00 0.  1.
</event>
<event>
 7    1  0.1457722E-010  0.4778727E+02  0.7816164E-02  0.1312668E+00
        -11   -1    0    0    0    0  0.00000000000E+00  0.00000000000E+00  0.45593999997E+02  0.45594000000E+02  0.51100000000E-03 0.  1.
         11   -1    0    0    0    0 -0.00000000000E+00 -0.00000000000E+00 -0.45593999997E+02  0.45594000000E+02  0.51100000000E-03 0. -1.
    9900012    2    1    2    0    0 -0.26826466253E+02 -0.34021257558E+02  0.25530501291E+01  0.47787270485E+02  0.19999997450E+02 0.  0.
        -12    1    1    2    0    0  0.26826466253E+02  0.34021257558E+02 -0.25530501291E+01  0.43400729515E+02  0.00000000000E+00 0.  1.
         11    1    3    3    0    0  0.12223578137E+01 -0.20814707187E+01  0.17772385278E+01  0.29975416633E+01  0.51100000000E-03 0. -1.
        -11    1    3    3    0    0 -0.43205881728E+00  0.11939858345E+01  0.10613157238E+01  0.16548922386E+01  0.51100000000E-03 0.  1.
         12    1    3    3    0    0 -0.27616765249E+02 -0.33133772674E+02 -0.28550412242E+00  0.43134836583E+02  0.00000000000E+00 0. -1.
</event>
<event>
 7    1  0.1457722E-010  0.4778727E+02  0.7816164E-02  0.1312668E+00
        -11   -1    0    0    0    0  0.00000000000E+00  0.00000000000E+00  0.45593999997E+02  0.45594000000E+02  0.51100000000E-03 0.  1.
         11   -1    0    0    0    0 -0.00000000000E+00 -0.00000000000E+00 -0.45593999997E+02  0.45594000000E+02  0.51100000000E-03 0. -1.
    9900012    2    1    2    0    0  0.91962604674E+01 -0.35353977343E+02 -0.23433918469E+02  0.47787268954E+02  0.19999990468E+02 0.  0.
        -12    1    1    2    0    0 -0.91962604674E+01  0.35353977343E+02  0.23433918469E+02  0.43400731046E+02  0.00000000000E+00 0.  1.
         11    1    3    3    0    0 -0.36226776530E+01 -0.62986773219E+01 -0.83037863059E+01  0.11034038094E+02  0.51100000000E-03 0. -1.
        -11    1    3    3    0    0  0.43030488758E+01 -0.64488002395E+01  0.83438784109E+00  0.77974006879E+01  0.51100000000E-03 0.  1.
         12    1    3    3    0    0  0.85158892445E+01 -0.22606499782E+02 -0.15964520004E+02  0.28955830172E+02  0.00000000000E+00 0. -1.
</event>
<event>
 7    1  0.1457722E-010  0.4778727E+02  0.7816164E-02  0.1312668E+00
        -11   -1    0    0    0    0  0.00000000000E+00  0.00000000000E+00  0.45593999997E+02  0.45594000000E+02  0.51100000000E-03 0. -1.
         11   -1    0    0    0    0 -0.00000000000E+00 -0.00000000000E+00 -0.45593999997E+02  0.45594000000E+02  0.51100000000E-03 0.  1.
    9900012    2    1    2    0    0  0.39606553153E+02 -0.77513831532E+01  0.15964357655E+02  0.47787266035E+02  0.19999977158E+02 0.  0.
        -12    1    1    2    0    0 -0.39606553153E+02  0.77513831532E+01 -0.15964357655E+02  0.43400733965E+02  0.00000000000E+00 0.  1.
         11    1    3    3    0    0  0.16759832119E+02 -0.25744378981E+01  0.15063327054E+02  0.22680906625E+02  0.51100000000E-03 0. -1.
        -11    1    3    3    0    0  0.63008356048E+01 -0.56716198705E+01  0.11233266049E+01  0.85515884019E+01  0.51100000000E-03 0.  1.
        -12    1    3    3    0    0  0.16545885429E+02  0.49467461550E+00 -0.22229600417E+00  0.16554771007E+02  0.00000000000E+00 0.  1.
</event>
<event>
 7    1  0.1457722E-010  0.4778727E+02  0.7816164E-02  0.1312668E+00
        -11   -1    0    0    0    0  0.00000000000E+00  0.00000000000E+00  0.45593999997E+02  0.45594000000E+02  0.51100000000E-03 0.  1.
         11   -1    0    0    0    0 -0.00000000000E+00 -0.00000000000E+00 -0.45593999997E+02  0.45594000000E+02  0.51100000000E-03 0. -1.
    9900012    2    1    2    0    0  0.35119604070E+02  0.69415986911E+00 -0.25490287393E+02  0.47787271903E+02  0.20000003913E+02 0.  0.
        -12    1    1    2    0    0 -0.35119604070E+02 -0.69415986911E+00  0.25490287393E+02  0.43400728097E+02  0.00000000000E+00 0.  1.
         11    1    3    3    0    0  0.84397821583E+01 -0.16880836609E+01 -0.12552672011E+02  0.15220023791E+02  0.51100000000E-03 0. -1.
        -11    1    3    3    0    0  0.25262307205E+02 -0.19358618441E+01 -0.11202290189E+02  0.27702401198E+02  0.51100000000E-03 0.  1.
        -12    1    3    3    0    0  0.14175147074E+01  0.43181053741E+01 -0.17353251933E+01  0.48648469137E+01  0.00000000000E+00 0.  1.
</event>
<event>
 7    1  0.1457722E-010  0.4778728E+02  0.7816164E-02  0.1312668E+00
        -11   -1    0    0    0    0  0.00000000000E+00  0.00000000000E+00  0.45593999997E+02  0.45594000000E+02  0.51100000000E-03 0. -1.
         11   -1    0    0    0    0 -0.00000000000E+00 -0.00000000000E+00 -0.45593999997E+02  0.45594000000E+02  0.51100000000E-03 0.  1.
    9900012    2    1    2    0    0 -0.23930171603E+02 -0.28750435727E+02  0.22008685859E+02  0.47787275113E+02  0.20000018551E+02 0.  0.
        -12    1    1    2    0    0  0.23930171603E+02  0.28750435727E+02 -0.22008685859E+02  0.43400724887E+02  0.00000000000E+00 0.  1.
         11    1    3    3    0    0 -0.64685569311E+01 -0.93557164459E+01  0.10432582808E+02  0.15434067620E+02  0.51100000000E-03 0. -1.
        -11    1    3    3    0    0  0.26088380523E+00 -0.54494871611E+00  0.58156040887E+01  0.58469035087E+01  0.51100000000E-03 0.  1.
        -12    1    3    3    0    0 -0.17722498477E+02 -0.18849770565E+02  0.57604989622E+01  0.26506303985E+02  0.00000000000E+00 0.  1.
</event>
<event>
 7    1  0.1457722E-010  0.4778727E+02  0.7816164E-02  0.1312668E+00
        -11   -1    0    0    0    0  0.00000000000E+00  0.00000000000E+00  0.45593999997E+02  0.45594000000E+02  0.51100000000E-03 0. -1.
         11   -1    0    0    0    0 -0.00000000000E+00 -0.00000000000E+00 -0.45593999997E+02  0.45594000000E+02  0.51100000000E-03 0.  1.
    9900012    2    1    2    0    0  0.33100750275E+02 -0.28058755263E+02 -0.81841152960E+00  0.47787271744E+02  0.20000003191E+02 0.  0.
        -12    1    1    2    0    0 -0.33100750275E+02  0.28058755263E+02  0.81841152960E+00  0.43400728256E+02  0.00000000000E+00 0.  1.
         11    1    3    3    0    0  0.66020030637E+01 -0.30527126856E+01 -0.25278993761E+01  0.77003749721E+01  0.51100000000E-03 0. -1.
        -11    1    3    3    0    0  0.41422554674E+01 -0.86538834556E+01  0.70145643749E+01  0.11884952371E+02  0.51100000000E-03 0.  1.
        -12    1    3    3    0    0  0.22356491744E+02 -0.16352159122E+02 -0.53050765285E+01  0.28201944401E+02  0.00000000000E+00 0.  1.
</event>
<event>
 7    1  0.1457722E-010  0.4778727E+02  0.7816164E-02  0.1312668E+00
        -11   -1    0    0    0    0  0.00000000000E+00  0.00000000000E+00  0.45593999997E+02  0.45594000000E+02  0.51100000000E-03 0.  1.
         11   -1    0    0    0    0 -0.00000000000E+00 -0.00000000000E+00 -0.45593999997E+02  0.45594000000E+02  0.51100000000E-03 0. -1.
    9900012    2    1    2    0    0  0.40861177298E+02  0.14481862796E+02 -0.20646553176E+01  0.47787274640E+02  0.20000016393E+02 0.  0.
        -12    1    1    2    0    0 -0.40861177298E+02 -0.14481862796E+02  0.20646553176E+01  0.43400725360E+02  0.00000000000E+00 0.  1.
         11    1    3    3    0    0  0.64440983255E+01  0.50154053120E+01 -0.17568131706E+01  0.83526694206E+01  0.51100000000E-03 0. -1.
        -11    1    3    3    0    0  0.14714725262E+02  0.97321969835E+00  0.75733258407E+01  0.16577863574E+02  0.51100000000E-03 0.  1.
        -12    1    3    3    0    0  0.19702353710E+02  0.84932377853E+01 -0.78811679877E+01  0.22856741645E+02  0.00000000000E+00 0.  1.
</event>
<event>
 7    1  0.1457722E-010  0.4778728E+02  0.7816164E-02  0.1312668E+00
        -11   -1    0    0    0    0  0.00000000000E+00  0.00000000000E+00  0.45593999997E+02  0.45594000000E+02  0.51100000000E-03 0.  1.
         11   -1    0    0    0    0 -0.00000000000E+00 -0.00000000000E+00 -0.45593999997E+02  0.45594000000E+02  0.51100000000E-03 0. -1.
    9900012    2    1    2    0    0 -0.41490784992E+02 -0.12686577047E+02  0.10897672703E+01  0.47787284924E+02  0.20000063283E+02 0.  0.
        -12    1    1    2    0    0  0.41490784992E+02  0.12686577047E+02 -0.10897672703E+01  0.43400715076E+02  0.00000000000E+00 0.  1.
         11    1    3    3    0    0 -0.32641445235E+02 -0.72360378610E+01 -0.24893424131E+01  0.33526422667E+02  0.51100000000E-03 0.  1.
        -11    1    3    3    0    0 -0.62166115302E+01 -0.74887244230E+01  0.53169374066E+00  0.97473048016E+01  0.51100000000E-03 0. -1.
        -12    1    3    3    0    0 -0.26327282269E+01  0.20381852369E+01  0.30474159428E+01  0.45135574556E+01  0.00000000000E+00 0.  1.
</event>
<event>
 7    1  0.1457722E-010  0.4778727E+02  0.7816164E-02  0.1312668E+00
        -11   -1    0    0    0    0  0.00000000000E+00  0.00000000000E+00  0.45593999997E+02  0.45594000000E+02  0.51100000000E-03 0.  1.
         11   -1    0    0    0    0 -0.00000000000E+00 -0.00000000000E+00 -0.45593999997E+02  0.45594000000E+02  0.51100000000E-03 0. -1.
    9900012    2    1    2    0    0 -0.61330125305E+01  0.21598763210E+02 -0.37141663419E+02  0.47787267558E+02  0.19999984106E+02 0.  0.
        -12    1    1    2    0    0  0.61330125305E+01 -0.21598763210E+02  0.37141663419E+02  0.43400732442E+02  0.00000000000E+00 0.  1.
         11    1    3    3    0    0  0.20127971531E+01  0.12587469135E+02 -0.21273511607E+02  0.24800363465E+02  0.51100000000E-03 0. -1.
        -11    1    3    3    0    0 -0.38439353032E+00  0.36810389147E+01 -0.12420290080E+02  0.12959992740E+02  0.51100000000E-03 0.  1.
        -12    1    3    3    0    0 -0.77614161532E+01  0.53302551604E+01 -0.34478617315E+01  0.10026911354E+02  0.00000000000E+00 0.  1.
</event>
<event>
 7    1  0.1457722E-010  0.4778727E+02  0.7816164E-02  0.1312668E+00
        -11   -1    0    0    0    0  0.00000000000E+00  0.00000000000E+00  0.45593999997E+02  0.45594000000E+02  0.51100000000E-03 0.  1.
         11   -1    0    0    0    0 -0.00000000000E+00 -0.00000000000E+00 -0.45593999997E+02  0.45594000000E+02  0.51100000000E-03 0. -1.
    9900012    2    1    2    0    0  0.21377890105E+02 -0.37683764329E+01 -0.37582022626E+02  0.47787271078E+02  0.20000000152E+02 0.  0.
        -12    1    1    2    0    0 -0.21377890105E+02  0.37683764329E+01  0.37582022626E+02  0.43400728922E+02  0.00000000000E+00 0.  1.
         11    1    3    3    0    0  0.92362005785E+01 -0.64348303670E+01 -0.25327564006E+02  0.27716420074E+02  0.51100000000E-03 0. -1.
        -11    1    3    3    0    0  0.84827585389E+01 -0.29923545786E+01 -0.55746047310E+01  0.10582419219E+02  0.51100000000E-03 0.  1.
        -12    1    3    3    0    0  0.36589309876E+01  0.56588085127E+01 -0.66798538896E+01  0.94884317851E+01  0.00000000000E+00 0.  1.
</event>
<event>
 7    1  0.1457722E-010  0.4778727E+02  0.7816164E-02  0.1312668E+00
        -11   -1    0    0    0    0  0.00000000000E+00  0.00000000000E+00  0.45593999997E+02  0.45594000000E+02  0.51100000000E-03 0. -1.
         11   -1    0    0    0    0 -0.00000000000E+00 -0.00000000000E+00 -0.45593999997E+02  0.45594000000E+02  0.51100000000E-03 0.  1.
    9900012    2    1    2    0    0  0.15003246356E+02  0.51194567046E+01  0.40401942124E+02  0.47787272292E+02  0.20000005689E+02 0.  0.
        -12    1    1    2    0    0 -0.15003246356E+02 -0.51194567046E+01 -0.40401942124E+02  0.43400727708E+02  0.00000000000E+00 0.  1.
         11    1    3    3    0    0  0.17455664460E+01  0.83148599697E+01  0.21768981900E+02  0.23368193592E+02  0.51100000000E-03 0. -1.
        -11    1    3    3    0    0  0.32767798514E+01 -0.37387690454E+01  0.28309023552E+01  0.57209866784E+01  0.51100000000E-03 0.  1.
         12    1    3    3    0    0  0.99809000589E+01  0.54336578028E+00  0.15802057869E+02  0.18698092022E+02  0.00000000000E+00 0. -1.
</event>
<event>
 7    1  0.1457722E-010  0.4778727E+02  0.7816164E-02  0.1312668E+00
        -11   -1    0    0    0    0  0.00000000000E+00  0.00000000000E+00  0.45593999997E+02  0.45594000000E+02  0.51100000000E-03 0.  1.
         11   -1    0    0    0    0 -0.00000000000E+00 -0.00000000000E+00 -0.45593999997E+02  0.45594000000E+02  0.51100000000E-03 0. -1.
    9900012    2    1    2    0    0 -0.19226383038E+02  0.15301142260E+02 -0.35774915167E+02  0.47787270578E+02  0.19999997874E+02 0.  0.
        -12    1    1    2    0    0  0.19226383038E+02 -0.15301142260E+02  0.35774915167E+02  0.43400729422E+02  0.00000000000E+00 0.  1.
         11    1    3    3    0    0  0.11363111561E+01  0.33653932546E+00 -0.18806294286E+01  0.22228875522E+01  0.51100000000E-03 0. -1.
        -11    1    3    3    0    0  0.13736880881E+01  0.15044607387E+01  0.10294599807E+01  0.22825882657E+01  0.51100000000E-03 0.  1.
         12    1    3    3    0    0 -0.21736382282E+02  0.13460142195E+02 -0.34923745719E+02  0.43281794760E+02  0.00000000000E+00 0. -1.
</event>
<event>
 7    1  0.1457722E-010  0.4778726E+02  0.7816164E-02  0.1312668E+00
        -11   -1    0    0    0    0  0.00000000000E+00  0.00000000000E+00  0.45593999997E+02  0.45594000000E+02  0.51100000000E-03 0. -1.
         11   -1    0    0    0    0 -0.00000000000E+00 -0.00000000000E+00 -0.45593999997E+02  0.45594000000E+02  0.51100000000E-03 0.  1.
    9900012    2    1    2    0    0  0.11203548101E+02 -0.41746471998E+02  0.39162466899E+01  0.47787258042E+02  0.19999940718E+02 0.  0.
        -12    1    1    2    0    0 -0.11203548101E+02  0.41746471998E+02 -0.39162466899E+01  0.43400741958E+02  0.00000000000E+00 0.  1.
         11    1    3    3    0    0  0.51911318894E+01 -0.20709637987E+02  0.47785933965E+01  0.21878571959E+02  0.51100000000E-03 0.  1.
        -11    1    3    3    0    0  0.24363404044E+01 -0.66912028723E+01 -0.69215926403E+01  0.99305788040E+01  0.51100000000E-03 0. -1.
         12    1    3    3    0    0  0.35760758072E+01 -0.14345631138E+02  0.60592459336E+01  0.15978107279E+02  0.00000000000E+00 0. -1.
</event>
<event>
 7    1  0.1604049E-010  0.4778728E+02  0.7816164E-02  0.1312668E+00
        -11   -1    0    0    0    0  0.00000000000E+00  0.00000000000E+00  0.45593999997E+02  0.45594000000E+02  0.51100000000E-03 0. -1.
         11   -1    0    0    0    0 -0.00000000000E+00 -0.00000000000E+00 -0.45593999997E+02  0.45594000000E+02  0.51100000000E-03 0.  1.
    9900012    2    1    2    0    0 -0.11748137398E+02  0.17608448069E+02  0.37888609759E+02  0.47787275061E+02  0.20000018314E+02 0.  0.
        -12    1    1    2    0    0  0.11748137398E+02 -0.17608448069E+02 -0.37888609759E+02  0.43400724939E+02  0.00000000000E+00 0.  1.
         11    1    3    3    0    0 -0.24259382197E+01  0.14277036068E+02  0.10062236306E+02  0.17634271600E+02  0.51100000000E-03 0. -1.
        -11    1    3    3    0    0 -0.15666925417E+01 -0.16424728647E+01  0.38778655844E+01  0.44933377776E+01  0.51100000000E-03 0.  1.
         12    1    3    3    0    0 -0.77555066363E+01  0.49738848659E+01  0.23948507868E+02  0.25659665683E+02  0.00000000000E+00 0. -1.
</event>
<event>
 7    1  0.1457722E-010  0.4778727E+02  0.7816164E-02  0.1312668E+00
        -11   -1    0    0    0    0  0.00000000000E+00  0.00000000000E+00  0.45593999997E+02  0.45594000000E+02  0.51100000000E-03 0.  1.
         11   -1    0    0    0    0 -0.00000000000E+00 -0.00000000000E+00 -0.45593999997E+02  0.45594000000E+02  0.51100000000E-03 0. -1.
    9900012    2    1    2    0    0  0.33542540733E+01 -0.27592351315E+01 -0.43182852057E+02  0.47787272924E+02  0.20000008571E+02 0.  0.
        -12    1    1    2    0    0 -0.33542540733E+01  0.27592351315E+01  0.43182852057E+02  0.43400727076E+02  0.00000000000E+00 0.  1.
         11    1    3    3    0    0 -0.23629470485E+01 -0.63725116314E+01 -0.37705385854E+02  0.38313033629E+02  0.51100000000E-03 0. -1.
        -11    1    3    3    0    0  0.32151726721E+01  0.23582957416E+01 -0.53497013343E+01  0.66721959462E+01  0.51100000000E-03 0.  1.
        -12    1    3    3    0    0  0.25020284497E+01  0.12549807583E+01 -0.12776486943E+00  0.28020433488E+01  0.00000000000E+00 0.  1.
</event>
<event>
 7    1  0.1457722E-010  0.4778727E+02  0.7816164E-02  0.1312668E+00
        -11   -1    0    0    0    0  0.00000000000E+00  0.00000000000E+00  0.45593999997E+02  0.45594000000E+02  0.51100000000E-03 0.  1.
         11   -1    0    0    0    0 -0.00000000000E+00 -0.00000000000E+00 -0.45593999997E+02  0.45594000000E+02  0.51100000000E-03 0. -1.
    9900012    2    1    2    0    0 -0.16708708734E+02  0.15137483009E+02 -0.37085025988E+02  0.47787268532E+02  0.19999988545E+02 0.  0.
        -12    1    1    2    0    0  0.16708708734E+02 -0.15137483009E+02  0.37085025988E+02  0.43400731468E+02  0.00000000000E+00 0.  1.
         11    1    3    3    0    0 -0.94010149479E+01 -0.51392209132E+00 -0.15176305125E+02  0.17859547460E+02  0.51100000000E-03 0. -1.
        -11    1    3    3    0    0  0.26303709878E+01  0.27385328264E+01 -0.23280710398E+01  0.44540238664E+01  0.51100000000E-03 0.  1.
         12    1    3    3    0    0 -0.99380647737E+01  0.12912872274E+02 -0.19580649823E+02  0.25473697205E+02  0.00000000000E+00 0. -1.
</event>
<event>
 7    1  0.1457722E-010  0.4778727E+02  0.7816164E-02  0.1312668E+00
        -11   -1    0    0    0    0  0.00000000000E+00  0.00000000000E+00  0.45593999997E+02  0.45594000000E+02  0.51100000000E-03 0.  1.
         11   -1    0    0    0    0 -0.00000000000E+00 -0.00000000000E+00 -0.45593999997E+02  0.45594000000E+02  0.51100000000E-03 0. -1.
    9900012    2    1    2    0    0 -0.33455845221E+02 -0.23642495926E+02 -0.14330467015E+02  0.47787268694E+02  0.19999989281E+02 0.  0.
        -12    1    1    2    0    0  0.33455845221E+02  0.23642495926E+02  0.14330467015E+02  0.43400731306E+02  0.00000000000E+00 0.  1.
         11    1    3    3    0    0 -0.34456418770E+01 -0.77619328966E+01  0.49367674311E-01  0.84924959620E+01  0.51100000000E-03 0. -1.
        -11    1    3    3    0    0 -0.15428553031E+02 -0.29863223182E+01 -0.11449859640E+01  0.15756565702E+02  0.51100000000E-03 0.  1.
         12    1    3    3    0    0 -0.14581650313E+02 -0.12894240711E+02 -0.13234848725E+02  0.23538207029E+02  0.00000000000E+00 0. -1.
</event>
<event>
 7    1  0.1457722E-010  0.4778727E+02  0.7816164E-02  0.1312668E+00
        -11   -1    0    0    0    0  0.00000000000E+00  0.00000000000E+00  0.45593999997E+02  0.45594000000E+02  0.51100000000E-03 0. -1.
         11   -1    0    0    0    0 -0.00000000000E+00 -0.00000000000E+00 -0.45593999997E+02  0.45594000000E+02  0.51100000000E-03 0.  1.
    9900012    2    1    2    0    0 -0.12501875581E+02  0.38767898999E+02  0.14979198014E+02  0.47787271216E+02  0.20000000783E+02 0.  0.
        -12    1    1    2    0    0  0.12501875581E+02 -0.38767898999E+02 -0.14979198014E+02  0.43400728784E+02  0.00000000000E+00 0.  1.
         11    1    3    3    0    0 -0.78117642163E+01  0.16296056154E+02  0.99733391267E+01  0.20641041639E+02  0.51100000000E-03 0. -1.
        -11    1    3    3    0    0 -0.13960928186E+01  0.23207850007E+02  0.37789517500E+01  0.23554911456E+02  0.51100000000E-03 0.  1.
         12    1    3    3    0    0 -0.32940185459E+01 -0.73600716207E+00  0.12269071377E+01  0.35913181212E+01  0.00000000000E+00 0. -1.
</event>
<event>
 7    1  0.1457722E-010  0.4778727E+02  0.7816164E-02  0.1312668E+00
        -11   -1    0    0    0    0  0.00000000000E+00  0.00000000000E+00  0.45593999997E+02  0.45594000000E+02  0.51100000000E-03 0.  1.
         11   -1    0    0    0    0 -0.00000000000E+00 -0.00000000000E+00 -0.45593999997E+02  0.45594000000E+02  0.51100000000E-03 0. -1.
    9900012    2    1    2    0    0  0.21430643673E+01  0.34486009597E+02 -0.26263011443E+02  0.47787270134E+02  0.19999995851E+02 0.  0.
        -12    1    1    2    0    0 -0.21430643673E+01 -0.34486009597E+02  0.26263011443E+02  0.43400729866E+02  0.00000000000E+00 0.  1.
         11    1    3    3    0    0  0.36118171152E+01  0.23472754908E+02 -0.97784076102E+01  0.25683315625E+02  0.51100000000E-03 0. -1.
        -11    1    3    3    0    0  0.32423851153E+01  0.75414602808E+00 -0.49409085588E+01  0.59577155953E+01  0.51100000000E-03 0.  1.
        -12    1    3    3    0    0 -0.47111378632E+01  0.10259108661E+02 -0.11543695274E+02  0.16146238914E+02  0.00000000000E+00 0.  1.
</event>
<event>
 7    1  0.1457722E-010  0.4778728E+02  0.7816164E-02  0.1312668E+00
        -11   -1    0    0    0    0  0.00000000000E+00  0.00000000000E+00  0.45593999997E+02  0.45594000000E+02  0.51100000000E-03 0.  1.
         11   -1    0    0    0    0 -0.00000000000E+00 -0.00000000000E+00 -0.45593999997E+02  0.45594000000E+02  0.51100000000E-03 0. -1.
    9900012    2    1    2    0    0 -0.36050007575E+02 -0.12361950254E+02 -0.20765404443E+02  0.47787275560E+02  0.20000020588E+02 0.  0.
        -12    1    1    2    0    0  0.36050007575E+02  0.12361950254E+02  0.20765404443E+02  0.43400724440E+02  0.00000000000E+00 0.  1.
         11    1    3    3    0    0 -0.15032422476E+02  0.28603556433E+01 -0.57701787944E+01  0.16353908508E+02  0.51100000000E-03 0. -1.
        -11    1    3    3    0    0 -0.21904331570E+01 -0.37778146590E+01 -0.64764906583E+01  0.78111978929E+01  0.51100000000E-03 0.  1.
        -12    1    3    3    0    0 -0.18827151942E+02 -0.11444491238E+02 -0.85187349903E+01  0.23622169159E+02  0.00000000000E+00 0.  1.
</event>
<event>
 7    1  0.1457722E-010  0.4778727E+02  0.7816164E-02  0.1312668E+00
        -11   -1    0    0    0    0  0.00000000000E+00  0.00000000000E+00  0.45593999997E+02  0.45594000000E+02  0.51100000000E-03 0. -1.
         11   -1    0    0    0    0 -0.00000000000E+00 -0.00000000000E+00 -0.45593999997E+02  0.45594000000E+02  0.51100000000E-03 0.  1.
    9900012    2    1    2    0    0 -0.27206098772E+02  0.29946702595E+02  0.15704981534E+02  0.47787271300E+02  0.20000001166E+02 0.  0.
        -12    1    1    2    0    0  0.27206098772E+02 -0.29946702595E+02 -0.15704981534E+02  0.43400728700E+02  0.00000000000E+00 0.  1.
         11    1    3    3    0    0 -0.66674600543E+01  0.10218224079E+01  0.50106630156E+01  0.84027310278E+01  0.51100000000E-03 0. -1.
        -11    1    3    3    0    0 -0.25160964032E+01  0.13002425772E+02  0.72271392150E+01  0.15087258153E+02  0.51100000000E-03 0.  1.
        -12    1    3    3    0    0 -0.18022542315E+02  0.15922454415E+02  0.34671793030E+01  0.24297282120E+02  0.00000000000E+00 0.  1.
</event>
<event>
 7    1  0.1457722E-010  0.4778727E+02  0.7816164E-02  0.1312668E+00
        -11   -1    0    0    0    0  0.00000000000E+00  0.00000000000E+00  0.45593999997E+02  0.45594000000E+02  0.51100000000E-03 0. -1.
         11   -1    0    0    0    0 -0.00000000000E+00 -0.00000000000E+00 -0.45593999997E+02  0.45594000000E+02  0.51100000000E-03 0.  1.
    9900012    2    1    2    0    0 -0.32387985543E+02 -0.13376466539E+02  0.25606871988E+02  0.47787270080E+02  0.19999995601E+02 0.  0.
        -12    1    1    2    0    0  0.32387985543E+02  0.13376466539E+02 -0.25606871988E+02  0.43400729920E+02  0.00000000000E+00 0.  1.
         11    1    3    3    0    0 -0.20129924174E+02  0.19551491084E+00  0.14105040228E+02  0.24580566174E+02  0.51100000000E-03 0. -1.
        -11    1    3    3    0    0 -0.16777412500E+01 -0.35894193083E+01  0.68879139436E+01  0.79462006914E+01  0.51100000000E-03 0.  1.
        -12    1    3    3    0    0 -0.10580320119E+02 -0.99825621412E+01  0.46139178160E+01  0.15260503214E+02  0.00000000000E+00 0.  1.
</event>
<event>
 7    1  0.1457722E-010  0.4778727E+02  0.7816164E-02  0.1312668E+00
        -11   -1    0    0    0    0  0.00000000000E+00  0.00000000000E+00  0.45593999997E+02  0.45594000000E+02  0.51100000000E-03 0.  1.
         11   -1    0    0    0    0 -0.00000000000E+00 -0.00000000000E+00 -0.45593999997E+02  0.45594000000E+02  0.51100000000E-03 0. -1.
    9900012    2    1    2    0    0  0.46516452541E+01  0.19897500733E+02 -0.38289356477E+02  0.47787272375E+02  0.20000006066E+02 0.  0.
        -12    1    1    2    0    0 -0.46516452541E+01 -0.19897500733E+02  0.38289356477E+02  0.43400727625E+02  0.00000000000E+00 0.  1.
         11    1    3    3    0    0 -0.67941889214E+01  0.24459004707E+01 -0.12433952476E+02  0.14378685846E+02  0.51100000000E-03 0.  1.
        -11    1    3    3    0    0  0.49471313637E+01  0.46049126359E+01 -0.84622994101E+01  0.10830043429E+02  0.51100000000E-03 0. -1.
         12    1    3    3    0    0  0.64987028118E+01  0.12846687626E+02 -0.17393104590E+02  0.22578543099E+02  0.00000000000E+00 0. -1.
</event>
<event>
 7    1  0.1457722E-010  0.4778726E+02  0.7816164E-02  0.1312668E+00
        -11   -1    0    0    0    0  0.00000000000E+00  0.00000000000E+00  0.45593999997E+02  0.45594000000E+02  0.51100000000E-03 0.  1.
         11   -1    0    0    0    0 -0.00000000000E+00 -0.00000000000E+00 -0.45593999997E+02  0.45594000000E+02  0.51100000000E-03 0. -1.
    9900012    2    1    2    0    0 -0.17966913862E+02  0.26397893235E+02 -0.29393286049E+02  0.47787262383E+02  0.19999960507E+02 0.  0.
        -12    1    1    2    0    0  0.17966913862E+02 -0.26397893235E+02  0.29393286049E+02  0.43400737617E+02  0.00000000000E+00 0.  1.
         11    1    3    3    0    0 -0.62025819652E+01  0.24401022241E+01  0.23951891202E+00  0.66695945505E+01  0.51100000000E-03 0. -1.
        -11    1    3    3    0    0 -0.38626458946E+01  0.14796494656E+02 -0.10754114535E+02  0.18695113455E+02  0.51100000000E-03 0.  1.
         12    1    3    3    0    0 -0.79016860018E+01  0.91612963553E+01 -0.18878690426E+02  0.22422554377E+02  0.00000000000E+00 0. -1.
</event>
<event>
 7    1  0.1457722E-010  0.4778728E+02  0.7816164E-02  0.1312668E+00
        -11   -1    0    0    0    0  0.00000000000E+00  0.00000000000E+00  0.45593999997E+02  0.45594000000E+02  0.51100000000E-03 0.  1.
         11   -1    0    0    0    0 -0.00000000000E+00 -0.00000000000E+00 -0.45593999997E+02  0.45594000000E+02  0.51100000000E-03 0. -1.
    9900012    2    1    2    0    0  0.20041432832E+02  0.28738397732E+02  0.25613829410E+02  0.47787276605E+02  0.20000025354E+02 0.  0.
        -12    1    1    2    0    0 -0.20041432832E+02 -0.28738397732E+02 -0.25613829410E+02  0.43400723395E+02  0.00000000000E+00 0.  1.
         11    1    3    3    0    0  0.12791717766E+02  0.13009209690E+02  0.11320805966E+02  0.21471567902E+02  0.51100000000E-03 0. -1.
        -11    1    3    3    0    0  0.10570519736E+02  0.10971756626E+02  0.13690330831E+02  0.20482687555E+02  0.51100000000E-03 0.  1.
         12    1    3    3    0    0 -0.33208046702E+01  0.47574314155E+01  0.60269261241E+00  0.58330211482E+01  0.00000000000E+00 0. -1.
</event>
<event>
 7    1  0.1457722E-010  0.4778729E+02  0.7816164E-02  0.1312668E+00
        -11   -1    0    0    0    0  0.00000000000E+00  0.00000000000E+00  0.45593999997E+02  0.45594000000E+02  0.51100000000E-03 0.  1.
         11   -1    0    0    0    0 -0.00000000000E+00 -0.00000000000E+00 -0.45593999997E+02  0.45594000000E+02  0.51100000000E-03 0. -1.
    9900012    2    1    2    0    0 -0.21851788938E+01  0.16281498850E+02 -0.40171626157E+02  0.47787288489E+02  0.20000079536E+02 0.  0.
        -12    1    1    2    0    0  0.21851788938E+01 -0.16281498850E+02  0.40171626157E+02  0.43400711511E+02  0.00000000000E+00 0.  1.
         11    1    3    3    0    0 -0.88889415596E+01  0.16451678702E+02 -0.30888912858E+02  0.36108114766E+02  0.51100000000E-03 0. -1.
        -11    1    3    3    0    0  0.21538723323E+01  0.66563067716E+00 -0.18127686969E+01  0.28928119247E+01  0.51100000000E-03 0.  1.
         12    1    3    3    0    0  0.45498903334E+01 -0.83581052916E+00 -0.74699446020E+01  0.87863617980E+01  0.00000000000E+00 0. -1.
</event>
<event>
 7    1  0.1457722E-010  0.4778727E+02  0.7816164E-02  0.1312668E+00
        -11   -1    0    0    0    0  0.00000000000E+00  0.00000000000E+00  0.45593999997E+02  0.45594000000E+02  0.51100000000E-03 0.  1.
         11   -1    0    0    0    0 -0.00000000000E+00 -0.00000000000E+00 -0.45593999997E+02  0.45594000000E+02  0.51100000000E-03 0. -1.
    9900012    2    1    2    0    0 -0.42355267864E+02  0.94654338949E+01 -0.24473796725E+00  0.47787273608E+02  0.20000011690E+02 0.  0.
        -12    1    1    2    0    0  0.42355267864E+02 -0.94654338949E+01  0.24473796725E+00  0.43400726392E+02  0.00000000000E+00 0.  1.
         11    1    3    3    0    0  0.13999817148E-01 -0.34583327891E+00  0.33474026615E+01  0.33652490979E+01  0.51100000000E-03 0.  1.
        -11    1    3    3    0    0 -0.19741355121E+02  0.33454023755E+00 -0.15504717574E+01  0.19804973671E+02  0.51100000000E-03 0. -1.
        -12    1    3    3    0    0 -0.22627912560E+02  0.94767269363E+01 -0.20416688713E+01  0.24617050839E+02  0.00000000000E+00 0.  1.
</event>
<event>
 7    1  0.1457722E-010  0.4778727E+02  0.7816164E-02  0.1312668E+00
        -11   -1    0    0    0    0  0.00000000000E+00  0.00000000000E+00  0.45593999997E+02  0.45594000000E+02  0.51100000000E-03 0.  1.
         11   -1    0    0    0    0 -0.00000000000E+00 -0.00000000000E+00 -0.45593999997E+02  0.45594000000E+02  0.51100000000E-03 0. -1.
    9900012    2    1    2    0    0 -0.76692310430E+01  0.81845742461E+01 -0.41926353251E+02  0.47787268932E+02  0.19999990367E+02 0.  0.
        -12    1    1    2    0    0  0.76692310430E+01 -0.81845742461E+01  0.41926353251E+02  0.43400731068E+02  0.00000000000E+00 0.  1.
         11    1    3    3    0    0  0.14343692517E+01  0.20885096195E+01 -0.13100785203E+02  0.13343532545E+02  0.51100000000E-03 0. -1.
        -11    1    3    3    0    0 -0.11973094580E+00 -0.22324264814E+01 -0.17869297890E+02  0.18008605466E+02  0.51100000000E-03 0.  1.
        -12    1    3    3    0    0 -0.89838693489E+01  0.83284911080E+01 -0.10956270158E+02  0.16435130921E+02  0.00000000000E+00 0.  1.
</event>
<event>
 7    1  0.1457722E-010  0.4778727E+02  0.7816164E-02  0.1312668E+00
        -11   -1    0    0    0    0  0.00000000000E+00  0.00000000000E+00  0.45593999997E+02  0.45594000000E+02  0.51100000000E-03 0.  1.
         11   -1    0    0    0    0 -0.00000000000E+00 -0.00000000000E+00 -0.45593999997E+02  0.45594000000E+02  0.51100000000E-03 0. -1.
    9900012    2    1    2    0    0 -0.13047578037E+02  0.40146509051E+00 -0.41391094934E+02  0.47787271818E+02  0.20000003528E+02 0.  0.
        -12    1    1    2    0    0  0.13047578037E+02 -0.40146509051E+00  0.41391094934E+02  0.43400728182E+02  0.00000000000E+00 0.  1.
         11    1    3    3    0    0 -0.24447182169E+01 -0.34644284254E+01 -0.90709704696E+01  0.10013062319E+02  0.51100000000E-03 0. -1.
        -11    1    3    3    0    0 -0.11185492575E+02 -0.37927236137E+01 -0.18109020006E+02  0.21620282200E+02  0.51100000000E-03 0.  1.
        -12    1    3    3    0    0  0.58263275538E+00  0.76586171297E+01 -0.14211104459E+02  0.16153927300E+02  0.00000000000E+00 0.  1.
</event>
<event>
 7    1  0.1457722E-010  0.4778727E+02  0.7816164E-02  0.1312668E+00
        -11   -1    0    0    0    0  0.00000000000E+00  0.00000000000E+00  0.45593999997E+02  0.45594000000E+02  0.51100000000E-03 0.  1.
         11   -1    0    0    0    0 -0.00000000000E+00 -0.00000000000E+00 -0.45593999997E+02  0.45594000000E+02  0.51100000000E-03 0. -1.
    9900012    2    1    2    0    0  0.47646739756E+01  0.54603936767E+01 -0.42791415369E+02  0.47787271360E+02  0.20000001440E+02 0.  0.
        -12    1    1    2    0    0 -0.47646739756E+01 -0.54603936767E+01  0.42791415369E+02  0.43400728640E+02  0.00000000000E+00 0.  1.
         11    1    3    3    0    0  0.44347412661E+01  0.33678978494E+01 -0.10028346117E+02  0.11470718902E+02  0.51100000000E-03 0. -1.
        -11    1    3    3    0    0 -0.53817637260E+01  0.25743878730E+01 -0.28642444841E+02  0.29257144434E+02  0.51100000000E-03 0.  1.
         12    1    3    3    0    0  0.57116964355E+01 -0.48189204564E+00 -0.41206244111E+01  0.70594080243E+01  0.00000000000E+00 0. -1.
</event>
<event>
 7    1  0.1457722E-010  0.4778727E+02  0.7816164E-02  0.1312668E+00
        -11   -1    0    0    0    0  0.00000000000E+00  0.00000000000E+00  0.45593999997E+02  0.45594000000E+02  0.51100000000E-03 0.  1.
         11   -1    0    0    0    0 -0.00000000000E+00 -0.00000000000E+00 -0.45593999997E+02  0.45594000000E+02  0.51100000000E-03 0. -1.
    9900012    2    1    2    0    0  0.31315125279E+02  0.18597154706E+02 -0.23603648220E+02  0.47787269088E+02  0.19999991080E+02 0.  0.
        -12    1    1    2    0    0 -0.31315125279E+02 -0.18597154706E+02  0.23603648220E+02  0.43400730912E+02  0.00000000000E+00 0.  1.
         11    1    3    3    0    0  0.19424407079E+02  0.11178412842E+02 -0.12457170545E+02  0.25640702063E+02  0.51100000000E-03 0.  1.
        -11    1    3    3    0    0  0.39154495565E+01  0.94037668828E+01 -0.91418323866E+01  0.13687025844E+02  0.51100000000E-03 0. -1.
        -12    1    3    3    0    0  0.79752686438E+01 -0.19850250187E+01 -0.20046452886E+01  0.84595411814E+01  0.00000000000E+00 0.  1.
</event>
<event>
 7    1  0.1457722E-010  0.4778727E+02  0.7816164E-02  0.1312668E+00
        -11   -1    0    0    0    0  0.00000000000E+00  0.00000000000E+00  0.45593999997E+02  0.45594000000E+02  0.51100000000E-03 0.  1.
         11   -1    0    0    0    0 -0.00000000000E+00 -0.00000000000E+00 -0.45593999997E+02  0.45594000000E+02  0.51100000000E-03 0. -1.
    9900012    2    1    2    0    0  0.50370919280E+01 -0.93685836805E+01 -0.42077076038E+02  0.47787274394E+02  0.20000015271E+02 0.  0.
        -12    1    1    2    0    0 -0.50370919280E+01  0.93685836805E+01  0.42077076038E+02  0.43400725606E+02  0.00000000000E+00 0.  1.
         11    1    3    3    0    0 -0.29050423492E+01  0.15206305009E+00 -0.17686465757E+02  0.17924102919E+02  0.51100000000E-03 0. -1.
        -11    1    3    3    0    0  0.49993985779E+01  0.16114994237E+01 -0.46771184229E+01  0.70332320832E+01  0.51100000000E-03 0.  1.
        -12    1    3    3    0    0  0.29427356993E+01 -0.11132146154E+02 -0.19713491858E+02  0.22829939391E+02  0.00000000000E+00 0.  1.
</event>
<event>
 7    1  0.1457722E-010  0.4778727E+02  0.7816164E-02  0.1312668E+00
        -11   -1    0    0    0    0  0.00000000000E+00  0.00000000000E+00  0.45593999997E+02  0.45594000000E+02  0.51100000000E-03 0.  1.
         11   -1    0    0    0    0 -0.00000000000E+00 -0.00000000000E+00 -0.45593999997E+02  0.45594000000E+02  0.51100000000E-03 0. -1.
    9900012    2    1    2    0    0 -0.26805933511E+02  0.65563800868E+01 -0.33497446172E+02  0.47787273148E+02  0.20000009589E+02 0.  0.
        -12    1    1    2    0    0  0.26805933511E+02 -0.65563800868E+01  0.33497446172E+02  0.43400726852E+02  0.00000000000E+00 0.  1.
         11    1    3    3    0    0 -0.14397135265E+01  0.29416290874E+01 -0.11104426044E+02  0.11577315524E+02  0.51100000000E-03 0. -1.
        -11    1    3    3    0    0 -0.11999697682E+02  0.60981026556E+01 -0.55372447499E+01  0.14554747684E+02  0.51100000000E-03 0.  1.
         12    1    3    3    0    0 -0.13366522303E+02 -0.24833516562E+01 -0.16855775379E+02  0.21655209940E+02  0.00000000000E+00 0. -1.
</event>
<event>
 7    1  0.1457722E-010  0.4778727E+02  0.7816164E-02  0.1312668E+00
        -11   -1    0    0    0    0  0.00000000000E+00  0.00000000000E+00  0.45593999997E+02  0.45594000000E+02  0.51100000000E-03 0.  1.
         11   -1    0    0    0    0 -0.00000000000E+00 -0.00000000000E+00 -0.45593999997E+02  0.45594000000E+02  0.51100000000E-03 0. -1.
    9900012    2    1    2    0    0  0.23060830676E+01  0.19127373611E+02 -0.38890215151E+02  0.47787271033E+02  0.19999999947E+02 0.  0.
        -12    1    1    2    0    0 -0.23060830676E+01 -0.19127373611E+02  0.38890215151E+02  0.43400728967E+02  0.00000000000E+00 0.  1.
         11    1    3    3    0    0 -0.56501208577E+01  0.55624445450E+01 -0.15131309274E+02  0.17082774237E+02  0.51100000000E-03 0. -1.
        -11    1    3    3    0    0 -0.14847465190E+01 -0.10547696326E+01 -0.10786546325E+01  0.21167208793E+01  0.51100000000E-03 0.  1.
         12    1    3    3    0    0  0.94409504443E+01  0.14619698699E+02 -0.22680251244E+02  0.28587775916E+02  0.00000000000E+00 0. -1.
</event>
<event>
 7    1  0.1457722E-010  0.4778727E+02  0.7816164E-02  0.1312668E+00
        -11   -1    0    0    0    0  0.00000000000E+00  0.00000000000E+00  0.45593999997E+02  0.45594000000E+02  0.51100000000E-03 0. -1.
         11   -1    0    0    0    0 -0.00000000000E+00 -0.00000000000E+00 -0.45593999997E+02  0.45594000000E+02  0.51100000000E-03 0.  1.
    9900012    2    1    2    0    0  0.17644490053E+02 -0.12734700648E+02  0.37551598079E+02  0.47787272493E+02  0.20000006605E+02 0.  0.
        -12    1    1    2    0    0 -0.17644490053E+02  0.12734700648E+02 -0.37551598079E+02  0.43400727507E+02  0.00000000000E+00 0.  1.
         11    1    3    3    0    0  0.79018755999E+01 -0.16028428707E+02  0.19316021380E+02  0.26314612804E+02  0.51100000000E-03 0. -1.
        -11    1    3    3    0    0  0.49805571098E+01  0.12579804596E+01  0.13540926514E+02  0.14482581092E+02  0.51100000000E-03 0.  1.
         12    1    3    3    0    0  0.47620573432E+01  0.20357475998E+01  0.46946501847E+01  0.69900785966E+01  0.00000000000E+00 0. -1.
</event>
<event>
 7    1  0.1457722E-010  0.4778728E+02  0.7816164E-02  0.1312668E+00
        -11   -1    0    0    0    0  0.00000000000E+00  0.00000000000E+00  0.45593999997E+02  0.45594000000E+02  0.51100000000E-03 0.  1.
         11   -1    0    0    0    0 -0.00000000000E+00 -0.00000000000E+00 -0.45593999997E+02  0.45594000000E+02  0.51100000000E-03 0. -1.
    9900012    2    1    2    0    0  0.60913612716E+01  0.38801258742E+02 -0.18465658206E+02  0.47787275408E+02  0.20000019897E+02 0.  0.
        -12    1    1    2    0    0 -0.60913612716E+01 -0.38801258742E+02  0.18465658206E+02  0.43400724592E+02  0.00000000000E+00 0.  1.
         11    1    3    3    0    0  0.38602183178E+01  0.10655380402E+01 -0.26179687878E+01  0.47843931288E+01  0.51100000000E-03 0. -1.
        -11    1    3    3    0    0  0.49584273050E+01  0.28427790951E+02 -0.66011880085E+01  0.29602381375E+02  0.51100000000E-03 0.  1.
         12    1    3    3    0    0 -0.27272843512E+01  0.93079297504E+01 -0.92465014095E+01  0.13400500904E+02  0.00000000000E+00 0. -1.
</event>
<event>
 7    1  0.1457722E-010  0.4778727E+02  0.7816164E-02  0.1312668E+00
        -11   -1    0    0    0    0  0.00000000000E+00  0.00000000000E+00  0.45593999997E+02  0.45594000000E+02  0.51100000000E-03 0.  1.
         11   -1    0    0    0    0 -0.00000000000E+00 -0.00000000000E+00 -0.45593999997E+02  0.45594000000E+02  0.51100000000E-03 0. -1.
    9900012    2    1    2    0    0  0.25894010027E+02 -0.30741519254E+02 -0.16373224643E+02  0.47787271359E+02  0.20000001436E+02 0.  0.
        -12    1    1    2    0    0 -0.25894010027E+02  0.30741519254E+02  0.16373224643E+02  0.43400728641E+02  0.00000000000E+00 0.  1.
         11    1    3    3    0    0  0.38585241321E+01 -0.51314394266E+01 -0.20476196742E+01  0.67388890523E+01  0.51100000000E-03 0. -1.
        -11    1    3    3    0    0  0.10319557590E+02 -0.21933845253E+02 -0.15406262959E+02  0.28721764832E+02  0.51100000000E-03 0.  1.
        -12    1    3    3    0    0  0.11715928305E+02 -0.36762345743E+01  0.10806579906E+01  0.12326617475E+02  0.00000000000E+00 0.  1.
</event>
<event>
 7    1  0.1457722E-010  0.4778727E+02  0.7816164E-02  0.1312668E+00
        -11   -1    0    0    0    0  0.00000000000E+00  0.00000000000E+00  0.45593999997E+02  0.45594000000E+02  0.51100000000E-03 0.  1.
         11   -1    0    0    0    0 -0.00000000000E+00 -0.00000000000E+00 -0.45593999997E+02  0.45594000000E+02  0.51100000000E-03 0. -1.
    9900012    2    1    2    0    0  0.23737366313E+02 -0.27088597206E+02  0.24215046523E+02  0.47787272631E+02  0.20000007235E+02 0.  0.
        -12    1    1    2    0    0 -0.23737366313E+02  0.27088597206E+02 -0.24215046523E+02  0.43400727369E+02  0.00000000000E+00 0.  1.
         11    1    3    3    0    0  0.39365232784E+01 -0.11124308693E+02  0.14302696641E+02  0.18542211057E+02  0.51100000000E-03 0. -1.
        -11    1    3    3    0    0  0.61407875862E+01 -0.36454008239E+00 -0.24327485537E+00  0.61564067903E+01  0.51100000000E-03 0.  1.
         12    1    3    3    0    0  0.13660055448E+02 -0.15599748430E+02  0.10155624737E+02  0.23088654784E+02  0.00000000000E+00 0. -1.
</event>
<event>
 7    1  0.1457722E-010  0.4778727E+02  0.7816164E-02  0.1312668E+00
        -11   -1    0    0    0    0  0.00000000000E+00  0.00000000000E+00  0.45593999997E+02  0.45594000000E+02  0.51100000000E-03 0. -1.
         11   -1    0    0    0    0 -0.00000000000E+00 -0.00000000000E+00 -0.45593999997E+02  0.45594000000E+02  0.51100000000E-03 0.  1.
    9900012    2    1    2    0    0  0.87914003318E+01 -0.30632934835E+02  0.29461121683E+02  0.47787272965E+02  0.20000008755E+02 0.  0.
        -12    1    1    2    0    0 -0.87914003318E+01  0.30632934835E+02 -0.29461121683E+02  0.43400727035E+02  0.00000000000E+00 0.  1.
         11    1    3    3    0    0  0.90412204664E+01 -0.54046076492E+01  0.43083918340E+01  0.11380496115E+02  0.51100000000E-03 0.  1.
        -11    1    3    3    0    0 -0.53435652804E+00 -0.12865207331E+02  0.76541005231E+01  0.14979464332E+02  0.51100000000E-03 0. -1.
        -12    1    3    3    0    0  0.28453639338E+00 -0.12363119854E+02  0.17498629325E+02  0.21427312518E+02  0.00000000000E+00 0.  1.
</event>
<event>
 7    1  0.1457722E-010  0.4778726E+02  0.7816164E-02  0.1312668E+00
        -11   -1    0    0    0    0  0.00000000000E+00  0.00000000000E+00  0.45593999997E+02  0.45594000000E+02  0.51100000000E-03 0.  1.
         11   -1    0    0    0    0 -0.00000000000E+00 -0.00000000000E+00 -0.45593999997E+02  0.45594000000E+02  0.51100000000E-03 0. -1.
    9900012    2    1    2    0    0  0.11700908297E+02  0.28651181412E+01 -0.41695373129E+02  0.47787259254E+02  0.19999946244E+02 0.  0.
        -12    1    1    2    0    0 -0.11700908297E+02 -0.28651181412E+01  0.41695373129E+02  0.43400740746E+02  0.00000000000E+00 0.  1.
         11    1    3    3    0    0  0.62292364504E+01 -0.11792234663E+01 -0.10629384558E+01  0.64283585121E+01  0.51100000000E-03 0.  1.
        -11    1    3    3    0    0  0.25746124783E+01  0.16418967768E+01 -0.90121890517E+01  0.95154614288E+01  0.51100000000E-03 0. -1.
        -12    1    3    3    0    0  0.28970593683E+01  0.24024448307E+01 -0.31620245621E+02  0.31843439313E+02  0.00000000000E+00 0.  1.
</event>
<event>
 7    1  0.1457722E-010  0.4778730E+02  0.7816164E-02  0.1312668E+00
        -11   -1    0    0    0    0  0.00000000000E+00  0.00000000000E+00  0.45593999997E+02  0.45594000000E+02  0.51100000000E-03 0. -1.
         11   -1    0    0    0    0 -0.00000000000E+00 -0.00000000000E+00 -0.45593999997E+02  0.45594000000E+02  0.51100000000E-03 0.  1.
    9900012    2    1    2    0    0  0.26315977172E+02 -0.32949319311E+02  0.10268013386E+02  0.47787304194E+02  0.20000151139E+02 0.  0.
        -12    1    1    2    0    0 -0.26315977172E+02  0.32949319311E+02 -0.10268013386E+02  0.43400695806E+02  0.00000000000E+00 0.  1.
         11    1    3    3    0    0  0.44194824001E+01 -0.16065812241E+02  0.31988734601E+01  0.16966877713E+02  0.51100000000E-03 0. -1.
        -11    1    3    3    0    0 -0.11924447551E+01  0.69397242428E-01 -0.32345498164E+00  0.12374828716E+01  0.51100000000E-03 0.  1.
        -12    1    3    3    0    0  0.23088939527E+02 -0.16952904313E+02  0.73925949079E+01  0.29582943609E+02  0.00000000000E+00 0.  1.
</event>
<event>
 7    1  0.1457722E-010  0.4778727E+02  0.7816164E-02  0.1312668E+00
        -11   -1    0    0    0    0  0.00000000000E+00  0.00000000000E+00  0.45593999997E+02  0.45594000000E+02  0.51100000000E-03 0. -1.
         11   -1    0    0    0    0 -0.00000000000E+00 -0.00000000000E+00 -0.45593999997E+02  0.45594000000E+02  0.51100000000E-03 0.  1.
    9900012    2    1    2    0    0  0.17205306590E+02 -0.37732079987E+02 -0.12801981248E+02  0.47787272369E+02  0.20000006040E+02 0.  0.
        -12    1    1    2    0    0 -0.17205306590E+02  0.37732079987E+02  0.12801981248E+02  0.43400727631E+02  0.00000000000E+00 0.  1.
         11    1    3    3    0    0  0.34082104736E+01 -0.38099871535E+00 -0.49391892841E+01  0.60130399714E+01  0.51100000000E-03 0.  1.
        -11    1    3    3    0    0  0.67563581684E+01 -0.13050609081E+02  0.15560201145E+01  0.14777955608E+02  0.51100000000E-03 0. -1.
        -12    1    3    3    0    0  0.70407379478E+01 -0.24300472190E+02 -0.94188120788E+01  0.26996276790E+02  0.00000000000E+00 0.  1.
</event>
<event>
 7    1  0.1457722E-010  0.4778728E+02  0.7816164E-02  0.1312668E+00
        -11   -1    0    0    0    0  0.00000000000E+00  0.00000000000E+00  0.45593999997E+02  0.45594000000E+02  0.51100000000E-03 0.  1.
         11   -1    0    0    0    0 -0.00000000000E+00 -0.00000000000E+00 -0.45593999997E+02  0.45594000000E+02  0.51100000000E-03 0. -1.
    9900012    2    1    2    0    0  0.40465242478E+02  0.73741199085E+01 -0.13849501942E+02  0.47787283447E+02  0.20000056549E+02 0.  0.
        -12    1    1    2    0    0 -0.40465242478E+02 -0.73741199085E+01  0.13849501942E+02  0.43400716553E+02  0.00000000000E+00 0.  1.
         11    1    3    3    0    0  0.22521291212E+02  0.54176092774E+01 -0.14023022027E+02  0.27077743539E+02  0.51100000000E-03 0. -1.
        -11    1    3    3    0    0  0.32899596706E+01 -0.36079127021E+01 -0.10241326889E+01  0.49889594833E+01  0.51100000000E-03 0.  1.
        -12    1    3    3    0    0  0.14653991596E+02  0.55644233332E+01  0.11976527745E+01  0.15720580425E+02  0.00000000000E+00 0.  1.
</event>
<event>
 7    1  0.1457722E-010  0.4778727E+02  0.7816164E-02  0.1312668E+00
        -11   -1    0    0    0    0  0.00000000000E+00  0.00000000000E+00  0.45593999997E+02  0.45594000000E+02  0.51100000000E-03 0.  1.
         11   -1    0    0    0    0 -0.00000000000E+00 -0.00000000000E+00 -0.45593999997E+02  0.45594000000E+02  0.51100000000E-03 0. -1.
    9900012    2    1    2    0    0 -0.30186651716E+02  0.22600711628E+02 -0.21484818415E+02  0.47787268091E+02  0.19999986533E+02 0.  0.
        -12    1    1    2    0    0  0.30186651716E+02 -0.22600711628E+02  0.21484818415E+02  0.43400731909E+02  0.00000000000E+00 0.  1.
         11    1    3    3    0    0 -0.10209541159E+00  0.51583583585E+01 -0.33362602098E+01  0.61440798234E+01  0.51100000000E-03 0. -1.
        -11    1    3    3    0    0 -0.11826369549E+02  0.68449071624E+00 -0.10155213266E+02  0.15603201626E+02  0.51100000000E-03 0.  1.
        -12    1    3    3    0    0 -0.18258186756E+02  0.16757862553E+02 -0.79933449398E+01  0.26039986642E+02  0.00000000000E+00 0.  1.
</event>
<event>
 7    1  0.1457722E-010  0.4778728E+02  0.7816164E-02  0.1312668E+00
        -11   -1    0    0    0    0  0.00000000000E+00  0.00000000000E+00  0.45593999997E+02  0.45594000000E+02  0.51100000000E-03 0.  1.
         11   -1    0    0    0    0 -0.00000000000E+00 -0.00000000000E+00 -0.45593999997E+02  0.45594000000E+02  0.51100000000E-03 0. -1.
    9900012    2    1    2    0    0 -0.25633004008E+02 -0.25513047931E+02 -0.23992837729E+02  0.47787276833E+02  0.20000026390E+02 0.  0.
        -12    1    1    2    0    0  0.25633004008E+02  0.25513047931E+02  0.23992837729E+02  0.43400723167E+02  0.00000000000E+00 0.  1.
         11    1    3    3    0    0 -0.10724045749E+02 -0.22390468714E+02 -0.18714232358E+02  0.31089559975E+02  0.51100000000E-03 0. -1.
        -11    1    3    3    0    0 -0.33928032530E+01 -0.13852317567E+01  0.49623811167E+00  0.36981391885E+01  0.51100000000E-03 0.  1.
         12    1    3    3    0    0 -0.11516155006E+02 -0.17373474603E+01 -0.57748434828E+01  0.12999577669E+02  0.00000000000E+00 0. -1.
</event>
<event>
 7    1  0.1457722E-010  0.4778727E+02  0.7816164E-02  0.1312668E+00
        -11   -1    0    0    0    0  0.00000000000E+00  0.00000000000E+00  0.45593999997E+02  0.45594000000E+02  0.51100000000E-03 0. -1.
         11   -1    0    0    0    0 -0.00000000000E+00 -0.00000000000E+00 -0.45593999997E+02  0.45594000000E+02  0.51100000000E-03 0.  1.
    9900012    2    1    2    0    0 -0.42534614804E+02 -0.86271440416E+01 -0.43996020365E-01  0.47787274125E+02  0.20000014044E+02 0.  0.
        -12    1    1    2    0    0  0.42534614804E+02  0.86271440416E+01  0.43996020365E-01  0.43400725875E+02  0.00000000000E+00 0.  1.
         11    1    3    3    0    0 -0.13441234274E+02 -0.32752390082E+01  0.28769878462E+01  0.14130499945E+02  0.51100000000E-03 0. -1.
        -11    1    3    3    0    0 -0.58776783512E+01 -0.72076914001E+01 -0.44633964212E+01  0.10315998546E+02  0.51100000000E-03 0.  1.
        -12    1    3    3    0    0 -0.23215702179E+02  0.18557863667E+01  0.15424125546E+01  0.23340775634E+02  0.00000000000E+00 0.  1.
</event>
<event>
 7    1  0.1457722E-010  0.4778727E+02  0.7816164E-02  0.1312668E+00
        -11   -1    0    0    0    0  0.00000000000E+00  0.00000000000E+00  0.45593999997E+02  0.45594000000E+02  0.51100000000E-03 0. -1.
         11   -1    0    0    0    0 -0.00000000000E+00 -0.00000000000E+00 -0.45593999997E+02  0.45594000000E+02  0.51100000000E-03 0.  1.
    9900012    2    1    2    0    0 -0.24448040642E+02  0.17767375820E+02  0.31148624604E+02  0.47787272477E+02  0.20000006534E+02 0.  0.
        -12    1    1    2    0    0  0.24448040642E+02 -0.17767375820E+02 -0.31148624604E+02  0.43400727523E+02  0.00000000000E+00 0.  1.
         11    1    3    3    0    0 -0.14085177979E+01  0.11123294543E+02  0.86005390196E+01  0.14130848367E+02  0.51100000000E-03 0.  1.
        -11    1    3    3    0    0 -0.14487224439E+02  0.71025856615E+01  0.12224289125E+02  0.20242520591E+02  0.51100000000E-03 0. -1.
        -12    1    3    3    0    0 -0.85522984050E+01 -0.45850438468E+00  0.10323796460E+02  0.13413903519E+02  0.00000000000E+00 0.  1.
</event>
<event>
 7    1  0.1457722E-010  0.4778727E+02  0.7816164E-02  0.1312668E+00
        -11   -1    0    0    0    0  0.00000000000E+00  0.00000000000E+00  0.45593999997E+02  0.45594000000E+02  0.51100000000E-03 0. -1.
         11   -1    0    0    0    0 -0.00000000000E+00 -0.00000000000E+00 -0.45593999997E+02  0.45594000000E+02  0.51100000000E-03 0.  1.
    9900012    2    1    2    0    0 -0.36466549951E+02 -0.81970447375E+01  0.22059522914E+02  0.47787270064E+02  0.19999995530E+02 0.  0.
        -12    1    1    2    0    0  0.36466549951E+02  0.81970447375E+01 -0.22059522914E+02  0.43400729936E+02  0.00000000000E+00 0.  1.
         11    1    3    3    0    0 -0.17035827882E+02 -0.19169480503E+01  0.35372771333E+01  0.17504469465E+02  0.51100000000E-03 0.  1.
        -11    1    3    3    0    0 -0.63976953195E+01  0.33858015775E+01  0.86915305296E+01  0.11310917776E+02  0.51100000000E-03 0. -1.
         12    1    3    3    0    0 -0.13033026749E+02 -0.96658982646E+01  0.98307152514E+01  0.18971882823E+02  0.00000000000E+00 0. -1.
</event>
<event>
 7    1  0.1457722E-010  0.4778727E+02  0.7816164E-02  0.1312668E+00
        -11   -1    0    0    0    0  0.00000000000E+00  0.00000000000E+00  0.45593999997E+02  0.45594000000E+02  0.51100000000E-03 0.  1.
         11   -1    0    0    0    0 -0.00000000000E+00 -0.00000000000E+00 -0.45593999997E+02  0.45594000000E+02  0.51100000000E-03 0. -1.
    9900012    2    1    2    0    0 -0.13437353473E+02  0.14451637129E+02 -0.38655023440E+02  0.47787272803E+02  0.20000008016E+02 0.  0.
        -12    1    1    2    0    0  0.13437353473E+02 -0.14451637129E+02  0.38655023440E+02  0.43400727197E+02  0.00000000000E+00 0.  1.
         11    1    3    3    0    0 -0.48196208495E+00  0.44093568772E+00 -0.21999051470E+02  0.22008747752E+02  0.51100000000E-03 0.  1.
        -11    1    3    3    0    0 -0.77713640063E+01  0.66761366878E+01 -0.11580626282E+02  0.15462076346E+02  0.51100000000E-03 0. -1.
        -12    1    3    3    0    0 -0.51840273823E+01  0.73345647539E+01 -0.50753456880E+01  0.10316448705E+02  0.00000000000E+00 0.  1.
</event>
<event>
 7    1  0.2290545E-010  0.4778727E+02  0.7816164E-02  0.1312668E+00
        -11   -1    0    0    0    0  0.00000000000E+00  0.00000000000E+00  0.45593999997E+02  0.45594000000E+02  0.51100000000E-03 0. -1.
         11   -1    0    0    0    0 -0.00000000000E+00 -0.00000000000E+00 -0.45593999997E+02  0.45594000000E+02  0.51100000000E-03 0.  1.
    9900012    2    1    2    0    0 -0.63020196431E+01  0.22342109551E+02  0.36670668607E+02  0.47787271356E+02  0.20000001419E+02 0.  0.
        -12    1    1    2    0    0  0.63020196431E+01 -0.22342109551E+02 -0.36670668607E+02  0.43400728644E+02  0.00000000000E+00 0.  1.
         11    1    3    3    0    0 -0.20762011996E+01  0.99439677852E+01  0.14005430846E+02  0.17301595307E+02  0.51100000000E-03 0. -1.
        -11    1    3    3    0    0  0.52131432798E+00  0.34281265998E+01 -0.18662017085E+01  0.39378331212E+01  0.51100000000E-03 0.  1.
        -12    1    3    3    0    0 -0.47471327715E+01  0.89700151655E+01  0.24531439470E+02  0.26547842927E+02  0.00000000000E+00 0.  1.
</event>
<event>
 7    1  0.1457722E-010  0.4778726E+02  0.7816164E-02  0.1312668E+00
        -11   -1    0    0    0    0  0.00000000000E+00  0.00000000000E+00  0.45593999997E+02  0.45594000000E+02  0.51100000000E-03 0.  1.
         11   -1    0    0    0    0 -0.00000000000E+00 -0.00000000000E+00 -0.45593999997E+02  0.45594000000E+02  0.51100000000E-03 0. -1.
    9900012    2    1    2    0    0 -0.40332389293E+02 -0.15309126685E+02 -0.47490120132E+01  0.47787261515E+02  0.19999956553E+02 0.  0.
        -12    1    1    2    0    0  0.40332389293E+02  0.15309126685E+02  0.47490120132E+01  0.43400738485E+02  0.00000000000E+00 0.  1.
         11    1    3    3    0    0 -0.86212284865E+01 -0.32778601518E+01  0.38266561109E+01  0.99856519588E+01  0.51100000000E-03 0. -1.
        -11    1    3    3    0    0 -0.52773073317E+01 -0.77117079577E+01  0.90615094986E+00  0.93883716428E+01  0.51100000000E-03 0.  1.
         12    1    3    3    0    0 -0.26433853474E+02 -0.43195585752E+01 -0.94818190740E+01  0.28413237914E+02  0.00000000000E+00 0. -1.
</event>
<event>
 7    1  0.1457722E-010  0.4778727E+02  0.7816164E-02  0.1312668E+00
        -11   -1    0    0    0    0  0.00000000000E+00  0.00000000000E+00  0.45593999997E+02  0.45594000000E+02  0.51100000000E-03 0.  1.
         11   -1    0    0    0    0 -0.00000000000E+00 -0.00000000000E+00 -0.45593999997E+02  0.45594000000E+02  0.51100000000E-03 0. -1.
    9900012    2    1    2    0    0 -0.85466306646E+00  0.29457185214E+02 -0.31861686079E+02  0.47787271325E+02  0.20000001279E+02 0.  0.
        -12    1    1    2    0    0  0.85466306646E+00 -0.29457185214E+02  0.31861686079E+02  0.43400728675E+02  0.00000000000E+00 0.  1.
         11    1    3    3    0    0 -0.68046850293E+01  0.14794822676E+02 -0.14900276721E+02  0.22072805961E+02  0.51100000000E-03 0. -1.
        -11    1    3    3    0    0  0.25162577625E+01  0.31007356721E+01  0.96527008708E+00  0.41082674496E+01  0.51100000000E-03 0.  1.
        -12    1    3    3    0    0  0.34337642003E+01  0.11561626867E+02 -0.17926679446E+02  0.21606197915E+02  0.00000000000E+00 0.  1.
</event>
<event>
 7    1  0.1457722E-010  0.4778727E+02  0.7816164E-02  0.1312668E+00
        -11   -1    0    0    0    0  0.00000000000E+00  0.00000000000E+00  0.45593999997E+02  0.45594000000E+02  0.51100000000E-03 0.  1.
         11   -1    0    0    0    0 -0.00000000000E+00 -0.00000000000E+00 -0.45593999997E+02  0.45594000000E+02  0.51100000000E-03 0. -1.
    9900012    2    1    2    0    0  0.13819510176E+02 -0.21944092636E+02 -0.34800878492E+02  0.47787271815E+02  0.20000003515E+02 0.  0.
        -12    1    1    2    0    0 -0.13819510176E+02  0.21944092636E+02  0.34800878492E+02  0.43400728185E+02  0.00000000000E+00 0.  1.
         11    1    3    3    0    0  0.52263887495E+01 -0.59900754506E+01 -0.24990996850E+02  0.26224913099E+02  0.51100000000E-03 0. -1.
        -11    1    3    3    0    0  0.66459814549E+00 -0.70777960146E+01 -0.51618712430E+01  0.87853174166E+01  0.51100000000E-03 0.  1.
         12    1    3    3    0    0  0.79285232809E+01 -0.88762211713E+01 -0.46480103994E+01  0.12777041300E+02  0.00000000000E+00 0. -1.
</event>
<event>
 7    1  0.1457722E-010  0.4778727E+02  0.7816164E-02  0.1312668E+00
        -11   -1    0    0    0    0  0.00000000000E+00  0.00000000000E+00  0.45593999997E+02  0.45594000000E+02  0.51100000000E-03 0. -1.
         11   -1    0    0    0    0 -0.00000000000E+00 -0.00000000000E+00 -0.45593999997E+02  0.45594000000E+02  0.51100000000E-03 0.  1.
    9900012    2    1    2    0    0 -0.39933713092E+02  0.16608008622E+02 -0.36188008270E+01  0.47787272919E+02  0.20000008548E+02 0.  0.
        -12    1    1    2    0    0  0.39933713092E+02 -0.16608008622E+02  0.36188008270E+01  0.43400727081E+02  0.00000000000E+00 0.  1.
         11    1    3    3    0    0  0.64018377553E+00  0.34149370716E+01  0.24530903436E+00  0.34830743967E+01  0.51100000000E-03 0. -1.
        -11    1    3    3    0    0 -0.26718358713E+02  0.62637756578E+01  0.24997171588E+01  0.27556381547E+02  0.51100000000E-03 0.  1.
         12    1    3    3    0    0 -0.13855538154E+02  0.69292958924E+01 -0.63638270201E+01  0.16747816976E+02  0.00000000000E+00 0. -1.
</event>
<event>
 7    1  0.1457722E-010  0.4778729E+02  0.7816164E-02  0.1312668E+00
        -11   -1    0    0    0    0  0.00000000000E+00  0.00000000000E+00  0.45593999997E+02  0.45594000000E+02  0.51100000000E-03 0.  1.
         11   -1    0    0    0    0 -0.00000000000E+00 -0.00000000000E+00 -0.45593999997E+02  0.45594000000E+02  0.51100000000E-03 0. -1.
    9900012    2    1    2    0    0  0.41480345923E+02 -0.12098049393E+02 -0.40791618873E+01  0.47787291956E+02  0.20000095346E+02 0.  0.
        -12    1    1    2    0    0 -0.41480345923E+02  0.12098049393E+02  0.40791618873E+01  0.43400708044E+02  0.00000000000E+00 0.  1.
         11    1    3    3    0    0  0.18046871828E+02 -0.26212624625E+01  0.11280158193E+00  0.18236592997E+02  0.51100000000E-03 0. -1.
        -11    1    3    3    0    0  0.20142937592E+01  0.77282395880E+00 -0.53588244831E+01  0.57768188756E+01  0.51100000000E-03 0.  1.
         12    1    3    3    0    0  0.21419180336E+02 -0.10249610889E+02  0.11668610139E+01  0.23773880084E+02  0.00000000000E+00 0. -1.
</event>
<event>
 7    1  0.1457722E-010  0.4778727E+02  0.7816164E-02  0.1312668E+00
        -11   -1    0    0    0    0  0.00000000000E+00  0.00000000000E+00  0.45593999997E+02  0.45594000000E+02  0.51100000000E-03 0. -1.
         11   -1    0    0    0    0 -0.00000000000E+00 -0.00000000000E+00 -0.45593999997E+02  0.45594000000E+02  0.51100000000E-03 0.  1.
    9900012    2    1    2    0    0 -0.10447114745E+02  0.33480285349E+02  0.25564653049E+02  0.47787271906E+02  0.20000003930E+02 0.  0.
        -12    1    1    2    0    0  0.10447114745E+02 -0.33480285349E+02 -0.25564653049E+02  0.43400728094E+02  0.00000000000E+00 0.  1.
         11    1    3    3    0    0 -0.16925719576E+01  0.16738311280E+02  0.11641825679E+02  0.20458933740E+02  0.51100000000E-03 0. -1.
        -11    1    3    3    0    0 -0.18626758773E+01  0.74542933909E+01 -0.17206983542E+01  0.78738081301E+01  0.51100000000E-03 0.  1.
         12    1    3    3    0    0 -0.68918669101E+01  0.92876806775E+01  0.15643525724E+02  0.19454530037E+02  0.00000000000E+00 0. -1.
</event>
<event>
 7    1  0.2503360E-010  0.4778727E+02  0.7816164E-02  0.1312668E+00
        -11   -1    0    0    0    0  0.00000000000E+00  0.00000000000E+00  0.45593999997E+02  0.45594000000E+02  0.51100000000E-03 0. -1.
         11   -1    0    0    0    0 -0.00000000000E+00 -0.00000000000E+00 -0.45593999997E+02  0.45594000000E+02  0.51100000000E-03 0.  1.
    9900012    2    1    2    0    0 -0.14638169511E+02  0.37271327406E+02  0.16739028984E+02  0.47787274839E+02  0.20000017299E+02 0.  0.
        -12    1    1    2    0    0  0.14638169511E+02 -0.37271327406E+02 -0.16739028984E+02  0.43400725161E+02  0.00000000000E+00 0.  1.
         11    1    3    3    0    0 -0.11649375913E+02  0.24446775204E+02  0.11911831429E+02  0.29584531520E+02  0.51100000000E-03 0. -1.
        -11    1    3    3    0    0 -0.52366390807E+01  0.22093880299E+01 -0.11733681977E+01  0.58034970076E+01  0.51100000000E-03 0.  1.
         12    1    3    3    0    0  0.22478454833E+01  0.10615164172E+02  0.60005657525E+01  0.12399246311E+02  0.00000000000E+00 0. -1.
</event>
<event>
 7    1  0.1457722E-010  0.4778727E+02  0.7816164E-02  0.1312668E+00
        -11   -1    0    0    0    0  0.00000000000E+00  0.00000000000E+00  0.45593999997E+02  0.45594000000E+02  0.51100000000E-03 0.  1.
         11   -1    0    0    0    0 -0.00000000000E+00 -0.00000000000E+00 -0.45593999997E+02  0.45594000000E+02  0.51100000000E-03 0. -1.
    9900012    2    1    2    0    0 -0.13362540623E+02  0.39428367083E+02 -0.12266601533E+02  0.47787272634E+02  0.20000007247E+02 0.  0.
        -12    1    1    2    0    0  0.13362540623E+02 -0.39428367083E+02  0.12266601533E+02  0.43400727366E+02  0.00000000000E+00 0.  1.
         11    1    3    3    0    0 -0.57419477340E+01  0.24188581682E+01  0.34719009029E+00  0.62403028643E+01  0.51100000000E-03 0. -1.
        -11    1    3    3    0    0 -0.63519163700E+01  0.10527147256E+02 -0.26109919300E+00  0.12297798339E+02  0.51100000000E-03 0.  1.
        -12    1    3    3    0    0 -0.12686765187E+01  0.26482361658E+02 -0.12352692430E+02  0.29249171431E+02  0.00000000000E+00 0.  1.
</event>
<event>
 7    1  0.1457722E-010  0.4778725E+02  0.7816164E-02  0.1312668E+00
        -11   -1    0    0    0    0  0.00000000000E+00  0.00000000000E+00  0.45593999997E+02  0.45594000000E+02  0.51100000000E-03 0.  1.
         11   -1    0    0    0    0 -0.00000000000E+00 -0.00000000000E+00 -0.45593999997E+02  0.45594000000E+02  0.51100000000E-03 0. -1.
    9900012    2    1    2    0    0 -0.91064384669E+01  0.20364016201E+02 -0.37229079015E+02  0.47787254595E+02  0.19999925001E+02 0.  0.
        -12    1    1    2    0    0  0.91064384669E+01 -0.20364016201E+02  0.37229079015E+02  0.43400745405E+02  0.00000000000E+00 0.  1.
         11    1    3    3    0    0 -0.56538898076E+01  0.53988488377E+01 -0.28516789734E+01  0.83214248754E+01  0.51100000000E-03 0. -1.
        -11    1    3    3    0    0  0.39673569329E+01  0.20006674239E+01 -0.81888299233E+01  0.93166263716E+01  0.51100000000E-03 0.  1.
         12    1    3    3    0    0 -0.74199055922E+01  0.12964499939E+02 -0.26188570119E+02  0.30149203348E+02  0.00000000000E+00 0. -1.
</event>
<event>
 7    1  0.1457722E-010  0.4778727E+02  0.7816164E-02  0.1312668E+00
        -11   -1    0    0    0    0  0.00000000000E+00  0.00000000000E+00  0.45593999997E+02  0.45594000000E+02  0.51100000000E-03 0.  1.
         11   -1    0    0    0    0 -0.00000000000E+00 -0.00000000000E+00 -0.45593999997E+02  0.45594000000E+02  0.51100000000E-03 0. -1.
    9900012    2    1    2    0    0  0.66562847390E+01 -0.66719289834E+01 -0.42365108159E+02  0.47787272446E+02  0.20000006390E+02 0.  0.
        -12    1    1    2    0    0 -0.66562847390E+01  0.66719289834E+01  0.42365108159E+02  0.43400727554E+02  0.00000000000E+00 0.  1.
         11    1    3    3    0    0  0.74106364835E+01  0.19012663189E+01 -0.11670618971E+02  0.13954773167E+02  0.51100000000E-03 0. -1.
        -11    1    3    3    0    0 -0.33191234259E+01 -0.32208222055E-01 -0.18091802678E+02  0.18393774547E+02  0.51100000000E-03 0.  1.
        -12    1    3    3    0    0  0.25647716815E+01 -0.85409870803E+01 -0.12602686510E+02  0.15438724732E+02  0.00000000000E+00 0.  1.
</event>
<event>
 7    1  0.1457722E-010  0.4778727E+02  0.7816164E-02  0.1312668E+00
        -11   -1    0    0    0    0  0.00000000000E+00  0.00000000000E+00  0.45593999997E+02  0.45594000000E+02  0.51100000000E-03 0. -1.
         11   -1    0    0    0    0 -0.00000000000E+00 -0.00000000000E+00 -0.45593999997E+02  0.45594000000E+02  0.51100000000E-03 0.  1.
    9900012    2    1    2    0    0  0.24602590807E+02  0.34572619149E+02  0.91142493852E+01  0.47787274072E+02  0.20000013803E+02 0.  0.
        -12    1    1    2    0    0 -0.24602590807E+02 -0.34572619149E+02 -0.91142493852E+01  0.43400725928E+02  0.00000000000E+00 0.  1.
         11    1    3    3    0    0  0.97954665354E+01  0.55753207347E+01 -0.18477070945E+01  0.11421444204E+02  0.51100000000E-03 0. -1.
        -11    1    3    3    0    0  0.92058450592E+01  0.59629562923E+01  0.35484546911E+01  0.11528051091E+02  0.51100000000E-03 0.  1.
        -12    1    3    3    0    0  0.56012792128E+01  0.23034342122E+02  0.74135017885E+01  0.24837778777E+02  0.00000000000E+00 0.  1.
</event>
<event>
 7    1  0.1457722E-010  0.4778724E+02  0.7816164E-02  0.1312668E+00
        -11   -1    0    0    0    0  0.00000000000E+00  0.00000000000E+00  0.45593999997E+02  0.45594000000E+02  0.51100000000E-03 0.  1.
         11   -1    0    0    0    0 -0.00000000000E+00 -0.00000000000E+00 -0.45593999997E+02  0.45594000000E+02  0.51100000000E-03 0. -1.
    9900012    2    1    2    0    0 -0.37041185746E+01  0.34213797997E+02 -0.26444687623E+02  0.47787239969E+02  0.19999858316E+02 0.  0.
        -12    1    1    2    0    0  0.37041185746E+01 -0.34213797997E+02  0.26444687623E+02  0.43400760031E+02  0.00000000000E+00 0.  1.
         11    1    3    3    0    0 -0.54299115502E+01  0.19789986796E+02 -0.25354845783E+02  0.32618947282E+02  0.51100000000E-03 0. -1.
        -11    1    3    3    0    0  0.18740418153E+01  0.24487340519E+01  0.36150027411E+00  0.31046761332E+01  0.51100000000E-03 0.  1.
         12    1    3    3    0    0 -0.14824883980E+00  0.11975077149E+02 -0.14513421134E+01  0.12063616554E+02  0.00000000000E+00 0. -1.
</event>
<event>
 7    1  0.1457722E-010  0.4778726E+02  0.7816164E-02  0.1312668E+00
        -11   -1    0    0    0    0  0.00000000000E+00  0.00000000000E+00  0.45593999997E+02  0.45594000000E+02  0.51100000000E-03 0.  1.
         11   -1    0    0    0    0 -0.00000000000E+00 -0.00000000000E+00 -0.45593999997E+02  0.45594000000E+02  0.51100000000E-03 0. -1.
    9900012    2    1    2    0    0  0.24905340924E+02  0.35190624660E+02  0.49967730578E+01  0.47787264851E+02  0.19999971761E+02 0.  0.
        -12    1    1    2    0    0 -0.24905340924E+02 -0.35190624660E+02 -0.49967730578E+01  0.43400735149E+02  0.00000000000E+00 0.  1.
         11    1    3    3    0    0  0.94252251608E+01  0.35779651848E+01  0.64186856867E+01  0.11951411231E+02  0.51100000000E-03 0.  1.
        -11    1    3    3    0    0  0.47603789449E+01  0.84069860674E+01 -0.32891553979E+01  0.10205741812E+02  0.51100000000E-03 0. -1.
        -12    1    3    3    0    0  0.10719736818E+02  0.23205673408E+02  0.18672427689E+01  0.25630111809E+02  0.00000000000E+00 0.  1.
</event>
<event>
 7    1  0.1457722E-010  0.4778727E+02  0.7816164E-02  0.1312668E+00
        -11   -1    0    0    0    0  0.00000000000E+00  0.00000000000E+00  0.45593999997E+02  0.45594000000E+02  0.51100000000E-03 0.  1.
         11   -1    0    0    0    0 -0.00000000000E+00 -0.00000000000E+00 -0.45593999997E+02  0.45594000000E+02  0.51100000000E-03 0. -1.
    9900012    2    1    2    0    0 -0.41685588121E+02  0.11633061727E+02  0.32568228789E+01  0.47787271004E+02  0.19999999816E+02 0.  0.
        -12    1    1    2    0    0  0.41685588121E+02 -0.11633061727E+02 -0.32568228789E+01  0.43400728996E+02  0.00000000000E+00 0.  1.
         11    1    3    3    0    0 -0.72149925284E+01  0.57960283898E+01 -0.15128539812E+01  0.93775684327E+01  0.51100000000E-03 0. -1.
        -11    1    3    3    0    0 -0.10232258592E+02 -0.44535245648E+01  0.46172321342E+01  0.12076913090E+02  0.51100000000E-03 0.  1.
         12    1    3    3    0    0 -0.24238337000E+02  0.10290557902E+02  0.15244472591E+00  0.26332789481E+02  0.00000000000E+00 0. -1.
</event>
<event>
 7    1  0.1457722E-010  0.4778727E+02  0.7816164E-02  0.1312668E+00
        -11   -1    0    0    0    0  0.00000000000E+00  0.00000000000E+00  0.45593999997E+02  0.45594000000E+02  0.51100000000E-03 0. -1.
         11   -1    0    0    0    0 -0.00000000000E+00 -0.00000000000E+00 -0.45593999997E+02  0.45594000000E+02  0.51100000000E-03 0.  1.
    9900012    2    1    2    0    0  0.28854016950E+02  0.17512531470E+01  0.32372861129E+02  0.47787270520E+02  0.19999997607E+02 0.  0.
        -12    1    1    2    0    0 -0.28854016950E+02 -0.17512531470E+01 -0.32372861129E+02  0.43400729480E+02  0.00000000000E+00 0.  1.
         11    1    3    3    0    0  0.97422770946E+01  0.60789075998E+01  0.92830577313E+01  0.14766185753E+02  0.51100000000E-03 0. -1.
        -11    1    3    3    0    0  0.53676985800E+01  0.17256029417E+01  0.14864963265E+02  0.15898334085E+02  0.51100000000E-03 0.  1.
        -12    1    3    3    0    0  0.13744041276E+02 -0.60532573946E+01  0.82248401331E+01  0.17122750681E+02  0.00000000000E+00 0.  1.
</event>
<event>
 7    1  0.1457722E-010  0.4778727E+02  0.7816164E-02  0.1312668E+00
        -11   -1    0    0    0    0  0.00000000000E+00  0.00000000000E+00  0.45593999997E+02  0.45594000000E+02  0.51100000000E-03 0. -1.
         11   -1    0    0    0    0 -0.00000000000E+00 -0.00000000000E+00 -0.45593999997E+02  0.45594000000E+02  0.51100000000E-03 0.  1.
    9900012    2    1    2    0    0 -0.36946712074E+02  0.15772874391E+02  0.16424988805E+02  0.47787270088E+02  0.19999995640E+02 0.  0.
        -12    1    1    2    0    0  0.36946712074E+02 -0.15772874391E+02 -0.16424988805E+02  0.43400729912E+02  0.00000000000E+00 0.  1.
         11    1    3    3    0    0 -0.12526554305E+02  0.26224211771E+00  0.83435357429E+01  0.15053169853E+02  0.51100000000E-03 0. -1.
        -11    1    3    3    0    0 -0.22125889133E+02  0.91318585891E+01  0.27180525025E+01  0.24090114589E+02  0.51100000000E-03 0.  1.
         12    1    3    3    0    0 -0.22942686357E+01  0.63787736841E+01  0.53634005600E+01  0.86439856463E+01  0.00000000000E+00 0. -1.
</event>
<event>
 7    1  0.1457722E-010  0.4778727E+02  0.7816164E-02  0.1312668E+00
        -11   -1    0    0    0    0  0.00000000000E+00  0.00000000000E+00  0.45593999997E+02  0.45594000000E+02  0.51100000000E-03 0.  1.
         11   -1    0    0    0    0 -0.00000000000E+00 -0.00000000000E+00 -0.45593999997E+02  0.45594000000E+02  0.51100000000E-03 0. -1.
    9900012    2    1    2    0    0 -0.15695518144E+02 -0.95701856447E+00 -0.40451920660E+02  0.47787273515E+02  0.20000011265E+02 0.  0.
        -12    1    1    2    0    0  0.15695518144E+02  0.95701856447E+00  0.40451920660E+02  0.43400726485E+02  0.00000000000E+00 0.  1.
         11    1    3    3    0    0 -0.13722564546E+01  0.80538268483E+00 -0.22912056523E+02  0.22967238916E+02  0.51100000000E-03 0. -1.
        -11    1    3    3    0    0 -0.13292195842E+01 -0.55192323665E+00  0.12746313131E+01  0.19225319783E+01  0.51100000000E-03 0.  1.
        -12    1    3    3    0    0 -0.12994042105E+02 -0.12104780127E+01 -0.18814495450E+02  0.22897502621E+02  0.00000000000E+00 0.  1.
</event>
<event>
 7    1  0.1457722E-010  0.4778727E+02  0.7816164E-02  0.1312668E+00
        -11   -1    0    0    0    0  0.00000000000E+00  0.00000000000E+00  0.45593999997E+02  0.45594000000E+02  0.51100000000E-03 0.  1.
         11   -1    0    0    0    0 -0.00000000000E+00 -0.00000000000E+00 -0.45593999997E+02  0.45594000000E+02  0.51100000000E-03 0. -1.
    9900012    2    1    2    0    0  0.32092027976E+02 -0.14720139836E+02 -0.25239701863E+02  0.47787270438E+02  0.19999997233E+02 0.  0.
        -12    1    1    2    0    0 -0.32092027976E+02  0.14720139836E+02  0.25239701863E+02  0.43400729562E+02  0.00000000000E+00 0.  1.
         11    1    3    3    0    0  0.50251963009E+01 -0.49163123675E+01 -0.18336266298E+01  0.72653225693E+01  0.51100000000E-03 0. -1.
        -11    1    3    3    0    0  0.72981964025E+01 -0.85939836410E-02 -0.15417912754E+02  0.17058012151E+02  0.51100000000E-03 0.  1.
        -12    1    3    3    0    0  0.19768635273E+02 -0.97952334851E+01 -0.79881624795E+01  0.23463935718E+02  0.00000000000E+00 0.  1.
</event>
<event>
 7    1  0.1457722E-010  0.4778726E+02  0.7816164E-02  0.1312668E+00
        -11   -1    0    0    0    0  0.00000000000E+00  0.00000000000E+00  0.45593999997E+02  0.45594000000E+02  0.51100000000E-03 0.  1.
         11   -1    0    0    0    0 -0.00000000000E+00 -0.00000000000E+00 -0.45593999997E+02  0.45594000000E+02  0.51100000000E-03 0. -1.
    9900012    2    1    2    0    0 -0.28964391971E+02  0.13479602948E+02 -0.29376671638E+02  0.47787256522E+02  0.19999933788E+02 0.  0.
        -12    1    1    2    0    0  0.28964391971E+02 -0.13479602948E+02  0.29376671638E+02  0.43400743478E+02  0.00000000000E+00 0.  1.
         11    1    3    3    0    0 -0.10785334401E+02 -0.38707515765E+00 -0.17349913391E+02  0.20432639581E+02  0.51100000000E-03 0. -1.
        -11    1    3    3    0    0 -0.13948605613E+02  0.51564991016E+01 -0.68226890144E+01  0.16361606498E+02  0.51100000000E-03 0.  1.
        -12    1    3    3    0    0 -0.42304519568E+01  0.87101790039E+01 -0.52040692332E+01  0.10993010444E+02  0.00000000000E+00 0.  1.
</event>
<event>
 7    1  0.1457722E-010  0.4778728E+02  0.7816164E-02  0.1312668E+00
        -11   -1    0    0    0    0  0.00000000000E+00  0.00000000000E+00  0.45593999997E+02  0.45594000000E+02  0.51100000000E-03 0.  1.
         11   -1    0    0    0    0 -0.00000000000E+00 -0.00000000000E+00 -0.45593999997E+02  0.45594000000E+02  0.51100000000E-03 0. -1.
    9900012    2    1    2    0    0 -0.43190711156E+02  0.31887511747E+01 -0.28313787976E+01  0.47787281456E+02  0.20000047470E+02 0.  0.
        -12    1    1    2    0    0  0.43190711156E+02 -0.31887511747E+01  0.28313787976E+01  0.43400718544E+02  0.00000000000E+00 0.  1.
         11    1    3    3    0    0 -0.19724129577E+02  0.86641622175E+01 -0.26811483213E+01  0.21709388547E+02  0.51100000000E-03 0. -1.
        -11    1    3    3    0    0 -0.10598324736E+02  0.13863132817E+01 -0.32438146075E+01  0.11169990385E+02  0.51100000000E-03 0.  1.
        -12    1    3    3    0    0 -0.12868256844E+02 -0.68617243245E+01  0.30935841313E+01  0.14907902524E+02  0.00000000000E+00 0.  1.
</event>
<event>
 7    1  0.1457722E-010  0.4778728E+02  0.7816164E-02  0.1312668E+00
        -11   -1    0    0    0    0  0.00000000000E+00  0.00000000000E+00  0.45593999997E+02  0.45594000000E+02  0.51100000000E-03 0.  1.
         11   -1    0    0    0    0 -0.00000000000E+00 -0.00000000000E+00 -0.45593999997E+02  0.45594000000E+02  0.51100000000E-03 0. -1.
    9900012    2    1    2    0    0 -0.24028297548E+02 -0.15937507468E+02 -0.32438550393E+02  0.47787276746E+02  0.20000025997E+02 0.  0.
        -12    1    1    2    0    0  0.24028297548E+02  0.15937507468E+02  0.32438550393E+02  0.43400723254E+02  0.00000000000E+00 0.  1.
         11    1    3    3    0    0 -0.13364408034E+02 -0.66540925777E+01 -0.11333419956E+02  0.18743819202E+02  0.51100000000E-03 0. -1.
        -11    1    3    3    0    0 -0.74889788613E+01 -0.85188661248E+01 -0.22724741316E+02  0.25398223414E+02  0.51100000000E-03 0.  1.
        -12    1    3    3    0    0 -0.31749106526E+01 -0.76454876505E+00  0.16196108785E+01  0.36452341302E+01  0.00000000000E+00 0.  1.
</event>
<event>
 7    1  0.1457722E-010  0.4778728E+02  0.7816164E-02  0.1312668E+00
        -11   -1    0    0    0    0  0.00000000000E+00  0.00000000000E+00  0.45593999997E+02  0.45594000000E+02  0.51100000000E-03 0.  1.
         11   -1    0    0    0    0 -0.00000000000E+00 -0.00000000000E+00 -0.45593999997E+02  0.45594000000E+02  0.51100000000E-03 0. -1.
    9900012    2    1    2    0    0 -0.40416316783E+02 -0.96505297236E+01 -0.12530402372E+02  0.47787281459E+02  0.20000047485E+02 0.  0.
        -12    1    1    2    0    0  0.40416316783E+02  0.96505297236E+01  0.12530402372E+02  0.43400718541E+02  0.00000000000E+00 0.  1.
         11    1    3    3    0    0 -0.98646072660E+01 -0.33452974514E+01  0.30359006413E+01  0.10849801128E+02  0.51100000000E-03 0. -1.
        -11    1    3    3    0    0 -0.35160099680E+01  0.11076192249E-01  0.20369887937E+01  0.40634680243E+01  0.51100000000E-03 0.  1.
         12    1    3    3    0    0 -0.27035699549E+02 -0.63163084644E+01 -0.17603291807E+02  0.32874012307E+02  0.00000000000E+00 0. -1.
</event>
<event>
 7    1  0.1457722E-010  0.4778727E+02  0.7816164E-02  0.1312668E+00
        -11   -1    0    0    0    0  0.00000000000E+00  0.00000000000E+00  0.45593999997E+02  0.45594000000E+02  0.51100000000E-03 0.  1.
         11   -1    0    0    0    0 -0.00000000000E+00 -0.00000000000E+00 -0.45593999997E+02  0.45594000000E+02  0.51100000000E-03 0. -1.
    9900012    2    1    2    0    0 -0.22069982279E+02  0.23105590640E+02 -0.29371262810E+02  0.47787268259E+02  0.19999987302E+02 0.  0.
        -12    1    1    2    0    0  0.22069982279E+02 -0.23105590640E+02  0.29371262810E+02  0.43400731741E+02  0.00000000000E+00 0.  1.
         11    1    3    3    0    0 -0.38330582940E+00  0.78737788978E+00 -0.68159654905E+01  0.68719919331E+01  0.51100000000E-03 0. -1.
        -11    1    3    3    0    0 -0.56934710863E+01  0.10092075782E+02 -0.13328246329E+01  0.11663705602E+02  0.51100000000E-03 0.  1.
         12    1    3    3    0    0 -0.15993205363E+02  0.12226136968E+02 -0.21222472686E+02  0.29251570725E+02  0.00000000000E+00 0. -1.
</event>
<event>
 7    1  0.1457722E-010  0.4778727E+02  0.7816164E-02  0.1312668E+00
        -11   -1    0    0    0    0  0.00000000000E+00  0.00000000000E+00  0.45593999997E+02  0.45594000000E+02  0.51100000000E-03 0.  1.
         11   -1    0    0    0    0 -0.00000000000E+00 -0.00000000000E+00 -0.45593999997E+02  0.45594000000E+02  0.51100000000E-03 0. -1.
    9900012    2    1    2    0    0 -0.53608367784E+01  0.42658370150E+02 -0.59285844722E+01  0.47787271565E+02  0.20000002374E+02 0.  0.
        -12    1    1    2    0    0  0.53608367784E+01 -0.42658370150E+02  0.59285844722E+01  0.43400728435E+02  0.00000000000E+00 0.  1.
         11    1    3    3    0    0 -0.50818480302E+00  0.30448361365E+01  0.37521912064E+01  0.48588288715E+01  0.51100000000E-03 0. -1.
        -11    1    3    3    0    0 -0.53310713050E+01  0.94219806299E+01  0.10652922804E+01  0.10877908262E+02  0.51100000000E-03 0.  1.
         12    1    3    3    0    0  0.47841932967E+00  0.30191553384E+02 -0.10746067959E+02  0.32050534432E+02  0.00000000000E+00 0. -1.
</event>
<event>
 7    1  0.1457722E-010  0.4778727E+02  0.7816164E-02  0.1312668E+00
        -11   -1    0    0    0    0  0.00000000000E+00  0.00000000000E+00  0.45593999997E+02  0.45594000000E+02  0.51100000000E-03 0. -1.
         11   -1    0    0    0    0 -0.00000000000E+00 -0.00000000000E+00 -0.45593999997E+02  0.45594000000E+02  0.51100000000E-03 0.  1.
    9900012    2    1    2    0    0 -0.11528690756E+02  0.39238927879E+02  0.14526503253E+02  0.47787268803E+02  0.19999989781E+02 0.  0.
        -12    1    1    2    0    0  0.11528690756E+02 -0.39238927879E+02 -0.14526503253E+02  0.43400731197E+02  0.00000000000E+00 0.  1.
         11    1    3    3    0    0 -0.72713460527E+01  0.73358236598E+01  0.28809917822E+01  0.10723194305E+02  0.51100000000E-03 0. -1.
        -11    1    3    3    0    0 -0.48925528312E+01  0.28696694689E+02  0.14681058967E+02  0.32603233765E+02  0.51100000000E-03 0.  1.
        -12    1    3    3    0    0  0.63520812794E+00  0.32064095308E+01 -0.30355474966E+01  0.44608407334E+01  0.00000000000E+00 0.  1.
</event>
<event>
 7    1  0.1457722E-010  0.4778726E+02  0.7816164E-02  0.1312668E+00
        -11   -1    0    0    0    0  0.00000000000E+00  0.00000000000E+00  0.45593999997E+02  0.45594000000E+02  0.51100000000E-03 0.  1.
         11   -1    0    0    0    0 -0.00000000000E+00 -0.00000000000E+00 -0.45593999997E+02  0.45594000000E+02  0.51100000000E-03 0. -1.
    9900012    2    1    2    0    0  0.14731941879E+02  0.65775955370E+00 -0.40818639161E+02  0.47787261963E+02  0.19999958596E+02 0.  0.
        -12    1    1    2    0    0 -0.14731941879E+02 -0.65775955370E+00  0.40818639161E+02  0.43400738037E+02  0.00000000000E+00 0.  1.
         11    1    3    3    0    0  0.15155725848E+01  0.43831981452E+01 -0.11112953191E+02  0.12041890015E+02  0.51100000000E-03 0. -1.
        -11    1    3    3    0    0  0.15057990491E+02 -0.61950868362E+00 -0.27895335766E+02  0.31706097622E+02  0.51100000000E-03 0.  1.
        -12    1    3    3    0    0 -0.18416211972E+01 -0.31059299079E+01 -0.18103502042E+01  0.40392743269E+01  0.00000000000E+00 0.  1.
</event>
<event>
 7    1  0.1457722E-010  0.4778728E+02  0.7816164E-02  0.1312668E+00
        -11   -1    0    0    0    0  0.00000000000E+00  0.00000000000E+00  0.45593999997E+02  0.45594000000E+02  0.51100000000E-03 0.  1.
         11   -1    0    0    0    0 -0.00000000000E+00 -0.00000000000E+00 -0.45593999997E+02  0.45594000000E+02  0.51100000000E-03 0. -1.
    9900012    2    1    2    0    0 -0.34997646786E+02  0.11523170348E+02 -0.22934772816E+02  0.47787279504E+02  0.20000038573E+02 0.  0.
        -12    1    1    2    0    0  0.34997646786E+02 -0.11523170348E+02  0.22934772816E+02  0.43400720496E+02  0.00000000000E+00 0.  1.
         11    1    3    3    0    0 -0.25221763657E+02  0.66708092597E+01 -0.51980555600E+01  0.26601820239E+02  0.51100000000E-03 0. -1.
        -11    1    3    3    0    0 -0.45746208759E+01  0.43890960111E+01 -0.90388124694E+01  0.11040446145E+02  0.51100000000E-03 0.  1.
         12    1    3    3    0    0 -0.52012622533E+01  0.46326507691E+00 -0.86979047864E+01  0.10145013121E+02  0.00000000000E+00 0. -1.
</event>
<event>
 7    1  0.1457722E-010  0.4778728E+02  0.7816164E-02  0.1312668E+00
        -11   -1    0    0    0    0  0.00000000000E+00  0.00000000000E+00  0.45593999997E+02  0.45594000000E+02  0.51100000000E-03 0.  1.
         11   -1    0    0    0    0 -0.00000000000E+00 -0.00000000000E+00 -0.45593999997E+02  0.45594000000E+02  0.51100000000E-03 0. -1.
    9900012    2    1    2    0    0 -0.30927765645E+02 -0.30211220386E+02  0.37918644136E+01  0.47787276956E+02  0.20000026953E+02 0.  0.
        -12    1    1    2    0    0  0.30927765645E+02  0.30211220386E+02 -0.37918644136E+01  0.43400723044E+02  0.00000000000E+00 0.  1.
         11    1    3    3    0    0 -0.68114218751E+01 -0.83230732297E+01  0.92485043669E+00  0.10794645179E+02  0.51100000000E-03 0. -1.
        -11    1    3    3    0    0 -0.22119055618E+02 -0.15803686827E+02 -0.41421897758E+01  0.27498488598E+02  0.51100000000E-03 0.  1.
        -12    1    3    3    0    0 -0.19972881524E+01 -0.60844603292E+01  0.70092037527E+01  0.94941431793E+01  0.00000000000E+00 0.  1.
</event>
<event>
 7    1  0.1517999E-010  0.4778727E+02  0.7816164E-02  0.1312668E+00
        -11   -1    0    0    0    0  0.00000000000E+00  0.00000000000E+00  0.45593999997E+02  0.45594000000E+02  0.51100000000E-03 0. -1.
         11   -1    0    0    0    0 -0.00000000000E+00 -0.00000000000E+00 -0.45593999997E+02  0.45594000000E+02  0.51100000000E-03 0.  1.
    9900012    2    1    2    0    0  0.38815865786E+01 -0.34008636224E+02  0.26682752435E+02  0.47787270401E+02  0.19999997067E+02 0.  0.
        -12    1    1    2    0    0 -0.38815865786E+01  0.34008636224E+02 -0.26682752435E+02  0.43400729599E+02  0.00000000000E+00 0.  1.
         11    1    3    3    0    0 -0.34776585135E+01 -0.28363052994E+02  0.25207723013E+02  0.38104936473E+02  0.51100000000E-03 0. -1.
        -11    1    3    3    0    0  0.27772531011E+01 -0.12590398027E+01  0.13580028793E+01  0.33380365626E+01  0.51100000000E-03 0.  1.
         12    1    3    3    0    0  0.45819919910E+01 -0.43865434278E+01  0.11702654279E+00  0.63442973655E+01  0.00000000000E+00 0. -1.
</event>
<event>
 7    1  0.1457722E-010  0.4778727E+02  0.7816164E-02  0.1312668E+00
        -11   -1    0    0    0    0  0.00000000000E+00  0.00000000000E+00  0.45593999997E+02  0.45594000000E+02  0.51100000000E-03 0. -1.
         11   -1    0    0    0    0 -0.00000000000E+00 -0.00000000000E+00 -0.45593999997E+02  0.45594000000E+02  0.51100000000E-03 0.  1.
    9900012    2    1    2    0    0  0.39070741154E+01 -0.36897479714E+02 -0.22515196212E+02  0.47787270768E+02  0.19999998742E+02 0.  0.
        -12    1    1    2    0    0 -0.39070741154E+01  0.36897479714E+02  0.22515196212E+02  0.43400729232E+02  0.00000000000E+00 0.  1.
         11    1    3    3    0    0 -0.31639028263E+01 -0.68229516521E+01  0.14026382554E+01  0.76505127068E+01  0.51100000000E-03 0. -1.
        -11    1    3    3    0    0 -0.10292327014E+01 -0.12752676003E+02 -0.12380696878E+02  0.17803699634E+02  0.51100000000E-03 0.  1.
         12    1    3    3    0    0  0.81002096431E+01 -0.17321852059E+02 -0.11537137589E+02  0.22333058428E+02  0.00000000000E+00 0. -1.
</event>
<event>
 7    1  0.1457722E-010  0.4778727E+02  0.7816164E-02  0.1312668E+00
        -11   -1    0    0    0    0  0.00000000000E+00  0.00000000000E+00  0.45593999997E+02  0.45594000000E+02  0.51100000000E-03 0.  1.
         11   -1    0    0    0    0 -0.00000000000E+00 -0.00000000000E+00 -0.45593999997E+02  0.45594000000E+02  0.51100000000E-03 0. -1.
    9900012    2    1    2    0    0 -0.59745747634E+01  0.51633362974E+01 -0.42676312068E+02  0.47787271930E+02  0.20000004036E+02 0.  0.
        -12    1    1    2    0    0  0.59745747634E+01 -0.51633362974E+01  0.42676312068E+02  0.43400728070E+02  0.00000000000E+00 0.  1.
         11    1    3    3    0    0 -0.27954498623E+01  0.51619238626E+00 -0.10062959862E+01  0.30155640243E+01  0.51100000000E-03 0. -1.
        -11    1    3    3    0    0 -0.78091363580E+01  0.52146644890E+01 -0.36992831417E+02  0.38166017776E+02  0.51100000000E-03 0.  1.
        -12    1    3    3    0    0  0.46300114568E+01 -0.56752057788E+00 -0.46771846650E+01  0.66056901294E+01  0.00000000000E+00 0.  1.
</event>
<event>
 7    1  0.1457722E-010  0.4778727E+02  0.7816164E-02  0.1312668E+00
        -11   -1    0    0    0    0  0.00000000000E+00  0.00000000000E+00  0.45593999997E+02  0.45594000000E+02  0.51100000000E-03 0. -1.
         11   -1    0    0    0    0 -0.00000000000E+00 -0.00000000000E+00 -0.45593999997E+02  0.45594000000E+02  0.51100000000E-03 0.  1.
    9900012    2    1    2    0    0 -0.66647528698E+01  0.24145191730E+02  0.35443105822E+02  0.47787274605E+02  0.20000016233E+02 0.  0.
        -12    1    1    2    0    0  0.66647528698E+01 -0.24145191730E+02 -0.35443105822E+02  0.43400725395E+02  0.00000000000E+00 0.  1.
         11    1    3    3    0    0 -0.13014343760E+01  0.88228730814E+01  0.16850220107E+02  0.19064803664E+02  0.51100000000E-03 0. -1.
        -11    1    3    3    0    0 -0.14387441469E+01  0.13760041832E+02  0.53689904763E+01  0.14840309799E+02  0.51100000000E-03 0.  1.
        -12    1    3    3    0    0 -0.39245743469E+01  0.15622768165E+01  0.13223895239E+02  0.13882161141E+02  0.00000000000E+00 0.  1.
</event>
<event>
 7    1  0.1457722E-010  0.4778727E+02  0.7816164E-02  0.1312668E+00
        -11   -1    0    0    0    0  0.00000000000E+00  0.00000000000E+00  0.45593999997E+02  0.45594000000E+02  0.51100000000E-03 0.  1.
         11   -1    0    0    0    0 -0.00000000000E+00 -0.00000000000E+00 -0.45593999997E+02  0.45594000000E+02  0.51100000000E-03 0. -1.
    9900012    2    1    2    0    0  0.24432821787E+02  0.28356491830E+02 -0.21967484557E+02  0.47787265131E+02  0.19999973039E+02 0.  0.
        -12    1    1    2    0    0 -0.24432821787E+02 -0.28356491830E+02  0.21967484557E+02  0.43400734869E+02  0.00000000000E+00 0.  1.
         11    1    3    3    0    0  0.18192674254E+02  0.16409590504E+02 -0.41865040765E+01  0.24855077422E+02  0.51100000000E-03 0. -1.
        -11    1    3    3    0    0 -0.48271270745E+00  0.11628633618E+01 -0.39671322308E+01  0.41621390119E+01  0.51100000000E-03 0.  1.
         12    1    3    3    0    0  0.67228602409E+01  0.10784037964E+02 -0.13813848250E+02  0.18770048697E+02  0.00000000000E+00 0. -1.
</event>
<event>
 7    1  0.1720413E-010  0.4778727E+02  0.7816164E-02  0.1312668E+00
        -11   -1    0    0    0    0  0.00000000000E+00  0.00000000000E+00  0.45593999997E+02  0.45594000000E+02  0.51100000000E-03 0. -1.
         11   -1    0    0    0    0 -0.00000000000E+00 -0.00000000000E+00 -0.45593999997E+02  0.45594000000E+02  0.51100000000E-03 0.  1.
    9900012    2    1    2    0    0  0.14819745982E+01  0.29726282015E+02  0.31587576182E+02  0.47787273506E+02  0.20000011223E+02 0.  0.
        -12    1    1    2    0    0 -0.14819745982E+01 -0.29726282015E+02 -0.31587576182E+02  0.43400726494E+02  0.00000000000E+00 0.  1.
         11    1    3    3    0    0 -0.32125021306E+01  0.14227882334E+02  0.16060932863E+02  0.21695768489E+02  0.51100000000E-03 0. -1.
        -11    1    3    3    0    0 -0.19445944363E+01 -0.15579688737E+01  0.85609413081E+00  0.26346939016E+01  0.51100000000E-03 0.  1.
         12    1    3    3    0    0  0.66390711651E+01  0.17056368554E+02  0.14670549188E+02  0.23456811115E+02  0.00000000000E+00 0. -1.
</event>
<event>
 7    1  0.1457722E-010  0.4778727E+02  0.7816164E-02  0.1312668E+00
        -11   -1    0    0    0    0  0.00000000000E+00  0.00000000000E+00  0.45593999997E+02  0.45594000000E+02  0.51100000000E-03 0. -1.
         11   -1    0    0    0    0 -0.00000000000E+00 -0.00000000000E+00 -0.45593999997E+02  0.45594000000E+02  0.51100000000E-03 0.  1.
    9900012    2    1    2    0    0 -0.37922899683E+02  0.19144190651E+02  0.88868907414E+01  0.47787272090E+02  0.20000004767E+02 0.  0.
        -12    1    1    2    0    0  0.37922899683E+02 -0.19144190651E+02 -0.88868907414E+01  0.43400727910E+02  0.00000000000E+00 0.  1.
         11    1    3    3    0    0 -0.15535131256E+02  0.12063331078E+02  0.52096809930E+00  0.19675763463E+02  0.51100000000E-03 0. -1.
        -11    1    3    3    0    0 -0.75117178954E+01  0.31849509269E+01 -0.33085141744E+01  0.88043219188E+01  0.51100000000E-03 0.  1.
         12    1    3    3    0    0 -0.14876050531E+02  0.38959086467E+01  0.11674436817E+02  0.19307186708E+02  0.00000000000E+00 0. -1.
</event>
<event>
 7    1  0.1457722E-010  0.4778727E+02  0.7816164E-02  0.1312668E+00
        -11   -1    0    0    0    0  0.00000000000E+00  0.00000000000E+00  0.45593999997E+02  0.45594000000E+02  0.51100000000E-03 0.  1.
         11   -1    0    0    0    0 -0.00000000000E+00 -0.00000000000E+00 -0.45593999997E+02  0.45594000000E+02  0.51100000000E-03 0. -1.
    9900012    2    1    2    0    0 -0.27470715153E+02  0.33524943167E+02 -0.22496858794E+01  0.47787273141E+02  0.20000009559E+02 0.  0.
        -12    1    1    2    0    0  0.27470715153E+02 -0.33524943167E+02  0.22496858794E+01  0.43400726859E+02  0.00000000000E+00 0.  1.
         11    1    3    3    0    0 -0.14170688666E+02  0.10549902420E+02 -0.33943394410E+01  0.17989730372E+02  0.51100000000E-03 0. -1.
        -11    1    3    3    0    0 -0.28744663026E+01  0.76486880769E+00 -0.37420998602E+01  0.47802607086E+01  0.51100000000E-03 0.  1.
         12    1    3    3    0    0 -0.10425560184E+02  0.22210171939E+02  0.48867534218E+01  0.25017282061E+02  0.00000000000E+00 0. -1.
</event>
<event>
 7    1  0.1457722E-010  0.4778727E+02  0.7816164E-02  0.1312668E+00
        -11   -1    0    0    0    0  0.00000000000E+00  0.00000000000E+00  0.45593999997E+02  0.45594000000E+02  0.51100000000E-03 0.  1.
         11   -1    0    0    0    0 -0.00000000000E+00 -0.00000000000E+00 -0.45593999997E+02  0.45594000000E+02  0.51100000000E-03 0. -1.
    9900012    2    1    2    0    0 -0.12365066519E+02 -0.39862386510E+02  0.11904555843E+02  0.47787272147E+02  0.20000005029E+02 0.  0.
        -12    1    1    2    0    0  0.12365066519E+02  0.39862386510E+02 -0.11904555843E+02  0.43400727853E+02  0.00000000000E+00 0.  1.
         11    1    3    3    0    0 -0.54572310635E+01 -0.13928361672E+02  0.60696905430E+01  0.16143784355E+02  0.51100000000E-03 0. -1.
        -11    1    3    3    0    0 -0.69822468476E+01 -0.12405693729E+02  0.10104484884E+02  0.17457194018E+02  0.51100000000E-03 0.  1.
         12    1    3    3    0    0  0.74411391772E-01 -0.13528331110E+02 -0.42696195848E+01  0.14186293775E+02  0.00000000000E+00 0. -1.
</event>
<event>
 7    1  0.1457722E-010  0.4778727E+02  0.7816164E-02  0.1312668E+00
        -11   -1    0    0    0    0  0.00000000000E+00  0.00000000000E+00  0.45593999997E+02  0.45594000000E+02  0.51100000000E-03 0.  1.
         11   -1    0    0    0    0 -0.00000000000E+00 -0.00000000000E+00 -0.45593999997E+02  0.45594000000E+02  0.51100000000E-03 0. -1.
    9900012    2    1    2    0    0  0.35271648761E+02 -0.14160883995E+01 -0.25249334929E+02  0.47787269280E+02  0.19999991954E+02 0.  0.
        -12    1    1    2    0    0 -0.35271648761E+02  0.14160883995E+01  0.25249334929E+02  0.43400730720E+02  0.00000000000E+00 0.  1.
         11    1    3    3    0    0  0.72737764824E+01  0.27162401388E+01 -0.28631962830E+01  0.82754865733E+01  0.51100000000E-03 0. -1.
        -11    1    3    3    0    0  0.12886885924E+02  0.28941832178E+01 -0.22900305960E+01  0.13404938109E+02  0.51100000000E-03 0.  1.
        -12    1    3    3    0    0  0.15110986355E+02 -0.70265117561E+01 -0.20096108050E+02  0.26106844597E+02  0.00000000000E+00 0.  1.
</event>
<event>
 7    1  0.1457722E-010  0.4778727E+02  0.7816164E-02  0.1312668E+00
        -11   -1    0    0    0    0  0.00000000000E+00  0.00000000000E+00  0.45593999997E+02  0.45594000000E+02  0.51100000000E-03 0.  1.
         11   -1    0    0    0    0 -0.00000000000E+00 -0.00000000000E+00 -0.45593999997E+02  0.45594000000E+02  0.51100000000E-03 0. -1.
    9900012    2    1    2    0    0 -0.64471431477E+01 -0.36716855860E+02 -0.22224540232E+02  0.47787270196E+02  0.19999996132E+02 0.  0.
        -12    1    1    2    0    0  0.64471431477E+01  0.36716855860E+02  0.22224540232E+02  0.43400729804E+02  0.00000000000E+00 0.  1.
         11    1    3    3    0    0 -0.44595489050E+01 -0.71407673119E+01 -0.14149987926E+01  0.85369992435E+01  0.51100000000E-03 0.  1.
        -11    1    3    3    0    0 -0.34730094085E+01 -0.12873262952E+02 -0.17757381233E+02  0.22206019047E+02  0.51100000000E-03 0. -1.
        -12    1    3    3    0    0  0.14854151658E+01 -0.16702825596E+02 -0.30521602061E+01  0.17044251906E+02  0.00000000000E+00 0.  1.
</event>
<event>
 7    1  0.1457722E-010  0.4778728E+02  0.7816164E-02  0.1312668E+00
        -11   -1    0    0    0    0  0.00000000000E+00  0.00000000000E+00  0.45593999997E+02  0.45594000000E+02  0.51100000000E-03 0.  1.
         11   -1    0    0    0    0 -0.00000000000E+00 -0.00000000000E+00 -0.45593999997E+02  0.45594000000E+02  0.51100000000E-03 0. -1.
    9900012    2    1    2    0    0 -0.40741577343E+01 -0.85590232104E+01 -0.42352882629E+02  0.47787282188E+02  0.20000050809E+02 0.  0.
        -12    1    1    2    0    0  0.40741577343E+01  0.85590232104E+01  0.42352882629E+02  0.43400717812E+02  0.00000000000E+00 0.  1.
         11    1    3    3    0    0 -0.96344599615E+00  0.46169690816E+00  0.13204859305E+00  0.10764893472E+01  0.51100000000E-03 0. -1.
        -11    1    3    3    0    0 -0.46399412258E+01 -0.17502643300E+01 -0.16813745544E+01  0.52363632854E+01  0.51100000000E-03 0.  1.
         12    1    3    3    0    0  0.15292294876E+01 -0.72704557885E+01 -0.40803556668E+02  0.41474429556E+02  0.00000000000E+00 0. -1.
</event>
<event>
 7    1  0.1457722E-010  0.4778726E+02  0.7816164E-02  0.1312668E+00
        -11   -1    0    0    0    0  0.00000000000E+00  0.00000000000E+00  0.45593999997E+02  0.45594000000E+02  0.51100000000E-03 0.  1.
         11   -1    0    0    0    0 -0.00000000000E+00 -0.00000000000E+00 -0.45593999997E+02  0.45594000000E+02  0.51100000000E-03 0. -1.
    9900012    2    1    2    0    0  0.23723620501E+02 -0.39545071451E+01 -0.36127215041E+02  0.47787263105E+02  0.19999963800E+02 0.  0.
        -12    1    1    2    0    0 -0.23723620501E+02  0.39545071451E+01  0.36127215041E+02  0.43400736895E+02  0.00000000000E+00 0.  1.
         11    1    3    3    0    0  0.21967420477E+00  0.10555708554E-01 -0.10633098323E+02  0.10635372508E+02  0.51100000000E-03 0. -1.
        -11    1    3    3    0    0  0.10819792175E+02  0.43083618013E+01 -0.86907293996E+01  0.14531299387E+02  0.51100000000E-03 0.  1.
        -12    1    3    3    0    0  0.12684154122E+02 -0.82734246550E+01 -0.16803387318E+02  0.22620591209E+02  0.00000000000E+00 0.  1.
</event>
<event>
 7    1  0.1457722E-010  0.4778728E+02  0.7816164E-02  0.1312668E+00
        -11   -1    0    0    0    0  0.00000000000E+00  0.00000000000E+00  0.45593999997E+02  0.45594000000E+02  0.51100000000E-03 0.  1.
         11   -1    0    0    0    0 -0.00000000000E+00 -0.00000000000E+00 -0.45593999997E+02  0.45594000000E+02  0.51100000000E-03 0. -1.
    9900012    2    1    2    0    0 -0.59458091506E+01  0.30142003455E+02 -0.30655013930E+02  0.47787275377E+02  0.20000019755E+02 0.  0.
        -12    1    1    2    0    0  0.59458091506E+01 -0.30142003455E+02  0.30655013930E+02  0.43400724623E+02  0.00000000000E+00 0.  1.
         11    1    3    3    0    0  0.42839415102E+01  0.41245731714E+01 -0.13001442082E+01  0.60872517553E+01  0.51100000000E-03 0.  1.
        -11    1    3    3    0    0  0.19568859696E+01  0.34143992602E+01 -0.40999003092E+01  0.56830192515E+01  0.51100000000E-03 0. -1.
        -12    1    3    3    0    0 -0.12186636630E+02  0.22603031023E+02 -0.25254969413E+02  0.36017004371E+02  0.00000000000E+00 0.  1.
</event>
<event>
 7    1  0.1457722E-010  0.4778729E+02  0.7816164E-02  0.1312668E+00
        -11   -1    0    0    0    0  0.00000000000E+00  0.00000000000E+00  0.45593999997E+02  0.45594000000E+02  0.51100000000E-03 0. -1.
         11   -1    0    0    0    0 -0.00000000000E+00 -0.00000000000E+00 -0.45593999997E+02  0.45594000000E+02  0.51100000000E-03 0.  1.
    9900012    2    1    2    0    0 -0.21971101907E-02  0.64999258788E+01  0.42911212630E+02  0.47787294814E+02  0.20000108377E+02 0.  0.
        -12    1    1    2    0    0  0.21971101907E-02 -0.64999258788E+01 -0.42911212630E+02  0.43400705186E+02  0.00000000000E+00 0.  1.
         11    1    3    3    0    0 -0.90838165467E+01  0.86959815828E+00  0.17710353826E+02  0.19923065951E+02  0.51100000000E-03 0. -1.
        -11    1    3    3    0    0  0.17291921082E+01 -0.91485248942E+00  0.55713820180E+01  0.59048588701E+01  0.51100000000E-03 0.  1.
         12    1    3    3    0    0  0.73524273284E+01  0.65451802100E+01  0.19629476786E+02  0.21959369993E+02  0.00000000000E+00 0. -1.
</event>
<event>
 7    1  0.1457722E-010  0.4778727E+02  0.7816164E-02  0.1312668E+00
        -11   -1    0    0    0    0  0.00000000000E+00  0.00000000000E+00  0.45593999997E+02  0.45594000000E+02  0.51100000000E-03 0.  1.
         11   -1    0    0    0    0 -0.00000000000E+00 -0.00000000000E+00 -0.45593999997E+02  0.45594000000E+02  0.51100000000E-03 0. -1.
    9900012    2    1    2    0    0 -0.15156634850E+01 -0.10981292379E+02 -0.41961141651E+02  0.47787269283E+02  0.19999991970E+02 0.  0.
        -12    1    1    2    0    0  0.15156634850E+01  0.10981292379E+02  0.41961141651E+02  0.43400730717E+02  0.00000000000E+00 0.  1.
         11    1    3    3    0    0 -0.23835446921E+01  0.32458137324E+00  0.12035589152E+01  0.26898313499E+01  0.51100000000E-03 0.  1.
        -11    1    3    3    0    0  0.19871593174E+01 -0.72356026032E+00 -0.41530930704E+01  0.46605282872E+01  0.51100000000E-03 0. -1.
         12    1    3    3    0    0 -0.11192781103E+01 -0.10582313492E+02 -0.39011607496E+02  0.40436909646E+02  0.00000000000E+00 0. -1.
</event>
<event>
 7    1  0.1457722E-010  0.4778727E+02  0.7816164E-02  0.1312668E+00
        -11   -1    0    0    0    0  0.00000000000E+00  0.00000000000E+00  0.45593999997E+02  0.45594000000E+02  0.51100000000E-03 0.  1.
         11   -1    0    0    0    0 -0.00000000000E+00 -0.00000000000E+00 -0.45593999997E+02  0.45594000000E+02  0.51100000000E-03 0. -1.
    9900012    2    1    2    0    0  0.30815380754E+02  0.29674297801E+02 -0.73124220321E+01  0.47787272391E+02  0.20000006141E+02 0.  0.
        -12    1    1    2    0    0 -0.30815380754E+02 -0.29674297801E+02  0.73124220321E+01  0.43400727609E+02  0.00000000000E+00 0.  1.
         11    1    3    3    0    0  0.72691116942E+01  0.11030246852E+02 -0.45235031325E+01  0.13963108941E+02  0.51100000000E-03 0.  1.
        -11    1    3    3    0    0  0.16891237356E+02  0.46194663303E+01 -0.48341879205E+01  0.18166528058E+02  0.51100000000E-03 0. -1.
         12    1    3    3    0    0  0.66550317042E+01  0.14024584618E+02  0.20452690210E+01  0.15657635392E+02  0.00000000000E+00 0. -1.
</event>
<event>
 7    1  0.1589544E-010  0.4778727E+02  0.7816164E-02  0.1312668E+00
        -11   -1    0    0    0    0  0.00000000000E+00  0.00000000000E+00  0.45593999997E+02  0.45594000000E+02  0.51100000000E-03 0.  1.
         11   -1    0    0    0    0 -0.00000000000E+00 -0.00000000000E+00 -0.45593999997E+02  0.45594000000E+02  0.51100000000E-03 0. -1.
    9900012    2    1    2    0    0  0.33003299156E+02  0.26169492153E+02 -0.10467237367E+02  0.47787272669E+02  0.20000007408E+02 0.  0.
        -12    1    1    2    0    0 -0.33003299156E+02 -0.26169492153E+02  0.10467237367E+02  0.43400727331E+02  0.00000000000E+00 0.  1.
         11    1    3    3    0    0  0.82966892483E+01  0.47224884686E+00 -0.54130725205E+01  0.99176320676E+01  0.51100000000E-03 0. -1.
        -11    1    3    3    0    0  0.14942792718E+01  0.84764884595E+01 -0.16934343666E+01  0.87721974078E+01  0.51100000000E-03 0.  1.
         12    1    3    3    0    0  0.23212330636E+02  0.17220754847E+02 -0.33607304802E+01  0.29097443194E+02  0.00000000000E+00 0. -1.
</event>
<event>
 7    1  0.1457722E-010  0.4778727E+02  0.7816164E-02  0.1312668E+00
        -11   -1    0    0    0    0  0.00000000000E+00  0.00000000000E+00  0.45593999997E+02  0.45594000000E+02  0.51100000000E-03 0.  1.
         11   -1    0    0    0    0 -0.00000000000E+00 -0.00000000000E+00 -0.45593999997E+02  0.45594000000E+02  0.51100000000E-03 0. -1.
    9900012    2    1    2    0    0  0.65359683392E+00 -0.31699632590E+02 -0.29636622806E+02  0.47787270669E+02  0.19999998286E+02 0.  0.
        -12    1    1    2    0    0 -0.65359683392E+00  0.31699632590E+02  0.29636622806E+02  0.43400729331E+02  0.00000000000E+00 0.  1.
         11    1    3    3    0    0  0.30766149764E+01 -0.41426786765E+01 -0.10493726255E+02  0.11693829027E+02  0.51100000000E-03 0. -1.
        -11    1    3    3    0    0 -0.77714723663E+01 -0.14315407199E+02 -0.10983121371E+02  0.19645753264E+02  0.51100000000E-03 0.  1.
         12    1    3    3    0    0  0.53484542239E+01 -0.13241546715E+02 -0.81597751796E+01  0.16447688378E+02  0.00000000000E+00 0. -1.
</event>
<event>
 7    1  0.1457722E-010  0.4778727E+02  0.7816164E-02  0.1312668E+00
        -11   -1    0    0    0    0  0.00000000000E+00  0.00000000000E+00  0.45593999997E+02  0.45594000000E+02  0.51100000000E-03 0. -1.
         11   -1    0    0    0    0 -0.00000000000E+00 -0.00000000000E+00 -0.45593999997E+02  0.45594000000E+02  0.51100000000E-03 0.  1.
    9900012    2    1    2    0    0 -0.13877397034E+02 -0.13514006434E+02  0.38838290123E+02  0.47787270767E+02  0.19999998734E+02 0.  0.
        -12    1    1    2    0    0  0.13877397034E+02  0.13514006434E+02 -0.38838290123E+02  0.43400729233E+02  0.00000000000E+00 0.  1.
         11    1    3    3    0    0  0.15876349858E+01 -0.94225921580E+01  0.15248621974E+02  0.17995174358E+02  0.51100000000E-03 0. -1.
        -11    1    3    3    0    0 -0.11534694310E+02 -0.58349800057E+01  0.12864243847E+02  0.18236911320E+02  0.51100000000E-03 0.  1.
        -12    1    3    3    0    0 -0.39303377096E+01  0.17435657302E+01  0.10725424302E+02  0.11555185088E+02  0.00000000000E+00 0.  1.
</event>
<event>
 7    1  0.1457722E-010  0.4778727E+02  0.7816164E-02  0.1312668E+00
        -11   -1    0    0    0    0  0.00000000000E+00  0.00000000000E+00  0.45593999997E+02  0.45594000000E+02  0.51100000000E-03 0. -1.
         11   -1    0    0    0    0 -0.00000000000E+00 -0.00000000000E+00 -0.45593999997E+02  0.45594000000E+02  0.51100000000E-03 0.  1.
    9900012    2    1    2    0    0  0.41998462914E+02 -0.61015972494E+01  0.90842118842E+01  0.47787270954E+02  0.19999999590E+02 0.  0.
        -12    1    1    2    0    0 -0.41998462914E+02  0.61015972494E+01 -0.90842118842E+01  0.43400729046E+02  0.00000000000E+00 0.  1.
         11    1    3    3    0    0  0.93576758401E+01 -0.65038314190E+01  0.58692471229E+01  0.12818501562E+02  0.51100000000E-03 0. -1.
        -11    1    3    3    0    0  0.24017350686E+02 -0.79990145267E-01  0.77197646124E+01  0.25227649481E+02  0.51100000000E-03 0.  1.
        -12    1    3    3    0    0  0.86234363874E+01  0.48222431484E+00 -0.45047998511E+01  0.97411199107E+01  0.00000000000E+00 0.  1.
</event>
<event>
 7    1  0.1457722E-010  0.4778727E+02  0.7816164E-02  0.1312668E+00
        -11   -1    0    0    0    0  0.00000000000E+00  0.00000000000E+00  0.45593999997E+02  0.45594000000E+02  0.51100000000E-03 0. -1.
         11   -1    0    0    0    0 -0.00000000000E+00 -0.00000000000E+00 -0.45593999997E+02  0.45594000000E+02  0.51100000000E-03 0.  1.
    9900012    2    1    2    0    0 -0.39734514873E+02 -0.17271549696E+02  0.25466333775E+01  0.47787269100E+02  0.19999991133E+02 0.  0.
        -12    1    1    2    0    0  0.39734514873E+02  0.17271549696E+02 -0.25466333775E+01  0.43400730900E+02  0.00000000000E+00 0.  1.
         11    1    3    3    0    0 -0.14785805725E+02 -0.90727950670E+00  0.59779882425E+01  0.15974340385E+02  0.51100000000E-03 0. -1.
        -11    1    3    3    0    0 -0.22297236361E+02 -0.99697566546E+01 -0.89682739409E+00  0.24441094425E+02  0.51100000000E-03 0.  1.
         12    1    3    3    0    0 -0.26514727874E+01 -0.63945135347E+01 -0.25345274709E+01  0.73718342893E+01  0.00000000000E+00 0. -1.
</event>
<event>
 7    1  0.1457722E-010  0.4778727E+02  0.7816164E-02  0.1312668E+00
        -11   -1    0    0    0    0  0.00000000000E+00  0.00000000000E+00  0.45593999997E+02  0.45594000000E+02  0.51100000000E-03 0. -1.
         11   -1    0    0    0    0 -0.00000000000E+00 -0.00000000000E+00 -0.45593999997E+02  0.45594000000E+02  0.51100000000E-03 0.  1.
    9900012    2    1    2    0    0 -0.19060839355E+02 -0.24609471639E+02  0.30243699954E+02  0.47787273299E+02  0.20000010279E+02 0.  0.
        -12    1    1    2    0    0  0.19060839355E+02  0.24609471639E+02 -0.30243699954E+02  0.43400726701E+02  0.00000000000E+00 0.  1.
         11    1    3    3    0    0 -0.12661964685E+02 -0.19804801181E+02  0.10511418235E+02  0.25749668213E+02  0.51100000000E-03 0. -1.
        -11    1    3    3    0    0 -0.22468292237E+01 -0.51773686114E+01  0.11432263151E+02  0.12749510905E+02  0.51100000000E-03 0.  1.
         12    1    3    3    0    0 -0.41520454459E+01  0.37269815269E+00  0.83000185673E+01  0.92880941810E+01  0.00000000000E+00 0. -1.
</event>
<event>
 7    1  0.1457722E-010  0.4778728E+02  0.7816164E-02  0.1312668E+00
        -11   -1    0    0    0    0  0.00000000000E+00  0.00000000000E+00  0.45593999997E+02  0.45594000000E+02  0.51100000000E-03 0. -1.
         11   -1    0    0    0    0 -0.00000000000E+00 -0.00000000000E+00 -0.45593999997E+02  0.45594000000E+02  0.51100000000E-03 0.  1.
    9900012    2    1    2    0    0  0.18799105664E+01 -0.41525290272E+02 -0.12479544925E+02  0.47787276073E+02  0.20000022926E+02 0.  0.
        -12    1    1    2    0    0 -0.18799105664E+01  0.41525290272E+02  0.12479544925E+02  0.43400723927E+02  0.00000000000E+00 0.  1.
         11    1    3    3    0    0  0.33151415417E+01 -0.28610008697E+02 -0.10191113320E+02  0.30551293787E+02  0.51100000000E-03 0. -1.
        -11    1    3    3    0    0  0.17245576595E+01 -0.24419310220E+00 -0.37111802665E+01  0.40995839574E+01  0.51100000000E-03 0.  1.
        -12    1    3    3    0    0 -0.31597886347E+01 -0.12671088472E+02  0.14227486614E+01  0.13136398328E+02  0.00000000000E+00 0.  1.
</event>
<event>
 7    1  0.1457722E-010  0.4778727E+02  0.7816164E-02  0.1312668E+00
        -11   -1    0    0    0    0  0.00000000000E+00  0.00000000000E+00  0.45593999997E+02  0.45594000000E+02  0.51100000000E-03 0.  1.
         11   -1    0    0    0    0 -0.00000000000E+00 -0.00000000000E+00 -0.45593999997E+02  0.45594000000E+02  0.51100000000E-03 0. -1.
    9900012    2    1    2    0    0  0.20968541752E+02 -0.20641571789E+02 -0.31904062439E+02  0.47787269254E+02  0.19999991837E+02 0.  0.
        -12    1    1    2    0    0 -0.20968541752E+02  0.20641571789E+02  0.31904062439E+02  0.43400730746E+02  0.00000000000E+00 0.  1.
         11    1    3    3    0    0  0.12358415833E+01 -0.77568893136E+01 -0.46897380474E+01  0.91482391452E+01  0.51100000000E-03 0. -1.
        -11    1    3    3    0    0  0.10846379627E+02 -0.86902532417E+01 -0.24942514852E+02  0.28553344809E+02  0.51100000000E-03 0.  1.
        -12    1    3    3    0    0  0.88863205425E+01 -0.41944292336E+01 -0.22718095404E+01  0.10085685300E+02  0.00000000000E+00 0.  1.
</event>
<event>
 7    1  0.1457722E-010  0.4778728E+02  0.7816164E-02  0.1312668E+00
        -11   -1    0    0    0    0  0.00000000000E+00  0.00000000000E+00  0.45593999997E+02  0.45594000000E+02  0.51100000000E-03 0.  1.
         11   -1    0    0    0    0 -0.00000000000E+00 -0.00000000000E+00 -0.45593999997E+02  0.45594000000E+02  0.51100000000E-03 0. -1.
    9900012    2    1    2    0    0  0.38035309172E+02  0.11627329424E+02 -0.17370759076E+02  0.47787276455E+02  0.20000024668E+02 0.  0.
        -12    1    1    2    0    0 -0.38035309172E+02 -0.11627329424E+02  0.17370759076E+02  0.43400723545E+02  0.00000000000E+00 0.  1.
         11    1    3    3    0    0  0.21928388337E+02  0.10168371559E+02 -0.64160013844E+01  0.25008300007E+02  0.51100000000E-03 0. -1.
        -11    1    3    3    0    0  0.11739455624E+01  0.12212444036E+01  0.22686555753E+01  0.28313220335E+01  0.51100000000E-03 0.  1.
        -12    1    3    3    0    0  0.14932975272E+02  0.23771346184E+00 -0.13223413267E+02  0.19947654414E+02  0.00000000000E+00 0.  1.
</event>
<event>
 7    1  0.1457722E-010  0.4778727E+02  0.7816164E-02  0.1312668E+00
        -11   -1    0    0    0    0  0.00000000000E+00  0.00000000000E+00  0.45593999997E+02  0.45594000000E+02  0.51100000000E-03 0. -1.
         11   -1    0    0    0    0 -0.00000000000E+00 -0.00000000000E+00 -0.45593999997E+02  0.45594000000E+02  0.51100000000E-03 0.  1.
    9900012    2    1    2    0    0 -0.33956829324E+02 -0.23653452482E+02  0.13079431669E+02  0.47787267232E+02  0.19999982617E+02 0.  0.
        -12    1    1    2    0    0  0.33956829324E+02  0.23653452482E+02 -0.13079431669E+02  0.43400732768E+02  0.00000000000E+00 0.  1.
         11    1    3    3    0    0 -0.11981832336E+02 -0.39392275325E+01  0.50153141363E+01  0.13573326631E+02  0.51100000000E-03 0. -1.
        -11    1    3    3    0    0 -0.95749238353E+01 -0.90420856709E+01 -0.41380329892E+01  0.13804412230E+02  0.51100000000E-03 0.  1.
         12    1    3    3    0    0 -0.12400073152E+02 -0.10672139278E+02  0.12202150522E+02  0.20409528371E+02  0.00000000000E+00 0. -1.
</event>
<event>
 7    1  0.1457722E-010  0.4778725E+02  0.7816164E-02  0.1312668E+00
        -11   -1    0    0    0    0  0.00000000000E+00  0.00000000000E+00  0.45593999997E+02  0.45594000000E+02  0.51100000000E-03 0. -1.
         11   -1    0    0    0    0 -0.00000000000E+00 -0.00000000000E+00 -0.45593999997E+02  0.45594000000E+02  0.51100000000E-03 0.  1.
    9900012    2    1    2    0    0 -0.22895816959E+02  0.36831211688E+02  0.16936035973E+01  0.47787252521E+02  0.19999915544E+02 0.  0.
        -12    1    1    2    0    0  0.22895816959E+02 -0.36831211688E+02 -0.16936035973E+01  0.43400747479E+02  0.00000000000E+00 0.  1.
         11    1    3    3    0    0 -0.12816302763E+02  0.19363957643E+02  0.43807673833E+00  0.23225253144E+02  0.51100000000E-03 0. -1.
        -11    1    3    3    0    0 -0.58580185756E+00  0.65184928327E+01  0.64294256878E+01  0.91744987636E+01  0.51100000000E-03 0.  1.
        -12    1    3    3    0    0 -0.94937123385E+01  0.10948761212E+02 -0.51738988289E+01  0.15387500614E+02  0.00000000000E+00 0.  1.
</event>
<event>
 7    1  0.1457722E-010  0.4778727E+02  0.7816164E-02  0.1312668E+00
        -11   -1    0    0    0    0  0.00000000000E+00  0.00000000000E+00  0.45593999997E+02  0.45594000000E+02  0.51100000000E-03 0.  1.
         11   -1    0    0    0    0 -0.00000000000E+00 -0.00000000000E+00 -0.45593999997E+02  0.45594000000E+02  0.51100000000E-03 0. -1.
    9900012    2    1    2    0    0 -0.75945548213E+01  0.11544057360E+02 -0.41142204099E+02  0.47787268654E+02  0.19999989101E+02 0.  0.
        -12    1    1    2    0    0  0.75945548213E+01 -0.11544057360E+02  0.41142204099E+02  0.43400731346E+02  0.00000000000E+00 0.  1.
         11    1    3    3    0    0 -0.75389250637E+01  0.79783150168E+01 -0.13092955391E+02  0.17085502122E+02  0.51100000000E-03 0. -1.
        -11    1    3    3    0    0 -0.16561158773E+01  0.34607070444E+01 -0.15241611150E+01  0.41282296947E+01  0.51100000000E-03 0.  1.
         12    1    3    3    0    0  0.16004861196E+01  0.10503529832E+00 -0.26525087593E+02  0.26573536838E+02  0.00000000000E+00 0. -1.
</event>
<event>
 7    1  0.1457722E-010  0.4778723E+02  0.7816164E-02  0.1312668E+00
        -11   -1    0    0    0    0  0.00000000000E+00  0.00000000000E+00  0.45593999997E+02  0.45594000000E+02  0.51100000000E-03 0. -1.
         11   -1    0    0    0    0 -0.00000000000E+00 -0.00000000000E+00 -0.45593999997E+02  0.45594000000E+02  0.51100000000E-03 0.  1.
    9900012    2    1    2    0    0 -0.38115033023E+02 -0.12728824409E+02 -0.16396583604E+02  0.47787231953E+02  0.19999821764E+02 0.  0.
        -12    1    1    2    0    0  0.38115033023E+02  0.12728824409E+02  0.16396583604E+02  0.43400768047E+02  0.00000000000E+00 0.  1.
         11    1    3    3    0    0 -0.71675490884E+01  0.25217784089E+01 -0.35593666141E+01  0.83906029124E+01  0.51100000000E-03 0. -1.
        -11    1    3    3    0    0 -0.23284246189E+02 -0.12308707583E+02 -0.15748956493E+02  0.30686968470E+02  0.51100000000E-03 0.  1.
        -12    1    3    3    0    0 -0.76632377456E+01 -0.29418952347E+01  0.29117395031E+01  0.87096605704E+01  0.00000000000E+00 0.  1.
</event>
<event>
 7    1  0.1457722E-010  0.4778726E+02  0.7816164E-02  0.1312668E+00
        -11   -1    0    0    0    0  0.00000000000E+00  0.00000000000E+00  0.45593999997E+02  0.45594000000E+02  0.51100000000E-03 0.  1.
         11   -1    0    0    0    0 -0.00000000000E+00 -0.00000000000E+00 -0.45593999997E+02  0.45594000000E+02  0.51100000000E-03 0. -1.
    9900012    2    1    2    0    0 -0.34080738545E+02 -0.11513296357E+01 -0.26847746924E+02  0.47787264815E+02  0.19999971597E+02 0.  0.
        -12    1    1    2    0    0  0.34080738545E+02  0.11513296357E+01  0.26847746924E+02  0.43400735185E+02  0.00000000000E+00 0.  1.
         11    1    3    3    0    0 -0.22240399328E+01  0.51737895313E+01 -0.78564459353E+01  0.96663434003E+01  0.51100000000E-03 0. -1.
        -11    1    3    3    0    0 -0.75088485763E+01 -0.10893838146E+01 -0.16252085630E+01  0.77595661716E+01  0.51100000000E-03 0.  1.
         12    1    3    3    0    0 -0.24347850036E+02 -0.52357353524E+01 -0.17366092426E+02  0.30361355243E+02  0.00000000000E+00 0. -1.
</event>
<event>
 7    1  0.1457722E-010  0.4778727E+02  0.7816164E-02  0.1312668E+00
        -11   -1    0    0    0    0  0.00000000000E+00  0.00000000000E+00  0.45593999997E+02  0.45594000000E+02  0.51100000000E-03 0. -1.
         11   -1    0    0    0    0 -0.00000000000E+00 -0.00000000000E+00 -0.45593999997E+02  0.45594000000E+02  0.51100000000E-03 0.  1.
    9900012    2    1    2    0    0 -0.15484390308E+02 -0.36689190424E+02  0.17255739700E+02  0.47787267405E+02  0.19999983405E+02 0.  0.
        -12    1    1    2    0    0  0.15484390308E+02  0.36689190424E+02 -0.17255739700E+02  0.43400732595E+02  0.00000000000E+00 0.  1.
         11    1    3    3    0    0 -0.14626324568E+02 -0.21728735737E+02  0.16270429141E+02  0.30834950815E+02  0.51100000000E-03 0.  1.
        -11    1    3    3    0    0  0.68621015092E-01 -0.12825333054E+02  0.37268250528E+01  0.13356013703E+02  0.51100000000E-03 0. -1.
        -12    1    3    3    0    0 -0.92668675562E+00 -0.21351216332E+01 -0.27415144939E+01  0.35963028866E+01  0.00000000000E+00 0.  1.
</event>
<event>
 7    1  0.1457722E-010  0.4778727E+02  0.7816164E-02  0.1312668E+00
        -11   -1    0    0    0    0  0.00000000000E+00  0.00000000000E+00  0.45593999997E+02  0.45594000000E+02  0.51100000000E-03 0. -1.
         11   -1    0    0    0    0 -0.00000000000E+00 -0.00000000000E+00 -0.45593999997E+02  0.45594000000E+02  0.51100000000E-03 0.  1.
    9900012    2    1    2    0    0 -0.38127248463E+02 -0.20277557479E+02 -0.43309186913E+01  0.47787271096E+02  0.20000000235E+02 0.  0.
        -12    1    1    2    0    0  0.38127248463E+02  0.20277557479E+02  0.43309186913E+01  0.43400728904E+02  0.00000000000E+00 0.  1.
         11    1    3    3    0    0 -0.12692008765E+02 -0.46429387278E+01 -0.40199816792E+01  0.14099795016E+02  0.51100000000E-03 0. -1.
        -11    1    3    3    0    0 -0.22883491568E+02 -0.12464296804E+02  0.54620802080E+01  0.26624184525E+02  0.51100000000E-03 0.  1.
        -12    1    3    3    0    0 -0.25517481297E+01 -0.31703219470E+01 -0.57730172201E+01  0.70632915548E+01  0.00000000000E+00 0.  1.
</event>
<event>
 7    1  0.1457722E-010  0.4778727E+02  0.7816164E-02  0.1312668E+00
        -11   -1    0    0    0    0  0.00000000000E+00  0.00000000000E+00  0.45593999997E+02  0.45594000000E+02  0.51100000000E-03 0.  1.
         11   -1    0    0    0    0 -0.00000000000E+00 -0.00000000000E+00 -0.45593999997E+02  0.45594000000E+02  0.51100000000E-03 0. -1.
    9900012    2    1    2    0    0  0.42643777407E+02 -0.71186447372E+01 -0.38021676767E+01  0.47787270357E+02  0.19999996868E+02 0.  0.
        -12    1    1    2    0    0 -0.42643777407E+02  0.71186447372E+01  0.38021676767E+01  0.43400729643E+02  0.00000000000E+00 0.  1.
         11    1    3    3    0    0  0.14120511017E+01 -0.30241712555E+00 -0.41707167862E+01  0.44136405839E+01  0.51100000000E-03 0. -1.
        -11    1    3    3    0    0  0.28061568996E+02 -0.17250325233E+01 -0.44282219966E+01  0.28461140912E+02  0.51100000000E-03 0.  1.
        -12    1    3    3    0    0  0.13170157310E+02 -0.50911950883E+01  0.47967711062E+01  0.14912488861E+02  0.00000000000E+00 0.  1.
</event>
<event>
 7    1  0.1457722E-010  0.4778726E+02  0.7816164E-02  0.1312668E+00
        -11   -1    0    0    0    0  0.00000000000E+00  0.00000000000E+00  0.45593999997E+02  0.45594000000E+02  0.51100000000E-03 0. -1.
         11   -1    0    0    0    0 -0.00000000000E+00 -0.00000000000E+00 -0.45593999997E+02  0.45594000000E+02  0.51100000000E-03 0.  1.
    9900012    2    1    2    0    0 -0.24882427000E+02  0.26411048209E+02  0.23810620455E+02  0.47787259369E+02  0.19999946765E+02 0.  0.
        -12    1    1    2    0    0  0.24882427000E+02 -0.26411048209E+02 -0.23810620455E+02  0.43400740631E+02  0.00000000000E+00 0.  1.
         11    1    3    3    0    0 -0.15332000569E+02  0.12606243964E+02  0.10282421989E+02  0.22354324650E+02  0.51100000000E-03 0. -1.
        -11    1    3    3    0    0 -0.32549346125E+00  0.12153430631E+02  0.79640962622E+01  0.14534051453E+02  0.51100000000E-03 0.  1.
         12    1    3    3    0    0 -0.92249329697E+01  0.16513736137E+01  0.55641022037E+01  0.10898883266E+02  0.00000000000E+00 0. -1.
</event>
<event>
 7    1  0.1457722E-010  0.4778727E+02  0.7816164E-02  0.1312668E+00
        -11   -1    0    0    0    0  0.00000000000E+00  0.00000000000E+00  0.45593999997E+02  0.45594000000E+02  0.51100000000E-03 0. -1.
         11   -1    0    0    0    0 -0.00000000000E+00 -0.00000000000E+00 -0.45593999997E+02  0.45594000000E+02  0.51100000000E-03 0.  1.
    9900012    2    1    2    0    0 -0.39749201241E+02 -0.10646551563E+02  0.13794038809E+02  0.47787267678E+02  0.19999984649E+02 0.  0.
        -12    1    1    2    0    0  0.39749201241E+02  0.10646551563E+02 -0.13794038809E+02  0.43400732322E+02  0.00000000000E+00 0.  1.
         11    1    3    3    0    0 -0.85215872568E+01  0.17526165881E+01  0.65049939168E+01  0.10862967385E+02  0.51100000000E-03 0. -1.
        -11    1    3    3    0    0 -0.27889546100E+02 -0.11572763011E+02  0.15514996890E+01  0.30235124887E+02  0.51100000000E-03 0.  1.
         12    1    3    3    0    0 -0.33380678837E+01 -0.82640514025E+00  0.57375452037E+01  0.66891754063E+01  0.00000000000E+00 0. -1.
</event>
<event>
 7    1  0.1457722E-010  0.4778727E+02  0.7816164E-02  0.1312668E+00
        -11   -1    0    0    0    0  0.00000000000E+00  0.00000000000E+00  0.45593999997E+02  0.45594000000E+02  0.51100000000E-03 0.  1.
         11   -1    0    0    0    0 -0.00000000000E+00 -0.00000000000E+00 -0.45593999997E+02  0.45594000000E+02  0.51100000000E-03 0. -1.
    9900012    2    1    2    0    0  0.39543156994E+02  0.25388928173E+01 -0.17706383396E+02  0.47787271265E+02  0.20000001005E+02 0.  0.
        -12    1    1    2    0    0 -0.39543156994E+02 -0.25388928173E+01  0.17706383396E+02  0.43400728735E+02  0.00000000000E+00 0.  1.
         11    1    3    3    0    0  0.31559278562E+01  0.19617132903E+00 -0.67143176174E+01  0.74216187690E+01  0.51100000000E-03 0. -1.
        -11    1    3    3    0    0  0.32756123050E+01  0.92035396524E+00 -0.59332959200E+01  0.68396409357E+01  0.51100000000E-03 0.  1.
         12    1    3    3    0    0  0.33111616833E+02  0.14223675230E+01 -0.50587698583E+01  0.33526011560E+02  0.00000000000E+00 0. -1.
</event>
<event>
 7    1  0.1457722E-010  0.4778727E+02  0.7816164E-02  0.1312668E+00
        -11   -1    0    0    0    0  0.00000000000E+00  0.00000000000E+00  0.45593999997E+02  0.45594000000E+02  0.51100000000E-03 0.  1.
         11   -1    0    0    0    0 -0.00000000000E+00 -0.00000000000E+00 -0.45593999997E+02  0.45594000000E+02  0.51100000000E-03 0. -1.
    9900012    2    1    2    0    0  0.20130770981E+00 -0.18294086078E+02 -0.39356187460E+02  0.47787267269E+02  0.19999982785E+02 0.  0.
        -12    1    1    2    0    0 -0.20130770981E+00  0.18294086078E+02  0.39356187460E+02  0.43400732731E+02  0.00000000000E+00 0.  1.
         11    1    3    3    0    0  0.61394814941E+01 -0.14512267305E+02 -0.13940282019E+02  0.21038787949E+02  0.51100000000E-03 0. -1.
        -11    1    3    3    0    0 -0.36421269996E+01 -0.27413174623E+01 -0.84946386181E+01  0.96404769604E+01  0.51100000000E-03 0.  1.
         12    1    3    3    0    0 -0.22960467846E+01 -0.10405013107E+01 -0.16921266823E+02  0.17108002359E+02  0.00000000000E+00 0. -1.
</event>
<event>
 7    1  0.1457722E-010  0.4778727E+02  0.7816164E-02  0.1312668E+00
        -11   -1    0    0    0    0  0.00000000000E+00  0.00000000000E+00  0.45593999997E+02  0.45594000000E+02  0.51100000000E-03 0. -1.
         11   -1    0    0    0    0 -0.00000000000E+00 -0.00000000000E+00 -0.45593999997E+02  0.45594000000E+02  0.51100000000E-03 0.  1.
    9900012    2    1    2    0    0  0.24118823140E+02  0.10923010496E+01  0.36065388959E+02  0.47787273831E+02  0.20000012704E+02 0.  0.
        -12    1    1    2    0    0 -0.24118823140E+02 -0.10923010496E+01 -0.36065388959E+02  0.43400726169E+02  0.00000000000E+00 0.  1.
         11    1    3    3    0    0  0.21149047698E+01 -0.66967537016E+01  0.12319501133E+02  0.14180600860E+02  0.51100000000E-03 0. -1.
        -11    1    3    3    0    0  0.40324089908E+01  0.33808473253E+01  0.57562201322E+01  0.77990077175E+01  0.51100000000E-03 0.  1.
         12    1    3    3    0    0  0.17971509380E+02  0.44082074259E+01  0.17989667693E+02  0.25807665253E+02  0.00000000000E+00 0. -1.
</event>
<event>
 7    1  0.1457722E-010  0.4778727E+02  0.7816164E-02  0.1312668E+00
        -11   -1    0    0    0    0  0.00000000000E+00  0.00000000000E+00  0.45593999997E+02  0.45594000000E+02  0.51100000000E-03 0.  1.
         11   -1    0    0    0    0 -0.00000000000E+00 -0.00000000000E+00 -0.45593999997E+02  0.45594000000E+02  0.51100000000E-03 0. -1.
    9900012    2    1    2    0    0  0.19212457641E+02 -0.14564768277E+02 -0.36088394587E+02  0.47787271579E+02  0.20000002439E+02 0.  0.
        -12    1    1    2    0    0 -0.19212457641E+02  0.14564768277E+02  0.36088394587E+02  0.43400728421E+02  0.00000000000E+00 0.  1.
         11    1    3    3    0    0  0.19474085319E+02 -0.11850629083E+02 -0.25723582932E+02  0.34371210741E+02  0.51100000000E-03 0. -1.
        -11    1    3    3    0    0 -0.64023525019E+00 -0.49301017140E+01 -0.99600160599E+01  0.11131833823E+02  0.51100000000E-03 0.  1.
        -12    1    3    3    0    0  0.37860757317E+00  0.22159625205E+01 -0.40479559506E+00  0.22842270160E+01  0.00000000000E+00 0.  1.
</event>
<event>
 7    1  0.1457722E-010  0.4778727E+02  0.7816164E-02  0.1312668E+00
        -11   -1    0    0    0    0  0.00000000000E+00  0.00000000000E+00  0.45593999997E+02  0.45594000000E+02  0.51100000000E-03 0.  1.
         11   -1    0    0    0    0 -0.00000000000E+00 -0.00000000000E+00 -0.45593999997E+02  0.45594000000E+02  0.51100000000E-03 0. -1.
    9900012    2    1    2    0    0 -0.42396707906E+02  0.44969655801E+01 -0.81191118224E+01  0.47787268238E+02  0.19999987202E+02 0.  0.
        -12    1    1    2    0    0  0.42396707906E+02 -0.44969655801E+01  0.81191118224E+01  0.43400731762E+02  0.00000000000E+00 0.  1.
         11    1    3    3    0    0 -0.17975039029E+02  0.14797210347E+01  0.14351052682E+00  0.18036413112E+02  0.51100000000E-03 0. -1.
        -11    1    3    3    0    0 -0.14406831365E+02  0.59472992109E+01 -0.10861585617E+02  0.18997399829E+02  0.51100000000E-03 0.  1.
        -12    1    3    3    0    0 -0.10014837513E+02 -0.29300546655E+01  0.25989632675E+01  0.10753455297E+02  0.00000000000E+00 0.  1.
</event>
<event>
 7    1  0.1457722E-010  0.4778727E+02  0.7816164E-02  0.1312668E+00
        -11   -1    0    0    0    0  0.00000000000E+00  0.00000000000E+00  0.45593999997E+02  0.45594000000E+02  0.51100000000E-03 0.  1.
         11   -1    0    0    0    0 -0.00000000000E+00 -0.00000000000E+00 -0.45593999997E+02  0.45594000000E+02  0.51100000000E-03 0. -1.
    9900012    2    1    2    0    0 -0.19798467908E+02  0.25646315870E+02 -0.28877508749E+02  0.47787270043E+02  0.19999995435E+02 0.  0.
        -12    1    1    2    0    0  0.19798467908E+02 -0.25646315870E+02  0.28877508749E+02  0.43400729957E+02  0.00000000000E+00 0.  1.
         11    1    3    3    0    0 -0.19629919218E+01  0.13938056471E+02 -0.97599704250E+01  0.17128332623E+02  0.51100000000E-03 0. -1.
        -11    1    3    3    0    0 -0.90251320079E+01  0.12163539403E+02 -0.12005174717E+02  0.19326896254E+02  0.51100000000E-03 0.  1.
        -12    1    3    3    0    0 -0.88103439785E+01 -0.45528000486E+00 -0.71123636071E+01  0.11332041166E+02  0.00000000000E+00 0.  1.
</event>
<event>
 7    1  0.1457722E-010  0.4778726E+02  0.7816164E-02  0.1312668E+00
        -11   -1    0    0    0    0  0.00000000000E+00  0.00000000000E+00  0.45593999997E+02  0.45594000000E+02  0.51100000000E-03 0.  1.
         11   -1    0    0    0    0 -0.00000000000E+00 -0.00000000000E+00 -0.45593999997E+02  0.45594000000E+02  0.51100000000E-03 0. -1.
    9900012    2    1    2    0    0 -0.29830576910E+02  0.11199776337E+02 -0.29467377564E+02  0.47787255199E+02  0.19999927754E+02 0.  0.
        -12    1    1    2    0    0  0.29830576910E+02 -0.11199776337E+02  0.29467377564E+02  0.43400744801E+02  0.00000000000E+00 0.  1.
         11    1    3    3    0    0 -0.66432793917E+01  0.33979317831E+01 -0.10953926414E+02  0.13253965656E+02  0.51100000000E-03 0. -1.
        -11    1    3    3    0    0 -0.14904753857E+02  0.41376288873E+00 -0.26058594570E+01  0.15136492032E+02  0.51100000000E-03 0.  1.
         12    1    3    3    0    0 -0.82825436616E+01  0.73880816652E+01 -0.15907591693E+02  0.19396797511E+02  0.00000000000E+00 0. -1.
</event>
<event>
 7    1  0.1457722E-010  0.4778727E+02  0.7816164E-02  0.1312668E+00
        -11   -1    0    0    0    0  0.00000000000E+00  0.00000000000E+00  0.45593999997E+02  0.45594000000E+02  0.51100000000E-03 0. -1.
         11   -1    0    0    0    0 -0.00000000000E+00 -0.00000000000E+00 -0.45593999997E+02  0.45594000000E+02  0.51100000000E-03 0.  1.
    9900012    2    1    2    0    0 -0.39355902954E+02  0.19478422486E+01  0.18191821093E+02  0.47787267962E+02  0.19999985947E+02 0.  0.
        -12    1    1    2    0    0  0.39355902954E+02 -0.19478422486E+01 -0.18191821093E+02  0.43400732038E+02  0.00000000000E+00 0.  1.
         11    1    3    3    0    0 -0.11518488885E+02 -0.69756326264E+00  0.19262435325E+01  0.11699256178E+02  0.51100000000E-03 0. -1.
        -11    1    3    3    0    0 -0.10147521629E+02  0.78997078693E+01  0.10933092086E+02  0.16879279679E+02  0.51100000000E-03 0.  1.
        -12    1    3    3    0    0 -0.17689892439E+02 -0.52543023581E+01  0.53324854739E+01  0.19208732106E+02  0.00000000000E+00 0.  1.
</event>
<event>
 7    1  0.1457722E-010  0.4778726E+02  0.7816164E-02  0.1312668E+00
        -11   -1    0    0    0    0  0.00000000000E+00  0.00000000000E+00  0.45593999997E+02  0.45594000000E+02  0.51100000000E-03 0.  1.
         11   -1    0    0    0    0 -0.00000000000E+00 -0.00000000000E+00 -0.45593999997E+02  0.45594000000E+02  0.51100000000E-03 0. -1.
    9900012    2    1    2    0    0 -0.13431222109E+02 -0.10364792272E+02 -0.39947430226E+02  0.47787264662E+02  0.19999970902E+02 0.  0.
        -12    1    1    2    0    0  0.13431222109E+02  0.10364792272E+02  0.39947430226E+02  0.43400735338E+02  0.00000000000E+00 0.  1.
         11    1    3    3    0    0 -0.55191326363E+01 -0.15232841120E+02 -0.24856658634E+02  0.29670755844E+02  0.51100000000E-03 0. -1.
        -11    1    3    3    0    0 -0.29084182516E+01  0.12791397185E+01 -0.23053424533E+01  0.39255189763E+01  0.51100000000E-03 0.  1.
         12    1    3    3    0    0 -0.50036712209E+01  0.35889091303E+01 -0.12785429139E+02  0.14190989842E+02  0.00000000000E+00 0. -1.
</event>
<event>
 7    1  0.1457722E-010  0.4778728E+02  0.7816164E-02  0.1312668E+00
        -11   -1    0    0    0    0  0.00000000000E+00  0.00000000000E+00  0.45593999997E+02  0.45594000000E+02  0.51100000000E-03 0.  1.
         11   -1    0    0    0    0 -0.00000000000E+00 -0.00000000000E+00 -0.45593999997E+02  0.45594000000E+02  0.51100000000E-03 0. -1.
    9900012    2    1    2    0    0 -0.41184235715E+01 -0.35540881122E+02 -0.24566380262E+02  0.47787277854E+02  0.20000031048E+02 0.  0.
        -12    1    1    2    0    0  0.41184235715E+01  0.35540881122E+02  0.24566380262E+02  0.43400722146E+02  0.00000000000E+00 0.  1.
         11    1    3    3    0    0 -0.96473472417E+00 -0.23743528752E+01 -0.89218883491E+01  0.92826912391E+01  0.51100000000E-03 0. -1.
        -11    1    3    3    0    0 -0.33517910818E+01 -0.94316220146E+01  0.12077632748E+00  0.10010223997E+02  0.51100000000E-03 0.  1.
         12    1    3    3    0    0  0.19810223442E+00 -0.23734906232E+02 -0.15765268240E+02  0.28494362618E+02  0.00000000000E+00 0. -1.
</event>
<event>
 7    1  0.1457722E-010  0.4778727E+02  0.7816164E-02  0.1312668E+00
        -11   -1    0    0    0    0  0.00000000000E+00  0.00000000000E+00  0.45593999997E+02  0.45594000000E+02  0.51100000000E-03 0.  1.
         11   -1    0    0    0    0 -0.00000000000E+00 -0.00000000000E+00 -0.45593999997E+02  0.45594000000E+02  0.51100000000E-03 0. -1.
    9900012    2    1    2    0    0 -0.57270592655E+01  0.28649904224E+02 -0.32093719852E+02  0.47787273349E+02  0.20000010506E+02 0.  0.
        -12    1    1    2    0    0  0.57270592655E+01 -0.28649904224E+02  0.32093719852E+02  0.43400726651E+02  0.00000000000E+00 0.  1.
         11    1    3    3    0    0  0.20809243173E+01  0.10270980402E+02 -0.17775940112E+02  0.20635099504E+02  0.51100000000E-03 0. -1.
        -11    1    3    3    0    0 -0.10383962613E+01  0.15473591378E+02 -0.80147153101E+01  0.17456974500E+02  0.51100000000E-03 0.  1.
        -12    1    3    3    0    0 -0.67695873215E+01  0.29053324445E+01 -0.63030644308E+01  0.96951993448E+01  0.00000000000E+00 0.  1.
</event>
<event>
 7    1  0.1876884E-010  0.4778727E+02  0.7816164E-02  0.1312668E+00
        -11   -1    0    0    0    0  0.00000000000E+00  0.00000000000E+00  0.45593999997E+02  0.45594000000E+02  0.51100000000E-03 0.  1.
         11   -1    0    0    0    0 -0.00000000000E+00 -0.00000000000E+00 -0.45593999997E+02  0.45594000000E+02  0.51100000000E-03 0. -1.
    9900012    2    1    2    0    0  0.39294417720E+02  0.17672742818E+02 -0.52197944541E+01  0.47787270089E+02  0.19999995642E+02 0.  0.
        -12    1    1    2    0    0 -0.39294417720E+02 -0.17672742818E+02  0.52197944541E+01  0.43400729911E+02  0.00000000000E+00 0.  1.
         11    1    3    3    0    0  0.95944326116E+01  0.96850107232E+01  0.14805701492E+01  0.13712937616E+02  0.51100000000E-03 0.  1.
        -11    1    3    3    0    0  0.40129722568E+01  0.64214372177E+00 -0.61260223131E+01  0.73514926739E+01  0.51100000000E-03 0. -1.
         12    1    3    3    0    0  0.25687012852E+02  0.73455883733E+01 -0.57434229018E+00  0.26722839798E+02  0.00000000000E+00 0. -1.
</event>
<event>
 7    1  0.1457722E-010  0.4778727E+02  0.7816164E-02  0.1312668E+00
        -11   -1    0    0    0    0  0.00000000000E+00  0.00000000000E+00  0.45593999997E+02  0.45594000000E+02  0.51100000000E-03 0.  1.
         11   -1    0    0    0    0 -0.00000000000E+00 -0.00000000000E+00 -0.45593999997E+02  0.45594000000E+02  0.51100000000E-03 0. -1.
    9900012    2    1    2    0    0 -0.15393953191E+02 -0.37210363204E+02 -0.16187597953E+02  0.47787271296E+02  0.20000001145E+02 0.  0.
        -12    1    1    2    0    0  0.15393953191E+02  0.37210363204E+02  0.16187597953E+02  0.43400728704E+02  0.00000000000E+00 0.  1.
         11    1    3    3    0    0 -0.21258399687E+01 -0.10842588810E+02 -0.64693700809E+01  0.12803658742E+02  0.51100000000E-03 0. -1.
        -11    1    3    3    0    0  0.36765042782E+01 -0.63179810012E+01 -0.28788629174E+01  0.78562980848E+01  0.51100000000E-03 0.  1.
        -12    1    3    3    0    0 -0.16944617500E+02 -0.20049793393E+02 -0.68393649545E+01  0.27127314469E+02  0.00000000000E+00 0.  1.
</event>
<event>
 7    1  0.1457722E-010  0.4778727E+02  0.7816164E-02  0.1312668E+00
        -11   -1    0    0    0    0  0.00000000000E+00  0.00000000000E+00  0.45593999997E+02  0.45594000000E+02  0.51100000000E-03 0.  1.
         11   -1    0    0    0    0 -0.00000000000E+00 -0.00000000000E+00 -0.45593999997E+02  0.45594000000E+02  0.51100000000E-03 0. -1.
    9900012    2    1    2    0    0 -0.53567819075E+01 -0.31181130602E+02 -0.29709686511E+02  0.47787268548E+02  0.19999988617E+02 0.  0.
        -12    1    1    2    0    0  0.53567819075E+01  0.31181130602E+02  0.29709686511E+02  0.43400731452E+02  0.00000000000E+00 0.  1.
         11    1    3    3    0    0 -0.69801550186E+00 -0.36119707185E+01 -0.90679250636E+01  0.97857459262E+01  0.51100000000E-03 0. -1.
        -11    1    3    3    0    0 -0.30729366181E-01  0.82249835030E+00 -0.53698762771E+01  0.54325886392E+01  0.51100000000E-03 0.  1.
        -12    1    3    3    0    0 -0.46280370395E+01 -0.28391658234E+02 -0.15271885170E+02  0.32568933982E+02  0.00000000000E+00 0.  1.
</event>
<event>
 7    1  0.1457722E-010  0.4778726E+02  0.7816164E-02  0.1312668E+00
        -11   -1    0    0    0    0  0.00000000000E+00  0.00000000000E+00  0.45593999997E+02  0.45594000000E+02  0.51100000000E-03 0. -1.
         11   -1    0    0    0    0 -0.00000000000E+00 -0.00000000000E+00 -0.45593999997E+02  0.45594000000E+02  0.51100000000E-03 0.  1.
    9900012    2    1    2    0    0  0.21551586695E+02  0.33499793780E+02  0.17231288317E+02  0.47787258422E+02  0.19999942450E+02 0.  0.
        -12    1    1    2    0    0 -0.21551586695E+02 -0.33499793780E+02 -0.17231288317E+02  0.43400741578E+02  0.00000000000E+00 0.  1.
         11    1    3    3    0    0  0.94720371597E+01  0.40656197854E+01  0.70984316897E+01  0.12515449848E+02  0.51100000000E-03 0. -1.
        -11    1    3    3    0    0  0.49108849061E+01  0.19384861485E+02  0.11132623863E+02  0.22887222629E+02  0.51100000000E-03 0.  1.
        -12    1    3    3    0    0  0.71686646296E+01  0.10049312510E+02 -0.99976723485E+00  0.12384585944E+02  0.00000000000E+00 0.  1.
</event>
<event>
 7    1  0.1457722E-010  0.4778727E+02  0.7816164E-02  0.1312668E+00
        -11   -1    0    0    0    0  0.00000000000E+00  0.00000000000E+00  0.45593999997E+02  0.45594000000E+02  0.51100000000E-03 0.  1.
         11   -1    0    0    0    0 -0.00000000000E+00 -0.00000000000E+00 -0.45593999997E+02  0.45594000000E+02  0.51100000000E-03 0. -1.
    9900012    2    1    2    0    0 -0.12349326701E+02  0.37800847134E+02 -0.17384276400E+02  0.47787274430E+02  0.20000015438E+02 0.  0.
        -12    1    1    2    0    0  0.12349326701E+02 -0.37800847134E+02  0.17384276400E+02  0.43400725570E+02  0.00000000000E+00 0.  1.
         11    1    3    3    0    0  0.17766066992E+01  0.51086692224E+01 -0.35810731590E+01  0.64868264829E+01  0.51100000000E-03 0. -1.
        -11    1    3    3    0    0 -0.11326250396E+02  0.29282873909E+02 -0.54676864486E+01  0.31869519101E+02  0.51100000000E-03 0.  1.
        -12    1    3    3    0    0 -0.27996830035E+01  0.34093040031E+01 -0.83355167923E+01  0.94309288461E+01  0.00000000000E+00 0.  1.
</event>
<event>
 7    1  0.1457722E-010  0.4778727E+02  0.7816164E-02  0.1312668E+00
        -11   -1    0    0    0    0  0.00000000000E+00  0.00000000000E+00  0.45593999997E+02  0.45594000000E+02  0.51100000000E-03 0.  1.
         11   -1    0    0    0    0 -0.00000000000E+00 -0.00000000000E+00 -0.45593999997E+02  0.45594000000E+02  0.51100000000E-03 0. -1.
    9900012    2    1    2    0    0 -0.45657554567E+01 -0.42990598494E+02 -0.38191119030E+01  0.47787270772E+02  0.19999998760E+02 0.  0.
        -12    1    1    2    0    0  0.45657554567E+01  0.42990598494E+02  0.38191119030E+01  0.43400729228E+02  0.00000000000E+00 0.  1.
         11    1    3    3    0    0  0.16943521991E+01 -0.14945434789E+02  0.44135552668E+01  0.15675341169E+02  0.51100000000E-03 0. -1.
        -11    1    3    3    0    0  0.24640672591E+01 -0.42508844153E+01  0.12210542143E+01  0.50628667200E+01  0.51100000000E-03 0.  1.
         12    1    3    3    0    0 -0.87241749150E+01 -0.23794279290E+02 -0.94537213841E+01  0.27049062883E+02  0.00000000000E+00 0. -1.
</event>
<event>
 7    1  0.1457722E-010  0.4778727E+02  0.7816164E-02  0.1312668E+00
        -11   -1    0    0    0    0  0.00000000000E+00  0.00000000000E+00  0.45593999997E+02  0.45594000000E+02  0.51100000000E-03 0.  1.
         11   -1    0    0    0    0 -0.00000000000E+00 -0.00000000000E+00 -0.45593999997E+02  0.45594000000E+02  0.51100000000E-03 0. -1.
    9900012    2    1    2    0    0  0.16188243567E+02 -0.21744547314E+02 -0.33893051782E+02  0.47787268131E+02  0.19999986715E+02 0.  0.
        -12    1    1    2    0    0 -0.16188243567E+02  0.21744547314E+02  0.33893051782E+02  0.43400731869E+02  0.00000000000E+00 0.  1.
         11    1    3    3    0    0  0.13291079678E+02 -0.12919658729E+02 -0.24627526869E+02  0.30823456338E+02  0.51100000000E-03 0. -1.
        -11    1    3    3    0    0  0.48956731207E+01 -0.27811739689E+01  0.10992618699E+00  0.56315742007E+01  0.51100000000E-03 0.  1.
         12    1    3    3    0    0 -0.19985092318E+01 -0.60437146159E+01 -0.93754510998E+01  0.11332237592E+02  0.00000000000E+00 0. -1.
</event>
<event>
 7    1  0.1457722E-010  0.4778727E+02  0.7816164E-02  0.1312668E+00
        -11   -1    0    0    0    0  0.00000000000E+00  0.00000000000E+00  0.45593999997E+02  0.45594000000E+02  0.51100000000E-03 0. -1.
         11   -1    0    0    0    0 -0.00000000000E+00 -0.00000000000E+00 -0.45593999997E+02  0.45594000000E+02  0.51100000000E-03 0.  1.
    9900012    2    1    2    0    0  0.21613427717E+02  0.37168447781E+02 -0.59151720709E+01  0.47787273868E+02  0.20000012876E+02 0.  0.
        -12    1    1    2    0    0 -0.21613427717E+02 -0.37168447781E+02  0.59151720709E+01  0.43400726132E+02  0.00000000000E+00 0.  1.
         11    1    3    3    0    0  0.19005438399E+02  0.17886626056E+02 -0.45029292352E+01  0.26484230258E+02  0.51100000000E-03 0. -1.
        -11    1    3    3    0    0  0.41531260139E+01  0.19178176475E+02 -0.80372363209E+00  0.19639167002E+02  0.51100000000E-03 0.  1.
        -12    1    3    3    0    0 -0.15451366959E+01  0.10364524954E+00 -0.60851920360E+00  0.16638766083E+01  0.00000000000E+00 0.  1.
</event>
<event>
 7    1  0.1457722E-010  0.4778727E+02  0.7816164E-02  0.1312668E+00
        -11   -1    0    0    0    0  0.00000000000E+00  0.00000000000E+00  0.45593999997E+02  0.45594000000E+02  0.51100000000E-03 0.  1.
         11   -1    0    0    0    0 -0.00000000000E+00 -0.00000000000E+00 -0.45593999997E+02  0.45594000000E+02  0.51100000000E-03 0. -1.
    9900012    2    1    2    0    0 -0.20956293017E+02  0.23003289546E+02 -0.30254014602E+02  0.47787274816E+02  0.20000017195E+02 0.  0.
        -12    1    1    2    0    0  0.20956293017E+02 -0.23003289546E+02  0.30254014602E+02  0.43400725184E+02  0.00000000000E+00 0.  1.
         11    1    3    3    0    0 -0.14419164860E+02  0.64920334022E+01 -0.16670807971E+02  0.22977699006E+02  0.51100000000E-03 0. -1.
        -11    1    3    3    0    0 -0.13593175671E+01 -0.13688726144E+01 -0.32591986883E+00  0.19564714423E+01  0.51100000000E-03 0.  1.
         12    1    3    3    0    0 -0.51778105903E+01  0.17880128759E+02 -0.13257286762E+02  0.22853104367E+02  0.00000000000E+00 0. -1.
</event>
<event>
 7    1  0.1457722E-010  0.4778726E+02  0.7816164E-02  0.1312668E+00
        -11   -1    0    0    0    0  0.00000000000E+00  0.00000000000E+00  0.45593999997E+02  0.45594000000E+02  0.51100000000E-03 0.  1.
         11   -1    0    0    0    0 -0.00000000000E+00 -0.00000000000E+00 -0.45593999997E+02  0.45594000000E+02  0.51100000000E-03 0. -1.
    9900012    2    1    2    0    0  0.32226781059E+02 -0.29038317906E+02  0.13546712320E+01  0.47787257399E+02  0.19999937783E+02 0.  0.
        -12    1    1    2    0    0 -0.32226781059E+02  0.29038317906E+02 -0.13546712320E+01  0.43400742601E+02  0.00000000000E+00 0.  1.
         11    1    3    3    0    0  0.30645636901E+02 -0.24608227526E+02 -0.25286671699E+01  0.39384185671E+02  0.51100000000E-03 0.  1.
        -11    1    3    3    0    0 -0.63378408509E+00  0.90610262722E+00 -0.43677996954E+00  0.11888991717E+01  0.51100000000E-03 0. -1.
        -12    1    3    3    0    0  0.22149282432E+01 -0.53361930066E+01  0.43201183714E+01  0.72141725562E+01  0.00000000000E+00 0.  1.
</event>
<event>
 7    1  0.1457722E-010  0.4778727E+02  0.7816164E-02  0.1312668E+00
        -11   -1    0    0    0    0  0.00000000000E+00  0.00000000000E+00  0.45593999997E+02  0.45594000000E+02  0.51100000000E-03 0.  1.
         11   -1    0    0    0    0 -0.00000000000E+00 -0.00000000000E+00 -0.45593999997E+02  0.45594000000E+02  0.51100000000E-03 0. -1.
    9900012    2    1    2    0    0  0.31951474811E+02 -0.52447451232E+01 -0.28900162449E+02  0.47787268629E+02  0.19999988985E+02 0.  0.
        -12    1    1    2    0    0 -0.31951474811E+02  0.52447451232E+01  0.28900162449E+02  0.43400731371E+02  0.00000000000E+00 0.  1.
         11    1    3    3    0    0  0.21834693222E+01  0.36290927158E+01 -0.85652381643E+01  0.95551639072E+01  0.51100000000E-03 0. -1.
        -11    1    3    3    0    0  0.23586638881E+02 -0.34899697661E+01 -0.17431408487E+02  0.29535799038E+02  0.51100000000E-03 0.  1.
        -12    1    3    3    0    0  0.61813666072E+01 -0.53838680729E+01 -0.29035157976E+01  0.86963056837E+01  0.00000000000E+00 0.  1.
</event>
<event>
 7    1  0.1457722E-010  0.4778727E+02  0.7816164E-02  0.1312668E+00
        -11   -1    0    0    0    0  0.00000000000E+00  0.00000000000E+00  0.45593999997E+02  0.45594000000E+02  0.51100000000E-03 0.  1.
         11   -1    0    0    0    0 -0.00000000000E+00 -0.00000000000E+00 -0.45593999997E+02  0.45594000000E+02  0.51100000000E-03 0. -1.
    9900012    2    1    2    0    0 -0.27848324582E+02 -0.25098722090E+02 -0.21866606615E+02  0.47787268238E+02  0.19999987206E+02 0.  0.
        -12    1    1    2    0    0  0.27848324582E+02  0.25098722090E+02  0.21866606615E+02  0.43400731762E+02  0.00000000000E+00 0.  1.
         11    1    3    3    0    0 -0.10902023575E+02 -0.62619641801E+01 -0.11251482592E+01  0.12622688790E+02  0.51100000000E-03 0.  1.
        -11    1    3    3    0    0 -0.17991308725E+02 -0.14188499452E+02 -0.19854712533E+02  0.30318481433E+02  0.51100000000E-03 0. -1.
         12    1    3    3    0    0  0.10450077186E+01 -0.46482584579E+01 -0.88674582326E+00  0.48460980158E+01  0.00000000000E+00 0. -1.
</event>
<event>
 7    1  0.1457722E-010  0.4778727E+02  0.7816164E-02  0.1312668E+00
        -11   -1    0    0    0    0  0.00000000000E+00  0.00000000000E+00  0.45593999997E+02  0.45594000000E+02  0.51100000000E-03 0.  1.
         11   -1    0    0    0    0 -0.00000000000E+00 -0.00000000000E+00 -0.45593999997E+02  0.45594000000E+02  0.51100000000E-03 0. -1.
    9900012    2    1    2    0    0 -0.85730862276E+01 -0.33507722633E+01 -0.42413412356E+02  0.47787273855E+02  0.20000012815E+02 0.  0.
        -12    1    1    2    0    0  0.85730862276E+01  0.33507722633E+01  0.42413412356E+02  0.43400726145E+02  0.00000000000E+00 0.  1.
         11    1    3    3    0    0 -0.58979442094E+01 -0.24807367590E+00 -0.86394606881E+01  0.10463630713E+02  0.51100000000E-03 0. -1.
        -11    1    3    3    0    0 -0.61666554565E+01 -0.50929250330E+00 -0.43108427336E+01  0.75412455011E+01  0.51100000000E-03 0.  1.
         12    1    3    3    0    0  0.34915134383E+01 -0.25934060841E+01 -0.29463108934E+02  0.29782397641E+02  0.00000000000E+00 0. -1.
</event>
<event>
 7    1  0.1457722E-010  0.4778727E+02  0.7816164E-02  0.1312668E+00
        -11   -1    0    0    0    0  0.00000000000E+00  0.00000000000E+00  0.45593999997E+02  0.45594000000E+02  0.51100000000E-03 0. -1.
         11   -1    0    0    0    0 -0.00000000000E+00 -0.00000000000E+00 -0.45593999997E+02  0.45594000000E+02  0.51100000000E-03 0.  1.
    9900012    2    1    2    0    0 -0.14668676268E+02  0.21715133051E+02  0.34596331178E+02  0.47787271920E+02  0.20000003994E+02 0.  0.
        -12    1    1    2    0    0  0.14668676268E+02 -0.21715133051E+02 -0.34596331178E+02  0.43400728080E+02  0.00000000000E+00 0.  1.
         11    1    3    3    0    0 -0.20875704110E+01  0.11188413576E+02  0.10322668797E+02  0.15365417011E+02  0.51100000000E-03 0. -1.
        -11    1    3    3    0    0 -0.34688240985E+00  0.15238855148E+01  0.13993258842E+02  0.14080264477E+02  0.51100000000E-03 0.  1.
        -12    1    3    3    0    0 -0.12234223447E+02  0.90028339606E+01  0.10280403539E+02  0.18341590433E+02  0.00000000000E+00 0.  1.
</event>
<event>
 7    1  0.1457722E-010  0.4778727E+02  0.7816164E-02  0.1312668E+00
        -11   -1    0    0    0    0  0.00000000000E+00  0.00000000000E+00  0.45593999997E+02  0.45594000000E+02  0.51100000000E-03 0.  1.
         11   -1    0    0    0    0 -0.00000000000E+00 -0.00000000000E+00 -0.45593999997E+02  0.45594000000E+02  0.51100000000E-03 0. -1.
    9900012    2    1    2    0    0 -0.24119301790E+02  0.36035076018E+02 -0.18319125449E+01  0.47787270443E+02  0.19999997259E+02 0.  0.
        -12    1    1    2    0    0  0.24119301790E+02 -0.36035076018E+02  0.18319125449E+01  0.43400729557E+02  0.00000000000E+00 0.  1.
         11    1    3    3    0    0 -0.88016218078E+01  0.97550472171E+01  0.21699713117E+01  0.13316841533E+02  0.51100000000E-03 0. -1.
        -11    1    3    3    0    0  0.14397797622E+01 -0.11364274417E+01 -0.12520776198E+01  0.22208403186E+01  0.51100000000E-03 0.  1.
         12    1    3    3    0    0 -0.16757459745E+02  0.27416456243E+02 -0.27498062368E+01  0.32249588592E+02  0.00000000000E+00 0. -1.
</event>
<event>
 7    1  0.1457722E-010  0.4778728E+02  0.7816164E-02  0.1312668E+00
        -11   -1    0    0    0    0  0.00000000000E+00  0.00000000000E+00  0.45593999997E+02  0.45594000000E+02  0.51100000000E-03 0.  1.
         11   -1    0    0    0    0 -0.00000000000E+00 -0.00000000000E+00 -0.45593999997E+02  0.45594000000E+02  0.51100000000E-03 0. -1.
    9900012    2    1    2    0    0 -0.18790922873E+02  0.15573531002E+02 -0.35888559661E+02  0.47787281518E+02  0.20000047752E+02 0.  0.
        -12    1    1    2    0    0  0.18790922873E+02 -0.15573531002E+02  0.35888559661E+02  0.43400718482E+02  0.00000000000E+00 0.  1.
         11    1    3    3    0    0 -0.45774130715E+01  0.78366958394E+00 -0.69897554486E+01  0.83918728504E+01  0.51100000000E-03 0. -1.
        -11    1    3    3    0    0 -0.14202859332E+02  0.35372208439E+01 -0.11233502684E+02  0.18450602357E+02  0.51100000000E-03 0.  1.
         12    1    3    3    0    0 -0.10650469023E-01  0.11252640574E+02 -0.17665301528E+02  0.20944806310E+02  0.00000000000E+00 0. -1.
</event>
<event>
 7    1  0.1457722E-010  0.4778727E+02  0.7816164E-02  0.1312668E+00
        -11   -1    0    0    0    0  0.00000000000E+00  0.00000000000E+00  0.45593999997E+02  0.45594000000E+02  0.51100000000E-03 0.  1.
         11   -1    0    0    0    0 -0.00000000000E+00 -0.00000000000E+00 -0.45593999997E+02  0.45594000000E+02  0.51100000000E-03 0. -1.
    9900012    2    1    2    0    0  0.83569738193E+00  0.40915429950E+02 -0.14451727093E+02  0.47787271733E+02  0.20000003141E+02 0.  0.
        -12    1    1    2    0    0 -0.83569738193E+00 -0.40915429950E+02  0.14451727093E+02  0.43400728267E+02  0.00000000000E+00 0.  1.
         11    1    3    3    0    0 -0.38206769600E+01  0.34889931521E+02 -0.13116349169E+02  0.37469234177E+02  0.51100000000E-03 0. -1.
        -11    1    3    3    0    0  0.35759546571E+01  0.72235730552E+01  0.23909523865E+00  0.80637848550E+01  0.51100000000E-03 0.  1.
         12    1    3    3    0    0  0.10804196848E+01 -0.11980746264E+01 -0.15744731621E+01  0.22542527018E+01  0.00000000000E+00 0. -1.
</event>
<event>
 7    1  0.1457722E-010  0.4778727E+02  0.7816164E-02  0.1312668E+00
        -11   -1    0    0    0    0  0.00000000000E+00  0.00000000000E+00  0.45593999997E+02  0.45594000000E+02  0.51100000000E-03 0. -1.
         11   -1    0    0    0    0 -0.00000000000E+00 -0.00000000000E+00 -0.45593999997E+02  0.45594000000E+02  0.51100000000E-03 0.  1.
    9900012    2    1    2    0    0 -0.40507417378E+02 -0.15547682179E+02 -0.10208024795E+01  0.47787270496E+02  0.19999997499E+02 0.  0.
        -12    1    1    2    0    0  0.40507417378E+02  0.15547682179E+02  0.10208024795E+01  0.43400729504E+02  0.00000000000E+00 0.  1.
         11    1    3    3    0    0 -0.31885250555E+01  0.51557114496E+00 -0.48080973600E+01  0.57922626079E+01  0.51100000000E-03 0.  1.
        -11    1    3    3    0    0 -0.96156943723E+01 -0.27412001395E+01  0.51054460533E+01  0.11226813267E+02  0.51100000000E-03 0. -1.
         12    1    3    3    0    0 -0.27703197950E+02 -0.13322053184E+02 -0.13181511728E+01  0.30768194621E+02  0.00000000000E+00 0. -1.
</event>
<event>
 7    1  0.1457722E-010  0.4778727E+02  0.7816164E-02  0.1312668E+00
        -11   -1    0    0    0    0  0.00000000000E+00  0.00000000000E+00  0.45593999997E+02  0.45594000000E+02  0.51100000000E-03 0.  1.
         11   -1    0    0    0    0 -0.00000000000E+00 -0.00000000000E+00 -0.45593999997E+02  0.45594000000E+02  0.51100000000E-03 0. -1.
    9900012    2    1    2    0    0  0.41986692672E+02 -0.10975910422E+02  0.51990308627E+00  0.47787271085E+02  0.20000000184E+02 0.  0.
        -12    1    1    2    0    0 -0.41986692672E+02  0.10975910422E+02 -0.51990308627E+00  0.43400728915E+02  0.00000000000E+00 0.  1.
         11    1    3    3    0    0  0.10226463973E+02 -0.76457076946E+01 -0.12959678773E+01  0.12834209931E+02  0.51100000000E-03 0. -1.
        -11    1    3    3    0    0  0.60710159974E+01  0.48350231406E+01 -0.11060557540E+01  0.78395180721E+01  0.51100000000E-03 0.  1.
         12    1    3    3    0    0  0.25689212702E+02 -0.81652258685E+01  0.29219267176E+01  0.27113543082E+02  0.00000000000E+00 0. -1.
</event>
<event>
 7    1  0.1457722E-010  0.4778727E+02  0.7816164E-02  0.1312668E+00
        -11   -1    0    0    0    0  0.00000000000E+00  0.00000000000E+00  0.45593999997E+02  0.45594000000E+02  0.51100000000E-03 0.  1.
         11   -1    0    0    0    0 -0.00000000000E+00 -0.00000000000E+00 -0.45593999997E+02  0.45594000000E+02  0.51100000000E-03 0. -1.
    9900012    2    1    2    0    0 -0.41131493585E+02  0.54136302030E+01  0.12748177263E+02  0.47787272125E+02  0.20000004929E+02 0.  0.
        -12    1    1    2    0    0  0.41131493585E+02 -0.54136302030E+01 -0.12748177263E+02  0.43400727875E+02  0.00000000000E+00 0.  1.
         11    1    3    3    0    0 -0.30851445255E+02  0.38493307910E+00  0.12065942745E+01  0.30877430557E+02  0.51100000000E-03 0. -1.
        -11    1    3    3    0    0 -0.71363259460E+01  0.10066826465E+01  0.74726259963E+01  0.10381748287E+02  0.51100000000E-03 0.  1.
         12    1    3    3    0    0 -0.31437223839E+01  0.40220144775E+01  0.40689569919E+01  0.65280932810E+01  0.00000000000E+00 0. -1.
</event>
<event>
 7    1  0.1457722E-010  0.4778723E+02  0.7816164E-02  0.1312668E+00
        -11   -1    0    0    0    0  0.00000000000E+00  0.00000000000E+00  0.45593999997E+02  0.45594000000E+02  0.51100000000E-03 0.  1.
         11   -1    0    0    0    0 -0.00000000000E+00 -0.00000000000E+00 -0.45593999997E+02  0.45594000000E+02  0.51100000000E-03 0. -1.
    9900012    2    1    2    0    0  0.37915905975E+02 -0.18923240050E+02 -0.93766581435E+01  0.47787232059E+02  0.19999822250E+02 0.  0.
        -12    1    1    2    0    0 -0.37915905975E+02  0.18923240050E+02  0.93766581435E+01  0.43400767941E+02  0.00000000000E+00 0.  1.
         11    1    3    3    0    0  0.37006253822E+02 -0.16068552127E+02 -0.13502758015E+02  0.42543926284E+02  0.51100000000E-03 0. -1.
        -11    1    3    3    0    0  0.63329296240E+00 -0.19403711826E+01  0.17726285289E+01  0.27033890703E+01  0.51100000000E-03 0.  1.
         12    1    3    3    0    0  0.27635919065E+00 -0.91431674023E+00  0.23534713430E+01  0.25399167046E+01  0.00000000000E+00 0. -1.
</event>
<event>
 7    1  0.1457722E-010  0.4778727E+02  0.7816164E-02  0.1312668E+00
        -11   -1    0    0    0    0  0.00000000000E+00  0.00000000000E+00  0.45593999997E+02  0.45594000000E+02  0.51100000000E-03 0.  1.
         11   -1    0    0    0    0 -0.00000000000E+00 -0.00000000000E+00 -0.45593999997E+02  0.45594000000E+02  0.51100000000E-03 0. -1.
    9900012    2    1    2    0    0  0.84313630167E+01 -0.10391707624E+02 -0.41286171838E+02  0.47787268961E+02  0.19999990502E+02 0.  0.
        -12    1    1    2    0    0 -0.84313630167E+01  0.10391707624E+02  0.41286171838E+02  0.43400731039E+02  0.00000000000E+00 0.  1.
         11    1    3    3    0    0  0.11482379331E+01  0.24955316578E+01 -0.65964962935E+01  0.71456204922E+01  0.51100000000E-03 0.  1.
        -11    1    3    3    0    0  0.53104584891E+01 -0.13404459416E+02 -0.35599618264E+02  0.38408505860E+02  0.51100000000E-03 0. -1.
         12    1    3    3    0    0  0.19726665946E+01  0.51722013431E+00  0.90994271947E+00  0.22331426093E+01  0.00000000000E+00 0. -1.
</event>
<event>
 7    1  0.1457722E-010  0.4778727E+02  0.7816164E-02  0.1312668E+00
        -11   -1    0    0    0    0  0.00000000000E+00  0.00000000000E+00  0.45593999997E+02  0.45594000000E+02  0.51100000000E-03 0. -1.
         11   -1    0    0    0    0 -0.00000000000E+00 -0.00000000000E+00 -0.45593999997E+02  0.45594000000E+02  0.51100000000E-03 0.  1.
    9900012    2    1    2    0    0  0.33389712582E+02  0.35261976752E+01  0.27501202675E+02  0.47787272760E+02  0.20000007824E+02 0.  0.
        -12    1    1    2    0    0 -0.33389712582E+02 -0.35261976752E+01 -0.27501202675E+02  0.43400727240E+02  0.00000000000E+00 0.  1.
         11    1    3    3    0    0  0.15037589229E+02  0.37219345009E+01  0.12901254068E+02  0.20159966345E+02  0.51100000000E-03 0. -1.
        -11    1    3    3    0    0  0.18041624378E+02  0.42197709550E+01  0.13861441200E+02  0.23139711094E+02  0.51100000000E-03 0.  1.
        -12    1    3    3    0    0  0.31049897443E+00 -0.44155077807E+01  0.73850740728E+00  0.44875953210E+01  0.00000000000E+00 0.  1.
</event>
<event>
 7    1  0.1457722E-010  0.4778727E+02  0.7816164E-02  0.1312668E+00
        -11   -1    0    0    0    0  0.00000000000E+00  0.00000000000E+00  0.45593999997E+02  0.45594000000E+02  0.51100000000E-03 0.  1.
         11   -1    0    0    0    0 -0.00000000000E+00 -0.00000000000E+00 -0.45593999997E+02  0.45594000000E+02  0.51100000000E-03 0. -1.
    9900012    2    1    2    0    0 -0.75591542930E+01 -0.22778035029E+02 -0.36161351995E+02  0.47787273375E+02  0.20000010627E+02 0.  0.
        -12    1    1    2    0    0  0.75591542930E+01  0.22778035029E+02  0.36161351995E+02  0.43400726625E+02  0.00000000000E+00 0.  1.
         11    1    3    3    0    0  0.32001426578E+01  0.53818291043E+00 -0.21494195262E+01  0.38923718266E+01  0.51100000000E-03 0. -1.
        -11    1    3    3    0    0 -0.60279422212E+01 -0.70026983604E+01 -0.19403943403E+02  0.21491553960E+02  0.51100000000E-03 0.  1.
         12    1    3    3    0    0 -0.47313547297E+01 -0.16313519579E+02 -0.14607989066E+02  0.22403347589E+02  0.00000000000E+00 0. -1.
</event>
<event>
 7    1  0.1457722E-010  0.4778727E+02  0.7816164E-02  0.1312668E+00
        -11   -1    0    0    0    0  0.00000000000E+00  0.00000000000E+00  0.45593999997E+02  0.45594000000E+02  0.51100000000E-03 0.  1.
         11   -1    0    0    0    0 -0.00000000000E+00 -0.00000000000E+00 -0.45593999997E+02  0.45594000000E+02  0.51100000000E-03 0. -1.
    9900012    2    1    2    0    0 -0.21065114189E+01 -0.18190060986E+02 -0.39348538471E+02  0.47787272024E+02  0.20000004466E+02 0.  0.
        -12    1    1    2    0    0  0.21065114189E+01  0.18190060986E+02  0.39348538471E+02  0.43400727976E+02  0.00000000000E+00 0.  1.
         11    1    3    3    0    0  0.70079668156E+01 -0.99367950627E+01 -0.14664131457E+02  0.19049625893E+02  0.51100000000E-03 0. -1.
        -11    1    3    3    0    0 -0.21981387775E+01  0.12877931645E+01 -0.73329479790E+01  0.77628829467E+01  0.51100000000E-03 0.  1.
        -12    1    3    3    0    0 -0.69163394570E+01 -0.95410590882E+01 -0.17351459035E+02  0.20974763185E+02  0.00000000000E+00 0.  1.
</event>
<event>
 7    1  0.1457722E-010  0.4778727E+02  0.7816164E-02  0.1312668E+00
        -11   -1    0    0    0    0  0.00000000000E+00  0.00000000000E+00  0.45593999997E+02  0.45594000000E+02  0.51100000000E-03 0. -1.
         11   -1    0    0    0    0 -0.00000000000E+00 -0.00000000000E+00 -0.45593999997E+02  0.45594000000E+02  0.51100000000E-03 0.  1.
    9900012    2    1    2    0    0  0.18757168533E+02 -0.38453654943E+02 -0.72875528556E+01  0.47787269863E+02  0.19999994611E+02 0.  0.
        -12    1    1    2    0    0 -0.18757168533E+02  0.38453654943E+02  0.72875528556E+01  0.43400730137E+02  0.00000000000E+00 0.  1.
         11    1    3    3    0    0  0.17454183967E+02 -0.22811552230E+02 -0.55664826652E+01  0.29257497887E+02  0.51100000000E-03 0. -1.
        -11    1    3    3    0    0  0.50233221609E+01 -0.11350286603E+02  0.52171511338E+00  0.12423162175E+02  0.51100000000E-03 0.  1.
        -12    1    3    3    0    0 -0.37203375946E+01 -0.42918161101E+01 -0.22427853038E+01  0.61066098008E+01  0.00000000000E+00 0.  1.
</event>
<event>
 7    1  0.1457722E-010  0.4778727E+02  0.7816164E-02  0.1312668E+00
        -11   -1    0    0    0    0  0.00000000000E+00  0.00000000000E+00  0.45593999997E+02  0.45594000000E+02  0.51100000000E-03 0. -1.
         11   -1    0    0    0    0 -0.00000000000E+00 -0.00000000000E+00 -0.45593999997E+02  0.45594000000E+02  0.51100000000E-03 0.  1.
    9900012    2    1    2    0    0 -0.30253046461E+02  0.24194911201E+02  0.19569942897E+02  0.47787271744E+02  0.20000003189E+02 0.  0.
        -12    1    1    2    0    0  0.30253046461E+02 -0.24194911201E+02 -0.19569942897E+02  0.43400728256E+02  0.00000000000E+00 0.  1.
         11    1    3    3    0    0 -0.20772775860E+02  0.95332373311E+01  0.11824353344E+02  0.25733366729E+02  0.51100000000E-03 0. -1.
        -11    1    3    3    0    0 -0.46213806319E+00 -0.56807146108E+00 -0.18008469330E+01  0.19440490507E+01  0.51100000000E-03 0.  1.
        -12    1    3    3    0    0 -0.90181325370E+01  0.15229745331E+02  0.95464364863E+01  0.20109855964E+02  0.00000000000E+00 0.  1.
</event>
<event>
 7    1  0.1457722E-010  0.4778728E+02  0.7816164E-02  0.1312668E+00
        -11   -1    0    0    0    0  0.00000000000E+00  0.00000000000E+00  0.45593999997E+02  0.45594000000E+02  0.51100000000E-03 0.  1.
         11   -1    0    0    0    0 -0.00000000000E+00 -0.00000000000E+00 -0.45593999997E+02  0.45594000000E+02  0.51100000000E-03 0. -1.
    9900012    2    1    2    0    0  0.11412875552E+02 -0.12825145327E+02 -0.39860812531E+02  0.47787280459E+02  0.20000042926E+02 0.  0.
        -12    1    1    2    0    0 -0.11412875552E+02  0.12825145327E+02  0.39860812531E+02  0.43400719541E+02  0.00000000000E+00 0.  1.
         11    1    3    3    0    0  0.69655723521E+01 -0.11873218481E+02 -0.15264271783E+02  0.20554573910E+02  0.51100000000E-03 0.  1.
        -11    1    3    3    0    0 -0.19433789355E+01 -0.28072861828E+01 -0.16006568461E+02  0.16366667699E+02  0.51100000000E-03 0. -1.
         12    1    3    3    0    0  0.63906821350E+01  0.18553593364E+01 -0.85899722866E+01  0.10866038851E+02  0.00000000000E+00 0. -1.
</event>
<event>
 7    1  0.1457722E-010  0.4778727E+02  0.7816164E-02  0.1312668E+00
        -11   -1    0    0    0    0  0.00000000000E+00  0.00000000000E+00  0.45593999997E+02  0.45594000000E+02  0.51100000000E-03 0. -1.
         11   -1    0    0    0    0 -0.00000000000E+00 -0.00000000000E+00 -0.45593999997E+02  0.45594000000E+02  0.51100000000E-03 0.  1.
    9900012    2    1    2    0    0  0.17498224554E+02 -0.31239178163E+02  0.24526499420E+02  0.47787270874E+02  0.19999999224E+02 0.  0.
        -12    1    1    2    0    0 -0.17498224554E+02  0.31239178163E+02 -0.24526499420E+02  0.43400729126E+02  0.00000000000E+00 0.  1.
         11    1    3    3    0    0  0.67518978339E+01 -0.14331752075E+02  0.44761278846E+01  0.16462775070E+02  0.51100000000E-03 0.  1.
        -11    1    3    3    0    0 -0.11145284334E-01 -0.94851574352E+01  0.32228940608E+01  0.10017753350E+02  0.51100000000E-03 0. -1.
         12    1    3    3    0    0  0.10757472004E+02 -0.74222686532E+01  0.16827477474E+02  0.21306742455E+02  0.00000000000E+00 0. -1.
</event>
<event>
 7    1  0.1457722E-010  0.4778727E+02  0.7816164E-02  0.1312668E+00
        -11   -1    0    0    0    0  0.00000000000E+00  0.00000000000E+00  0.45593999997E+02  0.45594000000E+02  0.51100000000E-03 0.  1.
         11   -1    0    0    0    0 -0.00000000000E+00 -0.00000000000E+00 -0.45593999997E+02  0.45594000000E+02  0.51100000000E-03 0. -1.
    9900012    2    1    2    0    0  0.28340660809E+02  0.56888860717E+01 -0.32373858815E+02  0.47787271729E+02  0.20000003123E+02 0.  0.
        -12    1    1    2    0    0 -0.28340660809E+02 -0.56888860717E+01  0.32373858815E+02  0.43400728271E+02  0.00000000000E+00 0.  1.
         11    1    3    3    0    0  0.75386053182E+01  0.39195531616E+01 -0.39173588557E+01  0.93562368395E+01  0.51100000000E-03 0. -1.
        -11    1    3    3    0    0 -0.65285934388E+00 -0.13318689835E+01 -0.95566623628E+01  0.96710855694E+01  0.51100000000E-03 0.  1.
        -12    1    3    3    0    0  0.21454914835E+02  0.31012018936E+01 -0.18899837597E+02  0.28759949321E+02  0.00000000000E+00 0.  1.
</event>
<event>
 7    1  0.1457722E-010  0.4778726E+02  0.7816164E-02  0.1312668E+00
        -11   -1    0    0    0    0  0.00000000000E+00  0.00000000000E+00  0.45593999997E+02  0.45594000000E+02  0.51100000000E-03 0.  1.
         11   -1    0    0    0    0 -0.00000000000E+00 -0.00000000000E+00 -0.45593999997E+02  0.45594000000E+02  0.51100000000E-03 0. -1.
    9900012    2    1    2    0    0 -0.23894668605E+02 -0.21577266166E+02 -0.29104821867E+02  0.47787259697E+02  0.19999948263E+02 0.  0.
        -12    1    1    2    0    0  0.23894668605E+02  0.21577266166E+02  0.29104821867E+02  0.43400740303E+02  0.00000000000E+00 0.  1.
         11    1    3    3    0    0  0.12963487949E+01  0.61440493162E+00 -0.32022600829E+01  0.35089148633E+01  0.51100000000E-03 0. -1.
        -11    1    3    3    0    0 -0.17725133055E+02 -0.71673961945E+01 -0.14433708650E+02  0.23955873094E+02  0.51100000000E-03 0.  1.
         12    1    3    3    0    0 -0.74658843448E+01 -0.15024274903E+02 -0.11468853134E+02  0.20322471740E+02  0.00000000000E+00 0. -1.
</event>
<event>
 7    1  0.1457722E-010  0.4778727E+02  0.7816164E-02  0.1312668E+00
        -11   -1    0    0    0    0  0.00000000000E+00  0.00000000000E+00  0.45593999997E+02  0.45594000000E+02  0.51100000000E-03 0. -1.
         11   -1    0    0    0    0 -0.00000000000E+00 -0.00000000000E+00 -0.45593999997E+02  0.45594000000E+02  0.51100000000E-03 0.  1.
    9900012    2    1    2    0    0 -0.10444534012E+02 -0.10994165226E+02  0.40665255335E+02  0.47787274761E+02  0.20000016947E+02 0.  0.
        -12    1    1    2    0    0  0.10444534012E+02  0.10994165226E+02 -0.40665255335E+02  0.43400725239E+02  0.00000000000E+00 0.  1.
         11    1    3    3    0    0 -0.53800371461E+00 -0.63505726255E+01  0.30181674099E+02  0.30847247403E+02  0.51100000000E-03 0. -1.
        -11    1    3    3    0    0  0.79018115865E+00  0.67891190827E+00  0.21005155868E+01  0.23446691951E+01  0.51100000000E-03 0.  1.
        -12    1    3    3    0    0 -0.10696711456E+02 -0.53225045091E+01  0.83830656498E+01  0.14595358163E+02  0.00000000000E+00 0.  1.
</event>
<event>
 7    1  0.1457722E-010  0.4778724E+02  0.7816164E-02  0.1312668E+00
        -11   -1    0    0    0    0  0.00000000000E+00  0.00000000000E+00  0.45593999997E+02  0.45594000000E+02  0.51100000000E-03 0.  1.
         11   -1    0    0    0    0 -0.00000000000E+00 -0.00000000000E+00 -0.45593999997E+02  0.45594000000E+02  0.51100000000E-03 0. -1.
    9900012    2    1    2    0    0 -0.29925511773E+02  0.28354079338E+01 -0.31305749833E+02  0.47787242338E+02  0.19999869114E+02 0.  0.
        -12    1    1    2    0    0  0.29925511773E+02 -0.28354079338E+01  0.31305749833E+02  0.43400757662E+02  0.00000000000E+00 0.  1.
         11    1    3    3    0    0 -0.22437955533E+01  0.58649168868E+01 -0.10747585359E+02  0.12447588517E+02  0.51100000000E-03 0. -1.
        -11    1    3    3    0    0 -0.15648636398E+02 -0.13821070599E+01 -0.15842810389E+02  0.22311088775E+02  0.51100000000E-03 0.  1.
        -12    1    3    3    0    0 -0.12033079822E+02 -0.16474018931E+01 -0.47153540849E+01  0.13028565046E+02  0.00000000000E+00 0.  1.
</event>
<event>
 7    1  0.1457722E-010  0.4778727E+02  0.7816164E-02  0.1312668E+00
        -11   -1    0    0    0    0  0.00000000000E+00  0.00000000000E+00  0.45593999997E+02  0.45594000000E+02  0.51100000000E-03 0.  1.
         11   -1    0    0    0    0 -0.00000000000E+00 -0.00000000000E+00 -0.45593999997E+02  0.45594000000E+02  0.51100000000E-03 0. -1.
    9900012    2    1    2    0    0  0.58732426702E-01  0.41933229189E+02 -0.11190356510E+02  0.47787271451E+02  0.20000001855E+02 0.  0.
        -12    1    1    2    0    0 -0.58732426702E-01 -0.41933229189E+02  0.11190356510E+02  0.43400728549E+02  0.00000000000E+00 0.  1.
         11    1    3    3    0    0  0.49027305829E+01  0.24114034908E+02  0.12799809929E+01  0.24640653366E+02  0.51100000000E-03 0. -1.
        -11    1    3    3    0    0  0.10917062328E+01  0.54818090502E+00 -0.10188114528E+01  0.15906922521E+01  0.51100000000E-03 0.  1.
        -12    1    3    3    0    0 -0.59357043890E+01  0.17271013376E+02 -0.11451526050E+02  0.21555925833E+02  0.00000000000E+00 0.  1.
</event>
<event>
 7    1  0.1457722E-010  0.4778727E+02  0.7816164E-02  0.1312668E+00
        -11   -1    0    0    0    0  0.00000000000E+00  0.00000000000E+00  0.45593999997E+02  0.45594000000E+02  0.51100000000E-03 0. -1.
         11   -1    0    0    0    0 -0.00000000000E+00 -0.00000000000E+00 -0.45593999997E+02  0.45594000000E+02  0.51100000000E-03 0.  1.
    9900012    2    1    2    0    0 -0.19406251418E+02  0.33748707255E+02  0.19184522414E+02  0.47787265724E+02  0.19999975742E+02 0.  0.
        -12    1    1    2    0    0  0.19406251418E+02 -0.33748707255E+02 -0.19184522414E+02  0.43400734276E+02  0.00000000000E+00 0.  1.
         11    1    3    3    0    0 -0.27290083238E+01  0.26351381455E+01  0.76062577864E+01  0.84997998360E+01  0.51100000000E-03 0.  1.
        -11    1    3    3    0    0 -0.14138144038E+02  0.28802528828E+02  0.14080516389E+02  0.35039031461E+02  0.51100000000E-03 0. -1.
         12    1    3    3    0    0 -0.25390990556E+01  0.23110402818E+01 -0.25022517616E+01  0.42484344265E+01  0.00000000000E+00 0. -1.
</event>
<event>
 7    1  0.1457722E-010  0.4778726E+02  0.7816164E-02  0.1312668E+00
        -11   -1    0    0    0    0  0.00000000000E+00  0.00000000000E+00  0.45593999997E+02  0.45594000000E+02  0.51100000000E-03 0.  1.
         11   -1    0    0    0    0 -0.00000000000E+00 -0.00000000000E+00 -0.45593999997E+02  0.45594000000E+02  0.51100000000E-03 0. -1.
    9900012    2    1    2    0    0 -0.19811326711E+02 -0.37689273609E+02 -0.84055899881E+01  0.47787263206E+02  0.19999964261E+02 0.  0.
        -12    1    1    2    0    0  0.19811326711E+02  0.37689273609E+02  0.84055899881E+01  0.43400736794E+02  0.00000000000E+00 0.  1.
         11    1    3    3    0    0 -0.93857353415E+01 -0.46990554728E+01 -0.34871665388E+01  0.11060446689E+02  0.51100000000E-03 0. -1.
        -11    1    3    3    0    0 -0.54982062033E-01 -0.12359548063E+02  0.22211620118E+01  0.12557667470E+02  0.51100000000E-03 0.  1.
         12    1    3    3    0    0 -0.10370609308E+02 -0.20630670073E+02 -0.71395854611E+01  0.24169149047E+02  0.00000000000E+00 0. -1.
</event>
<event>
 7    1  0.1457722E-010  0.4778727E+02  0.7816164E-02  0.1312668E+00
        -11   -1    0    0    0    0  0.00000000000E+00  0.00000000000E+00  0.45593999997E+02  0.45594000000E+02  0.51100000000E-03 0.  1.
         11   -1    0    0    0    0 -0.00000000000E+00 -0.00000000000E+00 -0.45593999997E+02  0.45594000000E+02  0.51100000000E-03 0. -1.
    9900012    2    1    2    0    0  0.86701684624E+01  0.38099050685E+02  0.18892163932E+02  0.47787270256E+02  0.19999996407E+02 0.  0.
        -12    1    1    2    0    0 -0.86701684624E+01 -0.38099050685E+02 -0.18892163932E+02  0.43400729744E+02  0.00000000000E+00 0.  1.
         11    1    3    3    0    0  0.79464149877E+01  0.15287742832E+02  0.14244998004E+02  0.22355772420E+02  0.51100000000E-03 0.  1.
        -11    1    3    3    0    0 -0.36798479012E+01  0.37787334336E+01  0.23053091489E+01  0.57562624567E+01  0.51100000000E-03 0. -1.
         12    1    3    3    0    0  0.44036013758E+01  0.19032574419E+02  0.23418567784E+01  0.19675235380E+02  0.00000000000E+00 0. -1.
</event>
<event>
 7    1  0.1457722E-010  0.4778727E+02  0.7816164E-02  0.1312668E+00
        -11   -1    0    0    0    0  0.00000000000E+00  0.00000000000E+00  0.45593999997E+02  0.45594000000E+02  0.51100000000E-03 0.  1.
         11   -1    0    0    0    0 -0.00000000000E+00 -0.00000000000E+00 -0.45593999997E+02  0.45594000000E+02  0.51100000000E-03 0. -1.
    9900012    2    1    2    0    0  0.37011094588E+01  0.23309562528E+02 -0.36422377485E+02  0.47787268460E+02  0.19999988218E+02 0.  0.
        -12    1    1    2    0    0 -0.37011094588E+01 -0.23309562528E+02  0.36422377485E+02  0.43400731540E+02  0.00000000000E+00 0.  1.
         11    1    3    3    0    0  0.67256136955E+00  0.47751406247E+01 -0.19034876052E+02  0.19636211787E+02  0.51100000000E-03 0. -1.
        -11    1    3    3    0    0  0.72939337419E+01  0.83043443496E+01 -0.84484245829E+01  0.13911846847E+02  0.51100000000E-03 0.  1.
         12    1    3    3    0    0 -0.42653856527E+01  0.10230077554E+02 -0.89390768506E+01  0.14239209826E+02  0.00000000000E+00 0. -1.
</event>
<event>
 7    1  0.1457722E-010  0.4778732E+02  0.7816164E-02  0.1312668E+00
        -11   -1    0    0    0    0  0.00000000000E+00  0.00000000000E+00  0.45593999997E+02  0.45594000000E+02  0.51100000000E-03 0.  1.
         11   -1    0    0    0    0 -0.00000000000E+00 -0.00000000000E+00 -0.45593999997E+02  0.45594000000E+02  0.51100000000E-03 0. -1.
    9900012    2    1    2    0    0  0.24573014625E+02 -0.32062919274E+02 -0.15866803128E+02  0.47787317037E+02  0.20000209699E+02 0.  0.
        -12    1    1    2    0    0 -0.24573014625E+02  0.32062919274E+02  0.15866803128E+02  0.43400682963E+02  0.00000000000E+00 0.  1.
         11    1    3    3    0    0  0.79656773018E+01 -0.97612616541E+01 -0.88841361108E+01  0.15416293934E+02  0.51100000000E-03 0. -1.
        -11    1    3    3    0    0  0.85101529935E+01 -0.12309576192E+02 -0.11357015553E+02  0.18786435865E+02  0.51100000000E-03 0.  1.
        -12    1    3    3    0    0  0.80971843294E+01 -0.99920814282E+01  0.43743485352E+01  0.13584587238E+02  0.00000000000E+00 0.  1.
</event>
<event>
 7    1  0.1457722E-010  0.4778725E+02  0.7816164E-02  0.1312668E+00
        -11   -1    0    0    0    0  0.00000000000E+00  0.00000000000E+00  0.45593999997E+02  0.45594000000E+02  0.51100000000E-03 0. -1.
         11   -1    0    0    0    0 -0.00000000000E+00 -0.00000000000E+00 -0.45593999997E+02  0.45594000000E+02  0.51100000000E-03 0.  1.
    9900012    2    1    2    0    0  0.19053291939E+02  0.27168185306E+02  0.27972966026E+02  0.47787250527E+02  0.19999906452E+02 0.  0.
        -12    1    1    2    0    0 -0.19053291939E+02 -0.27168185306E+02 -0.27972966026E+02  0.43400749473E+02  0.00000000000E+00 0.  1.
         11    1    3    3    0    0  0.47887724865E+00  0.25240456404E+01  0.59997265709E+01  0.65266261576E+01  0.51100000000E-03 0. -1.
        -11    1    3    3    0    0  0.14372690232E+01  0.15273919155E+02  0.85744747230E+01  0.17574981241E+02  0.51100000000E-03 0.  1.
         12    1    3    3    0    0  0.17137145667E+02  0.93702205109E+01  0.13398764732E+02  0.23685643128E+02  0.00000000000E+00 0. -1.
</event>
<event>
 7    1  0.1457722E-010  0.4778731E+02  0.7816164E-02  0.1312668E+00
        -11   -1    0    0    0    0  0.00000000000E+00  0.00000000000E+00  0.45593999997E+02  0.45594000000E+02  0.51100000000E-03 0.  1.
         11   -1    0    0    0    0 -0.00000000000E+00 -0.00000000000E+00 -0.45593999997E+02  0.45594000000E+02  0.51100000000E-03 0. -1.
    9900012    2    1    2    0    0 -0.29097076778E+02  0.10967202011E+02 -0.30277064482E+02  0.47787308409E+02  0.20000170357E+02 0.  0.
        -12    1    1    2    0    0  0.29097076778E+02 -0.10967202011E+02  0.30277064482E+02  0.43400691591E+02  0.00000000000E+00 0.  1.
         11    1    3    3    0    0 -0.17459038445E+02  0.37603346543E+01 -0.13598509358E+02  0.22447218027E+02  0.51100000000E-03 0. -1.
        -11    1    3    3    0    0  0.10166634687E+01  0.74011389379E+00  0.16958626758E+01  0.21112374714E+01  0.51100000000E-03 0.  1.
         12    1    3    3    0    0 -0.12654701802E+02  0.64667534630E+01 -0.18374417800E+02  0.23228852910E+02  0.00000000000E+00 0. -1.
</event>
<event>
 7    1  0.1457722E-010  0.4778727E+02  0.7816164E-02  0.1312668E+00
        -11   -1    0    0    0    0  0.00000000000E+00  0.00000000000E+00  0.45593999997E+02  0.45594000000E+02  0.51100000000E-03 0.  1.
         11   -1    0    0    0    0 -0.00000000000E+00 -0.00000000000E+00 -0.45593999997E+02  0.45594000000E+02  0.51100000000E-03 0. -1.
    9900012    2    1    2    0    0 -0.21559436548E+02  0.33232118521E+02  0.17732460907E+02  0.47787272178E+02  0.20000005169E+02 0.  0.
        -12    1    1    2    0    0  0.21559436548E+02 -0.33232118521E+02 -0.17732460907E+02  0.43400727822E+02  0.00000000000E+00 0.  1.
         11    1    3    3    0    0 -0.21586561611E+02  0.18752847365E+02  0.91583666715E+01  0.30025399361E+02  0.51100000000E-03 0. -1.
        -11    1    3    3    0    0 -0.26300931864E+00  0.23930747696E+01  0.43200510617E+01  0.49455861322E+01  0.51100000000E-03 0.  1.
         12    1    3    3    0    0  0.29013438133E+00  0.12086196386E+02  0.42540431739E+01  0.12816286684E+02  0.00000000000E+00 0. -1.
</event>
<event>
 7    1  0.1457722E-010  0.4778728E+02  0.7816164E-02  0.1312668E+00
        -11   -1    0    0    0    0  0.00000000000E+00  0.00000000000E+00  0.45593999997E+02  0.45594000000E+02  0.51100000000E-03 0.  1.
         11   -1    0    0    0    0 -0.00000000000E+00 -0.00000000000E+00 -0.45593999997E+02  0.45594000000E+02  0.51100000000E-03 0. -1.
    9900012    2    1    2    0    0  0.36457039623E+02 -0.23509326899E+02  0.13483101686E+01  0.47787284227E+02  0.20000060103E+02 0.  0.
        -12    1    1    2    0    0 -0.36457039623E+02  0.23509326899E+02 -0.13483101686E+01  0.43400715773E+02  0.00000000000E+00 0.  1.
         11    1    3    3    0    0  0.19923354130E+02 -0.87886944620E+01  0.98843728400E+01  0.23914054797E+02  0.51100000000E-03 0. -1.
        -11    1    3    3    0    0  0.45563550601E+01 -0.54074926017E+01 -0.19633372717E+01  0.73386675340E+01  0.51100000000E-03 0.  1.
         12    1    3    3    0    0  0.11977330433E+02 -0.93131398357E+01 -0.65727253998E+01  0.16534561896E+02  0.00000000000E+00 0. -1.
</event>
<event>
 7    1  0.1457722E-010  0.4778728E+02  0.7816164E-02  0.1312668E+00
        -11   -1    0    0    0    0  0.00000000000E+00  0.00000000000E+00  0.45593999997E+02  0.45594000000E+02  0.51100000000E-03 0. -1.
         11   -1    0    0    0    0 -0.00000000000E+00 -0.00000000000E+00 -0.45593999997E+02  0.45594000000E+02  0.51100000000E-03 0.  1.
    9900012    2    1    2    0    0 -0.35631091730E+02 -0.16256671428E+02  0.18702090728E+02  0.47787282709E+02  0.20000053182E+02 0.  0.
        -12    1    1    2    0    0  0.35631091730E+02  0.16256671428E+02 -0.18702090728E+02  0.43400717291E+02  0.00000000000E+00 0.  1.
         11    1    3    3    0    0 -0.34327342094E+01  0.43967938835E+00  0.66232623413E+01  0.74729235523E+01  0.51100000000E-03 0. -1.
        -11    1    3    3    0    0 -0.13107821549E+02 -0.11866662293E+02  0.97676411202E+00  0.17708380167E+02  0.51100000000E-03 0.  1.
         12    1    3    3    0    0 -0.19090535972E+02 -0.48296885234E+01  0.11102064275E+02  0.22605978990E+02  0.00000000000E+00 0. -1.
</event>
<event>
 7    1  0.1457722E-010  0.4778727E+02  0.7816164E-02  0.1312668E+00
        -11   -1    0    0    0    0  0.00000000000E+00  0.00000000000E+00  0.45593999997E+02  0.45594000000E+02  0.51100000000E-03 0.  1.
         11   -1    0    0    0    0 -0.00000000000E+00 -0.00000000000E+00 -0.45593999997E+02  0.45594000000E+02  0.51100000000E-03 0. -1.
    9900012    2    1    2    0    0 -0.17002928314E+02 -0.19187260643E+02 -0.35019605627E+02  0.47787270507E+02  0.19999997551E+02 0.  0.
        -12    1    1    2    0    0  0.17002928314E+02  0.19187260643E+02  0.35019605627E+02  0.43400729493E+02  0.00000000000E+00 0.  1.
         11    1    3    3    0    0 -0.11683477825E+02 -0.71309415214E+01 -0.11262638817E+02  0.17725716190E+02  0.51100000000E-03 0. -1.
        -11    1    3    3    0    0 -0.63378476718E+01 -0.41816626473E+01 -0.36123626464E+01  0.84085539635E+01  0.51100000000E-03 0.  1.
         12    1    3    3    0    0  0.10183971826E+01 -0.78746564742E+01 -0.20144604164E+02  0.21653000354E+02  0.00000000000E+00 0. -1.
</event>
<event>
 7    1  0.1457722E-010  0.4778727E+02  0.7816164E-02  0.1312668E+00
        -11   -1    0    0    0    0  0.00000000000E+00  0.00000000000E+00  0.45593999997E+02  0.45594000000E+02  0.51100000000E-03 0.  1.
         11   -1    0    0    0    0 -0.00000000000E+00 -0.00000000000E+00 -0.45593999997E+02  0.45594000000E+02  0.51100000000E-03 0. -1.
    9900012    2    1    2    0    0 -0.28378401586E+02 -0.11169991901E+02 -0.30879136142E+02  0.47787269078E+02  0.19999991036E+02 0.  0.
        -12    1    1    2    0    0  0.28378401586E+02  0.11169991901E+02  0.30879136142E+02  0.43400730922E+02  0.00000000000E+00 0.  1.
         11    1    3    3    0    0 -0.13009811387E+02 -0.33786237059E+01 -0.94567443955E+01  0.16434728635E+02  0.51100000000E-03 0. -1.
        -11    1    3    3    0    0 -0.58022151426E+01 -0.11064380576E+02 -0.14278071840E+02  0.18972336541E+02  0.51100000000E-03 0.  1.
         12    1    3    3    0    0 -0.95663750564E+01  0.32730123801E+01 -0.71443199064E+01  0.12380203903E+02  0.00000000000E+00 0. -1.
</event>
<event>
 7    1  0.1457722E-010  0.4778727E+02  0.7816164E-02  0.1312668E+00
        -11   -1    0    0    0    0  0.00000000000E+00  0.00000000000E+00  0.45593999997E+02  0.45594000000E+02  0.51100000000E-03 0.  1.
         11   -1    0    0    0    0 -0.00000000000E+00 -0.00000000000E+00 -0.45593999997E+02  0.45594000000E+02  0.51100000000E-03 0. -1.
    9900012    2    1    2    0    0  0.36744173961E+02 -0.14970223169E+02 -0.17589241094E+02  0.47787270697E+02  0.19999998415E+02 0.  0.
        -12    1    1    2    0    0 -0.36744173961E+02  0.14970223169E+02  0.17589241094E+02  0.43400729303E+02  0.00000000000E+00 0.  1.
         11    1    3    3    0    0  0.56437485282E+01 -0.40497562878E+01  0.94361858003E+00  0.70101954128E+01  0.51100000000E-03 0. -1.
        -11    1    3    3    0    0  0.15841088353E+02  0.20401868688E+01 -0.10966466125E+02  0.19374359917E+02  0.51100000000E-03 0.  1.
        -12    1    3    3    0    0  0.15259337080E+02 -0.12960653750E+02 -0.75663935490E+01  0.21402715367E+02  0.00000000000E+00 0.  1.
</event>
<event>
 7    1  0.1457722E-010  0.4778727E+02  0.7816164E-02  0.1312668E+00
        -11   -1    0    0    0    0  0.00000000000E+00  0.00000000000E+00  0.45593999997E+02  0.45594000000E+02  0.51100000000E-03 0.  1.
         11   -1    0    0    0    0 -0.00000000000E+00 -0.00000000000E+00 -0.45593999997E+02  0.45594000000E+02  0.51100000000E-03 0. -1.
    9900012    2    1    2    0    0  0.36832461800E+02  0.16773946314E+02  0.15672519918E+02  0.47787269617E+02  0.19999993491E+02 0.  0.
        -12    1    1    2    0    0 -0.36832461800E+02 -0.16773946314E+02 -0.15672519918E+02  0.43400730383E+02  0.00000000000E+00 0.  1.
         11    1    3    3    0    0  0.98493435488E+01  0.27717360866E+01  0.12727122732E+02  0.16330087035E+02  0.51100000000E-03 0.  1.
        -11    1    3    3    0    0  0.59949106699E+01  0.20797159252E+01 -0.23113392788E+01  0.67532556439E+01  0.51100000000E-03 0. -1.
        -12    1    3    3    0    0  0.20988207582E+02  0.11922494302E+02  0.52567364648E+01  0.24703926937E+02  0.00000000000E+00 0.  1.
</event>
<event>
 7    1  0.1457722E-010  0.4778727E+02  0.7816164E-02  0.1312668E+00
        -11   -1    0    0    0    0  0.00000000000E+00  0.00000000000E+00  0.45593999997E+02  0.45594000000E+02  0.51100000000E-03 0. -1.
         11   -1    0    0    0    0 -0.00000000000E+00 -0.00000000000E+00 -0.45593999997E+02  0.45594000000E+02  0.51100000000E-03 0.  1.
    9900012    2    1    2    0    0  0.41312734538E+02  0.12609239644E+02 -0.42294608642E+01  0.47787270760E+02  0.19999998701E+02 0.  0.
        -12    1    1    2    0    0 -0.41312734538E+02 -0.12609239644E+02  0.42294608642E+01  0.43400729240E+02  0.00000000000E+00 0.  1.
         11    1    3    3    0    0  0.11870113306E+02  0.37057230133E+01  0.49777456713E+01  0.13394399023E+02  0.51100000000E-03 0. -1.
        -11    1    3    3    0    0  0.20215198504E+02  0.11785246349E+02 -0.75305564396E+01  0.24581610253E+02  0.51100000000E-03 0.  1.
         12    1    3    3    0    0  0.92274227278E+01 -0.28817297183E+01 -0.16766500958E+01  0.98112614842E+01  0.00000000000E+00 0. -1.
</event>
<event>
 7    1  0.1457722E-010  0.4778727E+02  0.7816164E-02  0.1312668E+00
        -11   -1    0    0    0    0  0.00000000000E+00  0.00000000000E+00  0.45593999997E+02  0.45594000000E+02  0.51100000000E-03 0.  1.
         11   -1    0    0    0    0 -0.00000000000E+00 -0.00000000000E+00 -0.45593999997E+02  0.45594000000E+02  0.51100000000E-03 0. -1.
    9900012    2    1    2    0    0  0.25903086605E+02 -0.34387909191E+02 -0.54886322329E+01  0.47787270997E+02  0.19999999782E+02 0.  0.
        -12    1    1    2    0    0 -0.25903086605E+02  0.34387909191E+02  0.54886322329E+01  0.43400729003E+02  0.00000000000E+00 0.  1.
         11    1    3    3    0    0  0.11016714554E+02 -0.18974752441E+02  0.32382109600E+01  0.22178711420E+02  0.51100000000E-03 0. -1.
        -11    1    3    3    0    0  0.44101175301E+01 -0.12171728474E+02 -0.62041109880E+01  0.14355873505E+02  0.51100000000E-03 0.  1.
        -12    1    3    3    0    0  0.10476254521E+02 -0.32414282761E+01 -0.25227322049E+01  0.11252686072E+02  0.00000000000E+00 0.  1.
</event>
<event>
 7    1  0.1457722E-010  0.4778727E+02  0.7816164E-02  0.1312668E+00
        -11   -1    0    0    0    0  0.00000000000E+00  0.00000000000E+00  0.45593999997E+02  0.45594000000E+02  0.51100000000E-03 0. -1.
         11   -1    0    0    0    0 -0.00000000000E+00 -0.00000000000E+00 -0.45593999997E+02  0.45594000000E+02  0.51100000000E-03 0.  1.
    9900012    2    1    2    0    0  0.94545249661E+01  0.39797551679E+02 -0.14504844308E+02  0.47787266477E+02  0.19999979174E+02 0.  0.
        -12    1    1    2    0    0 -0.94545249661E+01 -0.39797551679E+02  0.14504844308E+02  0.43400733523E+02  0.00000000000E+00 0.  1.
         11    1    3    3    0    0  0.51230945878E+01  0.13767966402E+02 -0.77780665065E+01  0.16622313794E+02  0.51100000000E-03 0. -1.
        -11    1    3    3    0    0  0.73911445551E+01  0.21377200252E+02 -0.99724827618E+01  0.24719711187E+02  0.51100000000E-03 0.  1.
        -12    1    3    3    0    0 -0.30597141769E+01  0.46523850242E+01  0.32457049605E+01  0.64452414965E+01  0.00000000000E+00 0.  1.
</event>
<event>
 7    1  0.1457722E-010  0.4778728E+02  0.7816164E-02  0.1312668E+00
        -11   -1    0    0    0    0  0.00000000000E+00  0.00000000000E+00  0.45593999997E+02  0.45594000000E+02  0.51100000000E-03 0. -1.
         11   -1    0    0    0    0 -0.00000000000E+00 -0.00000000000E+00 -0.45593999997E+02  0.45594000000E+02  0.51100000000E-03 0.  1.
    9900012    2    1    2    0    0 -0.78035461770E+01 -0.42221330273E+02  0.63313995676E+01  0.47787277846E+02  0.20000031013E+02 0.  0.
        -12    1    1    2    0    0  0.78035461770E+01  0.42221330273E+02 -0.63313995676E+01  0.43400722154E+02  0.00000000000E+00 0.  1.
         11    1    3    3    0    0  0.76539637806E+00 -0.12183719058E+02  0.75332796615E+01  0.14345004162E+02  0.51100000000E-03 0. -1.
        -11    1    3    3    0    0 -0.11267425361E+02 -0.19784936307E+02 -0.16748165863E+01  0.22829883701E+02  0.51100000000E-03 0.  1.
         12    1    3    3    0    0  0.26984828062E+01 -0.10252674908E+02  0.47293649235E+00  0.10612389983E+02  0.00000000000E+00 0. -1.
</event>
<event>
 7    1  0.1457722E-010  0.4778727E+02  0.7816164E-02  0.1312668E+00
        -11   -1    0    0    0    0  0.00000000000E+00  0.00000000000E+00  0.45593999997E+02  0.45594000000E+02  0.51100000000E-03 0. -1.
         11   -1    0    0    0    0 -0.00000000000E+00 -0.00000000000E+00 -0.45593999997E+02  0.45594000000E+02  0.51100000000E-03 0.  1.
    9900012    2    1    2    0    0  0.41097116479E+02 -0.55107346739E+01  0.12817255998E+02  0.47787271540E+02  0.20000002259E+02 0.  0.
        -12    1    1    2    0    0 -0.41097116479E+02  0.55107346739E+01 -0.12817255998E+02  0.43400728460E+02  0.00000000000E+00 0.  1.
         11    1    3    3    0    0  0.76347158887E+01  0.34252050972E+01 -0.40654386360E+00  0.83777201453E+01  0.51100000000E-03 0. -1.
        -11    1    3    3    0    0  0.80936943571E+01  0.34916491644E+01  0.21958757159E+01  0.90841275120E+01  0.51100000000E-03 0.  1.
         12    1    3    3    0    0  0.25368706233E+02 -0.12427588935E+02  0.11027924146E+02  0.30325423883E+02  0.00000000000E+00 0. -1.
</event>
<event>
 7    1  0.1457722E-010  0.4778727E+02  0.7816164E-02  0.1312668E+00
        -11   -1    0    0    0    0  0.00000000000E+00  0.00000000000E+00  0.45593999997E+02  0.45594000000E+02  0.51100000000E-03 0.  1.
         11   -1    0    0    0    0 -0.00000000000E+00 -0.00000000000E+00 -0.45593999997E+02  0.45594000000E+02  0.51100000000E-03 0. -1.
    9900012    2    1    2    0    0  0.42521247696E+02 -0.83926984115E+01 -0.22647915808E+01  0.47787272204E+02  0.20000005288E+02 0.  0.
        -12    1    1    2    0    0 -0.42521247696E+02  0.83926984115E+01  0.22647915808E+01  0.43400727796E+02  0.00000000000E+00 0.  1.
         11    1    3    3    0    0  0.11687202358E+02 -0.28868479047E+01 -0.68107739089E+01  0.13831530330E+02  0.51100000000E-03 0. -1.
        -11    1    3    3    0    0  0.48004367932E+01  0.31742788799E+01  0.29494325878E+01  0.64667915278E+01  0.51100000000E-03 0.  1.
        -12    1    3    3    0    0  0.26033608545E+02 -0.86801293867E+01  0.15965497403E+01  0.27488950346E+02  0.00000000000E+00 0.  1.
</event>
<event>
 7    1  0.1457722E-010  0.4778727E+02  0.7816164E-02  0.1312668E+00
        -11   -1    0    0    0    0  0.00000000000E+00  0.00000000000E+00  0.45593999997E+02  0.45594000000E+02  0.51100000000E-03 0.  1.
         11   -1    0    0    0    0 -0.00000000000E+00 -0.00000000000E+00 -0.45593999997E+02  0.45594000000E+02  0.51100000000E-03 0. -1.
    9900012    2    1    2    0    0  0.17560122727E+02 -0.10185360516E+02 -0.38360442710E+02  0.47787273694E+02  0.20000012079E+02 0.  0.
        -12    1    1    2    0    0 -0.17560122727E+02  0.10185360516E+02  0.38360442710E+02  0.43400726306E+02  0.00000000000E+00 0.  1.
         11    1    3    3    0    0  0.13932168754E+01  0.17480682114E+01 -0.82117604554E+00  0.23814126254E+01  0.51100000000E-03 0. -1.
        -11    1    3    3    0    0 -0.18920518261E+01  0.19755330731E+01 -0.35707043091E+01  0.44980574207E+01  0.51100000000E-03 0.  1.
         12    1    3    3    0    0  0.18058957678E+02 -0.13908961801E+02 -0.33968562355E+02  0.40907803647E+02  0.00000000000E+00 0. -1.
</event>
<event>
 7    1  0.1457722E-010  0.4778727E+02  0.7816164E-02  0.1312668E+00
        -11   -1    0    0    0    0  0.00000000000E+00  0.00000000000E+00  0.45593999997E+02  0.45594000000E+02  0.51100000000E-03 0. -1.
         11   -1    0    0    0    0 -0.00000000000E+00 -0.00000000000E+00 -0.45593999997E+02  0.45594000000E+02  0.51100000000E-03 0.  1.
    9900012    2    1    2    0    0 -0.11632633778E+02  0.38728405830E+02  0.15761219850E+02  0.47787266850E+02  0.19999980877E+02 0.  0.
        -12    1    1    2    0    0  0.11632633778E+02 -0.38728405830E+02 -0.15761219850E+02  0.43400733150E+02  0.00000000000E+00 0.  1.
         11    1    3    3    0    0 -0.65721620210E+01  0.11434576900E+02  0.25487830437E+01  0.13432764339E+02  0.51100000000E-03 0. -1.
        -11    1    3    3    0    0 -0.57568052648E+01  0.17397170050E+01  0.13058787175E+01  0.61540833274E+01  0.51100000000E-03 0.  1.
        -12    1    3    3    0    0  0.69633350743E+00  0.25554111925E+02  0.11906558089E+02  0.28200419184E+02  0.00000000000E+00 0.  1.
</event>
<event>
 7    1  0.1457722E-010  0.4778726E+02  0.7816164E-02  0.1312668E+00
        -11   -1    0    0    0    0  0.00000000000E+00  0.00000000000E+00  0.45593999997E+02  0.45594000000E+02  0.51100000000E-03 0.  1.
         11   -1    0    0    0    0 -0.00000000000E+00 -0.00000000000E+00 -0.45593999997E+02  0.45594000000E+02  0.51100000000E-03 0. -1.
    9900012    2    1    2    0    0 -0.64029928747E+01  0.39029709561E+02 -0.17869185237E+02  0.47787258909E+02  0.19999944670E+02 0.  0.
        -12    1    1    2    0    0  0.64029928747E+01 -0.39029709561E+02  0.17869185237E+02  0.43400741091E+02  0.00000000000E+00 0.  1.
         11    1    3    3    0    0 -0.53378872903E+01  0.19893589268E+02 -0.10190539343E+02  0.22980318253E+02  0.51100000000E-03 0. -1.
        -11    1    3    3    0    0 -0.12296902396E+01  0.82999288001E+00 -0.62731546177E+01  0.64462000733E+01  0.51100000000E-03 0.  1.
        -12    1    3    3    0    0  0.16458465515E+00  0.18306127414E+02 -0.14054912768E+01  0.18360740582E+02  0.00000000000E+00 0.  1.
</event>
<event>
 7    1  0.1457722E-010  0.4778721E+02  0.7816164E-02  0.1312668E+00
        -11   -1    0    0    0    0  0.00000000000E+00  0.00000000000E+00  0.45593999997E+02  0.45594000000E+02  0.51100000000E-03 0. -1.
         11   -1    0    0    0    0 -0.00000000000E+00 -0.00000000000E+00 -0.45593999997E+02  0.45594000000E+02  0.51100000000E-03 0.  1.
    9900012    2    1    2    0    0  0.18845332268E+02 -0.97618698102E+01  0.37857467316E+02  0.47787211043E+02  0.19999726428E+02 0.  0.
        -12    1    1    2    0    0 -0.18845332268E+02  0.97618698102E+01 -0.37857467316E+02  0.43400788957E+02  0.00000000000E+00 0.  1.
         11    1    3    3    0    0  0.10369197816E+02  0.32651727831E+01  0.94876654145E+01  0.14429047506E+02  0.51100000000E-03 0.  1.
        -11    1    3    3    0    0  0.36480100397E+00 -0.50020743703E+01  0.38810614753E+01  0.63416453871E+01  0.51100000000E-03 0. -1.
        -12    1    3    3    0    0  0.81113334479E+01 -0.80249682229E+01  0.24488740426E+02  0.27016518150E+02  0.00000000000E+00 0.  1.
</event>
<event>
 7    1  0.1457722E-010  0.4778727E+02  0.7816164E-02  0.1312668E+00
        -11   -1    0    0    0    0  0.00000000000E+00  0.00000000000E+00  0.45593999997E+02  0.45594000000E+02  0.51100000000E-03 0. -1.
         11   -1    0    0    0    0 -0.00000000000E+00 -0.00000000000E+00 -0.45593999997E+02  0.45594000000E+02  0.51100000000E-03 0.  1.
    9900012    2    1    2    0    0 -0.39247191178E+02  0.65487262240E+01 -0.17331919810E+02  0.47787271034E+02  0.19999999951E+02 0.  0.
        -12    1    1    2    0    0  0.39247191178E+02 -0.65487262240E+01  0.17331919810E+02  0.43400728966E+02  0.00000000000E+00 0.  1.
         11    1    3    3    0    0 -0.25160863218E+02  0.78078157375E+01 -0.13049757212E+02  0.29399441967E+02  0.51100000000E-03 0. -1.
        -11    1    3    3    0    0  0.86025931777E+00 -0.75442030394E+00 -0.31944905926E+01  0.33932236143E+01  0.51100000000E-03 0.  1.
         12    1    3    3    0    0 -0.14946587278E+02 -0.50466920955E+00 -0.10876720055E+01  0.14994605452E+02  0.00000000000E+00 0. -1.
</event>
<event>
 7    1  0.1457722E-010  0.4778725E+02  0.7816164E-02  0.1312668E+00
        -11   -1    0    0    0    0  0.00000000000E+00  0.00000000000E+00  0.45593999997E+02  0.45594000000E+02  0.51100000000E-03 0. -1.
         11   -1    0    0    0    0 -0.00000000000E+00 -0.00000000000E+00 -0.45593999997E+02  0.45594000000E+02  0.51100000000E-03 0.  1.
    9900012    2    1    2    0    0  0.39390035245E+02 -0.68802179576E+01  0.16873442033E+02  0.47787247451E+02  0.19999892429E+02 0.  0.
        -12    1    1    2    0    0 -0.39390035245E+02  0.68802179576E+01 -0.16873442033E+02  0.43400752549E+02  0.00000000000E+00 0.  1.
         11    1    3    3    0    0  0.72214076619E+01 -0.48337572590E+01  0.62311065082E+01  0.10693017649E+02  0.51100000000E-03 0. -1.
        -11    1    3    3    0    0  0.45267957309E+01  0.40837139397E+01 -0.15135017272E+01  0.62816627472E+01  0.51100000000E-03 0.  1.
        -12    1    3    3    0    0  0.27641831852E+02 -0.61301746383E+01  0.12155837252E+02  0.30812567055E+02  0.00000000000E+00 0.  1.
</event>
<event>
 7    1  0.1457722E-010  0.4778727E+02  0.7816164E-02  0.1312668E+00
        -11   -1    0    0    0    0  0.00000000000E+00  0.00000000000E+00  0.45593999997E+02  0.45594000000E+02  0.51100000000E-03 0.  1.
         11   -1    0    0    0    0 -0.00000000000E+00 -0.00000000000E+00 -0.45593999997E+02  0.45594000000E+02  0.51100000000E-03 0. -1.
    9900012    2    1    2    0    0  0.33325801607E+02  0.21861304974E+02 -0.17178410660E+02  0.47787268431E+02  0.19999988086E+02 0.  0.
        -12    1    1    2    0    0 -0.33325801607E+02 -0.21861304974E+02  0.17178410660E+02  0.43400731569E+02  0.00000000000E+00 0.  1.
         11    1    3    3    0    0  0.15720197664E+02  0.14398407992E+02 -0.17414933221E+02  0.27526690078E+02  0.51100000000E-03 0. -1.
        -11    1    3    3    0    0  0.41971276233E+01  0.12739369486E+01 -0.27728744328E+01  0.51891838006E+01  0.51100000000E-03 0.  1.
        -12    1    3    3    0    0  0.13408476320E+02  0.61889600338E+01  0.30093969935E+01  0.15071394553E+02  0.00000000000E+00 0.  1.
</event>
<event>
 7    1  0.1457722E-010  0.4778728E+02  0.7816164E-02  0.1312668E+00
        -11   -1    0    0    0    0  0.00000000000E+00  0.00000000000E+00  0.45593999997E+02  0.45594000000E+02  0.51100000000E-03 0.  1.
         11   -1    0    0    0    0 -0.00000000000E+00 -0.00000000000E+00 -0.45593999997E+02  0.45594000000E+02  0.51100000000E-03 0. -1.
    9900012    2    1    2    0    0  0.41759751333E+02 -0.91504346402E+01 -0.74843392505E+01  0.47787278583E+02  0.20000034373E+02 0.  0.
        -12    1    1    2    0    0 -0.41759751333E+02  0.91504346402E+01  0.74843392505E+01  0.43400721417E+02  0.00000000000E+00 0.  1.
         11    1    3    3    0    0  0.28093442069E+01  0.11328145767E+01 -0.39014180575E+01  0.49393063135E+01  0.51100000000E-03 0. -1.
        -11    1    3    3    0    0  0.38496695772E+02 -0.12335579838E+02 -0.42381471551E+01  0.40646328332E+02  0.51100000000E-03 0.  1.
        -12    1    3    3    0    0  0.45371135409E+00  0.20523306209E+01  0.65522596201E+00  0.22016439384E+01  0.00000000000E+00 0.  1.
</event>
<event>
 7    1  0.1457722E-010  0.4778727E+02  0.7816164E-02  0.1312668E+00
        -11   -1    0    0    0    0  0.00000000000E+00  0.00000000000E+00  0.45593999997E+02  0.45594000000E+02  0.51100000000E-03 0. -1.
         11   -1    0    0    0    0 -0.00000000000E+00 -0.00000000000E+00 -0.45593999997E+02  0.45594000000E+02  0.51100000000E-03 0.  1.
    9900012    2    1    2    0    0  0.34944389415E+02 -0.59444095365E+01  0.25043501417E+02  0.47787270519E+02  0.19999997602E+02 0.  0.
        -12    1    1    2    0    0 -0.34944389415E+02  0.59444095365E+01 -0.25043501417E+02  0.43400729481E+02  0.00000000000E+00 0.  1.
         11    1    3    3    0    0 -0.10534743694E+01  0.29031878890E+00  0.56238007589E+01  0.57289814525E+01  0.51100000000E-03 0. -1.
        -11    1    3    3    0    0  0.14106004690E+02 -0.60785717855E+01  0.68972575484E+01  0.16837475025E+02  0.51100000000E-03 0.  1.
         12    1    3    3    0    0  0.21891859094E+02 -0.15615653990E+00  0.12522443109E+02  0.25220814041E+02  0.00000000000E+00 0. -1.
</event>
<event>
 7    1  0.1457722E-010  0.4778727E+02  0.7816164E-02  0.1312668E+00
        -11   -1    0    0    0    0  0.00000000000E+00  0.00000000000E+00  0.45593999997E+02  0.45594000000E+02  0.51100000000E-03 0.  1.
         11   -1    0    0    0    0 -0.00000000000E+00 -0.00000000000E+00 -0.45593999997E+02  0.45594000000E+02  0.51100000000E-03 0. -1.
    9900012    2    1    2    0    0  0.64442585544E+01 -0.30150433024E+02 -0.30545803053E+02  0.47787272310E+02  0.20000005770E+02 0.  0.
        -12    1    1    2    0    0 -0.64442585544E+01  0.30150433024E+02  0.30545803053E+02  0.43400727690E+02  0.00000000000E+00 0.  1.
         11    1    3    3    0    0  0.61401412792E+01 -0.81234699893E+01 -0.14751521120E+02  0.17924828457E+02  0.51100000000E-03 0. -1.
        -11    1    3    3    0    0  0.25781308176E+01 -0.50380367519E+01  0.11338632197E+01  0.57718470950E+01  0.51100000000E-03 0.  1.
         12    1    3    3    0    0 -0.22740135425E+01 -0.16988926283E+02 -0.16928145152E+02  0.24090596758E+02  0.00000000000E+00 0. -1.
</event>
<event>
 7    1  0.1457722E-010  0.4778727E+02  0.7816164E-02  0.1312668E+00
        -11   -1    0    0    0    0  0.00000000000E+00  0.00000000000E+00  0.45593999997E+02  0.45594000000E+02  0.51100000000E-03 0.  1.
         11   -1    0    0    0    0 -0.00000000000E+00 -0.00000000000E+00 -0.45593999997E+02  0.45594000000E+02  0.51100000000E-03 0. -1.
    9900012    2    1    2    0    0  0.23987573657E+01 -0.31442331041E+02 -0.29820277059E+02  0.47787272563E+02  0.20000006924E+02 0.  0.
        -12    1    1    2    0    0 -0.23987573657E+01  0.31442331041E+02  0.29820277059E+02  0.43400727437E+02  0.00000000000E+00 0.  1.
         11    1    3    3    0    0  0.91340549698E+00 -0.21187605353E+02 -0.12440701277E+02  0.24586987996E+02  0.51100000000E-03 0. -1.
        -11    1    3    3    0    0  0.24797193696E+01 -0.10970506646E+02 -0.18427049233E+02  0.21588357231E+02  0.51100000000E-03 0.  1.
        -12    1    3    3    0    0 -0.99436750083E+00  0.71578095834E+00  0.10474734508E+01  0.16119273362E+01  0.00000000000E+00 0.  1.
</event>
<event>
 7    1  0.1457722E-010  0.4778727E+02  0.7816164E-02  0.1312668E+00
        -11   -1    0    0    0    0  0.00000000000E+00  0.00000000000E+00  0.45593999997E+02  0.45594000000E+02  0.51100000000E-03 0. -1.
         11   -1    0    0    0    0 -0.00000000000E+00 -0.00000000000E+00 -0.45593999997E+02  0.45594000000E+02  0.51100000000E-03 0.  1.
    9900012    2    1    2    0    0  0.18218039500E+02  0.29637277848E+02  0.25949140355E+02  0.47787273202E+02  0.20000009835E+02 0.  0.
        -12    1    1    2    0    0 -0.18218039500E+02 -0.29637277848E+02 -0.25949140355E+02  0.43400726798E+02  0.00000000000E+00 0.  1.
         11    1    3    3    0    0  0.99113649329E+01  0.43269395937E+01  0.54242499215E+01  0.12098762274E+02  0.51100000000E-03 0.  1.
        -11    1    3    3    0    0  0.28969683268E+01 -0.39786695247E+00  0.19939062480E+01  0.35392634806E+01  0.51100000000E-03 0. -1.
         12    1    3    3    0    0  0.54097062407E+01  0.25708205206E+02  0.18530984186E+02  0.32149247447E+02  0.00000000000E+00 0. -1.
</event>
<event>
 7    1  0.1457722E-010  0.4778727E+02  0.7816164E-02  0.1312668E+00
        -11   -1    0    0    0    0  0.00000000000E+00  0.00000000000E+00  0.45593999997E+02  0.45594000000E+02  0.51100000000E-03 0.  1.
         11   -1    0    0    0    0 -0.00000000000E+00 -0.00000000000E+00 -0.45593999997E+02  0.45594000000E+02  0.51100000000E-03 0. -1.
    9900012    2    1    2    0    0 -0.33979671572E+02 -0.15672424205E+02 -0.21985911308E+02  0.47787271243E+02  0.20000000906E+02 0.  0.
        -12    1    1    2    0    0  0.33979671572E+02  0.15672424205E+02  0.21985911308E+02  0.43400728757E+02  0.00000000000E+00 0.  1.
         11    1    3    3    0    0 -0.62664373447E+01 -0.23640359679E+01 -0.10380280619E+02  0.12353425802E+02  0.51100000000E-03 0. -1.
        -11    1    3    3    0    0  0.25593124449E+00 -0.44026783011E+00  0.17881197620E+01  0.18592227162E+01  0.51100000000E-03 0.  1.
         12    1    3    3    0    0 -0.27969165472E+02 -0.12868120407E+02 -0.13393750451E+02  0.33574622725E+02  0.00000000000E+00 0. -1.
</event>
<event>
 7    1  0.1457722E-010  0.4778727E+02  0.7816164E-02  0.1312668E+00
        -11   -1    0    0    0    0  0.00000000000E+00  0.00000000000E+00  0.45593999997E+02  0.45594000000E+02  0.51100000000E-03 0. -1.
         11   -1    0    0    0    0 -0.00000000000E+00 -0.00000000000E+00 -0.45593999997E+02  0.45594000000E+02  0.51100000000E-03 0.  1.
    9900012    2    1    2    0    0 -0.22723950041E+00 -0.69074221636E+01  0.42846927620E+02  0.47787270453E+02  0.19999997304E+02 0.  0.
        -12    1    1    2    0    0  0.22723950041E+00  0.69074221636E+01 -0.42846927620E+02  0.43400729547E+02  0.00000000000E+00 0.  1.
         11    1    3    3    0    0 -0.15337472282E+01 -0.76109158809E+01  0.22216854000E+02  0.23534379597E+02  0.51100000000E-03 0. -1.
        -11    1    3    3    0    0 -0.83001096478E+00 -0.51885101778E+01  0.14753825202E+02  0.15661574455E+02  0.51100000000E-03 0.  1.
        -12    1    3    3    0    0  0.21365186925E+01  0.58920038951E+01  0.58762484179E+01  0.85913164005E+01  0.00000000000E+00 0.  1.
</event>
<event>
 7    1  0.1457722E-010  0.4778727E+02  0.7816164E-02  0.1312668E+00
        -11   -1    0    0    0    0  0.00000000000E+00  0.00000000000E+00  0.45593999997E+02  0.45594000000E+02  0.51100000000E-03 0.  1.
         11   -1    0    0    0    0 -0.00000000000E+00 -0.00000000000E+00 -0.45593999997E+02  0.45594000000E+02  0.51100000000E-03 0. -1.
    9900012    2    1    2    0    0 -0.39313020630E+02  0.10754845560E+02 -0.14914517604E+02  0.47787272709E+02  0.20000007588E+02 0.  0.
        -12    1    1    2    0    0  0.39313020630E+02 -0.10754845560E+02  0.14914517604E+02  0.43400727291E+02  0.00000000000E+00 0.  1.
         11    1    3    3    0    0 -0.32978761192E+02  0.80124926355E+01 -0.14275284811E+02  0.36818235763E+02  0.51100000000E-03 0. -1.
        -11    1    3    3    0    0 -0.19619290527E+01  0.42724299164E+01 -0.31894299955E+01  0.56811343019E+01  0.51100000000E-03 0.  1.
         12    1    3    3    0    0 -0.43723303848E+01 -0.15300769921E+01  0.25501972027E+01  0.52879026436E+01  0.00000000000E+00 0. -1.
</event>
<event>
 7    1  0.1457722E-010  0.4778728E+02  0.7816164E-02  0.1312668E+00
        -11   -1    0    0    0    0  0.00000000000E+00  0.00000000000E+00  0.45593999997E+02  0.45594000000E+02  0.51100000000E-03 0. -1.
         11   -1    0    0    0    0 -0.00000000000E+00 -0.00000000000E+00 -0.45593999997E+02  0.45594000000E+02  0.51100000000E-03 0.  1.
    9900012    2    1    2    0    0  0.23920326421E+02 -0.17498764189E+02  0.31705427476E+02  0.47787275401E+02  0.20000019864E+02 0.  0.
        -12    1    1    2    0    0 -0.23920326421E+02  0.17498764189E+02 -0.31705427476E+02  0.43400724599E+02  0.00000000000E+00 0.  1.
         11    1    3    3    0    0  0.39063133189E+01 -0.91272341559E+01  0.12398094621E+02  0.15883275404E+02  0.51100000000E-03 0. -1.
        -11    1    3    3    0    0  0.15742749657E+02 -0.10817028367E+02  0.10453833328E+02  0.21774409314E+02  0.51100000000E-03 0.  1.
        -12    1    3    3    0    0  0.42712634453E+01  0.24454983337E+01  0.88534995276E+01  0.10129590683E+02  0.00000000000E+00 0.  1.
</event>
<event>
 7    1  0.1457722E-010  0.4778727E+02  0.7816164E-02  0.1312668E+00
        -11   -1    0    0    0    0  0.00000000000E+00  0.00000000000E+00  0.45593999997E+02  0.45594000000E+02  0.51100000000E-03 0.  1.
         11   -1    0    0    0    0 -0.00000000000E+00 -0.00000000000E+00 -0.45593999997E+02  0.45594000000E+02  0.51100000000E-03 0. -1.
    9900012    2    1    2    0    0 -0.31762905073E+02  0.21680936100E+02 -0.20116615601E+02  0.47787270143E+02  0.19999995891E+02 0.  0.
        -12    1    1    2    0    0  0.31762905073E+02 -0.21680936100E+02  0.20116615601E+02  0.43400729857E+02  0.00000000000E+00 0.  1.
         11    1    3    3    0    0  0.12025993267E+01  0.95628827996E+00 -0.28535249541E+00  0.15627407727E+01  0.51100000000E-03 0. -1.
        -11    1    3    3    0    0 -0.29211455306E+02  0.10804481932E+02 -0.14994409141E+02  0.34567011104E+02  0.51100000000E-03 0.  1.
         12    1    3    3    0    0 -0.37540490932E+01  0.99201658888E+01 -0.48368539646E+01  0.11657518266E+02  0.00000000000E+00 0. -1.
</event>
<event>
 7    1  0.1457722E-010  0.4778727E+02  0.7816164E-02  0.1312668E+00
        -11   -1    0    0    0    0  0.00000000000E+00  0.00000000000E+00  0.45593999997E+02  0.45594000000E+02  0.51100000000E-03 0.  1.
         11   -1    0    0    0    0 -0.00000000000E+00 -0.00000000000E+00 -0.45593999997E+02  0.45594000000E+02  0.51100000000E-03 0. -1.
    9900012    2    1    2    0    0  0.31451801362E+02  0.21770018690E+02 -0.20505451105E+02  0.47787273650E+02  0.20000011880E+02 0.  0.
        -12    1    1    2    0    0 -0.31451801362E+02 -0.21770018690E+02  0.20505451105E+02  0.43400726350E+02  0.00000000000E+00 0.  1.
         11    1    3    3    0    0  0.16526018202E+02  0.31039745996E+01 -0.26833807247E+01  0.17027755821E+02  0.51100000000E-03 0. -1.
        -11    1    3    3    0    0  0.20613913171E+00  0.20875709134E+00 -0.27167940050E+01  0.27325890272E+01  0.51100000000E-03 0.  1.
         12    1    3    3    0    0  0.14719644028E+02  0.18457286999E+02 -0.15105276375E+02  0.28026928802E+02  0.00000000000E+00 0. -1.
</event>
<event>
 7    1  0.1457722E-010  0.4778727E+02  0.7816164E-02  0.1312668E+00
        -11   -1    0    0    0    0  0.00000000000E+00  0.00000000000E+00  0.45593999997E+02  0.45594000000E+02  0.51100000000E-03 0.  1.
         11   -1    0    0    0    0 -0.00000000000E+00 -0.00000000000E+00 -0.45593999997E+02  0.45594000000E+02  0.51100000000E-03 0. -1.
    9900012    2    1    2    0    0  0.14927242725E+02 -0.33434116335E+02  0.23301513868E+02  0.47787271216E+02  0.20000000780E+02 0.  0.
        -12    1    1    2    0    0 -0.14927242725E+02  0.33434116335E+02 -0.23301513868E+02  0.43400728784E+02  0.00000000000E+00 0.  1.
         11    1    3    3    0    0  0.40478258374E+01 -0.13474017936E+02  0.81007895436E+01  0.16234433924E+02  0.51100000000E-03 0. -1.
        -11    1    3    3    0    0  0.62414791323E+01 -0.30258992946E+01  0.11771729627E+02  0.13663299271E+02  0.51100000000E-03 0.  1.
        -12    1    3    3    0    0  0.46379377549E+01 -0.16934199105E+02  0.34289946974E+01  0.17889538020E+02  0.00000000000E+00 0.  1.
</event>
<event>
 7    1  0.1457722E-010  0.4778725E+02  0.7816164E-02  0.1312668E+00
        -11   -1    0    0    0    0  0.00000000000E+00  0.00000000000E+00  0.45593999997E+02  0.45594000000E+02  0.51100000000E-03 0.  1.
         11   -1    0    0    0    0 -0.00000000000E+00 -0.00000000000E+00 -0.45593999997E+02  0.45594000000E+02  0.51100000000E-03 0. -1.
    9900012    2    1    2    0    0  0.33806955070E+02  0.11592071761E+02 -0.24623943074E+02  0.47787252180E+02  0.19999913990E+02 0.  0.
        -12    1    1    2    0    0 -0.33806955070E+02 -0.11592071761E+02  0.24623943074E+02  0.43400747820E+02  0.00000000000E+00 0.  1.
         11    1    3    3    0    0  0.50579139282E+01  0.34947004961E+01 -0.13919440628E+00  0.61493739686E+01  0.51100000000E-03 0. -1.
        -11    1    3    3    0    0  0.21518520097E+02  0.93193040974E+01 -0.25012488180E+02  0.34285867370E+02  0.51100000000E-03 0.  1.
        -12    1    3    3    0    0  0.72305210448E+01 -0.12219328328E+01  0.52773951324E+00  0.73520108420E+01  0.00000000000E+00 0.  1.
</event>
<event>
 7    1  0.1457722E-010  0.4778727E+02  0.7816164E-02  0.1312668E+00
        -11   -1    0    0    0    0  0.00000000000E+00  0.00000000000E+00  0.45593999997E+02  0.45594000000E+02  0.51100000000E-03 0.  1.
         11   -1    0    0    0    0 -0.00000000000E+00 -0.00000000000E+00 -0.45593999997E+02  0.45594000000E+02  0.51100000000E-03 0. -1.
    9900012    2    1    2    0    0  0.17636401911E+02 -0.11691474455E+02 -0.37893141768E+02  0.47787269127E+02  0.19999991256E+02 0.  0.
        -12    1    1    2    0    0 -0.17636401911E+02  0.11691474455E+02  0.37893141768E+02  0.43400730873E+02  0.00000000000E+00 0.  1.
         11    1    3    3    0    0  0.55712306314E+01 -0.46135223542E+01 -0.17910477546E+02  0.19316014222E+02  0.51100000000E-03 0. -1.
        -11    1    3    3    0    0  0.99388802740E+01  0.19673408032E+01 -0.62963662758E+01  0.11928788684E+02  0.51100000000E-03 0.  1.
        -12    1    3    3    0    0  0.21262910054E+01 -0.90452929044E+01 -0.13686297946E+02  0.16542466220E+02  0.00000000000E+00 0.  1.
</event>
<event>
 7    1  0.1457722E-010  0.4778727E+02  0.7816164E-02  0.1312668E+00
        -11   -1    0    0    0    0  0.00000000000E+00  0.00000000000E+00  0.45593999997E+02  0.45594000000E+02  0.51100000000E-03 0.  1.
         11   -1    0    0    0    0 -0.00000000000E+00 -0.00000000000E+00 -0.45593999997E+02  0.45594000000E+02  0.51100000000E-03 0. -1.
    9900012    2    1    2    0    0 -0.27543855519E+01 -0.41646929902E+02 -0.11898299755E+02  0.47787274809E+02  0.20000017166E+02 0.  0.
        -12    1    1    2    0    0  0.27543855519E+01  0.41646929902E+02  0.11898299755E+02  0.43400725191E+02  0.00000000000E+00 0.  1.
         11    1    3    3    0    0 -0.18029701312E+01 -0.21359680296E+02 -0.69796676816E+01  0.22543345024E+02  0.51100000000E-03 0. -1.
        -11    1    3    3    0    0  0.45576831769E+01 -0.58126514231E+01 -0.62819279007E+01  0.96964947748E+01  0.51100000000E-03 0.  1.
         12    1    3    3    0    0 -0.55090985976E+01 -0.14474598183E+02  0.13632958275E+01  0.15547435011E+02  0.00000000000E+00 0. -1.
</event>
<event>
 7    1  0.1457722E-010  0.4778728E+02  0.7816164E-02  0.1312668E+00
        -11   -1    0    0    0    0  0.00000000000E+00  0.00000000000E+00  0.45593999997E+02  0.45594000000E+02  0.51100000000E-03 0. -1.
         11   -1    0    0    0    0 -0.00000000000E+00 -0.00000000000E+00 -0.45593999997E+02  0.45594000000E+02  0.51100000000E-03 0.  1.
    9900012    2    1    2    0    0  0.18561212081E+02  0.31680021875E+02  0.23140448801E+02  0.47787277072E+02  0.20000027484E+02 0.  0.
        -12    1    1    2    0    0 -0.18561212081E+02 -0.31680021875E+02 -0.23140448801E+02  0.43400722928E+02  0.00000000000E+00 0.  1.
         11    1    3    3    0    0  0.77665635439E+01  0.60993714195E+01  0.10608531361E+01  0.99321322298E+01  0.51100000000E-03 0. -1.
        -11    1    3    3    0    0 -0.64035703414E+00  0.13990717226E+02  0.69743868638E+01  0.15645839639E+02  0.51100000000E-03 0.  1.
         12    1    3    3    0    0  0.11435005571E+02  0.11589933230E+02  0.15105208801E+02  0.22209305203E+02  0.00000000000E+00 0. -1.
</event>
<event>
 7    1  0.1457722E-010  0.4778728E+02  0.7816164E-02  0.1312668E+00
        -11   -1    0    0    0    0  0.00000000000E+00  0.00000000000E+00  0.45593999997E+02  0.45594000000E+02  0.51100000000E-03 0. -1.
         11   -1    0    0    0    0 -0.00000000000E+00 -0.00000000000E+00 -0.45593999997E+02  0.45594000000E+02  0.51100000000E-03 0.  1.
    9900012    2    1    2    0    0  0.55060850043E+01  0.13499218726E+02  0.40878805751E+02  0.47787278371E+02  0.20000033404E+02 0.  0.
        -12    1    1    2    0    0 -0.55060850043E+01 -0.13499218726E+02 -0.40878805751E+02  0.43400721629E+02  0.00000000000E+00 0.  1.
         11    1    3    3    0    0  0.81576660326E+01  0.92687488737E+01  0.23033693304E+02  0.26134426496E+02  0.51100000000E-03 0. -1.
        -11    1    3    3    0    0  0.20631873410E+01 -0.19513228909E+01  0.85061882021E+00  0.29644486278E+01  0.51100000000E-03 0.  1.
         12    1    3    3    0    0 -0.47147683692E+01  0.61817927434E+01  0.16994493627E+02  0.18688403247E+02  0.00000000000E+00 0. -1.
</event>
<event>
 7    1  0.1457722E-010  0.4778729E+02  0.7816164E-02  0.1312668E+00
        -11   -1    0    0    0    0  0.00000000000E+00  0.00000000000E+00  0.45593999997E+02  0.45594000000E+02  0.51100000000E-03 0.  1.
         11   -1    0    0    0    0 -0.00000000000E+00 -0.00000000000E+00 -0.45593999997E+02  0.45594000000E+02  0.51100000000E-03 0. -1.
    9900012    2    1    2    0    0  0.38835471807E+02 -0.19281721804E+02 -0.19085962108E+01  0.47787292567E+02  0.20000098129E+02 0.  0.
        -12    1    1    2    0    0 -0.38835471807E+02  0.19281721804E+02  0.19085962108E+01  0.43400707433E+02  0.00000000000E+00 0.  1.
         11    1    3    3    0    0  0.22007286872E+02 -0.11706424253E+02 -0.17641632414E+01  0.24989464109E+02  0.51100000000E-03 0. -1.
        -11    1    3    3    0    0  0.82788451898E+01 -0.67547363462E+01  0.59844738004E+01  0.12246618624E+02  0.51100000000E-03 0.  1.
        -12    1    3    3    0    0  0.85493397451E+01 -0.82056120531E+00 -0.61289067698E+01  0.10551209834E+02  0.00000000000E+00 0.  1.
</event>
<event>
 7    1  0.1457722E-010  0.4778727E+02  0.7816164E-02  0.1312668E+00
        -11   -1    0    0    0    0  0.00000000000E+00  0.00000000000E+00  0.45593999997E+02  0.45594000000E+02  0.51100000000E-03 0.  1.
         11   -1    0    0    0    0 -0.00000000000E+00 -0.00000000000E+00 -0.45593999997E+02  0.45594000000E+02  0.51100000000E-03 0. -1.
    9900012    2    1    2    0    0 -0.37453615154E+02  0.12686864356E+02 -0.17885565392E+02  0.47787271150E+02  0.20000000481E+02 0.  0.
        -12    1    1    2    0    0  0.37453615154E+02 -0.12686864356E+02  0.17885565392E+02  0.43400728850E+02  0.00000000000E+00 0.  1.
         11    1    3    3    0    0 -0.12041792366E+02  0.66054115163E+01 -0.93830133341E+01  0.16633615487E+02  0.51100000000E-03 0. -1.
        -11    1    3    3    0    0 -0.21318244987E+02  0.61655558137E+01 -0.53818051983E+00  0.22198452341E+02  0.51100000000E-03 0.  1.
         12    1    3    3    0    0 -0.40935778016E+01 -0.84102974148E-01 -0.79643715384E+01  0.89552033216E+01  0.00000000000E+00 0. -1.
</event>
<event>
 7    1  0.1457722E-010  0.4778727E+02  0.7816164E-02  0.1312668E+00
        -11   -1    0    0    0    0  0.00000000000E+00  0.00000000000E+00  0.45593999997E+02  0.45594000000E+02  0.51100000000E-03 0.  1.
         11   -1    0    0    0    0 -0.00000000000E+00 -0.00000000000E+00 -0.45593999997E+02  0.45594000000E+02  0.51100000000E-03 0. -1.
    9900012    2    1    2    0    0  0.60638840402E+01  0.11198247692E+02 -0.41490379334E+02  0.47787273988E+02  0.20000013422E+02 0.  0.
        -12    1    1    2    0    0 -0.60638840402E+01 -0.11198247692E+02  0.41490379334E+02  0.43400726012E+02  0.00000000000E+00 0.  1.
         11    1    3    3    0    0  0.10322494074E+02  0.25235792009E+01 -0.23877078035E+02  0.26134980230E+02  0.51100000000E-03 0. -1.
        -11    1    3    3    0    0  0.20600698455E+01  0.45996764171E+01 -0.78657297348E+01  0.93418742997E+01  0.51100000000E-03 0.  1.
        -12    1    3    3    0    0 -0.63186798797E+01  0.40749920741E+01 -0.97475715651E+01  0.12310419458E+02  0.00000000000E+00 0.  1.
</event>
<event>
 7    1  0.1457722E-010  0.4778727E+02  0.7816164E-02  0.1312668E+00
        -11   -1    0    0    0    0  0.00000000000E+00  0.00000000000E+00  0.45593999997E+02  0.45594000000E+02  0.51100000000E-03 0.  1.
         11   -1    0    0    0    0 -0.00000000000E+00 -0.00000000000E+00 -0.45593999997E+02  0.45594000000E+02  0.51100000000E-03 0. -1.
    9900012    2    1    2    0    0  0.93451261436E+01  0.10666846217E+02 -0.41018412451E+02  0.47787272461E+02  0.20000006461E+02 0.  0.
        -12    1    1    2    0    0 -0.93451261436E+01 -0.10666846217E+02  0.41018412451E+02  0.43400727539E+02  0.00000000000E+00 0.  1.
         11    1    3    3    0    0  0.85217122832E+00  0.20023753708E+01 -0.25645548915E+02  0.25737713230E+02  0.51100000000E-03 0. -1.
        -11    1    3    3    0    0 -0.30051265022E+00  0.27001040330E+01  0.67830799801E+00  0.28001735023E+01  0.51100000000E-03 0.  1.
        -12    1    3    3    0    0  0.87934675655E+01  0.59643668132E+01 -0.16051171535E+02  0.19249385729E+02  0.00000000000E+00 0.  1.
</event>
<event>
 7    1  0.1457722E-010  0.4778727E+02  0.7816164E-02  0.1312668E+00
        -11   -1    0    0    0    0  0.00000000000E+00  0.00000000000E+00  0.45593999997E+02  0.45594000000E+02  0.51100000000E-03 0.  1.
         11   -1    0    0    0    0 -0.00000000000E+00 -0.00000000000E+00 -0.45593999997E+02  0.45594000000E+02  0.51100000000E-03 0. -1.
    9900012    2    1    2    0    0 -0.97588899072E+01  0.31710954207E+02 -0.27978609516E+02  0.47787272593E+02  0.20000007062E+02 0.  0.
        -12    1    1    2    0    0  0.97588899072E+01 -0.31710954207E+02  0.27978609516E+02  0.43400727407E+02  0.00000000000E+00 0.  1.
         11    1    3    3    0    0 -0.11548612313E+02  0.15341435600E+02 -0.14956000764E+02  0.24339516259E+02  0.51100000000E-03 0. -1.
        -11    1    3    3    0    0  0.14608055666E+01  0.30370133271E+01 -0.88558821064E+01  0.94754446332E+01  0.51100000000E-03 0.  1.
        -12    1    3    3    0    0  0.32891683906E+00  0.13332505280E+02 -0.41667266464E+01  0.13972311701E+02  0.00000000000E+00 0.  1.
</event>
<event>
 7    1  0.1457722E-010  0.4778728E+02  0.7816164E-02  0.1312668E+00
        -11   -1    0    0    0    0  0.00000000000E+00  0.00000000000E+00  0.45593999997E+02  0.45594000000E+02  0.51100000000E-03 0.  1.
         11   -1    0    0    0    0 -0.00000000000E+00 -0.00000000000E+00 -0.45593999997E+02  0.45594000000E+02  0.51100000000E-03 0. -1.
    9900012    2    1    2    0    0  0.23111968551E+02  0.15696135129E+02 -0.33212814184E+02  0.47787276800E+02  0.20000026240E+02 0.  0.
        -12    1    1    2    0    0 -0.23111968551E+02 -0.15696135129E+02  0.33212814184E+02  0.43400723200E+02  0.00000000000E+00 0.  1.
         11    1    3    3    0    0  0.11512553950E+02  0.25185403806E+01 -0.99859975365E+01  0.15446750181E+02  0.51100000000E-03 0. -1.
        -11    1    3    3    0    0  0.22902424837E+01 -0.15355843468E+01  0.60817049808E+00  0.28236680995E+01  0.51100000000E-03 0.  1.
         12    1    3    3    0    0  0.93091721173E+01  0.14713179095E+02 -0.23834987146E+02  0.29516858519E+02  0.00000000000E+00 0. -1.
</event>
<event>
 7    1  0.1457722E-010  0.4778727E+02  0.7816164E-02  0.1312668E+00
        -11   -1    0    0    0    0  0.00000000000E+00  0.00000000000E+00  0.45593999997E+02  0.45594000000E+02  0.51100000000E-03 0.  1.
         11   -1    0    0    0    0 -0.00000000000E+00 -0.00000000000E+00 -0.45593999997E+02  0.45594000000E+02  0.51100000000E-03 0. -1.
    9900012    2    1    2    0    0 -0.16682334353E+02  0.20211655502E+02 -0.34594969930E+02  0.47787271411E+02  0.20000001671E+02 0.  0.
        -12    1    1    2    0    0  0.16682334353E+02 -0.20211655502E+02  0.34594969930E+02  0.43400728589E+02  0.00000000000E+00 0.  1.
         11    1    3    3    0    0  0.30000814005E+00  0.17247986172E-02 -0.30666626461E+00  0.42901319094E+00  0.51100000000E-03 0.  1.
        -11    1    3    3    0    0 -0.98661167769E+01  0.38251914297E+01 -0.25166516178E+02  0.27300657255E+02  0.51100000000E-03 0. -1.
        -12    1    3    3    0    0 -0.71162257161E+01  0.16384739274E+02 -0.91217874871E+01  0.20057600965E+02  0.00000000000E+00 0.  1.
</event>
<event>
 7    1  0.1457722E-010  0.4778729E+02  0.7816164E-02  0.1312668E+00
        -11   -1    0    0    0    0  0.00000000000E+00  0.00000000000E+00  0.45593999997E+02  0.45594000000E+02  0.51100000000E-03 0. -1.
         11   -1    0    0    0    0 -0.00000000000E+00 -0.00000000000E+00 -0.45593999997E+02  0.45594000000E+02  0.51100000000E-03 0.  1.
    9900012    2    1    2    0    0 -0.42364336875E+02  0.76688137121E+01  0.54839980670E+01  0.47787285981E+02  0.20000068101E+02 0.  0.
        -12    1    1    2    0    0  0.42364336875E+02 -0.76688137121E+01 -0.54839980670E+01  0.43400714019E+02  0.00000000000E+00 0.  1.
         11    1    3    3    0    0 -0.15277708571E+02  0.18094589746E+01 -0.20217407293E+01  0.15516763735E+02  0.51100000000E-03 0. -1.
        -11    1    3    3    0    0 -0.10682339847E+02  0.51976984432E+01  0.10169743119E+02  0.15638162586E+02  0.51100000000E-03 0.  1.
        -12    1    3    3    0    0 -0.16404288457E+02  0.66165629433E+00 -0.26640043223E+01  0.16632359660E+02  0.00000000000E+00 0.  1.
</event>
<event>
 7    1  0.1457722E-010  0.4778727E+02  0.7816164E-02  0.1312668E+00
        -11   -1    0    0    0    0  0.00000000000E+00  0.00000000000E+00  0.45593999997E+02  0.45594000000E+02  0.51100000000E-03 0.  1.
         11   -1    0    0    0    0 -0.00000000000E+00 -0.00000000000E+00 -0.45593999997E+02  0.45594000000E+02  0.51100000000E-03 0. -1.
    9900012    2    1    2    0    0 -0.26170611123E+02  0.32502155722E+02 -0.11930312330E+02  0.47787269990E+02  0.19999995192E+02 0.  0.
        -12    1    1    2    0    0  0.26170611123E+02 -0.32502155722E+02  0.11930312330E+02  0.43400730010E+02  0.00000000000E+00 0.  1.
         11    1    3    3    0    0 -0.19610877803E+02  0.30209181762E+02 -0.16160298941E+02  0.39475770456E+02  0.51100000000E-03 0. -1.
        -11    1    3    3    0    0 -0.32865969990E+01  0.15056219996E+01  0.12787904905E+01  0.38345694437E+01  0.51100000000E-03 0.  1.
         12    1    3    3    0    0 -0.32731363210E+01  0.78735195991E+00  0.29511961212E+01  0.44769300899E+01  0.00000000000E+00 0. -1.
</event>
<event>
 7    1  0.1457722E-010  0.4778727E+02  0.7816164E-02  0.1312668E+00
        -11   -1    0    0    0    0  0.00000000000E+00  0.00000000000E+00  0.45593999997E+02  0.45594000000E+02  0.51100000000E-03 0.  1.
         11   -1    0    0    0    0 -0.00000000000E+00 -0.00000000000E+00 -0.45593999997E+02  0.45594000000E+02  0.51100000000E-03 0. -1.
    9900012    2    1    2    0    0 -0.52925149363E+01 -0.37709927066E+02 -0.20822433288E+02  0.47787273719E+02  0.20000012195E+02 0.  0.
        -12    1    1    2    0    0  0.52925149363E+01  0.37709927066E+02  0.20822433288E+02  0.43400726281E+02  0.00000000000E+00 0.  1.
         11    1    3    3    0    0 -0.17214971782E+01 -0.26680836477E+02 -0.10306179969E+02  0.28653933996E+02  0.51100000000E-03 0. -1.
        -11    1    3    3    0    0  0.27295992445E+01 -0.59445007359E+01 -0.96462672736E+00  0.66119820038E+01  0.51100000000E-03 0.  1.
        -12    1    3    3    0    0 -0.63006170027E+01 -0.50845898535E+01 -0.95516265917E+01  0.12521357720E+02  0.00000000000E+00 0.  1.
</event>
<event>
 7    1  0.1457722E-010  0.4778727E+02  0.7816164E-02  0.1312668E+00
        -11   -1    0    0    0    0  0.00000000000E+00  0.00000000000E+00  0.45593999997E+02  0.45594000000E+02  0.51100000000E-03 0.  1.
         11   -1    0    0    0    0 -0.00000000000E+00 -0.00000000000E+00 -0.45593999997E+02  0.45594000000E+02  0.51100000000E-03 0. -1.
    9900012    2    1    2    0    0  0.47312429502E+01  0.34072938105E+02 -0.26462683912E+02  0.47787269467E+02  0.19999992808E+02 0.  0.
        -12    1    1    2    0    0 -0.47312429502E+01 -0.34072938105E+02  0.26462683912E+02  0.43400730533E+02  0.00000000000E+00 0.  1.
         11    1    3    3    0    0  0.25031076194E+01  0.83870252522E+01 -0.10609442892E+02  0.13753836522E+02  0.51100000000E-03 0. -1.
        -11    1    3    3    0    0 -0.66881099193E+01  0.11790758396E+02 -0.61727840752E+01  0.14894833378E+02  0.51100000000E-03 0.  1.
        -12    1    3    3    0    0  0.89162452502E+01  0.13895154456E+02 -0.96804569452E+01  0.19138599567E+02  0.00000000000E+00 0.  1.
</event>
<event>
 7    1  0.1457722E-010  0.4778727E+02  0.7816164E-02  0.1312668E+00
        -11   -1    0    0    0    0  0.00000000000E+00  0.00000000000E+00  0.45593999997E+02  0.45594000000E+02  0.51100000000E-03 0.  1.
         11   -1    0    0    0    0 -0.00000000000E+00 -0.00000000000E+00 -0.45593999997E+02  0.45594000000E+02  0.51100000000E-03 0. -1.
    9900012    2    1    2    0    0  0.20109925146E+02 -0.26834709653E+02 -0.27551995762E+02  0.47787271872E+02  0.20000003775E+02 0.  0.
        -12    1    1    2    0    0 -0.20109925146E+02  0.26834709653E+02  0.27551995762E+02  0.43400728128E+02  0.00000000000E+00 0.  1.
         11    1    3    3    0    0  0.68076094036E+01 -0.19532512032E+02 -0.76421250286E+01  0.22051409190E+02  0.51100000000E-03 0. -1.
        -11    1    3    3    0    0  0.63160726335E+01 -0.18533148784E+01 -0.45433118093E+01  0.79980767693E+01  0.51100000000E-03 0.  1.
         12    1    3    3    0    0  0.69862431092E+01 -0.54488827427E+01 -0.15366558924E+02  0.17737785913E+02  0.00000000000E+00 0. -1.
</event>
<event>
 7    1  0.1457722E-010  0.4778727E+02  0.7816164E-02  0.1312668E+00
        -11   -1    0    0    0    0  0.00000000000E+00  0.00000000000E+00  0.45593999997E+02  0.45594000000E+02  0.51100000000E-03 0. -1.
         11   -1    0    0    0    0 -0.00000000000E+00 -0.00000000000E+00 -0.45593999997E+02  0.45594000000E+02  0.51100000000E-03 0.  1.
    9900012    2    1    2    0    0 -0.21700657804E+02  0.16701831195E+02  0.33671260341E+02  0.47787268586E+02  0.19999988789E+02 0.  0.
        -12    1    1    2    0    0  0.21700657804E+02 -0.16701831195E+02 -0.33671260341E+02  0.43400731414E+02  0.00000000000E+00 0.  1.
         11    1    3    3    0    0 -0.36629361938E+01 -0.99704152245E+00  0.95064038822E+01  0.10236352299E+02  0.51100000000E-03 0. -1.
        -11    1    3    3    0    0 -0.42554592816E+01 -0.17063540165E+01  0.62955048009E+01  0.77880651439E+01  0.51100000000E-03 0.  1.
         12    1    3    3    0    0 -0.13782262329E+02  0.19405226734E+02  0.17869351657E+02  0.29762851143E+02  0.00000000000E+00 0. -1.
</event>
<event>
 7    1  0.1457722E-010  0.4778727E+02  0.7816164E-02  0.1312668E+00
        -11   -1    0    0    0    0  0.00000000000E+00  0.00000000000E+00  0.45593999997E+02  0.45594000000E+02  0.51100000000E-03 0.  1.
         11   -1    0    0    0    0 -0.00000000000E+00 -0.00000000000E+00 -0.45593999997E+02  0.45594000000E+02  0.51100000000E-03 0. -1.
    9900012    2    1    2    0    0 -0.15097673146E+02 -0.39167791964E+02 -0.11025781876E+02  0.47787268120E+02  0.19999986666E+02 0.  0.
        -12    1    1    2    0    0  0.15097673146E+02  0.39167791964E+02  0.11025781876E+02  0.43400731880E+02  0.00000000000E+00 0.  1.
         11    1    3    3    0    0 -0.11605824281E+02 -0.15768074381E+02 -0.37749623740E+00  0.19582385723E+02  0.51100000000E-03 0.  1.
        -11    1    3    3    0    0 -0.64500138353E+01 -0.20616185949E+02 -0.10777566090E+02  0.24140955504E+02  0.51100000000E-03 0. -1.
        -12    1    3    3    0    0  0.29581649711E+01 -0.27835316333E+01  0.12928045153E+00  0.40639268922E+01  0.00000000000E+00 0.  1.
</event>
<event>
 7    1  0.1457722E-010  0.4778726E+02  0.7816164E-02  0.1312668E+00
        -11   -1    0    0    0    0  0.00000000000E+00  0.00000000000E+00  0.45593999997E+02  0.45594000000E+02  0.51100000000E-03 0.  1.
         11   -1    0    0    0    0 -0.00000000000E+00 -0.00000000000E+00 -0.45593999997E+02  0.45594000000E+02  0.51100000000E-03 0. -1.
    9900012    2    1    2    0    0  0.23351758100E+02  0.64536919273E+01 -0.36009291714E+02  0.47787264573E+02  0.19999970496E+02 0.  0.
        -12    1    1    2    0    0 -0.23351758100E+02 -0.64536919273E+01  0.36009291714E+02  0.43400735427E+02  0.00000000000E+00 0.  1.
         11    1    3    3    0    0  0.18596767151E+02  0.48666527846E+01 -0.28763620899E+02  0.34595808203E+02  0.51100000000E-03 0. -1.
        -11    1    3    3    0    0  0.58255316651E+00 -0.37832096318E+01 -0.43656450986E+01  0.58061089120E+01  0.51100000000E-03 0.  1.
        -12    1    3    3    0    0  0.41724377825E+01  0.53702487745E+01 -0.28800257165E+01  0.73853474581E+01  0.00000000000E+00 0.  1.
</event>
<event>
 7    1  0.1457722E-010  0.4778728E+02  0.7816164E-02  0.1312668E+00
        -11   -1    0    0    0    0  0.00000000000E+00  0.00000000000E+00  0.45593999997E+02  0.45594000000E+02  0.51100000000E-03 0.  1.
         11   -1    0    0    0    0 -0.00000000000E+00 -0.00000000000E+00 -0.45593999997E+02  0.45594000000E+02  0.51100000000E-03 0. -1.
    9900012    2    1    2    0    0 -0.84944605501E+01 -0.27637866831E+02 -0.32366880523E+02  0.47787279985E+02  0.20000040764E+02 0.  0.
        -12    1    1    2    0    0  0.84944605501E+01  0.27637866831E+02  0.32366880523E+02  0.43400720015E+02  0.00000000000E+00 0.  1.
         11    1    3    3    0    0 -0.57832001020E+01 -0.19419262754E+02 -0.23932675790E+02  0.31358031508E+02  0.51100000000E-03 0. -1.
        -11    1    3    3    0    0 -0.92873194046E+00  0.10746362538E+00 -0.78381051111E+01  0.78936672999E+01  0.51100000000E-03 0.  1.
         12    1    3    3    0    0 -0.17825285076E+01 -0.83260677025E+01 -0.59609962165E+00  0.85355811769E+01  0.00000000000E+00 0. -1.
</event>
<event>
 7    1  0.1457722E-010  0.4778727E+02  0.7816164E-02  0.1312668E+00
        -11   -1    0    0    0    0  0.00000000000E+00  0.00000000000E+00  0.45593999997E+02  0.45594000000E+02  0.51100000000E-03 0.  1.
         11   -1    0    0    0    0 -0.00000000000E+00 -0.00000000000E+00 -0.45593999997E+02  0.45594000000E+02  0.51100000000E-03 0. -1.
    9900012    2    1    2    0    0 -0.90615373318E+01 -0.33913846755E+02 -0.25521815181E+02  0.47787268316E+02  0.19999987561E+02 0.  0.
        -12    1    1    2    0    0  0.90615373318E+01  0.33913846755E+02  0.25521815181E+02  0.43400731684E+02  0.00000000000E+00 0.  1.
         11    1    3    3    0    0 -0.34048445918E+01  0.57394384336E+00 -0.18173951938E+01  0.39019615299E+01  0.51100000000E-03 0. -1.
        -11    1    3    3    0    0  0.34196546100E+01 -0.15356331638E+02 -0.93101981335E+01  0.18280884786E+02  0.51100000000E-03 0.  1.
         12    1    3    3    0    0 -0.90763473500E+01 -0.19131458961E+02 -0.14394221854E+02  0.25604422000E+02  0.00000000000E+00 0. -1.
</event>
<event>
 7    1  0.1636434E-010  0.4778727E+02  0.7816164E-02  0.1312668E+00
        -11   -1    0    0    0    0  0.00000000000E+00  0.00000000000E+00  0.45593999997E+02  0.45594000000E+02  0.51100000000E-03 0.  1.
         11   -1    0    0    0    0 -0.00000000000E+00 -0.00000000000E+00 -0.45593999997E+02  0.45594000000E+02  0.51100000000E-03 0. -1.
    9900012    2    1    2    0    0  0.32875082552E+02  0.24709767136E+02 -0.13866492534E+02  0.47787271205E+02  0.20000000731E+02 0.  0.
        -12    1    1    2    0    0 -0.32875082552E+02 -0.24709767136E+02  0.13866492534E+02  0.43400728795E+02  0.00000000000E+00 0.  1.
         11    1    3    3    0    0  0.19450939111E+02  0.13636431924E+02 -0.37071734039E+01  0.24042346866E+02  0.51100000000E-03 0. -1.
        -11    1    3    3    0    0 -0.60635433078E-01  0.31458040860E+00  0.23906644631E+01  0.24120353077E+01  0.51100000000E-03 0.  1.
        -12    1    3    3    0    0  0.13484778874E+02  0.10758754804E+02 -0.12549983593E+02  0.21332889031E+02  0.00000000000E+00 0.  1.
</event>
<event>
 7    1  0.1457722E-010  0.4778727E+02  0.7816164E-02  0.1312668E+00
        -11   -1    0    0    0    0  0.00000000000E+00  0.00000000000E+00  0.45593999997E+02  0.45594000000E+02  0.51100000000E-03 0.  1.
         11   -1    0    0    0    0 -0.00000000000E+00 -0.00000000000E+00 -0.45593999997E+02  0.45594000000E+02  0.51100000000E-03 0. -1.
    9900012    2    1    2    0    0 -0.36072897317E+01 -0.34360071621E+02 -0.26267778347E+02  0.47787271431E+02  0.20000001763E+02 0.  0.
        -12    1    1    2    0    0  0.36072897317E+01  0.34360071621E+02  0.26267778347E+02  0.43400728569E+02  0.00000000000E+00 0.  1.
         11    1    3    3    0    0  0.17738746925E+01 -0.67719685683E+01 -0.30449068956E+01  0.76339798257E+01  0.51100000000E-03 0.  1.
        -11    1    3    3    0    0  0.31553002622E+01 -0.70842154295E+01  0.35336607642E+00  0.77631756286E+01  0.51100000000E-03 0. -1.
         12    1    3    3    0    0 -0.85364646864E+01 -0.20503887623E+02 -0.23576237528E+02  0.32390115977E+02  0.00000000000E+00 0. -1.
</event>
<event>
 7    1  0.1457722E-010  0.4778727E+02  0.7816164E-02  0.1312668E+00
        -11   -1    0    0    0    0  0.00000000000E+00  0.00000000000E+00  0.45593999997E+02  0.45594000000E+02  0.51100000000E-03 0.  1.
         11   -1    0    0    0    0 -0.00000000000E+00 -0.00000000000E+00 -0.45593999997E+02  0.45594000000E+02  0.51100000000E-03 0. -1.
    9900012    2    1    2    0    0  0.13376501974E+01  0.21533459322E+02 -0.37658252816E+02  0.47787272085E+02  0.20000004745E+02 0.  0.
        -12    1    1    2    0    0 -0.13376501974E+01 -0.21533459322E+02  0.37658252816E+02  0.43400727915E+02  0.00000000000E+00 0.  1.
         11    1    3    3    0    0  0.48949590970E+01  0.82250046556E+01 -0.90073991148E+01  0.13143232678E+02  0.51100000000E-03 0. -1.
        -11    1    3    3    0    0 -0.82018046382E+01  0.41234507856E+01 -0.13152671046E+02  0.16039488820E+02  0.51100000000E-03 0.  1.
        -12    1    3    3    0    0  0.46444957385E+01  0.91850038805E+01 -0.15498182655E+02  0.18604550587E+02  0.00000000000E+00 0.  1.
</event>
<event>
 7    1  0.1457722E-010  0.4778727E+02  0.7816164E-02  0.1312668E+00
        -11   -1    0    0    0    0  0.00000000000E+00  0.00000000000E+00  0.45593999997E+02  0.45594000000E+02  0.51100000000E-03 0.  1.
         11   -1    0    0    0    0 -0.00000000000E+00 -0.00000000000E+00 -0.45593999997E+02  0.45594000000E+02  0.51100000000E-03 0. -1.
    9900012    2    1    2    0    0 -0.35254252120E+01 -0.23317705144E+02 -0.36434587037E+02  0.47787272717E+02  0.20000007626E+02 0.  0.
        -12    1    1    2    0    0  0.35254252120E+01  0.23317705144E+02  0.36434587037E+02  0.43400727283E+02  0.00000000000E+00 0.  1.
         11    1    3    3    0    0 -0.48070191564E+01 -0.67981926502E+01 -0.76102669527E+01  0.11280027475E+02  0.51100000000E-03 0. -1.
        -11    1    3    3    0    0  0.52860339577E+01 -0.83766473347E+01 -0.24557658098E+02  0.26479972565E+02  0.51100000000E-03 0.  1.
        -12    1    3    3    0    0 -0.40044400134E+01 -0.81428651594E+01 -0.42666619868E+01  0.10027272677E+02  0.00000000000E+00 0.  1.
</event>
<event>
 7    1  0.1457722E-010  0.4778727E+02  0.7816164E-02  0.1312668E+00
        -11   -1    0    0    0    0  0.00000000000E+00  0.00000000000E+00  0.45593999997E+02  0.45594000000E+02  0.51100000000E-03 0.  1.
         11   -1    0    0    0    0 -0.00000000000E+00 -0.00000000000E+00 -0.45593999997E+02  0.45594000000E+02  0.51100000000E-03 0. -1.
    9900012    2    1    2    0    0 -0.10701505612E+02  0.58166877389E+01 -0.41656539872E+02  0.47787269675E+02  0.19999993757E+02 0.  0.
        -12    1    1    2    0    0  0.10701505612E+02 -0.58166877389E+01  0.41656539872E+02  0.43400730325E+02  0.00000000000E+00 0.  1.
         11    1    3    3    0    0  0.82899681113E+00  0.12551675700E+01 -0.27340205210E+02  0.27381554057E+02  0.51100000000E-03 0. -1.
        -11    1    3    3    0    0 -0.27835578170E+01  0.47794552175E+01 -0.37280776353E+01  0.66700786661E+01  0.51100000000E-03 0.  1.
        -12    1    3    3    0    0 -0.87469446064E+01 -0.21793504863E+00 -0.10588257026E+02  0.13735636952E+02  0.00000000000E+00 0.  1.
</event>
<event>
 7    1  0.1457722E-010  0.4778727E+02  0.7816164E-02  0.1312668E+00
        -11   -1    0    0    0    0  0.00000000000E+00  0.00000000000E+00  0.45593999997E+02  0.45594000000E+02  0.51100000000E-03 0.  1.
         11   -1    0    0    0    0 -0.00000000000E+00 -0.00000000000E+00 -0.45593999997E+02  0.45594000000E+02  0.51100000000E-03 0. -1.
    9900012    2    1    2    0    0  0.32384610476E+02 -0.44882784350E+01 -0.28543227103E+02  0.47787268987E+02  0.19999990620E+02 0.  0.
        -12    1    1    2    0    0 -0.32384610476E+02  0.44882784350E+01  0.28543227103E+02  0.43400731013E+02  0.00000000000E+00 0.  1.
         11    1    3    3    0    0  0.64285587464E+01  0.29185732640E+01 -0.90721267740E+01  0.11495560966E+02  0.51100000000E-03 0. -1.
        -11    1    3    3    0    0  0.54211723208E+01  0.30068239907E+01 -0.96164355847E-01  0.61999473939E+01  0.51100000000E-03 0.  1.
         12    1    3    3    0    0  0.20534879409E+02 -0.10413675690E+02 -0.19374935973E+02  0.30091760627E+02  0.00000000000E+00 0. -1.
</event>
<event>
 7    1  0.1457722E-010  0.4778725E+02  0.7816164E-02  0.1312668E+00
        -11   -1    0    0    0    0  0.00000000000E+00  0.00000000000E+00  0.45593999997E+02  0.45594000000E+02  0.51100000000E-03 0.  1.
         11   -1    0    0    0    0 -0.00000000000E+00 -0.00000000000E+00 -0.45593999997E+02  0.45594000000E+02  0.51100000000E-03 0. -1.
    9900012    2    1    2    0    0 -0.20738826845E+02  0.20874951716E+02 -0.31902386768E+02  0.47787253123E+02  0.19999918288E+02 0.  0.
        -12    1    1    2    0    0  0.20738826845E+02 -0.20874951716E+02  0.31902386768E+02  0.43400746877E+02  0.00000000000E+00 0.  1.
         11    1    3    3    0    0 -0.75047158344E+01  0.21010529772E+01 -0.93816457281E+01  0.12196329784E+02  0.51100000000E-03 0. -1.
        -11    1    3    3    0    0 -0.12021183724E+02  0.18512212336E+02 -0.12247585233E+02  0.25243102187E+02  0.51100000000E-03 0.  1.
         12    1    3    3    0    0 -0.12129272863E+01  0.26168640256E+00 -0.10273155806E+02  0.10347821152E+02  0.00000000000E+00 0. -1.
</event>
<event>
 7    1  0.1457722E-010  0.4778727E+02  0.7816164E-02  0.1312668E+00
        -11   -1    0    0    0    0  0.00000000000E+00  0.00000000000E+00  0.45593999997E+02  0.45594000000E+02  0.51100000000E-03 0.  1.
         11   -1    0    0    0    0 -0.00000000000E+00 -0.00000000000E+00 -0.45593999997E+02  0.45594000000E+02  0.51100000000E-03 0. -1.
    9900012    2    1    2    0    0  0.98299809389E+01 -0.90813265451E+01 -0.41285887298E+02  0.47787268358E+02  0.19999987753E+02 0.  0.
        -12    1    1    2    0    0 -0.98299809389E+01  0.90813265451E+01  0.41285887298E+02  0.43400731642E+02  0.00000000000E+00 0.  1.
         11    1    3    3    0    0  0.98226020026E+01  0.19218053038E+01 -0.18932668957E+02  0.21415480378E+02  0.51100000000E-03 0. -1.
        -11    1    3    3    0    0  0.95557924132E+00 -0.11299952818E+02 -0.14267992545E+02  0.18225742150E+02  0.51100000000E-03 0.  1.
        -12    1    3    3    0    0 -0.94820030502E+00  0.29682096918E+00 -0.80852257956E+01  0.81460458305E+01  0.00000000000E+00 0.  1.
</event>
<event>
 7    1  0.2228553E-010  0.4778727E+02  0.7816164E-02  0.1312668E+00
        -11   -1    0    0    0    0  0.00000000000E+00  0.00000000000E+00  0.45593999997E+02  0.45594000000E+02  0.51100000000E-03 0. -1.
         11   -1    0    0    0    0 -0.00000000000E+00 -0.00000000000E+00 -0.45593999997E+02  0.45594000000E+02  0.51100000000E-03 0.  1.
    9900012    2    1    2    0    0  0.22381730691E+02 -0.63136126139E+01  0.36644506138E+02  0.47787269556E+02  0.19999993214E+02 0.  0.
        -12    1    1    2    0    0 -0.22381730691E+02  0.63136126139E+01 -0.36644506138E+02  0.43400730444E+02  0.00000000000E+00 0.  1.
         11    1    3    3    0    0  0.17735243680E+02 -0.49988353578E+01  0.19283548986E+02  0.26671754443E+02  0.51100000000E-03 0. -1.
        -11    1    3    3    0    0  0.14122591904E+01  0.12868872804E+01 -0.10925431327E+01  0.22009556223E+01  0.51100000000E-03 0.  1.
         12    1    3    3    0    0  0.32342278207E+01 -0.26016645365E+01  0.18453500285E+02  0.18914559490E+02  0.00000000000E+00 0. -1.
</event>
<event>
 7    1  0.1591777E-010  0.4778727E+02  0.7816164E-02  0.1312668E+00
        -11   -1    0    0    0    0  0.00000000000E+00  0.00000000000E+00  0.45593999997E+02  0.45594000000E+02  0.51100000000E-03 0.  1.
         11   -1    0    0    0    0 -0.00000000000E+00 -0.00000000000E+00 -0.45593999997E+02  0.45594000000E+02  0.51100000000E-03 0. -1.
    9900012    2    1    2    0    0  0.41262532700E+02  0.11465835719E+02 -0.70399628490E+01  0.47787273388E+02  0.20000010686E+02 0.  0.
        -12    1    1    2    0    0 -0.41262532700E+02 -0.11465835719E+02  0.70399628490E+01  0.43400726612E+02  0.00000000000E+00 0.  1.
         11    1    3    3    0    0  0.69922758514E+01  0.26623114489E+01 -0.67922047900E+01  0.10105140771E+02  0.51100000000E-03 0. -1.
        -11    1    3    3    0    0  0.61469854781E+01  0.45050526116E+01  0.44826610500E+01  0.88416729103E+01  0.51100000000E-03 0.  1.
         12    1    3    3    0    0  0.28123271370E+02  0.42984716582E+01 -0.47304191090E+01  0.28840459707E+02  0.00000000000E+00 0. -1.
</event>
<event>
 7    1  0.1457722E-010  0.4778727E+02  0.7816164E-02  0.1312668E+00
        -11   -1    0    0    0    0  0.00000000000E+00  0.00000000000E+00  0.45593999997E+02  0.45594000000E+02  0.51100000000E-03 0. -1.
         11   -1    0    0    0    0 -0.00000000000E+00 -0.00000000000E+00 -0.45593999997E+02  0.45594000000E+02  0.51100000000E-03 0.  1.
    9900012    2    1    2    0    0 -0.85847299247E+00 -0.70507593339E+01  0.42815573766E+02  0.47787267979E+02  0.19999986021E+02 0.  0.
        -12    1    1    2    0    0  0.85847299247E+00  0.70507593339E+01 -0.42815573766E+02  0.43400732021E+02  0.00000000000E+00 0.  1.
         11    1    3    3    0    0 -0.54606993927E+01 -0.36334319884E+01  0.11931277286E+02  0.13615301826E+02  0.51100000000E-03 0. -1.
        -11    1    3    3    0    0  0.40774274970E+01 -0.23403605375E+01  0.17553012578E+01  0.50183448672E+01  0.51100000000E-03 0.  1.
         12    1    3    3    0    0  0.52479890317E+00 -0.10769668079E+01  0.29128995222E+02  0.29153621285E+02  0.00000000000E+00 0. -1.
</event>
<event>
 7    1  0.1457722E-010  0.4778727E+02  0.7816164E-02  0.1312668E+00
        -11   -1    0    0    0    0  0.00000000000E+00  0.00000000000E+00  0.45593999997E+02  0.45594000000E+02  0.51100000000E-03 0. -1.
         11   -1    0    0    0    0 -0.00000000000E+00 -0.00000000000E+00 -0.45593999997E+02  0.45594000000E+02  0.51100000000E-03 0.  1.
    9900012    2    1    2    0    0  0.10927153239E+01 -0.42121754098E+02 -0.10401316046E+02  0.47787267626E+02  0.19999984416E+02 0.  0.
        -12    1    1    2    0    0 -0.10927153239E+01  0.42121754098E+02  0.10401316046E+02  0.43400732374E+02  0.00000000000E+00 0.  1.
         11    1    3    3    0    0 -0.36549472669E+00 -0.12856820641E+02  0.36642692475E+01  0.13373791264E+02  0.51100000000E-03 0. -1.
        -11    1    3    3    0    0 -0.12259420947E-02  0.73198852973E+00  0.64151531275E+00  0.97331950982E+00  0.51100000000E-03 0.  1.
        -12    1    3    3    0    0  0.14594359927E+01 -0.29996921987E+02 -0.14707100606E+02  0.33440156853E+02  0.00000000000E+00 0.  1.
</event>
<event>
 7    1  0.1457722E-010  0.4778726E+02  0.7816164E-02  0.1312668E+00
        -11   -1    0    0    0    0  0.00000000000E+00  0.00000000000E+00  0.45593999997E+02  0.45594000000E+02  0.51100000000E-03 0. -1.
         11   -1    0    0    0    0 -0.00000000000E+00 -0.00000000000E+00 -0.45593999997E+02  0.45594000000E+02  0.51100000000E-03 0.  1.
    9900012    2    1    2    0    0  0.25195774414E+02 -0.10194230243E+02  0.33835997924E+02  0.47787261135E+02  0.19999954817E+02 0.  0.
        -12    1    1    2    0    0 -0.25195774414E+02  0.10194230243E+02 -0.33835997924E+02  0.43400738865E+02  0.00000000000E+00 0.  1.
         11    1    3    3    0    0  0.34409594056E+01 -0.29868020779E+00 -0.16488431302E+01  0.38272830346E+01  0.51100000000E-03 0. -1.
        -11    1    3    3    0    0  0.12607070829E+02 -0.23392709623E+00  0.16147703412E+02  0.20487588499E+02  0.51100000000E-03 0.  1.
         12    1    3    3    0    0  0.91477441799E+01 -0.96616229385E+01  0.19337137642E+02  0.23472389601E+02  0.00000000000E+00 0. -1.
</event>
<event>
 7    1  0.1457722E-010  0.4778727E+02  0.7816164E-02  0.1312668E+00
        -11   -1    0    0    0    0  0.00000000000E+00  0.00000000000E+00  0.45593999997E+02  0.45594000000E+02  0.51100000000E-03 0.  1.
         11   -1    0    0    0    0 -0.00000000000E+00 -0.00000000000E+00 -0.45593999997E+02  0.45594000000E+02  0.51100000000E-03 0. -1.
    9900012    2    1    2    0    0 -0.34726728822E+02 -0.14713583228E+02 -0.21475283324E+02  0.47787273970E+02  0.20000013341E+02 0.  0.
        -12    1    1    2    0    0  0.34726728822E+02  0.14713583228E+02  0.21475283324E+02  0.43400726030E+02  0.00000000000E+00 0.  1.
         11    1    3    3    0    0 -0.17500983976E+02 -0.58741873470E+01 -0.14578523490E+02  0.23522837085E+02  0.51100000000E-03 0. -1.
        -11    1    3    3    0    0 -0.12102358539E+01  0.30655732472E+01 -0.12551445260E+01  0.35267262721E+01  0.51100000000E-03 0.  1.
         12    1    3    3    0    0 -0.16015508992E+02 -0.11904969128E+02 -0.56416153079E+01  0.20737710613E+02  0.00000000000E+00 0. -1.
</event>
<event>
 7    1  0.1457722E-010  0.4778727E+02  0.7816164E-02  0.1312668E+00
        -11   -1    0    0    0    0  0.00000000000E+00  0.00000000000E+00  0.45593999997E+02  0.45594000000E+02  0.51100000000E-03 0.  1.
         11   -1    0    0    0    0 -0.00000000000E+00 -0.00000000000E+00 -0.45593999997E+02  0.45594000000E+02  0.51100000000E-03 0. -1.
    9900012    2    1    2    0    0  0.13699488977E+02  0.35314546542E+02 -0.21185609774E+02  0.47787271236E+02  0.20000000874E+02 0.  0.
        -12    1    1    2    0    0 -0.13699488977E+02 -0.35314546542E+02  0.21185609774E+02  0.43400728764E+02  0.00000000000E+00 0.  1.
         11    1    3    3    0    0  0.19983747261E+01  0.49396758644E+01 -0.76399703517E+01  0.93146683476E+01  0.51100000000E-03 0. -1.
        -11    1    3    3    0    0 -0.70414479317E+00  0.87849176893E+01  0.21068602455E+01  0.90614269876E+01  0.51100000000E-03 0.  1.
        -12    1    3    3    0    0  0.12405259044E+02  0.21589952989E+02 -0.15652499668E+02  0.29411175901E+02  0.00000000000E+00 0.  1.
</event>
<event>
 7    1  0.1457722E-010  0.4778727E+02  0.7816164E-02  0.1312668E+00
        -11   -1    0    0    0    0  0.00000000000E+00  0.00000000000E+00  0.45593999997E+02  0.45594000000E+02  0.51100000000E-03 0.  1.
         11   -1    0    0    0    0 -0.00000000000E+00 -0.00000000000E+00 -0.45593999997E+02  0.45594000000E+02  0.51100000000E-03 0. -1.
    9900012    2    1    2    0    0  0.12205000069E+02 -0.40568576742E+02 -0.94261265981E+01  0.47787270649E+02  0.19999998197E+02 0.  0.
        -12    1    1    2    0    0 -0.12205000069E+02  0.40568576742E+02  0.94261265981E+01  0.43400729351E+02  0.00000000000E+00 0.  1.
         11    1    3    3    0    0  0.14624667505E+02 -0.30019084581E+02 -0.12507695738E+02  0.35657661051E+02  0.51100000000E-03 0. -1.
        -11    1    3    3    0    0  0.14813628801E+00 -0.49428990864E+01 -0.54591532725E+00  0.49751602531E+01  0.51100000000E-03 0.  1.
        -12    1    3    3    0    0 -0.25678037237E+01 -0.56065930748E+01  0.36274844673E+01  0.71544493450E+01  0.00000000000E+00 0.  1.
</event>
<event>
 7    1  0.1457722E-010  0.4778727E+02  0.7816164E-02  0.1312668E+00
        -11   -1    0    0    0    0  0.00000000000E+00  0.00000000000E+00  0.45593999997E+02  0.45594000000E+02  0.51100000000E-03 0.  1.
         11   -1    0    0    0    0 -0.00000000000E+00 -0.00000000000E+00 -0.45593999997E+02  0.45594000000E+02  0.51100000000E-03 0. -1.
    9900012    2    1    2    0    0 -0.17953694481E+02 -0.43081931230E+01 -0.39277569587E+02  0.47787272516E+02  0.20000006711E+02 0.  0.
        -12    1    1    2    0    0  0.17953694481E+02  0.43081931230E+01  0.39277569587E+02  0.43400727484E+02  0.00000000000E+00 0.  1.
         11    1    3    3    0    0 -0.96928073628E+01 -0.42218012478E+00 -0.89051986434E+01  0.13169332321E+02  0.51100000000E-03 0.  1.
        -11    1    3    3    0    0 -0.82105262638E+01  0.34520446648E+01 -0.12991540525E+02  0.15751491338E+02  0.51100000000E-03 0. -1.
         12    1    3    3    0    0 -0.50360853946E-01 -0.73380576629E+01 -0.17380830419E+02  0.18866448858E+02  0.00000000000E+00 0. -1.
</event>
<event>
 7    1  0.1457722E-010  0.4778727E+02  0.7816164E-02  0.1312668E+00
        -11   -1    0    0    0    0  0.00000000000E+00  0.00000000000E+00  0.45593999997E+02  0.45594000000E+02  0.51100000000E-03 0. -1.
         11   -1    0    0    0    0 -0.00000000000E+00 -0.00000000000E+00 -0.45593999997E+02  0.45594000000E+02  0.51100000000E-03 0.  1.
    9900012    2    1    2    0    0 -0.28299699407E+01  0.10912411005E+02  0.41911019870E+02  0.47787273850E+02  0.20000012789E+02 0.  0.
        -12    1    1    2    0    0  0.28299699407E+01 -0.10912411005E+02 -0.41911019870E+02  0.43400726150E+02  0.00000000000E+00 0.  1.
         11    1    3    3    0    0 -0.36904098582E+01  0.54343398537E+01  0.21783095655E+01  0.69207085902E+01  0.51100000000E-03 0. -1.
        -11    1    3    3    0    0 -0.17627869207E+01 -0.13249225451E+01  0.11354341987E+02  0.11566499890E+02  0.51100000000E-03 0.  1.
         12    1    3    3    0    0  0.26232268381E+01  0.68029936966E+01  0.28378368318E+02  0.29300065370E+02  0.00000000000E+00 0. -1.
</event>
<event>
 7    1  0.1457722E-010  0.4778725E+02  0.7816164E-02  0.1312668E+00
        -11   -1    0    0    0    0  0.00000000000E+00  0.00000000000E+00  0.45593999997E+02  0.45594000000E+02  0.51100000000E-03 0.  1.
         11   -1    0    0    0    0 -0.00000000000E+00 -0.00000000000E+00 -0.45593999997E+02  0.45594000000E+02  0.51100000000E-03 0. -1.
    9900012    2    1    2    0    0 -0.24729419509E+02 -0.25971495704E+02 -0.24445089465E+02  0.47787249116E+02  0.19999900019E+02 0.  0.
        -12    1    1    2    0    0  0.24729419509E+02  0.25971495704E+02  0.24445089465E+02  0.43400750884E+02  0.00000000000E+00 0.  1.
         11    1    3    3    0    0 -0.40257066292E+01 -0.11515617630E+02 -0.66773899383E+01  0.13906951496E+02  0.51100000000E-03 0. -1.
        -11    1    3    3    0    0 -0.11038319578E+02 -0.70817697255E+01 -0.97777955382E+00  0.13151122183E+02  0.51100000000E-03 0.  1.
        -12    1    3    3    0    0 -0.96653933012E+01 -0.73741083487E+01 -0.16789919973E+02  0.20729175437E+02  0.00000000000E+00 0.  1.
</event>
<event>
 7    1  0.1457722E-010  0.4778727E+02  0.7816164E-02  0.1312668E+00
        -11   -1    0    0    0    0  0.00000000000E+00  0.00000000000E+00  0.45593999997E+02  0.45594000000E+02  0.51100000000E-03 0.  1.
         11   -1    0    0    0    0 -0.00000000000E+00 -0.00000000000E+00 -0.45593999997E+02  0.45594000000E+02  0.51100000000E-03 0. -1.
    9900012    2    1    2    0    0 -0.13245438042E+02  0.13945178056E+02 -0.38906472994E+02  0.47787271195E+02  0.20000000686E+02 0.  0.
        -12    1    1    2    0    0  0.13245438042E+02 -0.13945178056E+02  0.38906472994E+02  0.43400728805E+02  0.00000000000E+00 0.  1.
         11    1    3    3    0    0 -0.79683569331E+00  0.67281263029E+01 -0.17447244708E+02  0.18716542919E+02  0.51100000000E-03 0. -1.
        -11    1    3    3    0    0  0.96967891047E+00  0.48276012975E+01 -0.10444136748E+02  0.11546688017E+02  0.51100000000E-03 0.  1.
        -12    1    3    3    0    0 -0.13418281259E+02  0.23894504559E+01 -0.11015091538E+02  0.17524040260E+02  0.00000000000E+00 0.  1.
</event>
<event>
 7    1  0.1457722E-010  0.4778727E+02  0.7816164E-02  0.1312668E+00
        -11   -1    0    0    0    0  0.00000000000E+00  0.00000000000E+00  0.45593999997E+02  0.45594000000E+02  0.51100000000E-03 0.  1.
         11   -1    0    0    0    0 -0.00000000000E+00 -0.00000000000E+00 -0.45593999997E+02  0.45594000000E+02  0.51100000000E-03 0. -1.
    9900012    2    1    2    0    0 -0.16089362097E+02 -0.37287202993E+02 -0.15310781150E+02  0.47787273057E+02  0.20000009175E+02 0.  0.
        -12    1    1    2    0    0  0.16089362097E+02  0.37287202993E+02  0.15310781150E+02  0.43400726943E+02  0.00000000000E+00 0.  1.
         11    1    3    3    0    0 -0.97923293278E+01 -0.77797096535E+01 -0.48071563827E+01  0.13398595027E+02  0.51100000000E-03 0. -1.
        -11    1    3    3    0    0  0.35204499228E+00 -0.83249109036E+01  0.24491742073E+01  0.86848449490E+01  0.51100000000E-03 0.  1.
        -12    1    3    3    0    0 -0.66490777616E+01 -0.21182582436E+02 -0.12952798975E+02  0.25703833081E+02  0.00000000000E+00 0.  1.
</event>
<event>
 7    1  0.1457722E-010  0.4778728E+02  0.7816164E-02  0.1312668E+00
        -11   -1    0    0    0    0  0.00000000000E+00  0.00000000000E+00  0.45593999997E+02  0.45594000000E+02  0.51100000000E-03 0.  1.
         11   -1    0    0    0    0 -0.00000000000E+00 -0.00000000000E+00 -0.45593999997E+02  0.45594000000E+02  0.51100000000E-03 0. -1.
    9900012    2    1    2    0    0  0.24794876842E+02 -0.35445030486E+02 -0.35336062080E+01  0.47787280229E+02  0.20000041877E+02 0.  0.
        -12    1    1    2    0    0 -0.24794876842E+02  0.35445030486E+02  0.35336062080E+01  0.43400719771E+02  0.00000000000E+00 0.  1.
         11    1    3    3    0    0  0.29399600822E+01 -0.88548424882E+01 -0.37245316792E+01  0.10046080692E+02  0.51100000000E-03 0.  1.
        -11    1    3    3    0    0  0.85360551890E+01 -0.20968549223E+02 -0.32744245445E+01  0.22875011499E+02  0.51100000000E-03 0. -1.
         12    1    3    3    0    0  0.13318861571E+02 -0.56216387749E+01  0.34653500157E+01  0.14866188038E+02  0.00000000000E+00 0. -1.
</event>
<event>
 7    1  0.1457722E-010  0.4778728E+02  0.7816164E-02  0.1312668E+00
        -11   -1    0    0    0    0  0.00000000000E+00  0.00000000000E+00  0.45593999997E+02  0.45594000000E+02  0.51100000000E-03 0.  1.
         11   -1    0    0    0    0 -0.00000000000E+00 -0.00000000000E+00 -0.45593999997E+02  0.45594000000E+02  0.51100000000E-03 0. -1.
    9900012    2    1    2    0    0  0.36462321167E+02  0.54195916014E+01 -0.22907412052E+02  0.47787281516E+02  0.20000047745E+02 0.  0.
        -12    1    1    2    0    0 -0.36462321167E+02 -0.54195916014E+01  0.22907412052E+02  0.43400718484E+02  0.00000000000E+00 0.  1.
         11    1    3    3    0    0  0.18058318172E+02  0.36351987903E+01 -0.77514894636E+01  0.19985072294E+02  0.51100000000E-03 0. -1.
        -11    1    3    3    0    0  0.24629670023E+01 -0.49624261166E+01 -0.61931600095E+01  0.83094591028E+01  0.51100000000E-03 0.  1.
        -12    1    3    3    0    0  0.15941035993E+02  0.67468189277E+01 -0.89627625789E+01  0.19492750119E+02  0.00000000000E+00 0.  1.
</event>
<event>
 7    1  0.1457722E-010  0.4778728E+02  0.7816164E-02  0.1312668E+00
        -11   -1    0    0    0    0  0.00000000000E+00  0.00000000000E+00  0.45593999997E+02  0.45594000000E+02  0.51100000000E-03 0.  1.
         11   -1    0    0    0    0 -0.00000000000E+00 -0.00000000000E+00 -0.45593999997E+02  0.45594000000E+02  0.51100000000E-03 0. -1.
    9900012    2    1    2    0    0 -0.34433903121E+02 -0.18195974867E+02 -0.19152955371E+02  0.47787275525E+02  0.20000020430E+02 0.  0.
        -12    1    1    2    0    0  0.34433903121E+02  0.18195974867E+02  0.19152955371E+02  0.43400724475E+02  0.00000000000E+00 0.  1.
         11    1    3    3    0    0 -0.16758813629E+02 -0.95511608518E+01 -0.59742464928E+01  0.20193417969E+02  0.51100000000E-03 0. -1.
        -11    1    3    3    0    0 -0.25824249247E+01 -0.75864460429E+01 -0.86703873410E+01  0.11806722617E+02  0.51100000000E-03 0.  1.
         12    1    3    3    0    0 -0.15092664567E+02 -0.10583679727E+01 -0.45083215371E+01  0.15787134939E+02  0.00000000000E+00 0. -1.
</event>
<event>
 7    1  0.1457722E-010  0.4778722E+02  0.7816164E-02  0.1312668E+00
        -11   -1    0    0    0    0  0.00000000000E+00  0.00000000000E+00  0.45593999997E+02  0.45594000000E+02  0.51100000000E-03 0. -1.
         11   -1    0    0    0    0 -0.00000000000E+00 -0.00000000000E+00 -0.45593999997E+02  0.45594000000E+02  0.51100000000E-03 0.  1.
    9900012    2    1    2    0    0 -0.34183591239E+02 -0.15534809216E+02  0.21766471451E+02  0.47787222509E+02  0.19999778708E+02 0.  0.
        -12    1    1    2    0    0  0.34183591239E+02  0.15534809216E+02 -0.21766471451E+02  0.43400777491E+02  0.00000000000E+00 0.  1.
         11    1    3    3    0    0 -0.17502330180E+02 -0.14121565373E+02  0.12049638070E+02  0.25513603199E+02  0.51100000000E-03 0. -1.
        -11    1    3    3    0    0 -0.12889544626E+01 -0.42876726410E+00  0.63408378526E+01  0.64847104721E+01  0.51100000000E-03 0.  1.
         12    1    3    3    0    0 -0.15392306596E+02 -0.98447657842E+00  0.33759955286E+01  0.15788908838E+02  0.00000000000E+00 0. -1.
</event>
<event>
 7    1  0.1457722E-010  0.4778727E+02  0.7816164E-02  0.1312668E+00
        -11   -1    0    0    0    0  0.00000000000E+00  0.00000000000E+00  0.45593999997E+02  0.45594000000E+02  0.51100000000E-03 0. -1.
         11   -1    0    0    0    0 -0.00000000000E+00 -0.00000000000E+00 -0.45593999997E+02  0.45594000000E+02  0.51100000000E-03 0.  1.
    9900012    2    1    2    0    0 -0.82902165592E+01  0.23715668722E+02  0.35390152376E+02  0.47787268223E+02  0.19999987137E+02 0.  0.
        -12    1    1    2    0    0  0.82902165592E+01 -0.23715668722E+02 -0.35390152376E+02  0.43400731777E+02  0.00000000000E+00 0.  1.
         11    1    3    3    0    0 -0.93203679097E+01  0.22289662514E+02  0.20781315406E+02  0.31867873842E+02  0.51100000000E-03 0. -1.
        -11    1    3    3    0    0  0.24326377101E+01  0.11814601476E+01  0.23636128819E+01  0.35916904691E+01  0.51100000000E-03 0.  1.
         12    1    3    3    0    0 -0.14024863596E+01  0.24454606087E+00  0.12245224089E+02  0.12327703912E+02  0.00000000000E+00 0. -1.
</event>
<event>
 7    1  0.1457722E-010  0.4778727E+02  0.7816164E-02  0.1312668E+00
        -11   -1    0    0    0    0  0.00000000000E+00  0.00000000000E+00  0.45593999997E+02  0.45594000000E+02  0.51100000000E-03 0.  1.
         11   -1    0    0    0    0 -0.00000000000E+00 -0.00000000000E+00 -0.45593999997E+02  0.45594000000E+02  0.51100000000E-03 0. -1.
    9900012    2    1    2    0    0  0.38082005836E+02 -0.18662449610E+02 -0.92248266124E+01  0.47787267057E+02  0.19999981820E+02 0.  0.
        -12    1    1    2    0    0 -0.38082005836E+02  0.18662449610E+02  0.92248266124E+01  0.43400732943E+02  0.00000000000E+00 0.  1.
         11    1    3    3    0    0  0.26091669800E+02 -0.17487944770E+02 -0.48222018337E+01  0.31778248473E+02  0.51100000000E-03 0. -1.
        -11    1    3    3    0    0 -0.43358028368E-01 -0.28187220565E+01 -0.23942534947E+01  0.36985840545E+01  0.51100000000E-03 0.  1.
        -12    1    3    3    0    0  0.12033694064E+02  0.16442172163E+01 -0.20083712841E+01  0.12310434530E+02  0.00000000000E+00 0.  1.
</event>
<event>
 7    1  0.1457722E-010  0.4778727E+02  0.7816164E-02  0.1312668E+00
        -11   -1    0    0    0    0  0.00000000000E+00  0.00000000000E+00  0.45593999997E+02  0.45594000000E+02  0.51100000000E-03 0.  1.
         11   -1    0    0    0    0 -0.00000000000E+00 -0.00000000000E+00 -0.45593999997E+02  0.45594000000E+02  0.51100000000E-03 0. -1.
    9900012    2    1    2    0    0  0.74106382626E+00  0.19017464335E+02 -0.39005258584E+02  0.47787270484E+02  0.19999997443E+02 0.  0.
        -12    1    1    2    0    0 -0.74106382626E+00 -0.19017464335E+02  0.39005258584E+02  0.43400729516E+02  0.00000000000E+00 0.  1.
         11    1    3    3    0    0  0.39184125952E+01  0.91275805138E+01 -0.87543018582E+01  0.13240259989E+02  0.51100000000E-03 0. -1.
        -11    1    3    3    0    0 -0.13279105918E+01 -0.31966139685E+01 -0.66794711950E+01  0.75230993021E+01  0.51100000000E-03 0.  1.
         12    1    3    3    0    0 -0.18494381772E+01  0.13086497790E+02 -0.23571485531E+02  0.27023911192E+02  0.00000000000E+00 0. -1.
</event>
<event>
 7    1  0.1457722E-010  0.4778727E+02  0.7816164E-02  0.1312668E+00
        -11   -1    0    0    0    0  0.00000000000E+00  0.00000000000E+00  0.45593999997E+02  0.45594000000E+02  0.51100000000E-03 0. -1.
         11   -1    0    0    0    0 -0.00000000000E+00 -0.00000000000E+00 -0.45593999997E+02  0.45594000000E+02  0.51100000000E-03 0.  1.
    9900012    2    1    2    0    0  0.33852410004E+02 -0.26270238453E+02  0.68929204411E+01  0.47787269089E+02  0.19999991083E+02 0.  0.
        -12    1    1    2    0    0 -0.33852410004E+02  0.26270238453E+02 -0.68929204411E+01  0.43400730911E+02  0.00000000000E+00 0.  1.
         11    1    3    3    0    0  0.14825462735E+01  0.36538922620E+00  0.40454892613E+01  0.43240532333E+01  0.51100000000E-03 0. -1.
        -11    1    3    3    0    0  0.14508794564E+01  0.99526229793E+00 -0.58753812934E+00  0.18549392317E+01  0.51100000000E-03 0.  1.
        -12    1    3    3    0    0  0.30918984274E+02 -0.27630889977E+02  0.34349693092E+01  0.41608276624E+02  0.00000000000E+00 0.  1.
</event>
<event>
 7    1  0.1457722E-010  0.4778727E+02  0.7816164E-02  0.1312668E+00
        -11   -1    0    0    0    0  0.00000000000E+00  0.00000000000E+00  0.45593999997E+02  0.45594000000E+02  0.51100000000E-03 0. -1.
         11   -1    0    0    0    0 -0.00000000000E+00 -0.00000000000E+00 -0.45593999997E+02  0.45594000000E+02  0.51100000000E-03 0.  1.
    9900012    2    1    2    0    0  0.33913665695E+02  0.26947991400E+02  0.27004113664E+01  0.47787272092E+02  0.20000004778E+02 0.  0.
        -12    1    1    2    0    0 -0.33913665695E+02 -0.26947991400E+02 -0.27004113664E+01  0.43400727908E+02  0.00000000000E+00 0.  1.
         11    1    3    3    0    0  0.17694268905E+01  0.18492397208E+01 -0.10205672009E+01  0.27553795997E+01  0.51100000000E-03 0. -1.
        -11    1    3    3    0    0  0.12239543075E+01  0.81776927880E+01 -0.36226255723E+01  0.90275212423E+01  0.51100000000E-03 0.  1.
        -12    1    3    3    0    0  0.30920284497E+02  0.16921058891E+02  0.73436041396E+01  0.36004371250E+02  0.00000000000E+00 0.  1.
</event>
<event>
 7    1  0.1457722E-010  0.4778726E+02  0.7816164E-02  0.1312668E+00
        -11   -1    0    0    0    0  0.00000000000E+00  0.00000000000E+00  0.45593999997E+02  0.45594000000E+02  0.51100000000E-03 0.  1.
         11   -1    0    0    0    0 -0.00000000000E+00 -0.00000000000E+00 -0.45593999997E+02  0.45594000000E+02  0.51100000000E-03 0. -1.
    9900012    2    1    2    0    0  0.99054778548E+01 -0.14930550964E+02 -0.39529536020E+02  0.47787261970E+02  0.19999958626E+02 0.  0.
        -12    1    1    2    0    0 -0.99054778548E+01  0.14930550964E+02  0.39529536020E+02  0.43400738030E+02  0.00000000000E+00 0.  1.
         11    1    3    3    0    0  0.67801384172E+01 -0.42829983345E+01 -0.12422090847E+02  0.14785895068E+02  0.51100000000E-03 0.  1.
        -11    1    3    3    0    0  0.72008895302E+01 -0.76925862110E+01 -0.79667848238E+01  0.13209782486E+02  0.51100000000E-03 0. -1.
        -12    1    3    3    0    0 -0.40755500926E+01 -0.29549664183E+01 -0.19140660349E+02  0.19791584416E+02  0.00000000000E+00 0.  1.
</event>
<event>
 7    1  0.1457722E-010  0.4778726E+02  0.7816164E-02  0.1312668E+00
        -11   -1    0    0    0    0  0.00000000000E+00  0.00000000000E+00  0.45593999997E+02  0.45594000000E+02  0.51100000000E-03 0.  1.
         11   -1    0    0    0    0 -0.00000000000E+00 -0.00000000000E+00 -0.45593999997E+02  0.45594000000E+02  0.51100000000E-03 0. -1.
    9900012    2    1    2    0    0  0.38971894009E+02 -0.16021396186E+02  0.10398565309E+02  0.47787264765E+02  0.19999971372E+02 0.  0.
        -12    1    1    2    0    0 -0.38971894009E+02  0.16021396186E+02 -0.10398565309E+02  0.43400735235E+02  0.00000000000E+00 0.  1.
         11    1    3    3    0    0  0.35626716304E+02 -0.18756983095E+02  0.70297785344E+01  0.40871813221E+02  0.51100000000E-03 0. -1.
        -11    1    3    3    0    0  0.51203082087E+00  0.52690617698E-01  0.29461192539E+01  0.29907475290E+01  0.51100000000E-03 0.  1.
         12    1    3    3    0    0  0.28331468842E+01  0.26828962915E+01  0.42266752104E+00  0.39247040158E+01  0.00000000000E+00 0. -1.
</event>
<event>
 7    1  0.1457722E-010  0.4778727E+02  0.7816164E-02  0.1312668E+00
        -11   -1    0    0    0    0  0.00000000000E+00  0.00000000000E+00  0.45593999997E+02  0.45594000000E+02  0.51100000000E-03 0. -1.
         11   -1    0    0    0    0 -0.00000000000E+00 -0.00000000000E+00 -0.45593999997E+02  0.45594000000E+02  0.51100000000E-03 0.  1.
    9900012    2    1    2    0    0  0.53195679666E+01  0.18858925524E+02  0.38725529769E+02  0.47787268081E+02  0.19999986486E+02 0.  0.
        -12    1    1    2    0    0 -0.53195679666E+01 -0.18858925524E+02 -0.38725529769E+02  0.43400731919E+02  0.00000000000E+00 0.  1.
         11    1    3    3    0    0 -0.15658231650E+00  0.77401855497E+01  0.94749711227E+01  0.12235606581E+02  0.51100000000E-03 0. -1.
        -11    1    3    3    0    0  0.22433029581E+01 -0.32540894980E+01  0.16853395295E+01  0.42967285479E+01  0.51100000000E-03 0.  1.
        -12    1    3    3    0    0  0.32328473250E+01  0.14372829473E+02  0.27565219117E+02  0.31254932952E+02  0.00000000000E+00 0.  1.
</event>
<event>
 7    1  0.1457722E-010  0.4778727E+02  0.7816164E-02  0.1312668E+00
        -11   -1    0    0    0    0  0.00000000000E+00  0.00000000000E+00  0.45593999997E+02  0.45594000000E+02  0.51100000000E-03 0. -1.
         11   -1    0    0    0    0 -0.00000000000E+00 -0.00000000000E+00 -0.45593999997E+02  0.45594000000E+02  0.51100000000E-03 0.  1.
    9900012    2    1    2    0    0  0.42578706291E+02  0.17090517824E+01  0.82314120842E+01  0.47787271523E+02  0.20000002183E+02 0.  0.
        -12    1    1    2    0    0 -0.42578706291E+02 -0.17090517824E+01 -0.82314120842E+01  0.43400728477E+02  0.00000000000E+00 0.  1.
         11    1    3    3    0    0  0.90554971793E+01  0.45313589470E+01  0.66480709950E+01  0.12113302245E+02  0.51100000000E-03 0.  1.
        -11    1    3    3    0    0  0.32736151347E+02 -0.45332021686E+01  0.31851130021E+01  0.33201663694E+02  0.51100000000E-03 0. -1.
         12    1    3    3    0    0  0.78705776441E+00  0.17108950041E+01 -0.16017719129E+01  0.24723055840E+01  0.00000000000E+00 0. -1.
</event>
<event>
 7    1  0.1506493E-010  0.4778727E+02  0.7816164E-02  0.1312668E+00
        -11   -1    0    0    0    0  0.00000000000E+00  0.00000000000E+00  0.45593999997E+02  0.45594000000E+02  0.51100000000E-03 0. -1.
         11   -1    0    0    0    0 -0.00000000000E+00 -0.00000000000E+00 -0.45593999997E+02  0.45594000000E+02  0.51100000000E-03 0.  1.
    9900012    2    1    2    0    0  0.29135495656E+01 -0.34262366088E+02  0.26480658241E+02  0.47787265422E+02  0.19999974364E+02 0.  0.
        -12    1    1    2    0    0 -0.29135495656E+01  0.34262366088E+02 -0.26480658241E+02  0.43400734578E+02  0.00000000000E+00 0.  1.
         11    1    3    3    0    0 -0.41827411996E+01 -0.28263734151E+02  0.24018839741E+02  0.37326112238E+02  0.51100000000E-03 0. -1.
        -11    1    3    3    0    0  0.15508110918E+01 -0.24649123773E+01 -0.93675722747E+00  0.30591375312E+01  0.51100000000E-03 0.  1.
         12    1    3    3    0    0  0.55454796734E+01 -0.35337195606E+01  0.33985757277E+01  0.74020156523E+01  0.00000000000E+00 0. -1.
</event>
